----- GAMESS execution script 'rungms' -----
This job is running on host pietdev
under operating system Linux at vr 22 mei 2020 21:52:34 CEST
Available scratch disk space (Kbyte units) at beginning of the job is
Filesystem     1K-blocks     Used Available Use% Mounted on
/dev/sda2      244568380 31369368 200705956  14% /
GAMESS temporary binary files will be written to /home/piet/scr
GAMESS supplementary output files will be written to /home/piet/gamess/scr
Copying input file lactose_charge_geodisk.inp to your run's scratch directory...
cp lactose_charge_geodisk.inp /home/piet/scr/lactose_charge_geodisk.F05
unset echo
 
Assuming a single but multicore node.
 
/home/piet/gamess/ddikick.x /home/piet/gamess/gamess.03.x lactose_charge_geodisk -ddi 1 8 pietdev:cpus=8 -scr /home/piet/scr

 Distributed Data Interface kickoff program.
 Initiating 8 compute processes on 1 nodes to run the following command:
 /home/piet/gamess/gamess.03.x lactose_charge_geodisk 

          ******************************************************
          *         GAMESS VERSION = 30 SEP 2019 (R2)          *
          *             FROM IOWA STATE UNIVERSITY             *
          * M.W.SCHMIDT, K.K.BALDRIDGE, J.A.BOATZ, S.T.ELBERT, *
          *   M.S.GORDON, J.H.JENSEN, S.KOSEKI, N.MATSUNAGA,   *
          *          K.A.NGUYEN, S.J.SU, T.L.WINDUS,           *
          *       TOGETHER WITH M.DUPUIS, J.A.MONTGOMERY       *
          *         J.COMPUT.CHEM.  14, 1347-1363(1993)        *
          **************** 64 BIT LINUX VERSION ****************

  SINCE 1993, STUDENTS AND POSTDOCS WORKING AT IOWA STATE UNIVERSITY
  AND ALSO IN THEIR VARIOUS JOBS AFTER LEAVING ISU HAVE MADE IMPORTANT
  CONTRIBUTIONS TO THE CODE:
     IVANA ADAMOVIC, CHRISTINE AIKENS, YURI ALEXEEV, POOJA ARORA,
     ANDREY ASADCHEV, ROB BELL, PRADIPTA BANDYOPADHYAY, JONATHAN BENTZ,
     COLLEEN BERTONI, BRETT BODE, KURT BRORSEN, CALEB CARLIN, GALINA CHABAN,
     WEI CHEN, CHEOL HO CHOI, PAUL DAY, ALBERT DEFUSCO, NUWAN DESILVA,
     TIM DUDLEY, DMITRI FEDOROV, ALEX FINDLATER, GRAHAM FLETCHER, 
     MARK FREITAG, KURT GLAESEMANN, EMILIE B GUIDEZ, ANASTASIA GUNINA, 
     DAN KEMP, SAROM SOK LEANG, GRANT MERRILL,
     NORIYUKI MINEZAWA, JONATHAN MULLIN,
     TAKESHI NAGATA, SEAN NEDD, HEATHER NETZLOFF, BOSILJKA NJEGIC, RYAN OLSON,
     MIKE PAK, BUU PHAM, DAVID POOLE,
     SPENCER PRUITT, LUKE ROSKOP, TOSAPORN SATTASATHUCHANA,
     JIM SHOEMAKER, LYUDMILA SLIPCHENKO,
     TONY SMITH, JIE SONG, TETSUYA TAKETSUGU, SIMON WEBB,
     JORGE LUIS GALVEZ VALLEJO, PENG XU, SOOHAENG YOO,
     FEDERICO ZAHARIEV

  ADDITIONAL CODE HAS BEEN PROVIDED BY COLLABORATORS IN OTHER GROUPS:
     IOWA STATE UNIVERSITY:
          JOE IVANIC, AARON WEST, LAIMUTIS BYTAUTAS, KLAUS RUEDENBERG
     UNIVERSITY OF TOKYO: KIMIHIKO HIRAO, TAKAHITO NAKAJIMA,
          TAKAO TSUNEDA, MUNEAKI KAMIYA, SUSUMU YANAGISAWA,
          KIYOSHI YAGI, MAHITO CHIBA, SEIKEN TOKURA, NAOAKI KAWAKAMI
     UNIVERSITY OF AARHUS: FRANK JENSEN
     UNIVERSITY OF IOWA: VISVALDAS KAIRYS, HUI LI
     NATIONAL INST. OF STANDARDS AND TECHNOLOGY: WALT STEVENS, DAVID GARMER
     UNIVERSITY OF PISA: BENEDETTA MENNUCCI, JACOPO TOMASI
     UNIVERSITY OF MEMPHIS: HENRY KURTZ, PRAKASHAN KORAMBATH
     UNIVERSITY OF ALBERTA: TOBY ZENG, MARIUSZ KLOBUKOWSKI
     UNIVERSITY OF NEW ENGLAND: MARK SPACKMAN
     MIE UNIVERSITY: HIROAKI UMEDA
     NAT. INST. OF ADVANCED INDUSTRIAL SCIENCE AND TECHNOLOGY: KAZUO KITAURA
     MICHIGAN STATE UNIVERSITY:
          KAROL KOWALSKI, MARTA WLOCH, JEFFREY GOUR, JESSE LUTZ,
          WEI LI, JUN SHEN, J. EMILIANO DEUSTUA, PIOTR PIECUCH
     UNIVERSITY OF MINNESOTA:
          ANDREW SAND, PRACHI SHARMA, YINAN SHU
     UNIVERSITY OF SILESIA: MONIKA MUSIAL, STANISLAW KUCHARSKI
     FACULTES UNIVERSITAIRES NOTRE-DAME DE LA PAIX:
          OLIVIER QUINET, BENOIT CHAMPAGNE
     UNIVERSITY OF CALIFORNIA - SANTA BARBARA: BERNARD KIRTMAN
     INSTITUTE FOR MOLECULAR SCIENCE:
          KAZUYA ISHIMURA, MICHIO KATOUDA, AND SHIGERU NAGASE
     UNIVERSITY OF NOTRE DAME: ANNA POMOGAEVA, DAN CHIPMAN
     KYUSHU UNIVERSITY:
          HARUYUKI NAKANO,
          FENG LONG GU, JACEK KORCHOWIEC, MARCIN MAKOWSKI, AND YURIKO AOKI,
          HIROTOSHI MORI AND EISAKU MIYOSHI
     PENNSYLVANIA STATE UNIVERSITY:
          TZVETELIN IORDANOV, CHET SWALINA, JONATHAN SKONE,
          SHARON HAMMES-SCHIFFER
     WASEDA UNIVERSITY:
          MASATO KOBAYASHI, TOMOKO AKAMA, TSUGUKI TOUMA,
          TAKESHI YOSHIKAWA, YASUHIRO IKABATA, JUNJI SEINO,
          YUYA NAKAJIMA, HIROMI NAKAI
     NANJING UNIVERSITY: SHUHUA LI
     UNIVERSITY OF NEBRASKA:
          PEIFENG SU, DEJUN SI, NANDUN THELLAMUREGE, YALI WANG, HUI LI
     UNIVERSITY OF ZURICH: ROBERTO PEVERATI, KIM BALDRIDGE
     N. COPERNICUS UNIVERSITY AND JACKSON STATE UNIVERSITY:
          MARIA BARYSZ
     UNIVERSITY OF COPENHAGEN: Jimmy Kromann, CASPER STEINMANN
     TOKYO INSTITUTE OF TECHNOLOGY: HIROYA NAKATA
     NAGOYA UNIVERSITY: YOSHIO NISHIMOTO, STEPHAN IRLE
     MOSCOW STATE UNIVERSITY: VLADIMIR MIRONOV
     A.N.NESMEYANOV INSTITUTE OF ORGANOELEMENT COMPOUNDS OF RUSSIAN ACADEMY OF SCIENCES:
          IGOR S. GERASIMOV
     JOHANNES KEPLER UNIVERSITY LINZ:
          CHRISTIAN FRIEDL


 PARALLEL VERSION RUNNING ON        8 PROCESSORS IN        1 NODES.

 EXECUTION OF GAMESS BEGUN Fri May 22 21:52:34 2020

            ECHO OF THE FIRST FEW INPUT CARDS -
 INPUT CARD> $BASIS GBASIS=N21 NGAUSS=3 $END                                                
 INPUT CARD> $CONTRL SCFTYP=RHF DFTTYP=B3LYP MAXIT=60 MULT=1 ICHARG=0 $END                  
 INPUT CARD> $SYSTEM MEMDDI=1000 MWORDS=30 $END                                             
 INPUT CARD> $SCF DIRSCF=.TRUE. $END                                                        
 INPUT CARD> $ELPOT  IEPOT=1 WHERE=PDC $END                                                 
 INPUT CARD> $PDC PTSEL=GEODESIC CONSTR=CHARGE $END                                         
 INPUT CARD> $DATA                                                                          
 INPUT CARD>                                                                                
 INPUT CARD>C1                                                                              
 INPUT CARD>C 6.0000000 -2.1281264452 -2.3913231338 -0.4906955259                           
 INPUT CARD>C 6.0000000 1.9217906000 2.1480298510 -1.1854622534                             
 INPUT CARD>H 1.0000000 -3.0815397984 1.7783599433 2.0647720355                             
 INPUT CARD>H 1.0000000 3.5793825967 -1.3206428629 2.5405361126                             
 INPUT CARD>H 1.0000000 4.2880103516 -2.0944135135 0.2152234228                             
 INPUT CARD>H 1.0000000 -3.5044215741 2.6766226714 0.2163364962                             
 INPUT CARD>H 1.0000000 4.4977021965 -0.5574466518 -1.1597427125                            
 INPUT CARD>H 1.0000000 -4.1447441036 0.9400782248 -1.6861191089                            
 INPUT CARD>H 1.0000000 -3.1018194308 -3.4562880752 -1.8762897155                           
 INPUT CARD>H 1.0000000 1.2663001737 2.8476906818 0.5194527798                              
 INPUT CARD>O 8.0000000 -2.7055534101 0.8582181259 2.2610637818                             
 INPUT CARD>O 8.0000000 3.5861834972 -1.1625499108 1.5603092734                             
 INPUT CARD>O 8.0000000 3.8647247296 -2.2839133841 -0.6827384270                            
 INPUT CARD>O 8.0000000 -2.6828415194 2.8876536594 0.7600507996                             
 INPUT CARD>O 8.0000000 3.9223044000 0.2653293876 -1.1511470500                             
 INPUT CARD>O 8.0000000 -3.7184824428 1.3226895489 -0.8749145302                            
 INPUT CARD>O 8.0000000 -3.2420849521 -2.5879814945 -1.4127318062                           
 INPUT CARD>O 8.0000000 1.1048365643 3.1071920628 -0.4309155415                             
 INPUT CARD>O 8.0000000 0.0373281116 -1.0536200231 0.6854751461                             
 INPUT CARD>C 6.0000000 -1.2924908939 -0.5997514128 1.1188311017                            
 INPUT CARD>C 6.0000000 1.2089280534 -0.4778911924 1.2877426663                             
 INPUT CARD>C 6.0000000 -1.4846149215 0.8924556499 1.4752981840                             
 INPUT CARD>C 6.0000000 2.2837123861 -1.5253856226 0.9957226735                             
 INPUT CARD>C 6.0000000 -2.2255830906 -0.9533410478 -0.0246210704                           
 INPUT CARD>C 6.0000000 2.5454763778 -1.6565469837 -0.5208948304                            
 INPUT CARD>C 6.0000000 -1.7066020843 1.8874361008 0.2792188971                             
 INPUT CARD>C 6.0000000 2.5948696014 -0.2934610247 -1.2792163439                            
 INPUT CARD>C 6.0000000 1.5642078440 0.7163170121 -0.7786117801                             
 INPUT CARD>C 6.0000000 -2.2697685948 1.2348789318 -1.0073084091                            
 INPUT CARD>O 8.0000000 1.5460434919 0.7917172162 0.7121693216                              
 INPUT CARD>O 8.0000000 -1.8361714982 -0.1174801185 -1.1902426054                           
 INPUT CARD>H 1.0000000 -1.5786615301 -1.1490957925 2.0236280478                            
 INPUT CARD>H 1.0000000 1.0913747799 -0.2974618876 2.3626924788                             
 INPUT CARD>H 1.0000000 -0.6321944009 1.2640036077 2.0591951412                             
 INPUT CARD>H 1.0000000 1.9356158698 -2.4893342811 1.3849980806                             
 INPUT CARD>H 1.0000000 -3.2441483167 -0.6993194597 0.2738895506                            
 INPUT CARD>H 1.0000000 1.7713899278 -2.2903948622 -0.9536593495                            
 INPUT CARD>H 1.0000000 -0.7706133589 2.3860959237 0.0243803922                             
 INPUT CARD>H 1.0000000 2.3514303304 -0.5008490210 -2.3353034182                            
 INPUT CARD>H 1.0000000 0.5661729099 0.4156030404 -1.1027479473                             
 INPUT CARD>H 1.0000000 -1.9234526799 1.7670630916 -1.8986074872                            
   30000000 WORDS OF MEMORY AVAILABLE

     BASIS OPTIONS
     -------------
     GBASIS=N21          IGAUSS=       3      POLAR=NONE    
     NDFUNC=       0     NFFUNC=       0     DIFFSP=       F
     NPFUNC=       0      DIFFS=       F     BASNAM=        


     RUN TITLE
     ---------
                                                                                 

 THE POINT GROUP OF THE MOLECULE IS C1      
 THE ORDER OF THE PRINCIPAL AXIS IS     0

 ATOM      ATOMIC                      COORDINATES (BOHR)
           CHARGE         X                   Y                   Z
 C           6.0    -4.0215758487       -4.5189454710       -0.9272800874
 C           6.0     3.6316576398        4.0591878318       -2.2401988277
 H           1.0    -5.8232658392        3.3606130004        3.9018533742
 H           1.0     6.7640523130       -2.4956531385        4.8009171147
 H           1.0     8.1031645970       -3.9578676455        0.4067132952
 H           1.0    -6.6223965205        5.0580834215        0.4088166990
 H           1.0     8.4994247258       -1.0534214247       -2.1915959429
 H           1.0    -7.8324306450        1.7764902519       -3.1863030985
 H           1.0    -5.8615887876       -6.5314373968       -3.5456734359
 H           1.0     2.3929603465        5.3813550864        0.9816234174
 O           8.0    -5.1127545902        1.6217970956        4.2727909884
 O           8.0     6.7769041514       -2.1969007785        2.9485569828
 O           8.0     7.3032707569       -4.3159704756       -1.2901885483
 O           8.0    -5.0698353401        5.4568741637        1.4362877480
 O           8.0     7.4120805564        0.5013998391       -2.1753524961
 O           8.0    -7.0269129070        2.4995208142       -1.6533487248
 O           8.0    -6.1266521884       -4.8905758859       -2.6696760079
 O           8.0     2.0878383677        5.8717415899       -0.8143122973
 O           8.0     0.0705399026       -1.9910531388        1.2953601975
 C           6.0    -2.4424536311       -1.1333658309        2.1142842088
 C           6.0     2.2845427598       -0.9030834056        2.4334807820
 C           6.0    -2.8055153989        1.6864966345        2.7879093179
 C           6.0     4.3155906445       -2.8825608523        1.8816430127
 C           6.0    -4.2057422041       -1.8015533532       -0.0465270766
 C           6.0     4.8102528623       -3.1304198850       -0.9843484979
 C           6.0    -3.2250103094        3.5667370498        0.5276472061
 C           6.0     4.9035925205       -0.5545609248       -2.4173683690
 C           6.0     2.9559242130        1.3536428732       -1.4713629152
 C           6.0    -4.2892406997        2.3335828091       -1.9035368783
 O           8.0     2.9215985648        1.4961285984        1.3458048747
 O           8.0    -3.4698609981       -0.2220052330       -2.2492323831
 H           1.0    -2.9832377192       -2.1714761815        3.8241025114
 H           1.0     2.0623992839       -0.5621214594        4.4648413782
 H           1.0    -1.1946741887        2.3886204660        3.8913145721
 H           1.0     3.6577836114       -4.7041596831        2.6172668659
 H           1.0    -6.1305513821       -1.3215221567        0.5175762015
 H           1.0     3.3474415810       -4.3282186932       -1.8021548562
 H           1.0    -1.4562480908        4.5090674762        0.0460722607
 H           1.0     4.4435590037       -0.9464674109       -4.4130835586
 H           1.0     1.0699116614        0.7853758660       -2.0838914539
 H           1.0    -3.6347985154        3.3392650461       -3.5878479090
 H           1.0    -4.1371163155       -5.7733664657        0.7288669988
 H           1.0    -2.1681474666       -4.7610499703       -1.8176399371
 H           1.0     3.2312598113        4.3707391475       -4.2403410876
 H           1.0     5.6467337216        4.3286719548       -1.8792774456

          INTERNUCLEAR DISTANCES (ANGS.)
          ------------------------------

                1 C          2 C          3 H          4 H          5 H     

   1 C       0.0000000    6.1229286    4.9825363    6.5506016    6.4616784  
   2 C       6.1229286    0.0000000    5.9777917    5.3537244    5.0556149  
   3 H       4.9825363    5.9777917    0.0000000    7.3619330    8.5281577  
   4 H       6.5506016    5.3537244    7.3619330    0.0000000    2.5510691 *
   5 H       6.4616784    5.0556149    8.5281577    2.5510691 *  0.0000000  
   6 H       5.2988826    5.6292298    2.0981942 *  8.4593331    9.1370008  
   7 H       6.9074114    3.7357175    8.5614483    3.8881670    2.0728651 *
   8 H       4.0735757    6.2058559    3.9877693    9.0905229    9.1615824  
   9 H       2.0005248 *  7.5579283    6.5523979    8.2890163    7.7999175  
  10 H       6.3237487    1.9559980 *  4.7365802    5.1778502    5.8006622  
  11 O       4.2971060    5.9122304    1.0131916 *  6.6577744    7.8621518  
  12 O       6.1943395    4.6118763    7.3049276    0.9929171 *  1.7805018 *
  13 O       5.9968894    4.8651665    8.5030271    3.3762122    1.0106515 *
  14 O       5.4534091    5.0531872    1.7583488 *  7.7521183    8.5854881  
  15 O       6.6409120    2.7473249 *  7.8539946    4.0325461    2.7511990 *
  16 O       4.0584168    5.7087920    3.0422177    8.4800556    8.7731933  
  17 O       1.4593591 *  7.0104968    5.5842408    7.9854176    7.7198564  
  18 O       6.3788159    1.4685867 *  5.0517322    5.8786584    6.1324376  
  19 O       2.8039295 *  4.1595874    4.4328216    4.0073311    4.4014415  
  20 C       2.5492336 *  4.8157736    3.1226453    5.1260200    5.8474367  
  21 C       4.2379237    3.6770065    4.9094356    2.8104762 *  3.6392568  
  22 C       3.8810361    4.5010789    1.9189776 *  5.6281976    6.6206026  
  23 C       4.7353573    4.2874860    6.3908945    2.0266054 *  2.2249005 *
  24 C       1.5147659 *  5.3072368    3.5440677    6.3570881    6.6171347  
  25 C       4.7311068    3.9122166    7.0814949    3.2487156    1.9416544 *
  26 C       4.3678635    3.9215346    2.2562250 *  6.5838408    7.1968465  
  27 C       5.2277607    2.5343052 *  6.9062525    4.0761351    2.8885127 *
  28 C       4.8346309    1.5307496 *  5.5493908    4.3848464    4.0381945  
  29 C       3.6655549    4.2935710    3.2236660    7.3027708    7.4554166  
  30 O       5.0078093    2.3625781 *  4.9211305    3.4553521    4.0118684  
  31 O       2.3968658 *  4.3880334    3.9674012    6.6853973    6.5870482  
  32 H       2.8577725 *  5.7812164    3.2909471    5.1867178    6.2114243  
  33 H       4.7844818    4.3885558    4.6702258    2.6960546 *  4.2496044  
  34 H       4.7011880    4.2228123    2.5027757 *  4.9648230    6.2359933  
  35 H       4.4768107    5.3021320    6.6217186    2.3244519 *  2.6567075 *
  36 H       2.1663268 *  6.0765147    3.0614697    7.2169456    7.6604924  
  37 H       3.9281993    4.4470178    7.0154558    4.0519944    2.7817394 *
  38 H       4.9931831    2.9613230 *  3.1421206    6.2444709    6.7602559  
  39 H       5.2002788    2.9194664 *  7.3534089    5.0944813    3.5770067  
  40 H       3.9386155    2.2013277 *  5.0195714    5.0366160    4.6786008  
  41 H       4.3950294    3.9293266    4.1291247    7.7149932    7.6132487  
  42 H       1.1011141 *  6.8148564    5.1940445    6.3975861    6.5503572  
  43 H       1.0956080 *  5.5905990    5.6011332    6.0038071    5.5775558  
  44 H       6.3193267    1.0919469 *  6.4659336    6.2919223    5.6672947  
  45 H       6.9534544    1.0926476 *  6.8163186    5.0879454    4.7309318  

                6 H          7 H          8 H          9 H         10 H     

   1 C       5.2988826    6.9074114    4.0735757    2.0005248 *  6.3237487  
   2 C       5.6292298    3.7357175    6.2058559    7.5579283    1.9559980 *
   3 H       2.0981942 *  8.5614483    3.9877693    6.5523979    4.7365802  
   4 H       8.4593331    3.8881670    9.0905229    8.2890163    5.1778502  
   5 H       9.1370008    2.0728651 *  9.1615824    7.7999175    5.8006622  
   6 H       0.0000000    8.7399533    2.6542300 *  6.4925933    4.7834015  
   7 H       8.7399533    0.0000000    8.7870092    8.1651363    4.9856411  
   8 H       2.6542300 *  8.7870092    0.0000000    4.5223770    6.1467823  
   9 H       6.4925933    8.1651363    4.5223770    0.0000000    8.0349362  
  10 H       4.7834015    4.9856411    6.1467823    8.0349362    0.0000000  
  11 O       2.8505605 *  8.0989453    4.2021689    5.9908000    4.7714600  
  12 O       8.1744840    2.9318423 *  8.6445118    7.8613504    4.7483966  
  13 O       8.9285817    1.8997055 *  8.6920933    7.1646189    5.8762602  
  14 O       1.0075481 *  8.1923459    3.4516600    6.8826906    3.9566658  
  15 O       7.9272066    1.0040503 *  8.1128757    7.9821416    4.0637239  
  16 O       1.7520804 *  8.4333700    0.9930475 *  4.9215498    5.3961047  
  17 O       5.5171316    8.0057092    3.6519501    0.9942418 *  7.3215713  
  18 O       4.6743541    5.0470093    5.8163576    7.9287031    0.9983043 *
  19 O       5.1651517    4.8524173    5.2047113    4.7105945    4.0936733  
  20 C       4.0548441    6.2225416    4.2865102    4.5171031    4.3349190  
  21 C       5.7718744    4.1003109    6.2861989    6.1208245    3.4136572  
  22 C       2.9745345 *  6.6958028    4.1319625    5.7236408    3.5077227  
  23 C       7.1949157    3.2380068    7.3888998    6.4016242    4.5150589  
  24 C       3.8561801    6.8299194    3.1668267    3.2343795    5.1900970  
  25 C       7.4780435    2.3296639 *  7.2704374    6.0801409    4.7965375  
  26 C       1.9644146 *  6.8221297    3.2717850    5.9285948    3.1333607  
  27 C       6.9469006    1.9247686 *  6.8636420    6.5431061    3.8557932  
  28 C       5.5248280    3.2207334    5.7849608    6.3551035    2.5132597 *
  29 C       2.2583843 *  7.0024516    2.0157442 *  4.8429831    4.1756369  
  30 O       5.4134939    3.7465433    6.1772860    6.8079585    2.0838481 *
  31 O       3.5452128    6.3492091    2.5872438 *  3.6359543    4.6195916  
  32 H       4.6487607    6.8852084    4.9710816    4.7804294    5.1313402  
  33 H       5.8799122    4.9069551    6.7335965    6.7475944    3.6496734  
  34 H       3.6934143    6.3241664    5.1449307    6.6233105    2.9125853 *
  35 H       7.5925548    4.0953854    7.6264938    6.0783840    5.4480260  
  36 H       3.3864494    7.8747494    2.7093046 *  3.4992005    5.7433203  
  37 H       7.3399142    3.2370293    6.7803463    5.0949704    5.3689010  
  38 H       2.7558956 *  6.1499381    4.0498807    6.5711886    2.1464350 *
  39 H       7.1342970    2.4477805 *  6.6856558    6.2195857    4.5320921  
  40 H       4.8396212    4.0505551    4.7757863    5.3892556    3.0061210  
  41 H       2.7928031 *  6.8688061    2.3797460 *  5.3546656    4.1459974  
  42 H       5.8831412    7.3035884    4.9069383    2.4718964 *  6.8412120  
  43 H       5.8260667    5.9795495    4.6343595    2.3524223 *  6.0684417  
  44 H       5.7770466    4.1456043    6.0392635    7.5213925    2.8493629 *
  45 H       6.6157521    3.2276480    7.2924738    8.4197461    2.3594385 *

               11 O         12 O         13 O         14 O         15 O     

   1 C       4.2971060    6.1943395    5.9968894    5.4534091    6.6409120  
   2 C       5.9122304    4.6118763    4.8651665    5.0531872    2.7473249 *
   3 H       1.0131916 *  7.3049276    8.5030271    1.7583488 *  7.8539946  
   4 H       6.6577744    0.9929171 *  3.3762122    7.7521183    4.0325461  
   5 H       7.8621518    1.7805018 *  1.0106515 *  8.5854881    2.7511990 *
   6 H       2.8505605 *  8.1744840    8.9285817    1.0075481 *  7.9272066  
   7 H       8.0989453    2.9318423 *  1.8997055 *  8.1923459    1.0040503 *
   8 H       4.2021689    8.6445118    8.6920933    3.4516600    8.1128757  
   9 H       5.9908000    7.8613504    7.1646189    6.8826906    7.9821416  
  10 H       4.7714600    4.7483966    5.8762602    3.9566658    4.0637239  
  11 O       0.0000000    6.6453377    7.8554132    2.5243146 *  7.4781815  
  12 O       6.6453377    0.0000000    2.5231536 *  7.5063465    3.0828253  
  13 O       7.8554132    2.5231536 *  0.0000000    8.4674300    2.5925587 *
  14 O       2.5243146 *  7.5063465    8.4674300    0.0000000    7.3591585  
  15 O       7.4781815    3.0828253    2.5925587 *  7.3591585    0.0000000  
  16 O       3.3280804    8.0910367    8.3993778    2.4889308 *  7.7185451  
  17 O       5.0656620    7.5826169    7.1506707    5.9174587    7.7161055  
  18 O       5.1791610    5.3247305    6.0617172    3.9765693    4.0660843  
  19 O       3.6960795    3.6567164    4.2467158    4.7894178    4.4950917  
  20 C       2.3296172 *  4.9308325    5.7165485    3.7714443    5.7528476  
  21 C       4.2492008    2.4888539 *  3.7679926    5.1721583    3.7233011  
  22 C       1.4523397 *  5.4720445    6.5849736    2.4347774 *  6.0436974  
  23 C       5.6723389    1.4652095 *  2.4273846 *  6.6480911    3.2404774  
  24 C       2.9557526 *  6.0276366    6.2686036    3.9469020    6.3679462  
  25 C       6.4526468    2.3787633 *  1.4697613 *  7.0445645    2.4467288 *
  26 C       2.4464060 *  6.2415692    7.0260374    1.4780656 *  6.0300717  
  27 C       6.4772241    3.1306428    2.4352040 *  6.4909426    1.4459362 *
  28 C       5.2431503    3.6178831    3.7819244    5.0119471    2.4295662 *
  29 C       3.3187405    6.8287993    7.0794953    2.4547611 *  6.2691693  
  30 O       4.5254362    2.9496903 *  4.0965295    4.7200329    3.0652321  
  31 O       3.6904373    6.1692496    6.1197395    3.6812122    5.7713184  
  32 H       2.3142105 *  5.1856021    6.1840670    4.3716344    6.5069518  
  33 H       3.9702126    2.7597584 *  4.5729759    5.1921219    4.5473030  
  34 H       2.1223172 *  4.8920099    6.3504485    2.9204741 *  5.6610164  
  35 H       5.7891321    2.1249622 *  2.8353471 *  7.1156663    4.2387658  
  36 H       2.5816408 *  6.9658374    7.3458935    3.6630307    7.3701643  
  37 H       6.3475373    3.2993254    2.1108033 *  7.0419576    3.3462159  
  38 H       3.3288371    5.8252591    6.6178065    2.1093572 *  5.2823283  
  39 H       6.9675490    4.1398384    2.8636252 *  6.8122728    2.1111374 *
  40 H       4.7133142    4.3246855    4.2830177    4.4874434    3.3598427  
  41 H       4.3290352    7.1346218    7.1688036    2.9834307 *  6.0816755  
  42 H       4.3701106    6.1901067    6.1957379    5.9749879    7.1231097  
  43 H       4.9217694    5.5325081    5.0253471    5.8787237    5.7872278  
  44 H       6.4735634    5.4837100    5.3114108    5.3525954    3.2064485  
  45 H       6.7132909    4.3369415    4.6682007    5.9661224    2.2358676 *

               16 O         17 O         18 O         19 O         20 C     

   1 C       4.0584168    1.4593591 *  6.3788159    2.8039295 *  2.5492336 *
   2 C       5.7087920    7.0104968    1.4685867 *  4.1595874    4.8157736  
   3 H       3.0422177    5.5842408    5.0517322    4.4328216    3.1226453  
   4 H       8.4800556    7.9854176    5.8786584    4.0073311    5.1260200  
   5 H       8.7731933    7.7198564    6.1324376    4.4014415    5.8474367  
   6 H       1.7520804 *  5.5171316    4.6743541    5.1651517    4.0548441  
   7 H       8.4333700    8.0057092    5.0470093    4.8524173    6.2225416  
   8 H       0.9930475 *  3.6519501    5.8163576    5.2047113    4.2865102  
   9 H       4.9215498    0.9942418 *  7.9287031    4.7105945    4.5171031  
  10 H       5.3961047    7.3215713    0.9983043 *  4.0936733    4.3349190  
  11 O       3.3280804    5.0656620    5.1791610    3.6960795    2.3296172 *
  12 O       8.0910367    7.5826169    5.3247305    3.6567164    4.9308325  
  13 O       8.3993778    7.1506707    6.0617172    4.2467158    5.7165485  
  14 O       2.4889308 *  5.9174587    3.9765693    4.7894178    3.7714443  
  15 O       7.7185451    7.7161055    4.0660843    4.4950917    5.7528476  
  16 O       0.0000000    3.9761225    5.1619755    4.7103902    3.6818794  
  17 O       3.9761225    0.0000000    7.2315069    4.1846490    3.7633478  
  18 O       5.1619755    7.2315069    0.0000000    4.4382722    4.6787096  
  19 O       4.7103902    4.1846490    4.4382722    0.0000000    1.4704464 *
  20 C       3.6818794    3.7633478    4.6787096    1.4704464 *  0.0000000  
  21 C       5.6743767    5.6175226    3.9771149    1.4376496 *  2.5100753 *
  22 C       3.2708967    4.8520986    3.9043523    2.5937119 *  1.5461767 *
  23 C       6.9019677    6.1208005    4.9885690    2.3162596 *  3.6961039  
  24 C       2.8516772 *  2.3732208 *  5.2673237    2.3738281 *  1.5176197 *
  25 C       6.9453841    5.9294865    4.9776248    2.8477460 *  4.3052887  
  26 C       2.3871793 *  5.0249147    3.1458358    3.4432757    2.6575437 *
  27 C       6.5294576    6.2731722    3.8084451    3.3134382    4.5777742  
  28 C       5.3182496    5.8669368    2.4593085 *  2.7581859 *  3.6732892  
  29 C       1.4573986 *  3.9653536    3.9020181    3.6640741    2.9734508 *
  30 O       5.5241289    6.2340791    2.6196813 *  2.3837374 *  3.1872929  
  31 O       2.3909444 *  2.8512227 *  4.4299680    2.8115255 *  2.4207428 *
  32 H       4.3692225    4.0799435    5.5983866    2.1002836 *  1.0965083 *
  33 H       6.0201093    6.1870172    4.4040999    2.1203414 *  2.7058059 *
  34 H       4.2588282    5.8054797    3.5517983    2.7761027 *  2.1894882 *
  35 H       7.1838401    5.8860521    5.9421245    2.4807467 *  3.7499389  
  36 H       2.3734498 *  2.5321414 *  5.8223663    3.3261117    2.1290389 *
  37 H       6.5726158    5.0432366    5.4636525    2.6876280 *  4.0670453  
  38 H       3.2602909    5.7371517    2.0602394 *  3.5946434    3.2226484  
  39 H       6.5039888    6.0410822    4.2659875    3.8452214    5.0218511  
  40 H       4.3855428    4.8600862    2.8259810 *  2.3740335 *  3.0693630  
  41 H       2.1136572 *  4.5761643    3.6222370    4.2986507    3.8864970  
  42 H       4.8055163    2.1356526 *  7.0350728    3.0089290    2.7148840 *
  43 H       4.6238853    2.1438212 *  6.0838433    2.5031467 *  2.8346995 *
  44 H       5.6852479    7.0165284    2.0697592 *  4.7657264    5.3671060  
  45 H       6.7771505    7.9240980    2.1286447 *  4.7658629    5.5806839  

               21 C         22 C         23 C         24 C         25 C     

   1 C       4.2379237    3.8810361    4.7353573    1.5147659 *  4.7311068  
   2 C       3.6770065    4.5010789    4.2874860    5.3072368    3.9122166  
   3 H       4.9094356    1.9189776 *  6.3908945    3.5440677    7.0814949  
   4 H       2.8104762 *  5.6281976    2.0266054 *  6.3570881    3.2487156  
   5 H       3.6392568    6.6206026    2.2249005 *  6.6171347    1.9416544 *
   6 H       5.7718744    2.9745345 *  7.1949157    3.8561801    7.4780435  
   7 H       4.1003109    6.6958028    3.2380068    6.8299194    2.3296639 *
   8 H       6.2861989    4.1319625    7.3888998    3.1668267    7.2704374  
   9 H       6.1208245    5.7236408    6.4016242    3.2343795    6.0801409  
  10 H       3.4136572    3.5077227    4.5150589    5.1900970    4.7965375  
  11 O       4.2492008    1.4523397 *  5.6723389    2.9557526 *  6.4526468  
  12 O       2.4888539 *  5.4720445    1.4652095 *  6.0276366    2.3787633 *
  13 O       3.7679926    6.5849736    2.4273846 *  6.2686036    1.4697613 *
  14 O       5.1721583    2.4347774 *  6.6480911    3.9469020    7.0445645  
  15 O       3.7233011    6.0436974    3.2404774    6.3679462    2.4467288 *
  16 O       5.6743767    3.2708967    6.9019677    2.8516772 *  6.9453841  
  17 O       5.6175226    4.8520986    6.1208005    2.3732208 *  5.9294865  
  18 O       3.9771149    3.9043523    4.9885690    5.2673237    4.9776248  
  19 O       1.4376496 *  2.5937119 *  2.3162596 *  2.3738281 *  2.8477460 *
  20 C       2.5100753 *  1.5461767 *  3.6961039    1.5176197 *  4.3052887  
  21 C       0.0000000    3.0279038    1.5289479 *  3.7073195    2.5390472 *
  22 C       3.0279038    0.0000000    4.5029146    2.4911357 *  5.1695103  
  23 C       1.5289479 *  4.5029146    0.0000000    4.6585494    1.5446205 *
  24 C       3.7073195    2.4911357 *  4.6585494    0.0000000    4.8480712  
  25 C       2.5390472 *  5.1695103    1.5446205 *  4.8480712    0.0000000  
  26 C       3.8874425    1.5715820 *  5.2993716    2.9037346 *  5.5928677  
  27 C       2.9230339 *  5.0631949    2.6057253 *  5.0245612    1.5606071 *
  28 C       2.4129189 *  3.7955836    2.9480808 *  4.2093676    2.5806568 *
  29 C       4.5057931    2.6262246 *  5.6890582    2.3991527 *  5.6376880  
  30 O       1.4341677 *  3.1268841    2.4481674 *  4.2205753    2.9177579 *
  31 O       3.9424534    2.8720498 *  4.8717641    1.4862632 *  4.6920775  
  32 H       2.9601856 *  2.1159969 *  4.0144882    2.1568848 *  4.8724344  
  33 H       1.0963077 *  2.9730616 *  2.1904502 *  4.1390401    3.5037979  
  34 H       2.6493524 *  1.0980001 *  4.1730299    3.4347918    5.0283269  
  35 H       2.1408963 *  4.8106794    1.0963136 *  4.6542323    2.1674622 *
  36 H       4.5723974    2.6595279 *  5.6356608    1.0913802 *  5.9218005  
  37 H       2.9369058 *  5.1606143    2.1558766 *  4.3158566    1.0900725 *
  38 H       3.7036591    2.2013455 *  5.0568863    3.6429627    5.2570655  
  39 H       3.7989869    5.5836570    3.4856844    5.1471404    2.1599468 *
  40 H       2.6317127 *  3.3285794    3.3348100    3.2909371    2.9240385 *
  41 H       5.0004456    3.5129413    6.0759858    3.3171835    5.7957333  
  42 H       4.3593116    4.1553852    4.7665302    2.1417788 *  5.0195381  
  43 H       3.8445513    4.2064825    4.0733683    2.1198324 *  3.8178369  
  44 H       4.5290084    5.1044108    5.0553691    5.5750844    4.4071949  
  45 H       4.0048432    5.2971736    4.3610866    6.2166485    4.0000567  

               26 C         27 C         28 C         29 C         30 O     

   1 C       4.3678635    5.2277607    4.8346309    3.6655549    5.0078093  
   2 C       3.9215346    2.5343052 *  1.5307496 *  4.2935710    2.3625781 *
   3 H       2.2562250 *  6.9062525    5.5493908    3.2236660    4.9211305  
   4 H       6.5838408    4.0761351    4.3848464    7.3027708    3.4553521  
   5 H       7.1968465    2.8885127 *  4.0381945    7.4554166    4.0118684  
   6 H       1.9644146 *  6.9469006    5.5248280    2.2583843 *  5.4134939  
   7 H       6.8221297    1.9247686 *  3.2207334    7.0024516    3.7465433  
   8 H       3.2717850    6.8636420    5.7849608    2.0157442 *  6.1772860  
   9 H       5.9285948    6.5431061    6.3551035    4.8429831    6.8079585  
  10 H       3.1333607    3.8557932    2.5132597 *  4.1756369    2.0838481 *
  11 O       2.4464060 *  6.4772241    5.2431503    3.3187405    4.5254362  
  12 O       6.2415692    3.1306428    3.6178831    6.8287993    2.9496903 *
  13 O       7.0260374    2.4352040 *  3.7819244    7.0794953    4.0965295  
  14 O       1.4780656 *  6.4909426    5.0119471    2.4547611 *  4.7200329  
  15 O       6.0300717    1.4459362 *  2.4295662 *  6.2691693    3.0652321  
  16 O       2.3871793 *  6.5294576    5.3182496    1.4573986 *  5.5241289  
  17 O       5.0249147    6.2731722    5.8669368    3.9653536    6.2340791  
  18 O       3.1458358    3.8084451    2.4593085 *  3.9020181    2.6196813 *
  19 O       3.4432757    3.3134382    2.7581859 *  3.6640741    2.3837374 *
  20 C       2.6575437 *  4.5777742    3.6732892    2.9734508 *  3.1872929  
  21 C       3.8874425    2.9230339 *  2.4129189 *  4.5057931    1.4341677 *
  22 C       1.5715820 *  5.0631949    3.7955836    2.6262246 *  3.1268841  
  23 C       5.2993716    2.6057253 *  2.9480808 *  5.6890582    2.4481674 *
  24 C       2.9037346 *  5.0245612    4.2093676    2.3991527 *  4.2205753  
  25 C       5.5928677    1.5606071 *  2.5806568 *  5.6376880    2.9177579 *
  26 C       0.0000000    5.0683026    3.6316282    1.5485929 *  3.4594435  
  27 C       5.0683026    0.0000000    1.5272591 *  5.1063159    2.4986526 *
  28 C       3.6316282    1.5272591 *  0.0000000    3.8756398    1.4927972 *
  29 C       1.5485929 *  5.1063159    3.8756398    0.0000000    4.2087311  
  30 O       3.4594435    2.4986526 *  1.4927972 *  4.2087311    0.0000000  
  31 O       2.4891353 *  4.4354268    3.5252287    1.4319031 *  3.9856228  
  32 H       3.5042628    5.3906636    4.6054252    3.9175937    3.9051838  
  33 H       4.1162259    3.9400524    3.3345331    5.0002259    2.0291036 *
  34 H       2.1705611 *  4.8974105    3.6300539    3.4764841    2.6042760 *
  35 H       5.8003981    3.5148988    3.8852737    6.1055837    3.3719081  
  36 H       3.0092160    6.0556576    5.1217257    2.5163480 *  5.0359922  
  37 H       5.5741088    2.1844567 *  3.0189207    5.3629652    3.5107237  
  38 H       1.0907242 *  4.4950935    2.9806624 *  2.1534040 *  2.8951677 *
  39 H       5.3858388    1.1034457 *  2.1270875 *  5.1119274    3.4068263  
  40 H       3.0400051    2.1562753 *  1.0915892 *  2.9534532 *  2.0965526 *
  41 H       2.1919036 *  5.0044621    3.8108049    1.0943348 *  4.4502650  
  42 H       4.9672231    5.7694675    5.4468381    4.5112265    5.3719083  
  43 H       4.6123305    4.3657518    4.2256547    3.9187792    4.5848004  
  44 H       4.2684486    2.9166504 *  2.1719435 *  4.3045435    3.3285334  
  45 H       4.8811165    2.6293115 *  2.1336836 *  5.3628546    2.6905330 *

               31 O         32 H         33 H         34 H         35 H     

   1 C       2.3968658 *  2.8577725 *  4.7844818    4.7011880    4.4768107  
   2 C       4.3880334    5.7812164    4.3885558    4.2228123    5.3021320  
   3 H       3.9674012    3.2909471    4.6702258    2.5027757 *  6.6217186  
   4 H       6.6853973    5.1867178    2.6960546 *  4.9648230    2.3244519 *
   5 H       6.5870482    6.2114243    4.2496044    6.2359933    2.6567075 *
   6 H       3.5452128    4.6487607    5.8799122    3.6934143    7.5925548  
   7 H       6.3492091    6.8852084    4.9069551    6.3241664    4.0953854  
   8 H       2.5872438 *  4.9710816    6.7335965    5.1449307    7.6264938  
   9 H       3.6359543    4.7804294    6.7475944    6.6233105    6.0783840  
  10 H       4.6195916    5.1313402    3.6496734    2.9125853 *  5.4480260  
  11 O       3.6904373    2.3142105 *  3.9702126    2.1223172 *  5.7891321  
  12 O       6.1692496    5.1856021    2.7597584 *  4.8920099    2.1249622 *
  13 O       6.1197395    6.1840670    4.5729759    6.3504485    2.8353471 *
  14 O       3.6812122    4.3716344    5.1921219    2.9204741 *  7.1156663  
  15 O       5.7713184    6.5069518    4.5473030    5.6610164    4.2387658  
  16 O       2.3909444 *  4.3692225    6.0201093    4.2588282    7.1838401  
  17 O       2.8512227 *  4.0799435    6.1870172    5.8054797    5.8860521  
  18 O       4.4299680    5.5983866    4.4040999    3.5517983    5.9421245  
  19 O       2.8115255 *  2.1002836 *  2.1203414 *  2.7761027 *  2.4807467 *
  20 C       2.4207428 *  1.0965083 *  2.7058059 *  2.1894882 *  3.7499389  
  21 C       3.9424534    2.9601856 *  1.0963077 *  2.6493524 *  2.1408963 *
  22 C       2.8720498 *  2.1159969 *  2.9730616 *  1.0980001 *  4.8106794  
  23 C       4.8717641    4.0144882    2.1904502 *  4.1730299    1.0963136 *
  24 C       1.4862632 *  2.1568848 *  4.1390401    3.4347918    4.6542323  
  25 C       4.6920775    4.8724344    3.5037979    5.0283269    2.1674622 *
  26 C       2.4891353 *  3.5042628    4.1162259    2.1705611 *  5.8003981  
  27 C       4.4354268    5.3906636    3.9400524    4.8974105    3.5148988  
  28 C       3.5252287    4.6054252    3.3345331    3.6300539    3.8852737  
  29 C       1.4319031 *  3.9175937    5.0002259    3.4764841    6.1055837  
  30 O       3.9856228    3.9051838    2.0291036 *  2.6042760 *  3.3719081  
  31 O       0.0000000    3.3851893    4.6071975    3.7305367    5.1462546  
  32 H       3.3851893    0.0000000    2.8230018 *  2.5923182 *  3.8150011  
  33 H       4.6071975    2.8230018 *  0.0000000    2.3454159 *  2.5441961 *
  34 H       3.7305367    2.5923182 *  2.3454159 *  0.0000000    4.5973619  
  35 H       5.1462546    3.8150011    2.5441961 *  4.5973619    0.0000000  
  36 H       2.1129644 *  2.4571792 *  4.8292181    3.7234738    5.5918398  
  37 H       4.2180599    4.6248944    3.9284083    5.2429246    2.3528420 *
  38 H       2.9797007 *  4.1409556    4.0169872    2.3278149 *  5.7397541  
  39 H       4.3582273    5.9047548    4.8682925    5.5971724    4.2388228  
  40 H       2.4623346 *  4.1015636    3.5768109    3.4862231    4.0623780  
  41 H       2.0151680 *  4.8996730    5.6133881    4.1934018    6.6175066  
  42 H       3.3523250    2.5862388 *  4.7197322    4.8867183    4.2817511  
  43 H       2.5091963 *  3.3131535    4.5827513    4.8689368    3.8746873  
  44 H       4.4262390    6.4040464    5.3307760    5.0102079    6.0233877  
  45 H       5.3954760    6.4649972    4.6439685    4.8461888    5.4422190  

               36 H         37 H         38 H         39 H         40 H     

   1 C       2.1663268 *  3.9281993    4.9931831    5.2002788    3.9386155  
   2 C       6.0765147    4.4470178    2.9613230 *  2.9194664 *  2.2013277 *
   3 H       3.0614697    7.0154558    3.1421206    7.3534089    5.0195714  
   4 H       7.2169456    4.0519944    6.2444709    5.0944813    5.0366160  
   5 H       7.6604924    2.7817394 *  6.7602559    3.5770067    4.6786008  
   6 H       3.3864494    7.3399142    2.7558956 *  7.1342970    4.8396212  
   7 H       7.8747494    3.2370293    6.1499381    2.4477805 *  4.0505551  
   8 H       2.7093046 *  6.7803463    4.0498807    6.6856558    4.7757863  
   9 H       3.4992005    5.0949704    6.5711886    6.2195857    5.3892556  
  10 H       5.7433203    5.3689010    2.1464350 *  4.5320921    3.0061210  
  11 O       2.5816408 *  6.3475373    3.3288371    6.9675490    4.7133142  
  12 O       6.9658374    3.2993254    5.8252591    4.1398384    4.3246855  
  13 O       7.3458935    2.1108033 *  6.6178065    2.8636252 *  4.2830177  
  14 O       3.6630307    7.0419576    2.1093572 *  6.8122728    4.4874434  
  15 O       7.3701643    3.3462159    5.2823283    2.1111374 *  3.3598427  
  16 O       2.3734498 *  6.5726158    3.2602909    6.5039888    4.3855428  
  17 O       2.5321414 *  5.0432366    5.7371517    6.0410822    4.8600862  
  18 O       5.8223663    5.4636525    2.0602394 *  4.2659875    2.8259810 *
  19 O       3.3261117    2.6876280 *  3.5946434    3.8452214    2.3740335 *
  20 C       2.1290389 *  4.0670453    3.2226484    5.0218511    3.0693630  
  21 C       4.5723974    2.9369058 *  3.7036591    3.7989869    2.6317127 *
  22 C       2.6595279 *  5.1606143    2.2013455 *  5.5836570    3.3285794  
  23 C       5.6356608    2.1558766 *  5.0568863    3.4856844    3.3348100  
  24 C       1.0913802 *  4.3158566    3.6429627    5.1471404    3.2909371  
  25 C       5.9218005    1.0900725 *  5.2570655    2.1599468 *  2.9240385 *
  26 C       3.0092160    5.5741088    1.0907242 *  5.3858388    3.0400051  
  27 C       6.0556576    2.1844567 *  4.4950935    1.1034457 *  2.1562753 *
  28 C       5.1217257    3.0189207    2.9806624 *  2.1270875 *  1.0915892 *
  29 C       2.5163480 *  5.3629652    2.1534040 *  5.1119274    2.9534532 *
  30 O       5.0359922    3.5107237    2.8951677 *  3.4068263    2.0965526 *
  31 O       2.1129644 *  4.2180599    2.9797007 *  4.3582273    2.4623346 *
  32 H       2.4571792 *  4.6248944    4.1409556    5.9047548    4.1015636  
  33 H       4.8292181    3.9284083    4.0169872    4.8682925    3.5768109  
  34 H       3.7234738    5.2429246    2.3278149 *  5.5971724    3.4862231  
  35 H       5.5918398    2.3528420 *  5.7397541    4.2388228    4.0623780  
  36 H       0.0000000    5.4031492    3.9623753    6.1771983    4.2019913  
  37 H       5.4031492    0.0000000    5.4118304    2.3340654 *  2.9660074 *
  38 H       3.9623753    5.4118304    0.0000000    4.8630973    2.6344369 *
  39 H       6.1771983    2.3340654 *  4.8630973    0.0000000    2.3550417 *
  40 H       4.2019913    2.9660074 *  2.6344369 *  2.3550417 *  0.0000000  
  41 H       3.5421778    5.5684606    2.3259670 *  4.8588840    2.9424602 *
  42 H       2.5836287 *  4.2503552    5.6347242    5.8775991    4.6748206  
  43 H       3.0391655    2.9277090 *  5.0178534    4.2664300    3.4015338  
  44 H       6.3210244    4.7810840    3.3620544    2.8873976 *  2.4919996 *
  45 H       7.0277856    4.7400355    3.8955449    3.1615805    3.0648507  

               41 H         42 H         43 H         44 H         45 H     

   1 C       4.3950294    1.1011141 *  1.0956080 *  6.3193267    6.9534544  
   2 C       3.9293266    6.8148564    5.5905990    1.0919469 *  1.0926476 *
   3 H       4.1291247    5.1940445    5.6011332    6.4659336    6.8163186  
   4 H       7.7149932    6.3975861    6.0038071    6.2919223    5.0879454  
   5 H       7.6132487    6.5503572    5.5775558    5.6672947    4.7309318  
   6 H       2.7928031 *  5.8831412    5.8260667    5.7770466    6.6157521  
   7 H       6.8688061    7.3035884    5.9795495    4.1456043    3.2276480  
   8 H       2.3797460 *  4.9069383    4.6343595    6.0392635    7.2924738  
   9 H       5.3546656    2.4718964 *  2.3524223 *  7.5213925    8.4197461  
  10 H       4.1459974    6.8412120    6.0684417    2.8493629 *  2.3594385 *
  11 O       4.3290352    4.3701106    4.9217694    6.4735634    6.7132909  
  12 O       7.1346218    6.1901067    5.5325081    5.4837100    4.3369415  
  13 O       7.1688036    6.1957379    5.0253471    5.3114108    4.6682007  
  14 O       2.9834307 *  5.9749879    5.8787237    5.3525954    5.9661224  
  15 O       6.0816755    7.1231097    5.7872278    3.2064485    2.2358676 *
  16 O       2.1136572 *  4.8055163    4.6238853    5.6852479    6.7771505  
  17 O       4.5761643    2.1356526 *  2.1438212 *  7.0165284    7.9240980  
  18 O       3.6222370    7.0350728    6.0838433    2.0697592 *  2.1286447 *
  19 O       4.2986507    3.0089290    2.5031467 *  4.7657264    4.7658629  
  20 C       3.8864970    2.7148840 *  2.8346995 *  5.3671060    5.5806839  
  21 C       5.0004456    4.3593116    3.8445513    4.5290084    4.0048432  
  22 C       3.5129413    4.1553852    4.2064825    5.1044108    5.2971736  
  23 C       6.0759858    4.7665302    4.0733683    5.0553691    4.3610866  
  24 C       3.3171835    2.1417788 *  2.1198324 *  5.5750844    6.2166485  
  25 C       5.7957333    5.0195381    3.8178369    4.4071949    4.0000567  
  26 C       2.1919036 *  4.9672231    4.6123305    4.2684486    4.8811165  
  27 C       5.0044621    5.7694675    4.3657518    2.9166504 *  2.6293115 *
  28 C       3.8108049    5.4468381    4.2256547    2.1719435 *  2.1336836 *
  29 C       1.0943348 *  4.5112265    3.9187792    4.3045435    5.3628546  
  30 O       4.4502650    5.3719083    4.5848004    3.3285334    2.6905330 *
  31 O       2.0151680 *  3.3523250    2.5091963 *  4.4262390    5.3954760  
  32 H       4.8996730    2.5862388 *  3.3131535    6.4040464    6.4649972  
  33 H       5.6133881    4.7197322    4.5827513    5.3307760    4.6439685  
  34 H       4.1934018    4.8867183    4.8689368    5.0102079    4.8461888  
  35 H       6.6175066    4.2817511    3.8746873    6.0233877    5.4422190  
  36 H       3.5421778    2.5836287 *  3.0391655    6.3210244    7.0277856  
  37 H       5.5684606    4.2503552    2.9277090 *  4.7810840    4.7400355  
  38 H       2.3259670 *  5.6347242    5.0178534    3.3620544    3.8955449  
  39 H       4.8588840    5.8775991    4.2664300    2.8873976 *  3.1615805  
  40 H       2.9424602 *  4.6748206    3.4015338    2.4919996 *  3.0648507  
  41 H       0.0000000    5.3424998    4.4557794    3.6903215    5.0214705  
  42 H       5.3424998    0.0000000    1.7856357 *  7.1368116    7.5688501  
  43 H       4.4557794    1.7856357 *  0.0000000    5.7583786    6.3434914  
  44 H       3.6903215    7.1368116    5.7583786    0.0000000    1.7875624 *
  45 H       5.0214705    7.5688501    6.3434914    1.7875624 *  0.0000000  

  * ... LESS THAN  3.000


     ATOMIC BASIS SET
     ----------------
 THE CONTRACTED PRIMITIVE FUNCTIONS HAVE BEEN UNNORMALIZED
 THE CONTRACTED BASIS FUNCTIONS ARE NOW NORMALIZED TO UNITY

  SHELL TYPE  PRIMITIVE        EXPONENT          CONTRACTION COEFFICIENT(S)

 C         

      1   S       1           172.2560000    0.061766907377
      1   S       2            25.9109000    0.358794042852
      1   S       3             5.5333500    0.700713083689

      2   L       4             3.6649800   -0.395895162119    0.236459946619
      2   L       5             0.7705450    1.215834355681    0.860618805716

      3   L       6             0.1958570    1.000000000000    1.000000000000

 C         

      4   S       7           172.2560000    0.061766907377
      4   S       8            25.9109000    0.358794042852
      4   S       9             5.5333500    0.700713083689

      5   L      10             3.6649800   -0.395895162119    0.236459946619
      5   L      11             0.7705450    1.215834355681    0.860618805716

      6   L      12             0.1958570    1.000000000000    1.000000000000

 H         

      7   S      13             5.4471780    0.156284978695
      7   S      14             0.8245472    0.904690876670

      8   S      15             0.1831916    1.000000000000

 H         

      9   S      16             5.4471780    0.156284978695
      9   S      17             0.8245472    0.904690876670

     10   S      18             0.1831916    1.000000000000

 H         

     11   S      19             5.4471780    0.156284978695
     11   S      20             0.8245472    0.904690876670

     12   S      21             0.1831916    1.000000000000

 H         

     13   S      22             5.4471780    0.156284978695
     13   S      23             0.8245472    0.904690876670

     14   S      24             0.1831916    1.000000000000

 H         

     15   S      25             5.4471780    0.156284978695
     15   S      26             0.8245472    0.904690876670

     16   S      27             0.1831916    1.000000000000

 H         

     17   S      28             5.4471780    0.156284978695
     17   S      29             0.8245472    0.904690876670

     18   S      30             0.1831916    1.000000000000

 H         

     19   S      31             5.4471780    0.156284978695
     19   S      32             0.8245472    0.904690876670

     20   S      33             0.1831916    1.000000000000

 H         

     21   S      34             5.4471780    0.156284978695
     21   S      35             0.8245472    0.904690876670

     22   S      36             0.1831916    1.000000000000

 O         

     23   S      37           322.0370000    0.059239393389
     23   S      38            48.4308000    0.351499960776
     23   S      39            10.4206000    0.707657921031

     24   L      40             7.4029400   -0.404453583190    0.244586106967
     24   L      41             1.5762000    1.221561761397    0.853955373466

     25   L      42             0.3736840    1.000000000000    1.000000000000

 O         

     26   S      43           322.0370000    0.059239393389
     26   S      44            48.4308000    0.351499960776
     26   S      45            10.4206000    0.707657921031

     27   L      46             7.4029400   -0.404453583190    0.244586106967
     27   L      47             1.5762000    1.221561761397    0.853955373466

     28   L      48             0.3736840    1.000000000000    1.000000000000

 O         

     29   S      49           322.0370000    0.059239393389
     29   S      50            48.4308000    0.351499960776
     29   S      51            10.4206000    0.707657921031

     30   L      52             7.4029400   -0.404453583190    0.244586106967
     30   L      53             1.5762000    1.221561761397    0.853955373466

     31   L      54             0.3736840    1.000000000000    1.000000000000

 O         

     32   S      55           322.0370000    0.059239393389
     32   S      56            48.4308000    0.351499960776
     32   S      57            10.4206000    0.707657921031

     33   L      58             7.4029400   -0.404453583190    0.244586106967
     33   L      59             1.5762000    1.221561761397    0.853955373466

     34   L      60             0.3736840    1.000000000000    1.000000000000

 O         

     35   S      61           322.0370000    0.059239393389
     35   S      62            48.4308000    0.351499960776
     35   S      63            10.4206000    0.707657921031

     36   L      64             7.4029400   -0.404453583190    0.244586106967
     36   L      65             1.5762000    1.221561761397    0.853955373466

     37   L      66             0.3736840    1.000000000000    1.000000000000

 O         

     38   S      67           322.0370000    0.059239393389
     38   S      68            48.4308000    0.351499960776
     38   S      69            10.4206000    0.707657921031

     39   L      70             7.4029400   -0.404453583190    0.244586106967
     39   L      71             1.5762000    1.221561761397    0.853955373466

     40   L      72             0.3736840    1.000000000000    1.000000000000

 O         

     41   S      73           322.0370000    0.059239393389
     41   S      74            48.4308000    0.351499960776
     41   S      75            10.4206000    0.707657921031

     42   L      76             7.4029400   -0.404453583190    0.244586106967
     42   L      77             1.5762000    1.221561761397    0.853955373466

     43   L      78             0.3736840    1.000000000000    1.000000000000

 O         

     44   S      79           322.0370000    0.059239393389
     44   S      80            48.4308000    0.351499960776
     44   S      81            10.4206000    0.707657921031

     45   L      82             7.4029400   -0.404453583190    0.244586106967
     45   L      83             1.5762000    1.221561761397    0.853955373466

     46   L      84             0.3736840    1.000000000000    1.000000000000

 O         

     47   S      85           322.0370000    0.059239393389
     47   S      86            48.4308000    0.351499960776
     47   S      87            10.4206000    0.707657921031

     48   L      88             7.4029400   -0.404453583190    0.244586106967
     48   L      89             1.5762000    1.221561761397    0.853955373466

     49   L      90             0.3736840    1.000000000000    1.000000000000

 C         

     50   S      91           172.2560000    0.061766907377
     50   S      92            25.9109000    0.358794042852
     50   S      93             5.5333500    0.700713083689

     51   L      94             3.6649800   -0.395895162119    0.236459946619
     51   L      95             0.7705450    1.215834355681    0.860618805716

     52   L      96             0.1958570    1.000000000000    1.000000000000

 C         

     53   S      97           172.2560000    0.061766907377
     53   S      98            25.9109000    0.358794042852
     53   S      99             5.5333500    0.700713083689

     54   L     100             3.6649800   -0.395895162119    0.236459946619
     54   L     101             0.7705450    1.215834355681    0.860618805716

     55   L     102             0.1958570    1.000000000000    1.000000000000

 C         

     56   S     103           172.2560000    0.061766907377
     56   S     104            25.9109000    0.358794042852
     56   S     105             5.5333500    0.700713083689

     57   L     106             3.6649800   -0.395895162119    0.236459946619
     57   L     107             0.7705450    1.215834355681    0.860618805716

     58   L     108             0.1958570    1.000000000000    1.000000000000

 C         

     59   S     109           172.2560000    0.061766907377
     59   S     110            25.9109000    0.358794042852
     59   S     111             5.5333500    0.700713083689

     60   L     112             3.6649800   -0.395895162119    0.236459946619
     60   L     113             0.7705450    1.215834355681    0.860618805716

     61   L     114             0.1958570    1.000000000000    1.000000000000

 C         

     62   S     115           172.2560000    0.061766907377
     62   S     116            25.9109000    0.358794042852
     62   S     117             5.5333500    0.700713083689

     63   L     118             3.6649800   -0.395895162119    0.236459946619
     63   L     119             0.7705450    1.215834355681    0.860618805716

     64   L     120             0.1958570    1.000000000000    1.000000000000

 C         

     65   S     121           172.2560000    0.061766907377
     65   S     122            25.9109000    0.358794042852
     65   S     123             5.5333500    0.700713083689

     66   L     124             3.6649800   -0.395895162119    0.236459946619
     66   L     125             0.7705450    1.215834355681    0.860618805716

     67   L     126             0.1958570    1.000000000000    1.000000000000

 C         

     68   S     127           172.2560000    0.061766907377
     68   S     128            25.9109000    0.358794042852
     68   S     129             5.5333500    0.700713083689

     69   L     130             3.6649800   -0.395895162119    0.236459946619
     69   L     131             0.7705450    1.215834355681    0.860618805716

     70   L     132             0.1958570    1.000000000000    1.000000000000

 C         

     71   S     133           172.2560000    0.061766907377
     71   S     134            25.9109000    0.358794042852
     71   S     135             5.5333500    0.700713083689

     72   L     136             3.6649800   -0.395895162119    0.236459946619
     72   L     137             0.7705450    1.215834355681    0.860618805716

     73   L     138             0.1958570    1.000000000000    1.000000000000

 C         

     74   S     139           172.2560000    0.061766907377
     74   S     140            25.9109000    0.358794042852
     74   S     141             5.5333500    0.700713083689

     75   L     142             3.6649800   -0.395895162119    0.236459946619
     75   L     143             0.7705450    1.215834355681    0.860618805716

     76   L     144             0.1958570    1.000000000000    1.000000000000

 C         

     77   S     145           172.2560000    0.061766907377
     77   S     146            25.9109000    0.358794042852
     77   S     147             5.5333500    0.700713083689

     78   L     148             3.6649800   -0.395895162119    0.236459946619
     78   L     149             0.7705450    1.215834355681    0.860618805716

     79   L     150             0.1958570    1.000000000000    1.000000000000

 O         

     80   S     151           322.0370000    0.059239393389
     80   S     152            48.4308000    0.351499960776
     80   S     153            10.4206000    0.707657921031

     81   L     154             7.4029400   -0.404453583190    0.244586106967
     81   L     155             1.5762000    1.221561761397    0.853955373466

     82   L     156             0.3736840    1.000000000000    1.000000000000

 O         

     83   S     157           322.0370000    0.059239393389
     83   S     158            48.4308000    0.351499960776
     83   S     159            10.4206000    0.707657921031

     84   L     160             7.4029400   -0.404453583190    0.244586106967
     84   L     161             1.5762000    1.221561761397    0.853955373466

     85   L     162             0.3736840    1.000000000000    1.000000000000

 H         

     86   S     163             5.4471780    0.156284978695
     86   S     164             0.8245472    0.904690876670

     87   S     165             0.1831916    1.000000000000

 H         

     88   S     166             5.4471780    0.156284978695
     88   S     167             0.8245472    0.904690876670

     89   S     168             0.1831916    1.000000000000

 H         

     90   S     169             5.4471780    0.156284978695
     90   S     170             0.8245472    0.904690876670

     91   S     171             0.1831916    1.000000000000

 H         

     92   S     172             5.4471780    0.156284978695
     92   S     173             0.8245472    0.904690876670

     93   S     174             0.1831916    1.000000000000

 H         

     94   S     175             5.4471780    0.156284978695
     94   S     176             0.8245472    0.904690876670

     95   S     177             0.1831916    1.000000000000

 H         

     96   S     178             5.4471780    0.156284978695
     96   S     179             0.8245472    0.904690876670

     97   S     180             0.1831916    1.000000000000

 H         

     98   S     181             5.4471780    0.156284978695
     98   S     182             0.8245472    0.904690876670

     99   S     183             0.1831916    1.000000000000

 H         

    100   S     184             5.4471780    0.156284978695
    100   S     185             0.8245472    0.904690876670

    101   S     186             0.1831916    1.000000000000

 H         

    102   S     187             5.4471780    0.156284978695
    102   S     188             0.8245472    0.904690876670

    103   S     189             0.1831916    1.000000000000

 H         

    104   S     190             5.4471780    0.156284978695
    104   S     191             0.8245472    0.904690876670

    105   S     192             0.1831916    1.000000000000

 H         

    106   S     193             5.4471780    0.156284978695
    106   S     194             0.8245472    0.904690876670

    107   S     195             0.1831916    1.000000000000

 H         

    108   S     196             5.4471780    0.156284978695
    108   S     197             0.8245472    0.904690876670

    109   S     198             0.1831916    1.000000000000

 H         

    110   S     199             5.4471780    0.156284978695
    110   S     200             0.8245472    0.904690876670

    111   S     201             0.1831916    1.000000000000

 H         

    112   S     202             5.4471780    0.156284978695
    112   S     203             0.8245472    0.904690876670

    113   S     204             0.1831916    1.000000000000

 TOTAL NUMBER OF BASIS SET SHELLS             =  113
 NUMBER OF CARTESIAN GAUSSIAN BASIS FUNCTIONS =  251
 NUMBER OF ELECTRONS                          =  182
 CHARGE OF MOLECULE                           =    0
 SPIN MULTIPLICITY                            =    1
 NUMBER OF OCCUPIED ORBITALS (ALPHA)          =   91
 NUMBER OF OCCUPIED ORBITALS (BETA )          =   91
 TOTAL NUMBER OF ATOMS                        =   45
 THE NUCLEAR REPULSION ENERGY IS     2412.1371995792

 SELECTED MURRAY-HANDY-LAMING RADIAL GRID

 LEGACY BECKE'S FUZZY CELL METHOD

 SELECTED ORIGINAL BECKE'S PARTITION FUNCTION

     LEBEDEV GRID-BASED DFT OPTIONS
     ------------------------------
     DFTTYP=B3LYP   
     NRAD  =      96     NLEB  =     302
     NRAD0 =      24     NLEB0 =     110
     SWOFF =    5.00E-03 (PURE SCF -> DFT)
     SWITCH=    3.00E-04 (COARSE -> TIGHT GRID)
     THRESH=    0.00E+00 GTHRE=    1.00E+00

 GRIMME'S EMPIRICAL DISPERSION CORRECTION= F

     $CONTRL OPTIONS
     ---------------
 SCFTYP=RHF          RUNTYP=ENERGY       EXETYP=RUN     
 MPLEVL=       0     CITYP =NONE         CCTYP =NONE         VBTYP =NONE    
 DFTTYP=B3LYP        TDDFT =NONE    
 MULT  =       1     ICHARG=       0     NZVAR =       0     COORD =UNIQUE  
 PP    =NONE         RELWFN=NONE         LOCAL =NONE         NUMGRD=       F
 ISPHER=      -1     NOSYM =       0     MAXIT =      60     UNITS =ANGS    
 PLTORB=       F     MOLPLT=       F     AIMPAC=       F     FRIEND=        
 NPRINT=       7     IREST =       0     GEOM  =INPUT   
 NORMF =       0     NORMP =       0     ITOL  =      20     ICUT  =       9
 INTTYP=BEST         GRDTYP=BEST         QMTTOL= 1.0E-06

     $SYSTEM OPTIONS
     ---------------
  REPLICATED MEMORY=    30000000 WORDS (ON EVERY NODE).
 DISTRIBUTED MEMDDI=        1000 MILLION WORDS IN AGGREGATE,
 MEMDDI DISTRIBUTED OVER   8 PROCESSORS IS   125000000 WORDS/PROCESSOR.
 TOTAL MEMORY REQUESTED ON EACH PROCESSOR=   155000000 WORDS.
 TIMLIM=      525600.00 MINUTES, OR     365.0 DAYS.
 PARALL= T  BALTYP=  DLB     KDIAG=    0  COREFL= F
 MXSEQ2=     300 MXSEQ3=     150  mem10=         0

     INPUT FOR POTENTIAL-DERIVED CHARGES 
     -----------------------------------
     VDWSCL=    1.40   RMAX=    3.00   DELR=    0.80
     VDWINC=    0.20 PTDENS=    0.28
     LAYER =       4  NFREQ=      30 MAXPDC=   10000
     CONSTR=CHARGE    UNITS=ANGS      PTSEL=GEODESIC
     CENTER=  0.0000  0.0000  0.0000
     DPOLE =  0.0000  0.0000  0.0000
     QPOLE =  0.0000  0.0000  0.0000  0.0000  0.0000  0.0000


          ----------------
          PROPERTIES INPUT
          ----------------

     MOMENTS            FIELD           POTENTIAL          DENSITY
 IEMOM =       1   IEFLD =       0   IEPOT =       1   IEDEN =       0
 WHERE =COMASS     WHERE =NUCLEI     WHERE =PDC        WHERE =NUCLEI  
 OUTPUT=BOTH       OUTPUT=BOTH       OUTPUT=BOTH       OUTPUT=BOTH    
 IEMINT=       0   IEFINT=       0                     IEDINT=       0
                                                       MORB  =       0
          EXTRAPOLATION IN EFFECT
          DIIS IN EFFECT
 ORBITAL PRINTING OPTION: NPREO=     1   251     2     1

     -------------------------------
     INTEGRAL TRANSFORMATION OPTIONS
     -------------------------------
     NWORD  =            0
     CUTOFF = 1.0E-09     MPTRAN =       0
     DIRTRF =       T     AOINTS =DUP     

          ----------------------
          INTEGRAL INPUT OPTIONS
          ----------------------
 NOPK  =       1 NORDER=       0 SCHWRZ=       T

     ------------------------------------------
     THE POINT GROUP IS C1 , NAXIS= 0, ORDER= 1
     ------------------------------------------

     DIMENSIONS OF THE SYMMETRY SUBSPACES ARE
 A   =  251

 ..... DONE SETTING UP THE RUN .....
 CPU     0: STEP CPU TIME=     0.04 TOTAL CPU TIME=          0.0 (      0.0 MIN)
 TOTAL WALL CLOCK TIME=          0.1 SECONDS, CPU UTILIZATION IS    66.67%

          ********************
          1 ELECTRON INTEGRALS
          ********************
 ...... END OF ONE-ELECTRON INTEGRALS ......
 CPU     0: STEP CPU TIME=     0.01 TOTAL CPU TIME=          0.0 (      0.0 MIN)
 TOTAL WALL CLOCK TIME=          0.1 SECONDS, CPU UTILIZATION IS    62.50%

          -------------
          GUESS OPTIONS
          -------------
          GUESS =HUCKEL            NORB  =       0          NORDER=       0
          MIX   =       F          PRTMO =       F          PUNMO =       F
          TOLZ  = 1.0E-08          TOLE  = 1.0E-05
          SYMDEN=       F          PURIFY=       F

 INITIAL GUESS ORBITALS GENERATED BY HUCKEL   ROUTINE.
 HUCKEL GUESS REQUIRES    565344 WORDS.

 SYMMETRIES FOR INITIAL GUESS ORBITALS FOLLOW.   BOTH SET(S).
    91 ORBITALS ARE OCCUPIED (   23 CORE ORBITALS).
    24=A       25=A       26=A       27=A       28=A       29=A       30=A   
    31=A       32=A       33=A       34=A       35=A       36=A       37=A   
    38=A       39=A       40=A       41=A       42=A       43=A       44=A   
    45=A       46=A       47=A       48=A       49=A       50=A       51=A   
    52=A       53=A       54=A       55=A       56=A       57=A       58=A   
    59=A       60=A       61=A       62=A       63=A       64=A       65=A   
    66=A       67=A       68=A       69=A       70=A       71=A       72=A   
    73=A       74=A       75=A       76=A       77=A       78=A       79=A   
    80=A       81=A       82=A       83=A       84=A       85=A       86=A   
    87=A       88=A       89=A       90=A       91=A       92=A       93=A   
    94=A       95=A       96=A       97=A       98=A       99=A      100=A   
   101=A   
 ...... END OF INITIAL ORBITAL SELECTION ......
 CPU     0: STEP CPU TIME=     0.10 TOTAL CPU TIME=          0.2 (      0.0 MIN)
 TOTAL WALL CLOCK TIME=          0.3 SECONDS, CPU UTILIZATION IS    48.39%

                    ----------------------
                    AO INTEGRAL TECHNOLOGY
                    ----------------------
     S,P,L SHELL ROTATED AXIS INTEGRALS, REPROGRAMMED BY
        KAZUYA ISHIMURA (IMS) AND JOSE SIERRA (SYNSTAR).
     S,P,D,L SHELL ROTATED AXIS INTEGRALS PROGRAMMED BY
        KAZUYA ISHIMURA (INSTITUTE FOR MOLECULAR SCIENCE).
     S,P,D,F,G SHELL TO TOTAL QUARTET ANGULAR MOMENTUM SUM 5,
        ERIC PROGRAM BY GRAHAM FLETCHER (ELORET AND NASA ADVANCED
        SUPERCOMPUTING DIVISION, AMES RESEARCH CENTER).
     S,P,D,F,G,L SHELL GENERAL RYS QUADRATURE PROGRAMMED BY
        MICHEL DUPUIS (PACIFIC NORTHWEST NATIONAL LABORATORY).

          --------------------
          2 ELECTRON INTEGRALS
          --------------------

 DIRECT SCF METHOD SKIPS INTEGRAL STORAGE ON DISK.
 DIRECT TRANSFORMATION SKIPS AO INTEGRAL STORAGE ON DISK.
  ...... END OF TWO-ELECTRON INTEGRALS .....
 CPU     0: STEP CPU TIME=     0.01 TOTAL CPU TIME=          0.2 (      0.0 MIN)
 TOTAL WALL CLOCK TIME=          0.3 SECONDS, CPU UTILIZATION IS    50.00%

          --------------------------
             R-B3LYP SCF CALCULATION
          --------------------------

     NUCLEAR ENERGY =      2412.1371995792
     MAXIT =   60     NPUNCH=    2
     EXTRAP=T  DAMP=F  SHIFT=F  RSTRCT=F  DIIS=T  DEM=F  SOSCF=F
         DENSITY MATRIX CONVERGENCE THRESHOLD=  2.00E-05
     COARSE -> FINE DFT GRID SWITCH THRESHOLD=  3.00E-04 (SWITCH IN $DFT)
                   HF -> DFT SWITCH THRESHOLD=  5.00E-03 (SWOFF IN $DFT)
     MEMORY REQUIRED FOR RHF ITERS=   1953481 WORDS.

 DIRECT SCF CALCULATION, SCHWRZ=T   FDIFF=T,  DIRTHR=  0.00E+00 NITDIR=10
 SCHWARZ INEQUALITY OVERHEAD:     25933 INTEGRALS, T=        0.00

 DFT CODE IS SWITCHING FROM THE FINE GRID NRAD= 96,  NLEB=  302
                      TO THE COARSE GRID NRAD0= 24, NLEB0=  110

     EXCHANGE FUNCTIONAL   =B88&HFX   
     CORRELATION FUNCTIONAL=LYP88&VWN5
     DFT THRESHOLD         =.307E-08
     GRID CHANGE THRESHOLD =.300E-03
 FOR AN EULER-MACLAURIN QUADRATURE USING  96 RADIAL POINTS:
 SMALLEST GAUSSIAN PRIMITIVE EXPONENT=        0.1831915800 OF TYPE -S-
 ON ATOM NUMBER   3 HAS RADIAL NORMALIZATION=  1.000000
  LARGEST GAUSSIAN PRIMITIVE EXPONENT=      322.0370000000 OF TYPE -S-
 ON ATOM NUMBER  11 HAS RADIAL NORMALIZATION=  1.000000
 DFT IS SWITCHED OFF, PERFORMING PURE SCF UNTIL SWOFF THRESHOLD IS REACHED.

                                                                                   NONZERO     BLOCKS
 ITER EX DEM     TOTAL ENERGY        E CHANGE  DENSITY CHANGE    DIIS ERROR      INTEGRALS    SKIPPED
   1  0  0    -1279.9819125556 -1279.9819125556   0.719536257   0.542172741      149335373   15565579
          * * *   INITIATING DIIS PROCEDURE   * * *
   2  1  0    -1283.2814960092    -3.2995834536   0.139949678   0.062759828      149226735   15653338
   3  2  0    -1283.4500455944    -0.1685495852   0.083387183   0.032240753      145593493   16112269
   4  3  0    -1283.4765150673    -0.0264694729   0.019780482   0.012378979      141850849   16419702
   5  4  0    -1283.4812450094    -0.0047299421   0.004396036   0.002317631      135466792   16735350
 CONVERGED TO SWOFF, SO DFT CALCULATION IS NOW SWITCHED ON.
          * * *   INITIATING DIIS PROCEDURE   * * *
   6  5  0    -1289.9364028982    -6.4551578888   0.119808591   0.046088305      149916327   15434795
   7  6  0    -1290.0415382942    -0.1051353960   0.106326409   0.016088195      147424061   15959578
   8  7  0    -1290.0425002000    -0.0009619058   0.057262435   0.021243665      143624060   16279594
   9  8  0    -1290.0609608840    -0.0184606841   0.004696720   0.005482792      140337090   16507122
  10  9  0    -1290.0615552193    -0.0005943352   0.000959222   0.000658583      128017919   17037096
  11 10  0    -1290.0615690045    -0.0000137852   0.000441889   0.000344980      116812708   17484491
  12 11  0    -1290.0615717146    -0.0000027101   0.000082528   0.000054707      103863953   17953512
 DFT CODE IS SWITCHING BACK TO THE FINE GRID
          * * *   INITIATING DIIS PROCEDURE   * * *
  13 12  0    -1290.0791780289    -0.0176063143   0.003143462   0.001600237      150067752   15383223
  14 13  0    -1290.0792941412    -0.0001161123   0.001139970   0.000523907      128184486   17082738
  15 14  0    -1290.0792947788    -0.0000006376   0.000597058   0.000596314      114178402   17574715
  16 15  0    -1290.0793013097    -0.0000065309   0.000196586   0.000121771      108310064   17788486
  17 16  0    -1290.0793016233    -0.0000003136   0.000034769   0.000018120       95616751   18216396
  18 17  0    -1290.0793016372    -0.0000000140   0.000012009   0.000010986       83713391   18589981
  19 18  0    -1290.0793016402    -0.0000000029   0.000003036   0.000002113       74809285   18876655

          -----------------
          DENSITY CONVERGED
          -----------------
     TIME TO FORM FOCK OPERATORS=     127.1 SECONDS (       6.7 SEC/ITER)
     FOCK TIME ON FIRST ITERATION=       1.5, LAST ITERATION=      13.3
     TIME TO SOLVE SCF EQUATIONS=       0.8 SECONDS (       0.0 SEC/ITER)

 FINAL R-B3LYP ENERGY IS    -1290.0793016402 AFTER  19 ITERATIONS
 DFT EXCHANGE + CORRELATION ENERGY =      -134.7594370629
 TOTAL ELECTRON NUMBER             =       182.0010693280

          ------------
          EIGENVECTORS
          ------------

                      1          2          3          4          5
                  -19.0693   -19.0636   -19.0600   -19.0551   -19.0548
                     A          A          A          A          A   
    1  C  1  S   -0.000001   0.000069   0.000011   0.000176  -0.000003
    2  C  1  S    0.000010   0.000422   0.000255   0.000644  -0.000011
    3  C  1  X   -0.000003  -0.000064  -0.000073   0.000205   0.000050
    4  C  1  Y    0.000025   0.000003   0.000124  -0.000778   0.000028
    5  C  1  Z    0.000022   0.000019   0.000225  -0.000115   0.000009
    6  C  1  S    0.000056  -0.002842   0.000725  -0.006077  -0.000013
    7  C  1  X    0.000032   0.000589   0.000471  -0.002394  -0.000141
    8  C  1  Y   -0.000066  -0.001449   0.001267  -0.003039  -0.000215
    9  C  1  Z   -0.000059  -0.000503  -0.001209   0.001461  -0.000121
   10  C  2  S   -0.000002  -0.000002   0.000060   0.000019   0.000306
   11  C  2  S   -0.000050  -0.000001   0.000370   0.000087   0.001314
   12  C  2  X   -0.000044   0.000017  -0.000030   0.000028   0.000301
   13  C  2  Y    0.000050  -0.000008  -0.000009   0.000006   0.000754
   14  C  2  Z   -0.000072   0.000011   0.000058   0.000020  -0.000278
   15  C  2  S    0.000002  -0.000061  -0.001741  -0.000575  -0.009674
   16  C  2  X    0.000313  -0.000214   0.000485  -0.000270  -0.000195
   17  C  2  Y   -0.000034   0.000004   0.000695   0.000290   0.002659
   18  C  2  Z    0.000478  -0.000060  -0.000697  -0.000731  -0.004664
   19  H  3  S    0.000023   0.000049   0.000479  -0.000179   0.000006
   20  H  3  S   -0.000052  -0.000640  -0.000272   0.000204  -0.000119
   21  H  4  S    0.003048  -0.000000  -0.000166   0.000021   0.000201
   22  H  4  S    0.005125  -0.000022   0.000473  -0.000051  -0.000173
   23  H  5  S   -0.000575   0.000002   0.000057   0.000023   0.000238
   24  H  5  S    0.004367   0.000007  -0.000091  -0.000026  -0.000530
   25  H  6  S   -0.000021  -0.000649  -0.000151  -0.000370   0.000044
   26  H  6  S    0.000011   0.004209  -0.000138   0.000205  -0.000047
   27  H  7  S    0.000071  -0.000008   0.000037  -0.000054  -0.000313
   28  H  7  S   -0.000569  -0.000010  -0.000125   0.000011   0.000065
   29  H  8  S    0.000018   0.003194   0.000153   0.000440  -0.000044
   30  H  8  S   -0.000021   0.004739  -0.000248  -0.001065   0.000069
   31  H  9  S   -0.000010  -0.000079  -0.000011  -0.000248   0.000036
   32  H  9  S   -0.000020  -0.000100  -0.000091  -0.000287  -0.000009
   33  H 10  S    0.000029   0.000135  -0.000053  -0.000210  -0.000895
   34  H 10  S   -0.000005  -0.000306  -0.000019   0.000428   0.002533
   35  O 11  S    0.000183   0.000106   0.000383  -0.002287   0.000355
   36  O 11  S    0.000077   0.000078   0.000220  -0.000771   0.000110
   37  O 11  X    0.000013   0.000039  -0.000063  -0.000049   0.000009
   38  O 11  Y    0.000008  -0.000083   0.000397  -0.000012  -0.000030
   39  O 11  Z    0.000003   0.000051   0.000020   0.000163  -0.000038
   40  O 11  S   -0.000283  -0.000642  -0.001721   0.002068  -0.000186
   41  O 11  X   -0.000125  -0.000499  -0.000201   0.000536  -0.000047
   42  O 11  Y   -0.000022   0.000288  -0.001545  -0.000055   0.000069
   43  O 11  Z    0.000023   0.000018   0.000347  -0.000909   0.000160
   44  O 12  S    0.982486  -0.000291   0.006465  -0.000067  -0.000060
   45  O 12  S    0.105190  -0.000023   0.000456  -0.000013  -0.000138
   46  O 12  X   -0.002906  -0.000001   0.000171  -0.000017  -0.000139
   47  O 12  Y   -0.001570   0.000000  -0.000208   0.000008   0.000031
   48  O 12  Z    0.001014  -0.000004   0.000052   0.000001   0.000059
   49  O 12  S   -0.050984  -0.000025   0.000067   0.000112   0.001484
   50  O 12  X    0.009508   0.000023  -0.000737   0.000015  -0.000286
   51  O 12  Y    0.003811  -0.000001   0.000749  -0.000041  -0.000150
   52  O 12  Z    0.000129   0.000015  -0.000273  -0.000044  -0.000703
   53  O 13  S    0.001497   0.000003   0.001697   0.000565   0.006050
   54  O 13  S    0.000290   0.000001   0.000368   0.000124   0.001273
   55  O 13  X    0.000256   0.000001  -0.000072  -0.000007  -0.000110
   56  O 13  Y   -0.000259  -0.000001  -0.000032   0.000006   0.000074
   57  O 13  Z    0.000265   0.000004   0.000047   0.000010   0.000062
   58  O 13  S    0.000273  -0.000013  -0.000723  -0.000334  -0.003167
   59  O 13  X   -0.001911   0.000001   0.000392   0.000127   0.001233
   60  O 13  Y    0.001277   0.000004   0.000063  -0.000091  -0.000921
   61  O 13  Z   -0.001244  -0.000021  -0.000266  -0.000068  -0.000495
   62  O 14  S   -0.000031  -0.000463   0.000114  -0.001765   0.000605
   63  O 14  S   -0.000010  -0.000208  -0.000021  -0.000355   0.000128
   64  O 14  X    0.000010  -0.000289   0.000131   0.000091   0.000005
   65  O 14  Y    0.000001   0.000328  -0.000034   0.000201  -0.000028
   66  O 14  Z    0.000010  -0.000130   0.000125   0.000090  -0.000017
   67  O 14  S    0.000046   0.001268   0.000505   0.000112  -0.000222
   68  O 14  X   -0.000039   0.002108  -0.000429  -0.000469  -0.000043
   69  O 14  Y   -0.000014  -0.001919  -0.000120  -0.000849   0.000119
   70  O 14  Z   -0.000049   0.000334  -0.000591  -0.000200   0.000098
   71  O 15  S   -0.000064   0.000051   0.000336  -0.000133  -0.001211
   72  O 15  S   -0.000008   0.000015   0.000122  -0.000062  -0.000540
   73  O 15  X   -0.000009  -0.000011  -0.000022  -0.000024  -0.000128
   74  O 15  Y    0.000035   0.000007  -0.000012   0.000030   0.000141
   75  O 15  Z   -0.000047   0.000007  -0.000036  -0.000000   0.000037
   76  O 15  S   -0.000242  -0.000006  -0.000366   0.000336   0.002735
   77  O 15  X    0.000196   0.000037   0.000220  -0.000050  -0.000694
   78  O 15  Y   -0.000014  -0.000029   0.000097  -0.000173  -0.000969
   79  O 15  Z    0.000295  -0.000017   0.000114   0.000043   0.000076
   80  O 16  S    0.000366   0.982033  -0.011180  -0.029333   0.001746
   81  O 16  S    0.000052   0.105494  -0.001005  -0.001898   0.000110
   82  O 16  X    0.000001   0.002361  -0.000002   0.000182  -0.000006
   83  O 16  Y   -0.000002  -0.000958  -0.000026  -0.000455   0.000028
   84  O 16  Z   -0.000005  -0.002176  -0.000036   0.000181  -0.000004
   85  O 16  S   -0.000086  -0.051912  -0.000319  -0.002514   0.000153
   86  O 16  X   -0.000034  -0.009549  -0.000307  -0.002346   0.000128
   87  O 16  Y    0.000013   0.002570   0.000109   0.002605  -0.000148
   88  O 16  Z    0.000012   0.004134   0.000185  -0.000347  -0.000015
   89  O 17  S    0.000125  -0.000173   0.000583   0.001436  -0.000003
   90  O 17  S    0.000035  -0.000071   0.000152   0.000267   0.000004
   91  O 17  X    0.000004  -0.000026   0.000049  -0.000039   0.000001
   92  O 17  Y    0.000014   0.000058   0.000075   0.000178  -0.000030
   93  O 17  Z    0.000007   0.000018  -0.000026   0.000223  -0.000001
   94  O 17  S   -0.000065   0.000359  -0.000340  -0.000001  -0.000066
   95  O 17  X   -0.000027   0.000169  -0.000274   0.000380  -0.000025
   96  O 17  Y   -0.000052  -0.000131  -0.000342  -0.000488   0.000110
   97  O 17  Z   -0.000032   0.000056   0.000070  -0.000705  -0.000011
   98  O 18  S   -0.000073   0.000348  -0.000628  -0.000639   0.000717
   99  O 18  S   -0.000019   0.000090  -0.000190  -0.000156   0.000073
  100  O 18  X    0.000018  -0.000072   0.000005   0.000048  -0.000144
  101  O 18  Y    0.000013  -0.000030   0.000004   0.000046   0.000005
  102  O 18  Z    0.000017   0.000001   0.000001  -0.000017   0.000079
  103  O 18  S    0.000016  -0.000066   0.000528   0.000192   0.000484
  104  O 18  X   -0.000085   0.000210   0.000046  -0.000118   0.000926
  105  O 18  Y   -0.000035   0.000098  -0.000178  -0.000182  -0.000569
  106  O 18  Z   -0.000084   0.000025  -0.000035   0.000063  -0.000613
  107  O 19  S   -0.006502   0.011077   0.981571  -0.007706  -0.045280
  108  O 19  S   -0.000922   0.001392   0.107082  -0.000771  -0.003744
  109  O 19  X   -0.000484  -0.000049  -0.000091  -0.000253   0.000440
  110  O 19  Y    0.000233   0.000076   0.002636  -0.000000   0.000362
  111  O 19  Z    0.000013  -0.000007   0.002370  -0.000323  -0.000447
  112  O 19  S    0.000426  -0.001348  -0.058481   0.001239  -0.001421
  113  O 19  X    0.001997   0.000358  -0.000078   0.000362  -0.003554
  114  O 19  Y   -0.000877  -0.000405  -0.008440   0.000127  -0.002780
  115  O 19  Z   -0.000177   0.000001  -0.006644   0.001266   0.001375
[...]
   2519    2.97751   -3.87304    7.42621       -18.856304      18.893696       0.037393
   2520    4.68088    2.05636    7.08332       -19.095289      19.109594       0.014305
   2521    2.97751    2.74879    7.42621       -19.120273      19.131867       0.011594
   2522    0.58171    1.26811    8.34133       -18.990659      19.002017       0.011358
   2523    0.58171   -2.39235    8.34133       -18.558820      18.579244       0.020425
   2524    1.14728   -3.87304    7.42621       -19.111427      19.137633       0.026206
   2525    0.44409   -0.56212    8.70163       -18.491207      18.506457       0.015250
   2526   -1.19467    1.47351    8.33337       -19.147061      19.145830      -0.001231
   2527    0.42364    2.38862    8.12811       -19.006926      19.013913       0.006987
   2528    1.76670    3.30374    7.20223       -19.636280      19.645036       0.008756
   2529   -1.19467    3.30374    8.33337       -18.434723      18.430708      -0.004016
   2530    0.28601    4.21885    7.76780       -18.529023      18.530658       0.001635
   2531   -1.19467    4.77299    7.74931       -18.351048      18.345987      -0.005061
   2532    1.42381    5.00710    6.50980       -19.385488      19.388848       0.003361
   2533    0.63556    6.26511    5.37200       -19.812322      19.812510       0.000188
   2534   -0.27956    5.69954    6.85269       -18.680116      18.677381      -0.002736
   2535   -1.19467    6.62541    5.50962       -19.561080      19.551704      -0.009376
   2536   -2.10979    5.69954    6.85269       -18.853695      18.843749      -0.009945
   2537    3.65778   -7.08853    6.47526       -16.925434      16.952844       0.027409
   2538    5.13847   -6.53439    6.49375       -17.019416      17.053764       0.034348
   2539    3.65778   -5.61927    7.05933       -17.733117      17.767538       0.034421
   2540    6.04215   -8.56215    2.61727       -17.198714      17.213121       0.014408
   2541    6.96870   -7.66553    3.53238       -17.388866      17.409446       0.020580
   2542    5.48801   -8.58065    4.09795       -16.578571      16.598525       0.019954
   2543    6.27626   -7.32264    5.23575       -16.877520      16.906001       0.028481
   2544    4.57290   -8.01508    5.57864       -16.490886      16.515390       0.024504
   2545    1.27341   -8.56215    2.61727       -18.353212      18.369870       0.016658
   2546    0.34687   -7.66553    3.53238       -19.189151      19.206152       0.017001
   2547    0.34687   -7.66553    1.70215       -20.312697      20.327515       0.014818
   2548    1.82755   -8.58065    1.13658       -18.827638      18.842651       0.015013
   2549    2.74267   -9.14622    2.61727       -17.348655      17.364933       0.016277
   2550    3.65778   -8.94095    0.99896       -18.006037      18.017964       0.011927
   2551    4.57290   -9.14622    2.61727       -16.943676      16.958714       0.015038
   2552    0.69641   -5.61927    5.92818       -19.592989      19.615807       0.022818
   2553    1.03930   -7.32264    5.23575       -18.203875      18.224189       0.020314
   2554    1.82755   -8.58065    4.09795       -17.424750      17.443433       0.018682
   2555    2.17710   -6.53439    6.49375       -17.753443      17.778888       0.025445
   2556    2.74267   -8.01508    5.57864       -16.905273      16.927502       0.022229
   2557    3.65778   -8.94095    4.23558       -16.600359      16.619656       0.019296
   2558    2.03947   -4.70416    6.85406       -19.212465      19.243576       0.031111
   2559  -10.00704    0.15916    2.34781       -18.873658      18.859484      -0.014174
   2560   -9.98854   -1.32152    2.90195       -18.121631      18.109348      -0.012282
   2561  -10.57261   -1.32152    1.43269       -17.878504      17.869794      -0.008710
   2562  -10.57261   -1.32152   -0.39754       -18.240624      18.234501      -0.006123
   2563   -9.44147   -4.28290    1.43269       -18.039409      18.029443      -0.009966
   2564  -10.00704   -2.80221    2.34781       -17.694643      17.686095      -0.008548
   2565  -10.36734   -2.93983    0.51758       -17.764215      17.753966      -0.010248
   2566   -9.09192   -2.23664    3.82849       -18.397433      18.383931      -0.013502
   2567   -8.74903   -3.94000    3.13606       -18.250880      18.244850      -0.006030
   2568   -7.61124   -3.15175    4.39406       -19.322215      19.311909      -0.010305
   2569    3.34744   -6.71259   -5.66015       -17.951649      17.954806       0.003157
   2570    4.26256   -7.63913   -4.76353       -17.561362      17.559434      -0.001928
   2571    3.34744   -5.24333   -6.24421       -18.780539      18.784556       0.004017
   2572    1.72913   -4.32822   -6.03895       -20.158386      20.165515       0.007129
   2573    1.86675   -6.15845   -5.67864       -18.748859      18.756808       0.007949
   2574    0.96307   -8.18621   -1.80215       -19.278077      19.292232       0.014155
   2575    2.43233   -7.63913   -4.76353       -17.888908      17.895931       0.007023
   2576    1.51721   -8.20471   -3.28284       -18.388113      18.399647       0.011533
   2577    2.43233   -8.77028   -1.80215       -18.206837      18.216172       0.009335
   2578    3.34744   -8.56501   -3.42047       -17.559905      17.563585       0.003681
   2579    4.26256   -8.77028   -1.80215       -17.897123      17.897273       0.000151
   2580    1.51721   -8.20471   -0.32147       -19.597964      19.611826       0.013862
   2581    3.34744   -8.56501   -0.18384       -18.780767      18.790393       0.009626
   2582    4.44356   -3.33084   -8.27108       -17.064365      17.065459       0.001094
   2583    5.92425   -2.77670   -8.28957       -16.706315      16.704388      -0.001927
   2584    7.40493   -1.86158   -7.72400       -16.911689      16.905773      -0.005916
   2585    5.35867   -4.25738   -7.37446       -17.424296      17.422362      -0.001934
   2586    7.06204   -3.56495   -7.03156       -17.409488      17.402458      -0.007030
   2587    4.44356    1.43790   -8.27108       -17.835313      17.835895       0.000581
   2588    5.92425    0.88376   -8.28957       -17.211459      17.207536      -0.003924
   2589    7.40493   -0.03135   -7.72400       -17.145043      17.136397      -0.008646
   2590    4.44356   -0.03135   -8.85514       -17.081761      17.082443       0.000682
   2591    6.06187   -0.94647   -8.64988       -16.623458      16.620942      -0.002517
   2592    4.44356   -1.86158   -8.85514       -16.814219      16.815287       0.001068
   2593    2.96287    0.88376   -8.28957       -18.320891      18.324393       0.003503
   2594    1.48219   -0.03135   -7.72400       -19.476259      19.480176       0.003918
   2595    0.58557   -0.94647   -6.79745       -21.014680      21.016036       0.001356
   2596    1.48219   -1.86158   -7.72400       -19.067316      19.070753       0.003437
   2597    2.82525   -0.94647   -8.64988       -17.708063      17.711117       0.003054
   2598    2.96287   -2.77670   -8.28957       -17.653542      17.656769       0.003227
   2599    0.56707   -2.42715   -6.24331       -21.365148      21.366650       0.001503
   2600    3.52844   -4.25738   -7.37446       -17.997201      18.000189       0.002988
   2601    1.82508   -3.56495   -7.03156       -19.238001      19.242922       0.004921
   2602   -3.63480    0.95489   -7.44584       -19.375703      19.378631       0.002927
   2603   -2.15411    1.50904   -7.46434       -19.634765      19.637909       0.003145
   2604   -0.67343    2.42415   -6.89876       -20.541055      20.546522       0.005467
   2605   -3.63480    5.72364   -7.44584       -17.003161      17.011453       0.008291
   2606   -2.15411    5.16949   -7.46434       -17.767514      17.774121       0.006607
   2607   -0.67343    4.25438   -6.89876       -19.488755      19.494824       0.006069
   2608   -3.63480    4.25438   -8.02991       -17.217871      17.227730       0.009859
   2609   -2.01649    3.33927   -7.82464       -18.393888      18.401118       0.007230
   2610   -3.63480    2.42415   -8.02991       -18.048379      18.056979       0.008600
   2611   -1.80457    7.21575   -5.06853       -18.892834      18.886937      -0.005897
   2612   -1.01632    5.95775   -6.20633       -19.012276      19.013281       0.001005
   2613   -2.71968    6.65018   -6.54922       -17.550603      17.554231       0.003628
   2614   -2.71968    7.78132   -3.58785       -19.452869      19.441404      -0.011464
   2615   -4.54991    7.78132   -3.58785       -18.736075      18.732954      -0.003121
   2616   -5.46503    7.21575   -5.06853       -17.524005      17.529744       0.005739
   2617   -3.63480    7.57606   -5.20616       -17.779780      17.780102       0.000321
   2618   -4.54991    6.65018   -6.54922       -16.950624      16.958177       0.007552
   2619   -6.25328    5.95775   -6.20633       -17.088599      17.101504       0.012905
   2620   -5.11549    5.16949   -7.46434       -16.809731      16.821998       0.012267
   2621   -6.59617    4.25438   -6.89876       -17.290329      17.310537       0.020207
   2622   -5.25311    3.33927   -7.82464       -17.312044      17.326537       0.014492
   2623   -5.11549    1.50904   -7.46434       -18.560614      18.572376       0.011762
   2624   -4.13712   -8.15774    4.58686       -16.661255      16.672625       0.011370
   2625   -2.65643   -7.60360    4.60535       -17.863806      17.877400       0.013594
   2626   -1.17574   -6.68848    4.03978       -20.113320      20.128379       0.015059
   2627   -4.13712   -6.68848    5.17093       -17.864489      17.875568       0.011079
   2628   -1.75275   -9.63136    0.72887       -17.233724      17.249006       0.015282
   2629   -0.82620   -8.73474    1.64398       -18.450701      18.465440       0.014740
   2630   -0.26063   -7.25405    2.55910       -20.567414      20.581881       0.014466
   2631   -2.30689   -9.64985    2.20955       -16.700438      16.714590       0.014152
   2632   -1.51864   -8.39185    3.34735       -18.017389      18.031967       0.014578
   2633   -3.22200   -9.08428    3.69024       -16.482131      16.495035       0.012904
   2634   -7.09849   -4.85825    4.03978       -18.712488      18.713064       0.000576
   2635   -7.99511   -5.77337    3.11324       -17.581708      17.581079      -0.000630
   2636   -6.52149   -9.63136    0.72887       -15.600374      15.611881       0.011507
   2637   -7.44803   -8.73474    1.64398       -15.745151      15.751151       0.006000
   2638   -8.01360   -7.25405    2.55910       -16.432773      16.434276       0.001503
   2639   -5.05223  -10.21543    0.72887       -15.598032      15.612557       0.014526
   2640   -3.22200  -10.21543    0.72887       -16.167927      16.183372       0.015445
   2641   -7.09849   -6.68848    4.03978       -16.845030      16.849025       0.003995
   2642   -6.75560   -8.39185    3.34735       -15.799268      15.806238       0.006971
   2643   -5.96735   -9.64985    2.20955       -15.418728      15.429086       0.010358
   2644   -5.61780   -7.60360    4.60535       -16.516917      16.525330       0.008413
   2645   -5.05223   -9.08428    3.69024       -15.798366      15.808911       0.010545
   2646   -4.13712  -10.01016    2.34718       -15.713283      15.726114       0.012831
   2647   -5.75543   -5.77337    4.96566       -18.073104      18.079388       0.006284
   2648    0.21622   -8.61904   -1.81764       -18.626233      18.641170       0.014936
   2649   -0.68746   -6.59128   -5.69413       -18.445422      18.457648       0.012226
   2650   -1.25303   -8.07197   -4.77901       -17.632092      17.650544       0.018451
   2651    0.45033   -7.37953   -4.43612       -18.710586      18.723991       0.013405
   2652   -0.33792   -8.63754   -3.29833       -17.909779      17.925963       0.016184
   2653   -2.16815   -3.84594   -6.25970       -20.328295      20.324465      -0.003830
   2654   -0.54984   -4.76105   -6.05443       -19.851568      19.856839       0.005271
   2655   -2.16815   -5.67616   -6.25970       -18.721122      18.730763       0.009641
   2656    3.23126    1.98637   -8.09833       -18.367017      18.370610       0.003593
   2657    4.71195    2.54051   -8.11683       -17.653710      17.653385      -0.000326
   2658    6.19263    3.45562   -7.55126       -17.257671      17.251144      -0.006527
   2659    3.23126    6.75511   -8.09833       -15.759983      15.757586      -0.002397
   2660    4.71195    6.20097   -8.11683       -15.662397      15.659317      -0.003080
   2661    6.19263    5.28585   -7.55126       -16.166369      16.160408      -0.005961
   2662    3.23126    5.28585   -8.68240       -16.066049      16.066389       0.000340
   2663    4.84957    4.37074   -8.47713       -16.290424      16.288984      -0.001440
   2664    3.23126    3.45562   -8.68240       -16.983600      16.985799       0.002198
   2665    5.84974    6.98922   -6.85882       -15.803117      15.795838      -0.007279
   2666    4.14637    7.68166   -7.20171       -15.661029      15.654825      -0.006204
   2667    1.40103    8.24723   -5.72103       -17.206171      17.192374      -0.013796
   2668    3.23126    8.60753   -5.85865       -16.312713      16.299966      -0.012747
   2669    2.31615    7.68166   -7.20171       -16.137700      16.132030      -0.005671
   2670    0.61278    6.98922   -6.85882       -17.299838      17.295743      -0.004095
   2671    1.75057    6.20097   -8.11683       -16.400225      16.399917      -0.000308
   2672   -0.64523    5.85143   -6.07057       -19.367289      19.367400       0.000111
   2673    0.26989    5.28585   -7.55126       -17.839313      17.841719       0.002407
   2674    0.26989    3.45562   -7.55126       -18.992802      18.998040       0.005237
   2675    1.61295    4.37074   -8.47713       -17.105135      17.108149       0.003014
   2676    1.75057    2.54051   -8.11683       -18.426516      18.431129       0.004614
   2677    0.61278    1.75226   -6.85882       -20.908883      20.914212       0.005330
   2678    8.60811    5.24379    1.43164       -18.153511      18.136230      -0.017281
   2679    7.12742    6.15890    1.99721       -18.664130      18.653321      -0.010810
   2680    9.52322    5.80936   -0.04905       -16.856279      16.838998      -0.017281
   2681    8.95765    7.29005   -0.96416       -16.082325      16.068485      -0.013840
   2682    8.03110    8.18666   -1.87928       -15.957261      15.943274      -0.013988
   2683    8.26521    6.94715    0.73920       -16.998463      16.985481      -0.012981
   2684    7.47696    8.20516   -0.39859       -16.568175      16.553871      -0.014305
   2685    8.95765    7.29005   -2.79439       -15.750633      15.736606      -0.014027
   2686    9.88353    5.94698   -1.87928       -16.239037      16.221161      -0.017876
   2687    9.52322    5.80936   -3.70951       -16.137894      16.119969      -0.017925
   2688    8.60811    5.24379   -5.19019       -16.607083      16.589643      -0.017440
   2689    7.47696    8.20516   -3.35996       -15.969207      15.955148      -0.014059
   2690    8.26521    6.94715   -4.49776       -15.937333      15.923882      -0.013451

 NET CHARGES:
 -------------------------------------
 ATOM                CHARGE    E.S.D.
 -------------------------------------
 C                   0.0809    0.1659
 C                   0.0803    0.1856
 H                   0.4243    0.0066
 H                   0.4231    0.0058
 H                   0.4113    0.0085
 H                   0.4328    0.0106
 H                   0.4177    0.0071
 H                   0.4650    0.0072
 H                   0.4032    0.0034
 H                   0.3872    0.0059
 O                  -0.6895    0.0202
 O                  -0.5962    0.0244
 O                  -0.6639    0.0217
 O                  -0.6763    0.0259
 O                  -0.6312    0.0225
 O                  -0.6766    0.0308
 O                  -0.6005    0.0128
 O                  -0.5656    0.0202
 O                  -0.4888    0.1268
 C                  -0.0137    0.6400
 C                   0.3842    0.4143
 C                   0.3083    0.3322
 C                   0.0125    0.2925
 C                   0.1775    0.3169
 C                   0.4090    0.2930
 C                   0.3105    0.4460
 C                   0.0824    0.2249
 C                   0.3070    0.3780
 C                   0.2760    0.2225
 O                  -0.4540    0.0703
 O                  -0.3840    0.0423
 H                   0.1124    0.0419
 H                   0.0748    0.0312
 H                   0.0028    0.0352
 H                   0.0607    0.0229
 H                   0.1088    0.0290
 H                   0.0010    0.0295
 H                  -0.0153    0.0823
 H                   0.0227    0.0191
 H                  -0.0638    0.0612
 H                   0.0841    0.0195
 H                   0.0391    0.0144
 H                   0.0719    0.0190
 H                   0.0698    0.0144
 H                   0.0777    0.0173
 -------------------------------------

 RMS DEVIATION IS            0.798 KCAL/MOLE
 RELATIVE RMS DEVIATION IS   6.210 %

 MULTIPOLE MOMENTS:
 ---------------------------------------------------------
 STATUS  ACTUAL VALUE       QUANTITY        FITTED VALUE 
 ---------------------------------------------------------
 FIXED       0.0000       TOTAL CHARGE         0.0000
             4.5048 D    DIPOLE MOMENT         4.4892 D
 FREE       -0.4535 D          DX             -0.4516 D
 FREE       -4.4411 D          DY             -4.4296 D
 FREE        0.6040 D          DZ              0.5723 D
 FREE        0.0000 BU         QXX            -7.9468 BU
 FREE        0.0000 BU         QYY            -5.1390 BU
 FREE        0.0000 BU         QZZ            13.0859 BU
 FREE        0.0000 BU         QXY            -4.3482 BU
 FREE        0.0000 BU         QXZ            32.6833 BU
 FREE        0.0000 BU         QYZ            -9.8020 BU
 ---------------------------------------------------------
 ...... END OF PROPERTY EVALUATION ......
 CPU     0: STEP CPU TIME=     3.60 TOTAL CPU TIME=        137.2 (      2.3 MIN)
 TOTAL WALL CLOCK TIME=        272.1 SECONDS, CPU UTILIZATION IS    50.42%
              1954234  WORDS OF DYNAMIC MEMORY USED
 EXECUTION OF GAMESS TERMINATED NORMALLY Fri May 22 21:57:06 2020
 DDI: 263640 bytes (0.3 MB / 0 MWords) used by master data server.
Note: The following floating-point exceptions are signalling: IEEE_UNDERFLOW_FLAGNote: The following floating-point exceptions are signalling: IEEE_UNDERFLOW_FLAGNote: The following floating-point exceptions are signalling: IEEE_UNDERFLOW_FLAGNote: The following floating-point exceptions are signalling: IEEE_UNDERFLOW_FLAG IEEE_DENORMAL
Note: The following floating-point exceptions are signalling: IEEE_UNDERFLOW_FLAG IEEE_DENORMAL
Note: The following floating-point exceptions are signalling: IEEE_UNDERFLOW_FLAG
 ----------------------------------------
 CPU timing information for all processes
 ========================================
 0: 136.513 + 0.678 = 137.192
 1: 136.169 + 0.287 = 136.457
 2: 134.370 + 0.359 = 134.730
 3: 134.855 + 0.247 = 135.103
 4: 135.756 + 0.423 = 136.179
 5: 135.950 + 0.271 = 136.221
 6: 135.580 + 0.292 = 135.873
 7: 135.497 + 0.243 = 135.741
 ----------------------------------------
 IEEE_DENORMAL
 IEEE_DENORMAL
 IEEE_DENORMAL
 IEEE_DENORMAL
Note: The following floating-point exceptions are signalling: IEEE_UNDERFLOW_FLAGNote: The following floating-point exceptions are signalling: IEEE_DENORMAL
 IEEE_UNDERFLOW_FLAG IEEE_DENORMAL
 ddikick.x: exited gracefully.
unset echo
----- accounting info -----
Files used on the master node pietdev were:
-rwxr-xr-x 1 piet piet     2610 mei 22 21:52 /home/piet/scr/lactose_charge_geodisk.F05*
-rw-r--r-- 1 piet piet 50790400 mei 22 21:57 /home/piet/scr/lactose_charge_geodisk.F10
ls: No match.
ls: No match.
ls: No match.
vr 22 mei 2020 21:57:09 CEST
0.123u 0.020s 4:35.25 0.0%	0+0k 0+8io 0pf+0w
