----- GAMESS execution script 'rungms' -----
This job is running on host pietdev
under operating system Linux at za 16 mei 2020 17:44:53 CEST
Available scratch disk space (Kbyte units) at beginning of the job is
Filesystem     1K-blocks     Used Available Use% Mounted on
/dev/sda2      244568380 30359260 201716064  14% /
GAMESS temporary binary files will be written to /home/piet/scr
GAMESS supplementary output files will be written to /home/piet/gamess/scr
Copying input file aspartate_fukui_neu.inp to your run's scratch directory...
cp aspartate_fukui_neu.inp /home/piet/scr/aspartate_fukui_neu.F05
unset echo
 
Assuming a single but multicore node.
 
/home/piet/gamess/ddikick.x /home/piet/gamess/gamess.03.x aspartate_fukui_neu -ddi 1 6 pietdev:cpus=6 -scr /home/piet/scr

 Distributed Data Interface kickoff program.
 Initiating 6 compute processes on 1 nodes to run the following command:
 /home/piet/gamess/gamess.03.x aspartate_fukui_neu 

          ******************************************************
          *         GAMESS VERSION = 30 SEP 2019 (R2)          *
          *             FROM IOWA STATE UNIVERSITY             *
          * M.W.SCHMIDT, K.K.BALDRIDGE, J.A.BOATZ, S.T.ELBERT, *
          *   M.S.GORDON, J.H.JENSEN, S.KOSEKI, N.MATSUNAGA,   *
          *          K.A.NGUYEN, S.J.SU, T.L.WINDUS,           *
          *       TOGETHER WITH M.DUPUIS, J.A.MONTGOMERY       *
          *         J.COMPUT.CHEM.  14, 1347-1363(1993)        *
          **************** 64 BIT LINUX VERSION ****************

  SINCE 1993, STUDENTS AND POSTDOCS WORKING AT IOWA STATE UNIVERSITY
  AND ALSO IN THEIR VARIOUS JOBS AFTER LEAVING ISU HAVE MADE IMPORTANT
  CONTRIBUTIONS TO THE CODE:
     IVANA ADAMOVIC, CHRISTINE AIKENS, YURI ALEXEEV, POOJA ARORA,
     ANDREY ASADCHEV, ROB BELL, PRADIPTA BANDYOPADHYAY, JONATHAN BENTZ,
     COLLEEN BERTONI, BRETT BODE, KURT BRORSEN, CALEB CARLIN, GALINA CHABAN,
     WEI CHEN, CHEOL HO CHOI, PAUL DAY, ALBERT DEFUSCO, NUWAN DESILVA,
     TIM DUDLEY, DMITRI FEDOROV, ALEX FINDLATER, GRAHAM FLETCHER, 
     MARK FREITAG, KURT GLAESEMANN, EMILIE B GUIDEZ, ANASTASIA GUNINA, 
     DAN KEMP, SAROM SOK LEANG, GRANT MERRILL,
     NORIYUKI MINEZAWA, JONATHAN MULLIN,
     TAKESHI NAGATA, SEAN NEDD, HEATHER NETZLOFF, BOSILJKA NJEGIC, RYAN OLSON,
     MIKE PAK, BUU PHAM, DAVID POOLE,
     SPENCER PRUITT, LUKE ROSKOP, TOSAPORN SATTASATHUCHANA,
     JIM SHOEMAKER, LYUDMILA SLIPCHENKO,
     TONY SMITH, JIE SONG, TETSUYA TAKETSUGU, SIMON WEBB,
     JORGE LUIS GALVEZ VALLEJO, PENG XU, SOOHAENG YOO,
     FEDERICO ZAHARIEV

  ADDITIONAL CODE HAS BEEN PROVIDED BY COLLABORATORS IN OTHER GROUPS:
     IOWA STATE UNIVERSITY:
          JOE IVANIC, AARON WEST, LAIMUTIS BYTAUTAS, KLAUS RUEDENBERG
     UNIVERSITY OF TOKYO: KIMIHIKO HIRAO, TAKAHITO NAKAJIMA,
          TAKAO TSUNEDA, MUNEAKI KAMIYA, SUSUMU YANAGISAWA,
          KIYOSHI YAGI, MAHITO CHIBA, SEIKEN TOKURA, NAOAKI KAWAKAMI
     UNIVERSITY OF AARHUS: FRANK JENSEN
     UNIVERSITY OF IOWA: VISVALDAS KAIRYS, HUI LI
     NATIONAL INST. OF STANDARDS AND TECHNOLOGY: WALT STEVENS, DAVID GARMER
     UNIVERSITY OF PISA: BENEDETTA MENNUCCI, JACOPO TOMASI
     UNIVERSITY OF MEMPHIS: HENRY KURTZ, PRAKASHAN KORAMBATH
     UNIVERSITY OF ALBERTA: TOBY ZENG, MARIUSZ KLOBUKOWSKI
     UNIVERSITY OF NEW ENGLAND: MARK SPACKMAN
     MIE UNIVERSITY: HIROAKI UMEDA
     NAT. INST. OF ADVANCED INDUSTRIAL SCIENCE AND TECHNOLOGY: KAZUO KITAURA
     MICHIGAN STATE UNIVERSITY:
          KAROL KOWALSKI, MARTA WLOCH, JEFFREY GOUR, JESSE LUTZ,
          WEI LI, JUN SHEN, J. EMILIANO DEUSTUA, PIOTR PIECUCH
     UNIVERSITY OF MINNESOTA:
          ANDREW SAND, PRACHI SHARMA, YINAN SHU
     UNIVERSITY OF SILESIA: MONIKA MUSIAL, STANISLAW KUCHARSKI
     FACULTES UNIVERSITAIRES NOTRE-DAME DE LA PAIX:
          OLIVIER QUINET, BENOIT CHAMPAGNE
     UNIVERSITY OF CALIFORNIA - SANTA BARBARA: BERNARD KIRTMAN
     INSTITUTE FOR MOLECULAR SCIENCE:
          KAZUYA ISHIMURA, MICHIO KATOUDA, AND SHIGERU NAGASE
     UNIVERSITY OF NOTRE DAME: ANNA POMOGAEVA, DAN CHIPMAN
     KYUSHU UNIVERSITY:
          HARUYUKI NAKANO,
          FENG LONG GU, JACEK KORCHOWIEC, MARCIN MAKOWSKI, AND YURIKO AOKI,
          HIROTOSHI MORI AND EISAKU MIYOSHI
     PENNSYLVANIA STATE UNIVERSITY:
          TZVETELIN IORDANOV, CHET SWALINA, JONATHAN SKONE,
          SHARON HAMMES-SCHIFFER
     WASEDA UNIVERSITY:
          MASATO KOBAYASHI, TOMOKO AKAMA, TSUGUKI TOUMA,
          TAKESHI YOSHIKAWA, YASUHIRO IKABATA, JUNJI SEINO,
          YUYA NAKAJIMA, HIROMI NAKAI
     NANJING UNIVERSITY: SHUHUA LI
     UNIVERSITY OF NEBRASKA:
          PEIFENG SU, DEJUN SI, NANDUN THELLAMUREGE, YALI WANG, HUI LI
     UNIVERSITY OF ZURICH: ROBERTO PEVERATI, KIM BALDRIDGE
     N. COPERNICUS UNIVERSITY AND JACKSON STATE UNIVERSITY:
          MARIA BARYSZ
     UNIVERSITY OF COPENHAGEN: Jimmy Kromann, CASPER STEINMANN
     TOKYO INSTITUTE OF TECHNOLOGY: HIROYA NAKATA
     NAGOYA UNIVERSITY: YOSHIO NISHIMOTO, STEPHAN IRLE
     MOSCOW STATE UNIVERSITY: VLADIMIR MIRONOV
     A.N.NESMEYANOV INSTITUTE OF ORGANOELEMENT COMPOUNDS OF RUSSIAN ACADEMY OF SCIENCES:
          IGOR S. GERASIMOV
     JOHANNES KEPLER UNIVERSITY LINZ:
          CHRISTIAN FRIEDL


 PARALLEL VERSION RUNNING ON        6 PROCESSORS IN        1 NODES.

 EXECUTION OF GAMESS BEGUN Sat May 16 17:44:53 2020

            ECHO OF THE FIRST FEW INPUT CARDS -
 INPUT CARD> $BASIS GBASIS=N21 NGAUSS=3 $END                                                
 INPUT CARD> $CONTRL SCFTYP=RHF MAXIT=60 MULT=1 ICHARG=0 $END                               
 INPUT CARD> $SYSTEM MEMDDI=1000 MWORDS=30 $END                                             
 INPUT CARD> $SCF DIRSCF=.TRUE. $END                                                        
 INPUT CARD> $DATA                                                                          
 INPUT CARD>                                                                                
 INPUT CARD>C1                                                                              
 INPUT CARD>C 6.0000000 0.4395717178 0.3425831297 0.3099352448                              
 INPUT CARD>H 1.0000000 0.2490205744 0.3692065336 1.3904689540                              
 INPUT CARD>C 6.0000000 -0.5149565411 -0.6803334866 -0.3496403822                           
 INPUT CARD>C 6.0000000 1.8907924304 -0.0327450863 0.1038570637                             
 INPUT CARD>O 8.0000000 2.7986756378 0.6751390282 -0.3121777102                             
 INPUT CARD>O 8.0000000 2.0929841171 -1.3556633984 0.4728277841                             
 INPUT CARD>H 1.0000000 -0.3761344271 -0.6936688077 -1.4357553954                           
 INPUT CARD>H 1.0000000 -0.3051416096 -1.6781601571 0.0415489528                            
 INPUT CARD>H 1.0000000 0.3001108512 1.3470299658 -0.0946553457                             
 INPUT CARD>H 1.0000000 -1.5566919357 -0.4210370543 -0.1371281496                           
 INPUT CARD>H 1.0000000 3.0548891847 -1.5740206669 0.3216689837                             
 INPUT CARD> $END                                                                           
   30000000 WORDS OF MEMORY AVAILABLE

     BASIS OPTIONS
     -------------
     GBASIS=N21          IGAUSS=       3      POLAR=NONE    
     NDFUNC=       0     NFFUNC=       0     DIFFSP=       F
     NPFUNC=       0      DIFFS=       F     BASNAM=        


     RUN TITLE
     ---------
                                                                                 

 THE POINT GROUP OF THE MOLECULE IS C1      
 THE ORDER OF THE PRINCIPAL AXIS IS     0

 ATOM      ATOMIC                      COORDINATES (BOHR)
           CHARGE         X                   Y                   Z
 C           6.0     0.8306700986        0.6473882431        0.5856926866
 H           1.0     0.4705806509        0.6976991814        2.6276053175
 C           6.0    -0.9731267583       -1.2856438699       -0.6607245166
 C           6.0     3.5730795931       -0.0618792406        0.1962613923
 O           8.0     5.2887300840        1.2758277669       -0.5899303318
 O           8.0     3.9551664780       -2.5618323546        0.8935149513
 H           1.0    -0.7107910018       -1.3108439728       -2.7131842827
 H           1.0    -0.5766340296       -3.1712628604        0.0785161359
 H           1.0     0.5671272747        2.5455175326       -0.1788726666
 H           1.0    -2.9417212058       -0.7956446633       -0.2591346279
 H           1.0     5.7729034819       -2.9744677595        0.6078662379

          INTERNUCLEAR DISTANCES (ANGS.)
          ------------------------------

                1 C          2 H          3 C          4 C          5 O     

   1 C       0.0000000    1.0975298 *  1.5467781 *  1.5130701 *  2.4623138 *
   2 H       1.0975298 *  0.0000000    2.1709850 *  2.1242293 *  3.0811266  
   3 C       1.5467781 *  2.1709850 *  0.0000000    2.5323228 *  3.5803446  
   4 C       1.5130701 *  2.1242293 *  2.5323228 *  0.0000000    1.2241065 *
   5 O       2.4623138 *  3.0811266    3.5803446    1.2241065 *  0.0000000  
   6 O       2.3757836 *  2.6865299 *  2.8167142 *  1.3882124 *  2.2887535 *
   7 H       2.1878369 *  3.0835153    1.0950321 *  2.8188977 *  3.6353103  
   8 H       2.1702609 *  2.5136410 *  1.0921124 *  2.7447039 *  3.9111151  
   9 H       1.0918133 *  1.7788600 *  2.1998988 *  2.1150542 *  2.5964552 *
  10 H       2.1835865 *  2.4937192 *  1.0943531 *  3.4776419    4.4946047  
  11 H       3.2424363    3.5765016    3.7407394    1.9437319 *  2.3507714 *

                6 O          7 H          8 H          9 H         10 H     

   1 C       2.3757836 *  2.1878369 *  2.1702609 *  1.0918133 *  2.1835865 *
   2 H       2.6865299 *  3.0835153    2.5136410 *  1.7788600 *  2.4937192 *
   3 C       2.8167142 *  1.0950321 *  1.0921124 *  2.1998988 *  1.0943531 *
   4 C       1.3882124 *  2.8188977 *  2.7447039 *  2.1150542 *  3.4776419  
   5 O       2.2887535 *  3.6353103    3.9111151    2.5964552 *  4.4946047  
   6 O       0.0000000    3.1902152    2.4578471 *  3.2925648    3.8165047  
   7 H       3.1902152    0.0000000    1.7767080 *  2.5338328 *  1.7760847 *
   8 H       2.4578471 *  1.7767080 *  0.0000000    3.0881479    1.7828803 *
   9 H       3.2925648    2.5338328 *  3.0881479    0.0000000    2.5642897 *
  10 H       3.8165047    1.7760847 *  1.7828803 *  2.5642897 *  0.0000000  
  11 H       0.9978929 *  3.9541728    3.3732950    4.0366653    4.7756200  

               11 H     

   1 C       3.2424363  
   2 H       3.5765016  
   3 C       3.7407394  
   4 C       1.9437319 *
   5 O       2.3507714 *
   6 O       0.9978929 *
   7 H       3.9541728  
   8 H       3.3732950  
   9 H       4.0366653  
  10 H       4.7756200  
  11 H       0.0000000  

  * ... LESS THAN  3.000


     ATOMIC BASIS SET
     ----------------
 THE CONTRACTED PRIMITIVE FUNCTIONS HAVE BEEN UNNORMALIZED
 THE CONTRACTED BASIS FUNCTIONS ARE NOW NORMALIZED TO UNITY

  SHELL TYPE  PRIMITIVE        EXPONENT          CONTRACTION COEFFICIENT(S)

 C         

      1   S       1           172.2560000    0.061766907377
      1   S       2            25.9109000    0.358794042852
      1   S       3             5.5333500    0.700713083689

      2   L       4             3.6649800   -0.395895162119    0.236459946619
      2   L       5             0.7705450    1.215834355681    0.860618805716

      3   L       6             0.1958570    1.000000000000    1.000000000000

 H         

      4   S       7             5.4471780    0.156284978695
      4   S       8             0.8245472    0.904690876670

      5   S       9             0.1831916    1.000000000000

 C         

      6   S      10           172.2560000    0.061766907377
      6   S      11            25.9109000    0.358794042852
      6   S      12             5.5333500    0.700713083689

      7   L      13             3.6649800   -0.395895162119    0.236459946619
      7   L      14             0.7705450    1.215834355681    0.860618805716

      8   L      15             0.1958570    1.000000000000    1.000000000000

 C         

      9   S      16           172.2560000    0.061766907377
      9   S      17            25.9109000    0.358794042852
      9   S      18             5.5333500    0.700713083689

     10   L      19             3.6649800   -0.395895162119    0.236459946619
     10   L      20             0.7705450    1.215834355681    0.860618805716

     11   L      21             0.1958570    1.000000000000    1.000000000000

 O         

     12   S      22           322.0370000    0.059239393389
     12   S      23            48.4308000    0.351499960776
     12   S      24            10.4206000    0.707657921031

     13   L      25             7.4029400   -0.404453583190    0.244586106967
     13   L      26             1.5762000    1.221561761397    0.853955373466

     14   L      27             0.3736840    1.000000000000    1.000000000000

 O         

     15   S      28           322.0370000    0.059239393389
     15   S      29            48.4308000    0.351499960776
     15   S      30            10.4206000    0.707657921031

     16   L      31             7.4029400   -0.404453583190    0.244586106967
     16   L      32             1.5762000    1.221561761397    0.853955373466

     17   L      33             0.3736840    1.000000000000    1.000000000000

 H         

     18   S      34             5.4471780    0.156284978695
     18   S      35             0.8245472    0.904690876670

     19   S      36             0.1831916    1.000000000000

 H         

     20   S      37             5.4471780    0.156284978695
     20   S      38             0.8245472    0.904690876670

     21   S      39             0.1831916    1.000000000000

 H         

     22   S      40             5.4471780    0.156284978695
     22   S      41             0.8245472    0.904690876670

     23   S      42             0.1831916    1.000000000000

 H         

     24   S      43             5.4471780    0.156284978695
     24   S      44             0.8245472    0.904690876670

     25   S      45             0.1831916    1.000000000000

 H         

     26   S      46             5.4471780    0.156284978695
     26   S      47             0.8245472    0.904690876670

     27   S      48             0.1831916    1.000000000000

 TOTAL NUMBER OF BASIS SET SHELLS             =   27
 NUMBER OF CARTESIAN GAUSSIAN BASIS FUNCTIONS =   57
 NUMBER OF ELECTRONS                          =   40
 CHARGE OF MOLECULE                           =    0
 SPIN MULTIPLICITY                            =    1
 NUMBER OF OCCUPIED ORBITALS (ALPHA)          =   20
 NUMBER OF OCCUPIED ORBITALS (BETA )          =   20
 TOTAL NUMBER OF ATOMS                        =   11
 THE NUCLEAR REPULSION ENERGY IS      177.1386125301

     $CONTRL OPTIONS
     ---------------
 SCFTYP=RHF          RUNTYP=ENERGY       EXETYP=RUN     
 MPLEVL=       0     CITYP =NONE         CCTYP =NONE         VBTYP =NONE    
 DFTTYP=NONE         TDDFT =NONE    
 MULT  =       1     ICHARG=       0     NZVAR =       0     COORD =UNIQUE  
 PP    =NONE         RELWFN=NONE         LOCAL =NONE         NUMGRD=       F
 ISPHER=      -1     NOSYM =       0     MAXIT =      60     UNITS =ANGS    
 PLTORB=       F     MOLPLT=       F     AIMPAC=       F     FRIEND=        
 NPRINT=       7     IREST =       0     GEOM  =INPUT   
 NORMF =       0     NORMP =       0     ITOL  =      20     ICUT  =       9
 INTTYP=BEST         GRDTYP=BEST         QMTTOL= 1.0E-06

     $SYSTEM OPTIONS
     ---------------
  REPLICATED MEMORY=    30000000 WORDS (ON EVERY NODE).
 DISTRIBUTED MEMDDI=        1000 MILLION WORDS IN AGGREGATE,
 MEMDDI DISTRIBUTED OVER   6 PROCESSORS IS   166666666 WORDS/PROCESSOR.
 TOTAL MEMORY REQUESTED ON EACH PROCESSOR=   196666666 WORDS.
 TIMLIM=      525600.00 MINUTES, OR     365.0 DAYS.
 PARALL= T  BALTYP=  DLB     KDIAG=    0  COREFL= F
 MXSEQ2=     300 MXSEQ3=     150  mem10=         0

          ----------------
          PROPERTIES INPUT
          ----------------

     MOMENTS            FIELD           POTENTIAL          DENSITY
 IEMOM =       1   IEFLD =       0   IEPOT =       0   IEDEN =       0
 WHERE =COMASS     WHERE =NUCLEI     WHERE =NUCLEI     WHERE =NUCLEI  
 OUTPUT=BOTH       OUTPUT=BOTH       OUTPUT=BOTH       OUTPUT=BOTH    
 IEMINT=       0   IEFINT=       0                     IEDINT=       0
                                                       MORB  =       0
          EXTRAPOLATION IN EFFECT
          SOSCF IN EFFECT
 ORBITAL PRINTING OPTION: NPREO=     1    57     2     1

     -------------------------------
     INTEGRAL TRANSFORMATION OPTIONS
     -------------------------------
     NWORD  =            0
     CUTOFF = 1.0E-09     MPTRAN =       0
     DIRTRF =       T     AOINTS =DUP     

          ----------------------
          INTEGRAL INPUT OPTIONS
          ----------------------
 NOPK  =       1 NORDER=       0 SCHWRZ=       T

     ------------------------------------------
     THE POINT GROUP IS C1 , NAXIS= 0, ORDER= 1
     ------------------------------------------

     DIMENSIONS OF THE SYMMETRY SUBSPACES ARE
 A   =   57

 ..... DONE SETTING UP THE RUN .....
 CPU     0: STEP CPU TIME=     0.02 TOTAL CPU TIME=          0.0 (      0.0 MIN)
 TOTAL WALL CLOCK TIME=          0.0 SECONDS, CPU UTILIZATION IS   100.00%

          ********************
          1 ELECTRON INTEGRALS
          ********************
 ...... END OF ONE-ELECTRON INTEGRALS ......
 CPU     0: STEP CPU TIME=     0.01 TOTAL CPU TIME=          0.0 (      0.0 MIN)
 TOTAL WALL CLOCK TIME=          0.0 SECONDS, CPU UTILIZATION IS   100.00%

          -------------
          GUESS OPTIONS
          -------------
          GUESS =HUCKEL            NORB  =       0          NORDER=       0
          MIX   =       F          PRTMO =       F          PUNMO =       F
          TOLZ  = 1.0E-08          TOLE  = 1.0E-05
          SYMDEN=       F          PURIFY=       F

 INITIAL GUESS ORBITALS GENERATED BY HUCKEL   ROUTINE.
 HUCKEL GUESS REQUIRES     35526 WORDS.

 SYMMETRIES FOR INITIAL GUESS ORBITALS FOLLOW.   BOTH SET(S).
    20 ORBITALS ARE OCCUPIED (    5 CORE ORBITALS).
     6=A        7=A        8=A        9=A       10=A       11=A       12=A   
    13=A       14=A       15=A       16=A       17=A       18=A       19=A   
    20=A       21=A       22=A       23=A       24=A       25=A       26=A   
    27=A       28=A       29=A       30=A   
 ...... END OF INITIAL ORBITAL SELECTION ......
 CPU     0: STEP CPU TIME=     0.01 TOTAL CPU TIME=          0.0 (      0.0 MIN)
 TOTAL WALL CLOCK TIME=          0.1 SECONDS, CPU UTILIZATION IS    80.00%

                    ----------------------
                    AO INTEGRAL TECHNOLOGY
                    ----------------------
     S,P,L SHELL ROTATED AXIS INTEGRALS, REPROGRAMMED BY
        KAZUYA ISHIMURA (IMS) AND JOSE SIERRA (SYNSTAR).
     S,P,D,L SHELL ROTATED AXIS INTEGRALS PROGRAMMED BY
        KAZUYA ISHIMURA (INSTITUTE FOR MOLECULAR SCIENCE).
     S,P,D,F,G SHELL TO TOTAL QUARTET ANGULAR MOMENTUM SUM 5,
        ERIC PROGRAM BY GRAHAM FLETCHER (ELORET AND NASA ADVANCED
        SUPERCOMPUTING DIVISION, AMES RESEARCH CENTER).
     S,P,D,F,G,L SHELL GENERAL RYS QUADRATURE PROGRAMMED BY
        MICHEL DUPUIS (PACIFIC NORTHWEST NATIONAL LABORATORY).

          --------------------
          2 ELECTRON INTEGRALS
          --------------------

 DIRECT SCF METHOD SKIPS INTEGRAL STORAGE ON DISK.
 DIRECT TRANSFORMATION SKIPS AO INTEGRAL STORAGE ON DISK.
  ...... END OF TWO-ELECTRON INTEGRALS .....
 CPU     0: STEP CPU TIME=     0.01 TOTAL CPU TIME=          0.1 (      0.0 MIN)
 TOTAL WALL CLOCK TIME=          0.1 SECONDS, CPU UTILIZATION IS    83.33%

          --------------------------
                 RHF SCF CALCULATION
          --------------------------

     NUCLEAR ENERGY =       177.1386125301
     MAXIT =   60     NPUNCH=    2
     EXTRAP=T  DAMP=F  SHIFT=F  RSTRCT=F  DIIS=F  DEM=F  SOSCF=T
     DENSITY MATRIX CONV=  2.00E-05
     SOSCF WILL OPTIMIZE     740 ORBITAL ROTATIONS, SOGTOL=   0.250
     MEMORY REQUIRED FOR RHF ITERS=     71613 WORDS.

 DIRECT SCF CALCULATION, SCHWRZ=T   FDIFF=T,  DIRTHR=  0.00E+00 NITDIR=10
 SCHWARZ INEQUALITY OVERHEAD:      1636 INTEGRALS, T=        0.00

                                                                                   NONZERO     BLOCKS
 ITER EX DEM     TOTAL ENERGY        E CHANGE  DENSITY CHANGE     ORB. GRAD      INTEGRALS    SKIPPED
   1  0  0     -264.6324931550  -264.6324931550   0.733195579   0.000000000        1175907      15833
          ---------------START SECOND ORDER SCF---------------
   2  1  0     -265.2594888787    -0.6269957238   0.132903329   0.105707778        1174389      16561
   3  2  0     -265.2878903995    -0.0284015208   0.102178044   0.092412580        1170984      17532
   4  3  0     -265.3505547422    -0.0626643428   0.031835854   0.008926256        1165224      18629
   5  4  0     -265.3515881373    -0.0010333951   0.005998181   0.002208893        1153521      20081
   6  5  0     -265.3516714112    -0.0000832739   0.001560913   0.000725006        1135541      21543
   7  6  0     -265.3516814547    -0.0000100436   0.000454332   0.000228244        1115560      23342
   8  7  0     -265.3516823805    -0.0000009258   0.000189032   0.000084877        1082654      25547
   9  8  0     -265.3516824925    -0.0000001120   0.000043549   0.000024462        1062318      27207
  10  9  0     -265.3516825027    -0.0000000102   0.000015712   0.000008676        1022564      29978
  11 10  0     -265.3516825041    -0.0000000014   0.000003630   0.000001634         992454      31755

          -----------------
          DENSITY CONVERGED
          -----------------
     TIME TO FORM FOCK OPERATORS=       0.1 SECONDS (       0.0 SEC/ITER)
     FOCK TIME ON FIRST ITERATION=       0.0, LAST ITERATION=       0.0
     TIME TO SOLVE SCF EQUATIONS=       0.1 SECONDS (       0.0 SEC/ITER)

 FINAL RHF ENERGY IS     -265.3516825041 AFTER  11 ITERATIONS

          ------------
          EIGENVECTORS
          ------------

                      1          2          3          4          5
                  -20.5032   -20.4579   -11.3415   -11.1960   -11.1745
                     A          A          A          A          A   
    1  C  1  S   -0.000008  -0.000048  -0.001317   0.987994   0.003770
    2  C  1  S   -0.000384  -0.000356  -0.002215   0.104957  -0.001147
    3  C  1  X   -0.000714   0.000590  -0.000208   0.000456  -0.000375
    4  C  1  Y    0.000016   0.000602   0.000309  -0.000391  -0.000108
    5  C  1  Z    0.000163  -0.000454   0.000072  -0.000069  -0.000006
    6  C  1  S    0.000762   0.006666   0.019404  -0.095338   0.014509
    7  C  1  X    0.003008  -0.000603   0.013961  -0.005252  -0.008366
    8  C  1  Y    0.004636  -0.009550  -0.004518   0.005935  -0.006381
    9  C  1  Z   -0.002412   0.004205  -0.000255   0.003471  -0.005071
   10  H  2  S    0.000586  -0.000853  -0.001671   0.001160  -0.000911
   11  H  2  S    0.000208  -0.001743   0.002165   0.014436   0.001106
   12  C  3  S    0.000042  -0.000021  -0.001534  -0.004454   0.987478
   13  C  3  S    0.000386  -0.000362  -0.001971  -0.002766   0.101456
   14  C  3  X    0.000319  -0.000651  -0.001638   0.000522   0.000298
   15  C  3  Y    0.000109  -0.000173  -0.000185   0.000291   0.000216
   16  C  3  Z   -0.000277   0.000216   0.000052   0.000221   0.000035
   17  C  3  S    0.000592  -0.002386   0.002407   0.021544  -0.079265
   18  C  3  X   -0.001180   0.001526   0.005133   0.008164  -0.003121
   19  C  3  Y    0.000642  -0.000497   0.000462   0.007761  -0.002795
   20  C  3  Z    0.002731  -0.004224  -0.000833   0.004917  -0.001502
   21  C  4  S   -0.000459   0.000225   0.986716   0.000699   0.001164
   22  C  4  S   -0.000989   0.001766   0.094696  -0.002332  -0.001728
   23  C  4  X    0.000734   0.001248   0.000084  -0.000000   0.000992
   24  C  4  Y   -0.001404   0.001053   0.000092   0.000083   0.000239
   25  C  4  Z    0.000346  -0.000677  -0.000199  -0.000089   0.000100
   26  C  4  S    0.013039   0.017782  -0.047104   0.024424   0.003606
   27  C  4  X    0.003175   0.021397   0.021160  -0.016040  -0.003786
   28  C  4  Y   -0.016819   0.015615   0.000871   0.004729  -0.001304
   29  C  4  Z    0.004378  -0.009420  -0.004661   0.001323   0.000993
   30  O  5  S   -0.001215   0.983807   0.000195   0.000016  -0.000043
   31  O  5  S   -0.000202   0.100370   0.001890  -0.000096  -0.000406
   32  O  5  X    0.000527  -0.003413   0.000650  -0.000076  -0.000018
   33  O  5  Y   -0.000560  -0.002847  -0.000148   0.000276  -0.000001
   34  O  5  Z    0.000042   0.001633  -0.000058  -0.000087  -0.000126
   35  O  5  S    0.001168  -0.057976  -0.006128  -0.000038   0.001833
   36  O  5  X   -0.002608   0.011801   0.002147   0.002098  -0.000072
   37  O  5  Y    0.003746   0.009707   0.005583  -0.001494  -0.000189
   38  O  5  Z   -0.000531  -0.005599  -0.002325   0.000160   0.000491
   39  O  6  S    0.983577   0.001208   0.000020   0.000007   0.000052
   40  O  6  S    0.098726  -0.000049   0.000964  -0.000322   0.000390
   41  O  6  X    0.001929   0.000867   0.000676   0.000438  -0.000077
   42  O  6  Y    0.003081   0.000017   0.000685  -0.000552  -0.000040
   43  O  6  Z   -0.001424  -0.000204  -0.000412  -0.000063   0.000169
   44  O  6  S   -0.048368   0.002492   0.003194  -0.000417  -0.001783
   45  O  6  X   -0.002941  -0.005152  -0.004319  -0.000606   0.000946
   46  O  6  Y   -0.010225  -0.000000  -0.001126   0.001150  -0.000411
   47  O  6  Z    0.003927   0.001137   0.001414   0.000227  -0.000337
   48  H  7  S    0.000528  -0.000331  -0.000927  -0.001382   0.000240
   49  H  7  S    0.001005  -0.002165  -0.000443   0.000499   0.014316
   50  H  8  S   -0.000445   0.000147  -0.000505  -0.001392   0.000127
   51  H  8  S    0.000757   0.000594  -0.000413   0.000577   0.014355
   52  H  9  S   -0.001058   0.001107  -0.000928   0.001002  -0.001135
   53  H  9  S   -0.000427   0.003141   0.002403   0.014511   0.000862
   54  H 10  S   -0.000260   0.000386   0.000068  -0.001046   0.000135
   55  H 10  S   -0.000861   0.001614   0.003492  -0.000013   0.013756
   56  H 11  S    0.003245   0.001370   0.000977   0.000328  -0.000139
   57  H 11  S    0.003877  -0.000601   0.001291   0.001876   0.000101

                      6          7          8          9         10
                   -1.4510    -1.3537    -1.0680    -0.9054    -0.7926
                     A          A          A          A          A   
    1  C  1  S   -0.018412   0.000684  -0.169450   0.073681  -0.086969
    2  C  1  S    0.017887  -0.000442   0.159017  -0.066645   0.072615
    3  C  1  X    0.019893  -0.001982   0.008852  -0.126215  -0.073475
    4  C  1  Y   -0.006736  -0.006939  -0.033721  -0.046445   0.108023
    5  C  1  Z   -0.002611   0.001984  -0.017507  -0.039435   0.029455
    6  C  1  S    0.010841   0.010400   0.473889  -0.259523   0.351774
    7  C  1  X   -0.012327  -0.005804   0.015952  -0.028306  -0.016256
    8  C  1  Y    0.006888  -0.036779  -0.013945  -0.014350   0.051272
    9  C  1  Z   -0.002035   0.018181  -0.007745  -0.008903   0.013714
   10  H  2  S    0.006020  -0.002244   0.081308  -0.052210   0.081223
   11  H  2  S   -0.003790  -0.003154  -0.004858  -0.009908   0.037229
   12  C  3  S   -0.003552  -0.002474  -0.124387  -0.162946   0.036339
   13  C  3  S    0.006456   0.000348   0.124457   0.147469  -0.031648
   14  C  3  X    0.005393  -0.001385   0.037875  -0.044089   0.006162
   15  C  3  Y    0.001246  -0.000998   0.033220  -0.030644   0.064230
   16  C  3  Z    0.001362   0.002016   0.022238  -0.021968   0.029333
   17  C  3  S   -0.000763  -0.004240   0.302428   0.536819  -0.153394
   18  C  3  X   -0.006952   0.013819  -0.005679   0.003659  -0.003449
   19  C  3  Y   -0.000680   0.000127  -0.001290  -0.000573   0.034505
   20  C  3  Z    0.000842  -0.016215   0.000811  -0.002765   0.011224
   21  C  4  S   -0.124448   0.036544  -0.052968   0.082129   0.097347
   22  C  4  S    0.143603  -0.038511   0.070806  -0.098644  -0.116958
   23  C  4  X    0.084482  -0.084405  -0.127701   0.115748  -0.008258
   24  C  4  Y   -0.003307  -0.148147   0.011788  -0.005709   0.142611
   25  C  4  Z   -0.017110   0.063831   0.019491  -0.041029  -0.028342
   26  C  4  S    0.120587  -0.033965   0.075139  -0.199720  -0.289513
   27  C  4  X   -0.059848   0.028485  -0.025164   0.082519   0.056303
   28  C  4  Y   -0.003357   0.039103  -0.000925  -0.001685   0.064939
   29  C  4  Z    0.013867  -0.017717   0.006073  -0.027999  -0.021236
   30  O  5  S   -0.140457   0.163855   0.031662  -0.041038  -0.037556
   31  O  5  S    0.129259  -0.153451  -0.031229   0.041289   0.037579
   32  O  5  X   -0.062840   0.068287  -0.015232   0.040633   0.021889
   33  O  5  Y   -0.057286   0.043092   0.015006  -0.006919   0.071140
   34  O  5  Z    0.031351  -0.028083  -0.002199  -0.012803  -0.019743
   35  O  5  S    0.444242  -0.532863  -0.107119   0.142845   0.139398
   36  O  5  X   -0.063617   0.078619  -0.011263   0.031331   0.017757
   37  O  5  Y   -0.072896   0.047387   0.012405  -0.001600   0.069504
   38  O  5  Z    0.036440  -0.031955  -0.002903  -0.011372  -0.019381
   39  O  6  S   -0.153578  -0.166812   0.028640  -0.020532  -0.031350
   40  O  6  S    0.140562   0.153948  -0.026023   0.018693   0.030427
   41  O  6  X    0.027459   0.029018  -0.050396   0.068912   0.184843
   42  O  6  Y    0.054130   0.029056   0.024814  -0.071596  -0.223619
   43  O  6  Z   -0.023275  -0.016023   0.001046  -0.003733   0.039492
   44  O  6  S    0.475797   0.554372  -0.105054   0.085881   0.129527
   45  O  6  X    0.046826   0.024933  -0.039876   0.051778   0.169997
   46  O  6  Y    0.074290   0.054133   0.013348  -0.061294  -0.215146
   47  O  6  Z   -0.034126  -0.022924   0.001798  -0.002178   0.040355
   48  H  7  S    0.002147  -0.001007   0.060271   0.104511  -0.039416
   49  H  7  S    0.001456  -0.008628  -0.001247   0.025335  -0.018737
   50  H  8  S    0.002712   0.001138   0.061467   0.100333  -0.051496
   51  H  8  S    0.003753   0.009158  -0.006507   0.022842  -0.014722
   52  H  9  S    0.005381   0.001220   0.078820  -0.048481   0.109725
   53  H  9  S   -0.007527   0.009119  -0.008448  -0.002763   0.059060
   54  H 10  S    0.000838   0.001879   0.057248   0.111600  -0.016727
   55  H 10  S   -0.005151   0.009538  -0.004560   0.036377  -0.001809
   56  H 11  S    0.056889   0.073114  -0.039689   0.059383   0.160796
   57  H 11  S    0.012315   0.012691  -0.020916   0.035740   0.111872

                     11         12         13         14         15
                   -0.6823    -0.6720    -0.6335    -0.6012    -0.5733
                     A          A          A          A          A   
    1  C  1  S   -0.013218  -0.028312   0.027788   0.013713  -0.017616
    2  C  1  S    0.009768   0.016162  -0.019397  -0.010616   0.008864
    3  C  1  X   -0.053810  -0.153739   0.091163   0.018307   0.090924
    4  C  1  Y   -0.062312   0.040447  -0.047067   0.162191  -0.108135
    5  C  1  Z    0.115091   0.129215   0.161323  -0.105270  -0.019430
    6  C  1  S    0.065811   0.198385  -0.165926  -0.064455   0.141488
    7  C  1  X   -0.023494  -0.070233   0.039425   0.007479   0.091116
    8  C  1  Y   -0.091818   0.027048  -0.027618   0.120461  -0.113289
    9  C  1  Z    0.106807   0.083805   0.120805  -0.106812  -0.037364
   10  H  2  S    0.083215   0.118299   0.073651  -0.082639  -0.014204
   11  H  2  S    0.057748   0.085182   0.065882  -0.047878  -0.014717
   12  C  3  S    0.010450   0.002604  -0.014847  -0.004015  -0.005978
   13  C  3  S   -0.011388  -0.002433   0.014922   0.003386   0.007491
   14  C  3  X    0.016001  -0.064936  -0.074103  -0.107622   0.194647
   15  C  3  Y   -0.016203   0.063008  -0.126114   0.103921  -0.067895
   16  C  3  Z    0.082676   0.076252   0.056248  -0.183242  -0.100225
   17  C  3  S   -0.053034  -0.014025   0.069984   0.013665   0.013517
   18  C  3  X    0.025461  -0.061026  -0.063485  -0.081819   0.136797
   19  C  3  Y   -0.010240   0.038268  -0.085824   0.090298  -0.075336
   20  C  3  Z    0.044044   0.054792   0.054245  -0.141950  -0.092143
   21  C  4  S    0.076330  -0.000566  -0.028998   0.007832  -0.000571
   22  C  4  S   -0.109041   0.012134   0.036143  -0.015690  -0.000938
   23  C  4  X   -0.091330   0.219313   0.018476  -0.003018  -0.111124
   24  C  4  Y   -0.134651  -0.126737   0.189037  -0.011888  -0.048872
   25  C  4  Z    0.105372   0.065823   0.125642   0.139422   0.113619
   26  C  4  S   -0.172136  -0.068111   0.095383   0.004767  -0.000466
   27  C  4  X    0.026705   0.221094  -0.078058   0.015835   0.074053
   28  C  4  Y   -0.020746  -0.089962   0.108959   0.035476   0.026363
   29  C  4  Z    0.038226   0.045685   0.165529   0.138468   0.065834
   30  O  5  S   -0.097842   0.021100   0.030180  -0.015191  -0.021247
   31  O  5  S    0.090368  -0.015501  -0.030918   0.014383   0.023840
   32  O  5  X    0.233335   0.091232  -0.133832   0.063497   0.173572
   33  O  5  Y    0.153067  -0.172007   0.046193   0.098835   0.062110
   34  O  5  Z   -0.067534   0.086407   0.167804   0.078771   0.020382
   35  O  5  S    0.401707  -0.113001  -0.105734   0.062830   0.056495
   36  O  5  X    0.221377   0.089112  -0.135174   0.064596   0.194455
   37  O  5  Y    0.153034  -0.158110   0.037787   0.104268   0.066984
   38  O  5  Z   -0.065586   0.081721   0.172273   0.077948   0.016469
   39  O  6  S   -0.035857   0.043785  -0.008286  -0.020586   0.052910
   40  O  6  S    0.036598  -0.042109   0.008434   0.017151  -0.048607
   41  O  6  X   -0.191524   0.114650   0.046389  -0.044319   0.252279
   42  O  6  Y    0.011341   0.208374  -0.050067   0.106088   0.114242
   43  O  6  Z    0.077305  -0.012186   0.222959   0.208878   0.036143
   44  O  6  S    0.155024  -0.188323   0.032429   0.097507  -0.237037
   45  O  6  X   -0.213263   0.117391   0.060159  -0.050730   0.271319
   46  O  6  Y    0.008045   0.218173  -0.055376   0.120885   0.131875
   47  O  6  Z    0.085400  -0.011157   0.239705   0.231086   0.041097
   48  H  7  S   -0.058456  -0.055366  -0.030907   0.116605   0.094936
   49  H  7  S   -0.047706  -0.038379  -0.024405   0.096935   0.079374
   50  H  8  S    0.024252  -0.029782   0.088318  -0.118585   0.043915
   51  H  8  S    0.035396  -0.044259   0.067024  -0.088113  -0.008201
   52  H  9  S   -0.045887   0.026186  -0.098226   0.115046  -0.060498
   53  H  9  S   -0.003190   0.001261  -0.070270   0.099759  -0.061050
   54  H 10  S   -0.010835   0.055054   0.046505   0.065480  -0.153116
   55  H 10  S    0.002420   0.039115   0.028482   0.056279  -0.140940
   56  H 11  S   -0.103642   0.009334   0.023516  -0.058978   0.118333
   57  H 11  S   -0.061650  -0.015777   0.024388  -0.048158   0.096144

                     16         17         18         19         20
                   -0.5386    -0.5214    -0.5051    -0.4615    -0.4357
                     A          A          A          A          A   
    1  C  1  S   -0.016946  -0.012756  -0.002319  -0.002276   0.018319
    2  C  1  S    0.009390   0.011788  -0.000465   0.005878  -0.009145
    3  C  1  X   -0.159870  -0.076802  -0.002555  -0.027236  -0.192220
    4  C  1  Y   -0.007839  -0.254617   0.134125  -0.039602   0.014040
    5  C  1  Z   -0.043444  -0.154206  -0.200930  -0.071094   0.047183
    6  C  1  S    0.082531   0.026686   0.034685  -0.012736  -0.162301
    7  C  1  X   -0.113796  -0.079041   0.003440  -0.033878  -0.192744
    8  C  1  Y   -0.008835  -0.240855   0.121922  -0.008329   0.009292
    9  C  1  Z   -0.054295  -0.156933  -0.216694  -0.060767   0.063685
   10  H  2  S    0.005848  -0.097669  -0.152855  -0.052504   0.052515
   11  H  2  S    0.019065  -0.091345  -0.142265  -0.080225   0.065891
   12  C  3  S   -0.000752  -0.011182  -0.003529  -0.006637  -0.008882
   13  C  3  S    0.001317   0.014575   0.003753  -0.001580   0.002621
   14  C  3  X    0.244202   0.046124   0.024805   0.026043   0.102306
   15  C  3  Y   -0.002609   0.257729  -0.162434   0.064996   0.008265
   16  C  3  Z   -0.043972   0.158698   0.221941   0.046079  -0.005170
   17  C  3  S   -0.021291   0.000995   0.014073   0.038959   0.056445
   18  C  3  X    0.214455   0.001271   0.012618   0.065724   0.116255
   19  C  3  Y   -0.010195   0.203291  -0.165106   0.052649  -0.002217
   20  C  3  Z   -0.041915   0.127562   0.214722   0.037531  -0.004670
   21  C  4  S    0.026284  -0.011588   0.004738  -0.000815   0.023180
   22  C  4  S   -0.018468   0.015088  -0.003926   0.001438  -0.023428
   23  C  4  X    0.207150  -0.036453   0.001400   0.028845   0.124570
   24  C  4  Y    0.060274   0.029153  -0.032077   0.043297  -0.057767
   25  C  4  Z   -0.026685  -0.008799   0.023951   0.139765  -0.010505
   26  C  4  S   -0.147516   0.035576  -0.023304   0.012297  -0.085131
   27  C  4  X    0.100020  -0.041491   0.045445   0.020486   0.016503
   28  C  4  Y   -0.048276   0.040129  -0.000900   0.053999   0.100161
   29  C  4  Z    0.051490   0.026435   0.034141   0.149092  -0.035475
   30  O  5  S    0.019098   0.000716  -0.001748  -0.000076  -0.001338
   31  O  5  S   -0.019968  -0.001799   0.002928   0.000073   0.005871
   32  O  5  X   -0.041612  -0.047670   0.042570   0.062103  -0.288327
   33  O  5  Y   -0.192025   0.019932   0.027516   0.115533   0.313742
   34  O  5  Z    0.114882  -0.010036   0.005489   0.337033  -0.041828
   35  O  5  S   -0.059840   0.001721  -0.001445   0.000417  -0.017606
   36  O  5  X   -0.061124  -0.052435   0.046279   0.076740  -0.330798
   37  O  5  Y   -0.202801   0.013181   0.034019   0.137357   0.367591
   38  O  5  Z    0.122964  -0.016725   0.000948   0.406510  -0.051133
   39  O  6  S   -0.032334   0.003535   0.004444   0.000139  -0.011842
   40  O  6  S    0.034557  -0.002862  -0.006618  -0.000913  -0.008175
   41  O  6  X   -0.147858   0.060761   0.041433  -0.061719   0.040296
   42  O  6  Y   -0.087557   0.016828   0.093829  -0.085576   0.188311
   43  O  6  Z    0.162469   0.161622   0.079430  -0.288756  -0.053443
   44  O  6  S    0.129816  -0.015622  -0.011620   0.002579   0.145732
   45  O  6  X   -0.164450   0.074474   0.042417  -0.079473   0.041996
   46  O  6  Y   -0.115732   0.023440   0.115084  -0.108269   0.268734
   47  O  6  Z    0.190151   0.191271   0.093884  -0.372603  -0.075687
   48  H  7  S    0.057470  -0.105530  -0.166555  -0.032726   0.024639
   49  H  7  S    0.052534  -0.113339  -0.168144  -0.045040   0.026372
   50  H  8  S    0.028110  -0.117124   0.180688  -0.023242   0.014576
   51  H  8  S    0.047481  -0.127243   0.156460  -0.017297  -0.006340
   52  H  9  S    0.037075  -0.113028   0.158144  -0.000538   0.009203
   53  H  9  S    0.028187  -0.107150   0.150224  -0.013643   0.060681
   54  H 10  S   -0.180302   0.050738  -0.011294   0.003236  -0.077078
   55  H 10  S   -0.170588   0.036449  -0.014160   0.020510  -0.086890
   56  H 11  S   -0.079617   0.022338  -0.001076   0.001252  -0.016568
   57  H 11  S   -0.063894   0.022489  -0.006579   0.000860  -0.065439

                     21         22         23         24         25
                    0.1736     0.2484     0.2945     0.3148     0.3264
                     A          A          A          A          A   
    1  C  1  S   -0.007494   0.065884  -0.088715   0.043688   0.063961
    2  C  1  S    0.004166  -0.023657   0.021016  -0.009673  -0.011403
    3  C  1  X    0.001710  -0.041691  -0.074528   0.009894   0.091116
    4  C  1  Y    0.006821  -0.039515   0.080899   0.114296  -0.120920
    5  C  1  Z    0.016833  -0.001145   0.098837  -0.180346   0.032877
    6  C  1  S    0.102067  -0.875565   1.264372  -0.579722  -0.942354
    7  C  1  X    0.147691  -0.172553  -0.324591   0.144218   0.448857
    8  C  1  Y    0.062602  -0.335052   0.264413   0.554887  -0.445335
    9  C  1  Z    0.291751   0.063742   0.488889  -0.739487   0.252942
   10  H  2  S   -0.091506  -0.029958   0.001749   0.050693   0.008980
   11  H  2  S   -0.495412   0.214231  -1.065738   1.259069   0.234569
   12  C  3  S   -0.051333   0.052489  -0.066757  -0.060143  -0.106542
   13  C  3  S    0.021754  -0.018927   0.016442   0.009062   0.020212
   14  C  3  X    0.045476   0.018238  -0.106231   0.014706   0.076727
   15  C  3  Y    0.063502   0.034223  -0.047241   0.075748  -0.122424
   16  C  3  Z    0.018146   0.007685  -0.059432  -0.153048  -0.043996
   17  C  3  S    0.568837  -0.727330   0.993580   0.848899   1.524224
   18  C  3  X   -0.003446   0.149332  -0.332367   0.127793   0.450758
   19  C  3  Y    0.246618   0.211946  -0.314174   0.324270  -0.442586
   20  C  3  Z   -0.014176   0.010795  -0.367839  -0.558650  -0.195636
   21  C  4  S    0.003520  -0.027067  -0.000153  -0.008699   0.030317
   22  C  4  S    0.006397  -0.000483   0.031495  -0.010898  -0.021718
   23  C  4  X    0.082072  -0.001957  -0.032308   0.009291   0.043878
   24  C  4  Y    0.119469  -0.068445  -0.065150   0.022132  -0.045250
   25  C  4  Z    0.376362   0.077372  -0.090149  -0.003576  -0.032616
   26  C  4  S   -0.091298   0.288524  -0.102735   0.134622  -0.346458
   27  C  4  X    0.154713  -0.166195  -0.191163   0.025857   0.112149
   28  C  4  Y    0.160501   0.054291  -0.078878   0.007327  -0.045554
   29  C  4  Z    0.542208   0.111603  -0.176531   0.136489  -0.065461
   30  O  5  S   -0.000914   0.008946  -0.008331   0.009752  -0.005741
   31  O  5  S   -0.000092  -0.014813  -0.003248  -0.007439   0.001746
   32  O  5  X   -0.058117  -0.044168  -0.032629   0.017038  -0.021883
   33  O  5  Y   -0.086965   0.031413   0.039971   0.017975  -0.018152
   34  O  5  Z   -0.266490  -0.029771   0.058720  -0.031453   0.023595
   35  O  5  S    0.010216  -0.026347   0.124884  -0.065932   0.052572
   36  O  5  X   -0.103406  -0.039606  -0.055284   0.035422  -0.054624
   37  O  5  Y   -0.142419   0.026503   0.020834   0.029964  -0.016643
   38  O  5  Z   -0.438741  -0.054497   0.129490  -0.068872   0.044453
   39  O  6  S   -0.002811   0.089233   0.030516   0.010748  -0.003164
   40  O  6  S    0.001590  -0.049842  -0.008908  -0.002177   0.002271
   41  O  6  X   -0.031679  -0.170694  -0.127904  -0.046333  -0.008914
   42  O  6  Y   -0.041554   0.002367   0.037970   0.018192  -0.012907
   43  O  6  Z   -0.147025   0.022496   0.058391  -0.009358   0.005962
   44  O  6  S    0.022918  -0.741374  -0.310088  -0.128435   0.031052
   45  O  6  X   -0.050053  -0.407314  -0.266423  -0.102754  -0.024271
   46  O  6  Y   -0.061808   0.042688   0.116232   0.015196   0.006739
   47  O  6  Z   -0.233019   0.055182   0.089571  -0.010274   0.006044
   48  H  7  S    0.014086   0.000340  -0.001201  -0.052243  -0.009485
   49  H  7  S   -0.189377   0.290359  -0.657629  -1.200146  -0.892323
   50  H  8  S    0.011483  -0.003004  -0.012588   0.043676  -0.051603
   51  H  8  S    0.033733   0.410628  -0.438141   0.406273  -1.244597
   52  H  9  S    0.015278   0.035393   0.013499  -0.054011   0.053796
   53  H  9  S    0.051263   0.691697  -0.621371  -0.794575   1.163044
   54  H 10  S   -0.027358   0.002169   0.000284   0.008577   0.054643
   55  H 10  S   -0.307049   0.356328  -0.663552  -0.133976   0.206868
   56  H 11  S   -0.000390   0.096707   0.036645  -0.000822   0.006751
   57  H 11  S   -0.016956   1.101191   0.659667   0.194216   0.011528

                     26         27         28         29         30
                    0.3402     0.3663     0.4092     0.4274     0.5271
                     A          A          A          A          A   
    1  C  1  S   -0.064841  -0.026634  -0.096815   0.069000  -0.065897
    2  C  1  S    0.024005   0.003278   0.019842  -0.002504   0.004766
    3  C  1  X   -0.003766   0.008696  -0.059300  -0.222081   0.052509
    4  C  1  Y    0.022416  -0.179860  -0.120674  -0.019622   0.018228
    5  C  1  Z    0.030807   0.067814  -0.228195  -0.004221  -0.013509
    6  C  1  S    0.850065   0.341010   1.331638  -0.953300   1.267015
    7  C  1  X   -0.300477  -0.054666  -0.368074  -1.536900   1.176040
    8  C  1  Y    0.276256  -1.049212  -0.826988   0.181151  -0.065383
    9  C  1  Z    0.291379   0.325574  -1.217619   0.006633  -0.220671
   10  H  2  S   -0.003571   0.029931   0.029378  -0.041924   0.027278
   11  H  2  S   -0.641798  -0.423314   0.741518   0.030400  -0.007000
   12  C  3  S    0.069243   0.038831   0.071086  -0.000341   0.000954
   13  C  3  S   -0.015867  -0.002465   0.001974  -0.001599  -0.002899
   14  C  3  X    0.212459  -0.096356  -0.075208  -0.024075  -0.036623
   15  C  3  Y   -0.049308   0.083608  -0.174165  -0.109692   0.028858
   16  C  3  Z   -0.118581  -0.184264  -0.035920  -0.033098   0.042962
   17  C  3  S   -0.954317  -0.553354  -1.074890   0.021658   0.060752
   18  C  3  X    1.016900  -0.700705  -0.864410   0.013944  -0.124490
   19  C  3  Y   -0.340076   0.496081  -1.169085  -0.569387   0.136202
   20  C  3  Z   -0.668009  -1.082827  -0.185475  -0.301967   0.157890
   21  C  4  S    0.021394   0.014119   0.052813  -0.171711  -0.027454
   22  C  4  S   -0.017861   0.029150   0.007780   0.068424  -0.022366
   23  C  4  X    0.056096  -0.015945   0.064234  -0.125661   0.342427
   24  C  4  Y    0.001626  -0.064571   0.009654  -0.083171  -0.344122
   25  C  4  Z    0.049289  -0.042230   0.117518   0.102198   0.013926
   26  C  4  S   -0.094695  -0.335246  -0.753401   2.264939  -0.042597
   27  C  4  X   -0.066152   0.030866   0.168906  -0.747095   1.560691
   28  C  4  Y   -0.119076  -0.131642   0.013471  -0.115385  -0.856817
   29  C  4  Z    0.095280  -0.028993   0.402712   0.313095  -0.086665
   30  O  5  S   -0.015035  -0.019946  -0.028402   0.027672   0.046244
   31  O  5  S    0.008210   0.010747   0.016031  -0.024826  -0.018190
   32  O  5  X   -0.046631  -0.038558  -0.087407   0.074350  -0.059563
   33  O  5  Y   -0.002120  -0.012031  -0.031885   0.063680   0.185327
   34  O  5  Z   -0.021510   0.044911  -0.037507  -0.059079  -0.039289
   35  O  5  S    0.155875   0.181479   0.272448  -0.185090  -0.547343
   36  O  5  X   -0.093577  -0.110122  -0.208222   0.195758  -0.081029
   37  O  5  Y   -0.026163  -0.036671  -0.110254   0.100410   0.500036
   38  O  5  Z   -0.015091   0.081835  -0.081657  -0.120027  -0.130100
   39  O  6  S    0.001974   0.000630  -0.007827   0.045232   0.064040
   40  O  6  S   -0.001467  -0.010924   0.009227  -0.023057  -0.041884
   41  O  6  X    0.022519   0.092802  -0.050035   0.078888   0.012095
   42  O  6  Y    0.011412  -0.015677   0.009368  -0.208617  -0.234153
   43  O  6  Z    0.005943  -0.002590  -0.074266   0.030356   0.070344
   44  O  6  S   -0.023085   0.067651   0.047932  -0.424773  -0.593645
   45  O  6  X    0.043781   0.182380  -0.085822   0.262511  -0.001659
   46  O  6  Y   -0.005691  -0.048591   0.065856  -0.514088  -0.587516
   47  O  6  Z   -0.004091  -0.001051  -0.120332   0.072331   0.184838
   48  H  7  S   -0.036414  -0.043150  -0.015659  -0.013681  -0.037746
   49  H  7  S   -0.576760  -0.913323   0.228845  -0.285061   0.175467
   50  H  8  S   -0.005939   0.038796  -0.061348   0.013418  -0.030082
   51  H  8  S    0.078229   1.280676  -0.563261  -0.439413   0.069280
   52  H  9  S   -0.001505   0.020414   0.065513  -0.012032   0.071879
   53  H  9  S   -0.487743   1.032390  -0.212151   0.080036  -0.220307
   54  H 10  S    0.051717  -0.024872  -0.034041  -0.051096   0.066013
   55  H 10  S    1.807406  -0.393080  -0.045388   0.035123  -0.115355
   56  H 11  S    0.004405   0.016453   0.014379  -0.025641  -0.079559
   57  H 11  S   -0.047757  -0.290624   0.113404  -0.284377  -0.305410

                     31         32         33         34         35
                    0.5936     0.8950     0.9317     0.9816     1.0027
                     A          A          A          A          A   
    1  C  1  S    0.030009  -0.005185  -0.015372  -0.025224   0.026329
    2  C  1  S    0.047281  -0.016634   0.028788   0.088926  -0.093881
    3  C  1  X    0.165743   0.010850   0.268789   0.494968  -0.234079
    4  C  1  Y    0.120050   0.103465  -0.054795   0.126361   0.174917
    5  C  1  Z   -0.065624  -0.177495   0.123824   0.077595   0.102038
    6  C  1  S   -0.963673   0.329466   0.035903  -0.187116  -0.002766
    7  C  1  X   -0.005987   0.161717  -0.139683  -0.396975   0.165783
    8  C  1  Y    0.962961  -0.305151  -0.051328  -0.278524  -0.364303
    9  C  1  Z   -0.073080   0.126974  -0.287571  -0.113745  -0.150368
   10  H  2  S   -0.073320  -0.323381   0.148747  -0.013832   0.137470
   11  H  2  S    0.279265   0.086533  -0.015426   0.026139   0.065140
   12  C  3  S   -0.017897  -0.002167  -0.003760   0.009684  -0.017104
   13  C  3  S   -0.015444   0.034048   0.038781  -0.004199   0.053853
   14  C  3  X   -0.078291   0.322196   0.333055  -0.146511   0.282971
   15  C  3  Y    0.015793   0.152652  -0.409160  -0.357643   0.378774
   16  C  3  Z    0.048349  -0.327933   0.220571  -0.570215  -0.059979
   17  C  3  S    0.539033  -0.125695  -0.167850  -0.307800  -0.022626
   18  C  3  X    0.227176  -0.454285  -0.569337   0.016784  -0.415864
   19  C  3  Y    0.302141  -0.181671   0.672961   0.425465  -0.487567
   20  C  3  Z    0.468981   0.570053  -0.299143   0.816041   0.133101
   21  C  4  S    0.015854  -0.006992   0.009105   0.012001  -0.014590
   22  C  4  S    0.069472   0.092592   0.139563   0.027991   0.240063
   23  C  4  X   -0.054100  -0.223287  -0.072951   0.094509   0.049064
   24  C  4  Y   -0.229749  -0.210955  -0.483894   0.078037  -0.667526
   25  C  4  Z    0.060763  -0.563767  -0.152082   0.491560   0.571457
   26  C  4  S   -0.460287  -0.215273  -0.351290   0.146138  -0.648776
   27  C  4  X   -1.414186   0.444705  -0.091219   0.148612  -0.455697
   28  C  4  Y   -1.484765   0.231558   0.359225   0.134851   0.952698
   29  C  4  Z    0.713783   0.406316   0.283853  -0.591433  -0.611150
   30  O  5  S   -0.119671   0.004626  -0.021254   0.010839  -0.023165
   31  O  5  S    0.035095  -0.001280   0.018972   0.002042   0.017846
   32  O  5  X   -0.141767  -0.014569  -0.053963  -0.047244   0.013865
   33  O  5  Y   -0.033824   0.012117  -0.019671   0.041379  -0.112638
   34  O  5  Z    0.045363   0.001552   0.015550   0.028309   0.065389
   35  O  5  S    1.618785  -0.117427   0.158627  -0.242346   0.082461
   36  O  5  X   -0.584345  -0.021648  -0.108362   0.069529  -0.052943
   37  O  5  Y   -0.328682   0.006580  -0.141725   0.053375  -0.246924
   38  O  5  Z    0.244031  -0.061491   0.014536   0.029077   0.140123
   39  O  6  S    0.046513   0.001853  -0.008684  -0.007307   0.000905
   40  O  6  S   -0.010834  -0.013295   0.016262   0.004491  -0.052809
   41  O  6  X    0.089547   0.005471  -0.089552  -0.004847   0.022697
   42  O  6  Y   -0.043070  -0.043283  -0.077385  -0.012781  -0.121648
   43  O  6  Z    0.004341  -0.036317  -0.016914   0.021867   0.060811
   44  O  6  S   -0.608869   0.054483   0.133750   0.099485   0.502983
   45  O  6  X    0.308956  -0.048514   0.020503  -0.013409  -0.028375
   46  O  6  Y   -0.284326  -0.010416   0.007045   0.043467   0.182836
   47  O  6  Z    0.033254  -0.056281  -0.051047   0.063114   0.000717
   48  H  7  S    0.015016   0.458802  -0.116703   0.391244   0.041646
   49  H  7  S    0.286903  -0.041147   0.046960   0.041213  -0.025388
   50  H  8  S    0.009521  -0.181119   0.500890   0.055051  -0.188697
   51  H  8  S   -0.077070   0.037342  -0.022366   0.058956  -0.013192
   52  H  9  S    0.130895   0.203915  -0.284470   0.037609   0.025366
   53  H  9  S   -0.464208  -0.025676   0.079528   0.022086   0.068318
   54  H 10  S    0.078645  -0.278790  -0.327425  -0.128392  -0.059440
   55  H 10  S   -0.261790   0.084140   0.008254  -0.003279  -0.074065
   56  H 11  S    0.084122   0.019461  -0.119989  -0.087613   0.112946
   57  H 11  S   -0.107664  -0.046370   0.184752   0.052297   0.125413

                     36         37         38         39         40
                    1.0160     1.0382     1.0893     1.1720     1.2261
                     A          A          A          A          A   
    1  C  1  S   -0.025508   0.042209  -0.011756  -0.011079   0.031332
    2  C  1  S    0.072649  -0.138755   0.008114  -0.011487   0.021368
    3  C  1  X    0.478757   0.384524  -0.330180  -0.377784  -0.295555
    4  C  1  Y   -0.601273   0.298276  -0.270863   0.050825  -0.539662
    5  C  1  Z   -0.377720   0.166139  -0.286310  -0.567378   0.214006
    6  C  1  S   -0.045403   0.876448   0.655336   0.201025  -0.227959
    7  C  1  X   -0.867236  -0.149710   0.958247   1.146913   0.661580
    8  C  1  Y    1.157237  -0.561729   0.450813  -0.179585   1.024541
    9  C  1  Z    0.734491  -0.318134   0.499483   1.288115  -0.644457
   10  H  2  S   -0.320082   0.092274  -0.104131  -0.190720   0.260292
   11  H  2  S   -0.185631   0.130038  -0.091589  -0.365824   0.245491
   12  C  3  S   -0.010130  -0.047878   0.019878   0.000798   0.032706
   13  C  3  S   -0.048464   0.127457  -0.033634  -0.060445  -0.021297
   14  C  3  X    0.007578   0.469047  -0.130613   0.368950   0.340125
   15  C  3  Y    0.360190   0.330464  -0.107887  -0.348576   0.091705
   16  C  3  Z    0.120920   0.277528  -0.019185   0.136302  -0.223436
   17  C  3  S    0.464534  -0.158528   0.304157   0.607850   0.339027
   18  C  3  X    0.175698  -0.782902   0.372914  -0.727002  -0.427335
   19  C  3  Y   -0.620060  -0.462493   0.363661   1.080396   0.131728
   20  C  3  Z   -0.200938  -0.433365   0.092561  -0.271123   0.809978
   21  C  4  S    0.017091   0.004422   0.054937  -0.025209  -0.030947
   22  C  4  S   -0.034860   0.008920  -0.331467   0.237011   0.480729
   23  C  4  X    0.272298  -0.404887  -0.877350   0.275237   0.109161
   24  C  4  Y   -0.074325   0.440106  -0.159149   0.339257   0.246050
   25  C  4  Z    0.125815   0.212887   0.341235   0.248570   0.016436
   26  C  4  S    0.590420  -0.093402  -0.529227  -0.617378  -0.801576
   27  C  4  X   -0.669246   0.847019   1.334241   0.041455  -0.585029
   28  C  4  Y   -0.020574  -0.755246  -0.407417  -0.642712  -0.788529
   29  C  4  Z   -0.254206  -0.221432  -0.461037  -0.752909   0.220576
   30  O  5  S   -0.001047  -0.001576  -0.032436   0.011342  -0.018859
   31  O  5  S    0.001361   0.011945   0.037267  -0.018724   0.001913
   32  O  5  X   -0.003959  -0.092888  -0.211594   0.108564   0.108140
   33  O  5  Y    0.033774   0.077646  -0.089738   0.090372   0.105644
   34  O  5  Z    0.009380   0.037418   0.088392   0.072398  -0.027527
   35  O  5  S    0.082054  -0.095586  -0.116629   0.075447   0.621897
   36  O  5  X    0.066317  -0.104713  -0.324274   0.035696  -0.124627
   37  O  5  Y   -0.006535   0.126582  -0.046017   0.122802  -0.073128
   38  O  5  Z    0.056306   0.012828   0.132195   0.066975   0.059413
   39  O  6  S   -0.010050  -0.002647  -0.005994   0.017074  -0.017729
   40  O  6  S    0.026417   0.033000   0.023125  -0.028996   0.050993
   41  O  6  X   -0.026560  -0.022880   0.053837  -0.078731   0.050535
   42  O  6  Y    0.037645   0.020989  -0.018350  -0.007684   0.026034
   43  O  6  Z    0.053110  -0.002484   0.028880   0.065855  -0.032950
   44  O  6  S   -0.019785  -0.261323  -0.069142  -0.080242  -0.200396
   45  O  6  X    0.078658  -0.001782  -0.084277  -0.025716   0.220975
   46  O  6  Y   -0.013199  -0.103052  -0.075998   0.041214  -0.063331
   47  O  6  Z    0.021614   0.069330   0.066560   0.096125  -0.002581
   48  H  7  S   -0.048616  -0.157330   0.092673   0.037244   0.202671
   49  H  7  S   -0.126080  -0.107291  -0.011876  -0.167698   0.333208
   50  H  8  S   -0.177765  -0.080958   0.129147   0.129961   0.286110
   51  H  8  S   -0.130333  -0.088575   0.051027   0.402639  -0.188239
   52  H  9  S   -0.295240   0.155763  -0.089203   0.037925   0.331818
   53  H  9  S   -0.225131   0.116173  -0.062371   0.315513  -0.676875
   54  H 10  S   -0.168944  -0.233167   0.061298  -0.273376   0.200144
   55  H 10  S    0.099994  -0.138506   0.151329  -0.274838  -0.412336
   56  H 11  S   -0.232829  -0.112621  -0.155591   0.407932  -0.668534
   57  H 11  S    0.241738  -0.123863  -0.119668  -0.314615   0.520431

                     41         42         43         44         45
                    1.2509     1.2634     1.3443     1.3538     1.4018
                     A          A          A          A          A   
    1  C  1  S   -0.038337  -0.003754  -0.003246   0.006479   0.056029
    2  C  1  S    0.030113  -0.017233  -0.007396  -0.018737  -0.318789
    3  C  1  X   -0.344915   0.030281   0.083594  -0.178404  -0.014327
    4  C  1  Y   -0.004886  -0.495644   0.182030   0.209142  -0.332205
    5  C  1  Z    0.533716   0.394843  -0.410091  -0.176835  -0.168846
    6  C  1  S   -0.181047   0.449866   0.040962  -0.089772   0.245503
    7  C  1  X    0.769251   0.337766  -0.136557   0.391816   0.425301
    8  C  1  Y    0.498676   1.033073  -0.084293  -0.314727   0.887453
    9  C  1  Z   -0.693938  -0.939165   0.518833   0.247606   0.065355
   10  H  2  S   -0.671432  -0.035374   0.269684   0.202592   0.697071
   11  H  2  S    0.869901   0.477706  -0.650167  -0.291701  -0.703757
   12  C  3  S   -0.049708   0.004377  -0.005678  -0.012414  -0.081731
   13  C  3  S   -0.046769  -0.005414   0.007822   0.029299   0.286743
   14  C  3  X    0.120642   0.001089   0.319914  -0.509663  -0.164555
   15  C  3  Y   -0.163744   0.235843   0.108886   0.499925  -0.337977
   16  C  3  Z   -0.291716  -0.260914  -0.690124  -0.173549  -0.140521
   17  C  3  S    0.492669   0.173845   0.030675   0.045460  -0.034712
   18  C  3  X   -0.439193   0.024702  -0.299781   0.489365   0.334088
   19  C  3  Y    0.213817  -0.365592  -0.192579  -0.443445   0.520154
   20  C  3  Z    0.547794   0.713120   0.842737   0.249441   0.561316
   21  C  4  S    0.023416  -0.005497  -0.003997   0.002940  -0.006748
   22  C  4  S   -0.316528  -0.016886   0.015704   0.003693   0.100663
   23  C  4  X    0.079938  -0.136774  -0.054811   0.087250  -0.085271
   24  C  4  Y    0.085504   0.099829   0.028630   0.084270  -0.023917
   25  C  4  Z    0.052784  -0.001295  -0.094111  -0.027469  -0.075064
   26  C  4  S   -0.159538  -0.052608   0.109489  -0.276340  -0.253250
   27  C  4  X   -0.187747   0.587628   0.002031  -0.070193   0.070406
   28  C  4  Y   -0.692067  -0.738250  -0.141687  -0.114127  -0.277152
   29  C  4  Z    0.107352   0.198139   0.095518   0.023686   0.214282
   30  O  5  S   -0.021486  -0.004007  -0.002149  -0.002437  -0.009810
   31  O  5  S    0.019508   0.004713   0.004013   0.003171   0.012731
   32  O  5  X    0.012702  -0.006397  -0.015326   0.015664   0.011587
   33  O  5  Y   -0.011202   0.034360   0.007637   0.004079  -0.004050
   34  O  5  Z    0.047313  -0.020347  -0.021228  -0.006466  -0.078797
   35  O  5  S    0.338152   0.044644   0.037760   0.097662   0.154690
   36  O  5  X   -0.145386  -0.113203  -0.012861  -0.012926  -0.085944
   37  O  5  Y   -0.021166   0.076881   0.011202   0.001053  -0.015651
   38  O  5  Z    0.041965  -0.012379   0.007132   0.005598   0.046143
   39  O  6  S    0.005956   0.030385   0.002435  -0.004742   0.009363
   40  O  6  S    0.004361  -0.022411   0.003716   0.008514  -0.025494
   41  O  6  X    0.107665  -0.360121  -0.031817   0.069465   0.021296
   42  O  6  Y    0.047793  -0.059908  -0.024766  -0.036168   0.041499
   43  O  6  Z   -0.040883   0.082041  -0.020969  -0.018200   0.048777
   44  O  6  S   -0.275962  -0.233273  -0.076520  -0.028056  -0.078434
   45  O  6  X    0.081261  -0.106700   0.029591   0.030838  -0.018869
   46  O  6  Y   -0.133723  -0.055769  -0.028433   0.020118  -0.067001
   47  O  6  Z    0.047576   0.038704   0.011714  -0.005063  -0.037451
   48  H  7  S   -0.479940  -0.050818  -0.752755  -0.107283  -0.291162
   49  H  7  S    0.473509   0.401322   1.223167   0.181321   0.455189
   50  H  8  S   -0.277645   0.264202   0.159685   0.686971  -0.711547
   51  H  8  S    0.059452  -0.514973  -0.433366  -1.042483   0.687828
   52  H  9  S   -0.257881   0.055104  -0.400301  -0.039331   0.207486
   53  H  9  S   -0.206135  -0.704237   0.544890   0.358146  -0.588777
   54  H 10  S   -0.398173  -0.092526   0.476918  -0.820757  -0.527489
   55  H 10  S   -0.158506   0.070170  -0.706142   1.059246   0.420930
   56  H 11  S   -0.254517   0.951616   0.006953  -0.189960   0.040226
   57  H 11  S    0.123110  -0.825244  -0.034535   0.153891  -0.056430

                     46         47         48         49         50
                    1.4215     1.6419     1.7967     1.8933     1.9392
                     A          A          A          A          A   
    1  C  1  S    0.033961   0.040440  -0.006336  -0.001320   0.002346
    2  C  1  S   -0.155717  -0.417622   0.033222  -0.684954  -0.526818
    3  C  1  X    0.190816   0.000391   0.003573   0.046111  -0.052544
    4  C  1  Y   -0.121195  -0.093166  -0.055521   0.049871  -0.049717
    5  C  1  Z   -0.086535  -0.032654  -0.031833  -0.017429   0.033850
    6  C  1  S   -0.023820  -0.132380   0.156369   1.011229   0.744503
    7  C  1  X   -0.672952  -0.528511  -0.032556   0.004583   0.273223
    8  C  1  Y   -0.620138   0.562884   0.086629  -0.082813   0.230450
    9  C  1  Z    0.905754  -0.110291   0.104531   0.240527   0.094689
   10  H  2  S   -0.411211   0.411525  -0.014600  -0.081234  -0.030235
   11  H  2  S   -0.058038  -0.518620  -0.068822  -0.310862  -0.184069
   12  C  3  S   -0.011094   0.018135  -0.003261   0.005043  -0.001929
   13  C  3  S    0.114954  -0.462592   0.420741  -0.626212  -0.578922
   14  C  3  X   -0.045544   0.322149  -0.101708  -0.062484  -0.004086
   15  C  3  Y   -0.088223   0.044593  -0.002568  -0.049454  -0.026081
   16  C  3  Z   -0.054576  -0.039270   0.022362   0.017612  -0.007548
   17  C  3  S   -0.405709   0.929461  -0.774067   0.865726   1.046046
   18  C  3  X    0.143450  -0.740537   0.287020  -0.000251  -0.041993
   19  C  3  Y    0.357617  -0.101657   0.006734  -0.007300   0.017332
   20  C  3  Z   -0.641104   0.294557  -0.061504  -0.222969   0.011775
   21  C  4  S    0.003496   0.005314  -0.000068  -0.001500   0.029557
   22  C  4  S   -0.170801  -1.321600   0.124169  -0.267378   0.358851
   23  C  4  X    0.049428   0.269343  -0.022948  -0.062603   0.136098
   24  C  4  Y   -0.229330  -0.011457  -0.011739  -0.011709   0.117321
   25  C  4  Z    0.056475  -0.006091   0.026848   0.008105  -0.047598
   26  C  4  S    0.646846   2.334851  -0.128995  -0.823235  -0.499754
   27  C  4  X   -0.130147  -0.907563   0.080550  -0.206133   0.008439
   28  C  4  Y    1.250351  -0.513043  -0.001399   0.324171   0.250147
   29  C  4  Z   -0.504189   0.280825  -0.159718  -0.119378  -0.278524
   30  O  5  S    0.028099  -0.009442   0.002481  -0.038278   0.037536
   31  O  5  S   -0.041629   0.024885  -0.006831   0.118781  -0.159568
   32  O  5  X   -0.032212   0.039701   0.092407   0.335252  -0.823594
   33  O  5  Y   -0.078722  -0.218178   0.139632   0.515250  -0.137432
   34  O  5  Z    0.062897   0.127218   0.438295  -0.267590  -0.022884
   35  O  5  S   -0.527756   0.029129  -0.025774   0.187859  -0.032548
   36  O  5  X    0.249393  -0.033810  -0.076042  -0.457034   1.004321
   37  O  5  Y    0.012960   0.174542  -0.108617  -0.708321   0.198312
   38  O  5  Z   -0.049544  -0.090305  -0.379127   0.366299   0.004574
   39  O  6  S   -0.025113   0.037649   0.002307  -0.036838  -0.021260
   40  O  6  S    0.043603  -0.059228  -0.016316   0.124376   0.100655
   41  O  6  X    0.050191   0.085335  -0.150858  -0.084976   0.105753
   42  O  6  Y    0.017539   0.161395  -0.212649  -0.563412  -0.345439
   43  O  6  Z    0.002240  -0.192393  -0.845261   0.034031  -0.126333
   44  O  6  S    0.411568  -0.553992   0.039047   0.220613   0.112355
   45  O  6  X   -0.099489   0.071154   0.127723   0.083959  -0.184580
   46  O  6  Y    0.172126  -0.438749   0.227996   0.807760   0.518378
   47  O  6  Z   -0.029356   0.237030   0.847041  -0.096964   0.129843
   48  H  7  S   -0.573914   0.248997  -0.004338  -0.037992  -0.014790
   49  H  7  S    0.244259  -0.192187   0.111951  -0.325092  -0.235746
   50  H  8  S    0.301297   0.112578  -0.076962  -0.065802  -0.062747
   51  H  8  S    0.073484  -0.325142   0.273061  -0.085349  -0.153187
   52  H  9  S    1.074861   0.076917  -0.028281   0.027558  -0.051008
   53  H  9  S   -0.638478  -0.450223  -0.024280  -0.230403  -0.250220
   54  H 10  S    0.084108  -0.035098   0.031702   0.007417  -0.041408
   55  H 10  S    0.036104  -0.627546   0.315220  -0.212450  -0.229639
   56  H 11  S   -0.032731   0.071916   0.029118  -0.111294   0.040485
   57  H 11  S    0.171445  -0.135982  -0.011990   0.222887   0.161246

                     51         52         53         54         55
                    1.9653     2.0137     2.1424     2.1553     2.4326
                     A          A          A          A          A   
    1  C  1  S   -0.003680  -0.003727   0.001660  -0.040910  -0.103898
    2  C  1  S    0.175566   0.132428  -0.214747  -0.413202  -1.931440
    3  C  1  X   -0.016993   0.051211   0.088054   0.183234  -0.029282
    4  C  1  Y   -0.001420  -0.011946   0.080120  -0.165535   0.074755
    5  C  1  Z   -0.056334  -0.007360   0.008111   0.068789   0.014120
    6  C  1  S   -0.140537  -0.000517   0.489491   2.074767   5.229380
    7  C  1  X    0.229775   0.173396   0.925694   0.486149   0.289011
    8  C  1  Y   -0.014392   0.145562   0.116661   0.190969  -0.736822
    9  C  1  Z    0.367656  -0.041736   0.238962  -0.396041  -0.378009
   10  H  2  S   -0.109745   0.004621  -0.043197  -0.109254  -0.418193
   11  H  2  S    0.020435   0.063318  -0.075101   0.066991  -0.433411
   12  C  3  S   -0.002581  -0.004084  -0.034549   0.006107   0.069235
   13  C  3  S    0.115914   0.013314  -1.537723  -0.061096   0.908822
   14  C  3  X    0.057542  -0.006957  -0.166332   0.002059  -0.124012
   15  C  3  Y   -0.003796  -0.031603  -0.029525   0.002968  -0.033535
   16  C  3  Z    0.029281   0.007176  -0.016339  -0.010833  -0.024773
   17  C  3  S   -0.002713   0.024940   3.010455  -0.009814  -2.959493
   18  C  3  X   -0.092905   0.048623   0.412812  -0.072497  -0.433776
   19  C  3  Y    0.211308   0.129095   0.127312  -0.263154  -0.565027
   20  C  3  Z   -0.077056   0.045355   0.024492   0.047222  -0.395941
   21  C  4  S   -0.007017   0.015283   0.011716   0.016495   0.038754
   22  C  4  S    0.006100   0.039590   0.735036   0.465644   0.370030
   23  C  4  X   -0.024297  -0.032652  -0.230425  -0.136816   0.050227
   24  C  4  Y   -0.010606   0.209225  -0.101963   0.065814  -0.003462
   25  C  4  Z    0.123370  -0.054598   0.027082   0.003228   0.017937
   26  C  4  S   -0.025823  -0.296800  -1.264817  -1.526891  -1.753701
   27  C  4  X    0.066078   0.223848   1.159586   1.499137   1.183637
   28  C  4  Y   -0.345450  -0.469296  -0.301632  -0.203767  -0.455180
   29  C  4  Z   -0.640278   0.058771  -0.085307  -0.186126  -0.085216
   30  O  5  S   -0.005403   0.003834   0.007841   0.021094  -0.000879
   31  O  5  S    0.027764  -0.029059  -0.035499  -0.116859  -0.001878
   32  O  5  X    0.035783   0.294309   0.216064   0.290559   0.064868
   33  O  5  Y   -0.275586  -0.742978  -0.171528  -0.093959  -0.149797
   34  O  5  Z   -0.867264   0.139018   0.131363  -0.000001   0.004416
   35  O  5  S   -0.027621   0.112339  -0.065685  -0.138483   0.038074
   36  O  5  X   -0.059253  -0.375906  -0.351113  -0.425204  -0.235848
   37  O  5  Y    0.342181   0.868538   0.309954   0.268034   0.298198
   38  O  5  Z    1.008637  -0.151670  -0.171414  -0.042871  -0.012662
   39  O  6  S    0.012816  -0.012030   0.010277   0.020704   0.008977
   40  O  6  S   -0.063563   0.078472  -0.108780  -0.090758  -0.153079
   41  O  6  X   -0.084626  -0.168815  -0.229026   0.900106  -0.223886
   42  O  6  Y    0.063350  -0.579113   0.394223  -0.092284   0.214636
   43  O  6  Z   -0.462653   0.164328  -0.150276  -0.108003   0.058244
   44  O  6  S   -0.024384  -0.204976   0.167818   0.008141   0.216442
   45  O  6  X    0.107187   0.211264   0.209028  -1.467017   0.308933
   46  O  6  Y   -0.096833   0.611921  -0.519870   0.236449  -0.303029
   47  O  6  Z    0.607916  -0.172532   0.190538   0.166883  -0.072766
   48  H  7  S    0.007398  -0.004440  -0.225946  -0.013109   0.220249
   49  H  7  S   -0.037056   0.018831  -0.514160   0.069606   0.199771
   50  H  8  S    0.034524  -0.083902  -0.173086   0.145194   0.236454
   51  H  8  S    0.131996   0.174443  -0.552252  -0.382770   0.204836
   52  H  9  S    0.049913   0.003971   0.038669  -0.164762  -0.362087
   53  H  9  S    0.100888  -0.049925  -0.045189  -0.393650  -0.419300
   54  H 10  S   -0.035163  -0.011727  -0.166683   0.028827   0.221973
   55  H 10  S   -0.019392   0.008366  -0.291974   0.001670   0.348836
   56  H 11  S    0.027573  -0.198246  -0.057846   0.477979  -0.146707
   57  H 11  S   -0.090729   0.168985  -0.247744   0.132721  -0.232410

                     56         57
                    3.4242     3.6220
                     A          A   
    1  C  1  S    0.008511   0.004582
    2  C  1  S    0.154931   0.042244
    3  C  1  X    0.051576  -0.062025
    4  C  1  Y   -0.010733  -0.026991
    5  C  1  Z   -0.010443   0.030534
    6  C  1  S   -0.513128  -0.523943
    7  C  1  X   -0.290096   0.024558
    8  C  1  Y   -0.242314   0.604797
    9  C  1  Z    0.210021  -0.282050
   10  H  2  S   -0.028619   0.079230
   11  H  2  S    0.028064   0.103470
   12  C  3  S   -0.005622   0.001010
   13  C  3  S   -0.075911   0.063609
   14  C  3  X   -0.020101   0.051914
   15  C  3  Y   -0.008257   0.014995
   16  C  3  Z    0.026703  -0.018131
   17  C  3  S    0.122876   0.079700
   18  C  3  X    0.130011  -0.119069
   19  C  3  Y    0.016743   0.037960
   20  C  3  Z   -0.184441   0.296500
   21  C  4  S    0.037937  -0.001387
   22  C  4  S    0.016333  -0.248294
   23  C  4  X   -0.058218  -0.126074
   24  C  4  Y    0.124456  -0.118473
   25  C  4  Z   -0.035640   0.072532
   26  C  4  S   -0.741914  -0.874708
   27  C  4  X   -0.483434  -1.380208
   28  C  4  Y    1.134105  -1.017343
   29  C  4  Z   -0.236089   0.609611
   30  O  5  S    0.000762   0.042838
   31  O  5  S   -0.086418  -1.788508
   32  O  5  X   -0.075684   0.176840
   33  O  5  Y    0.090501   0.146203
   34  O  5  Z   -0.006948  -0.086081
   35  O  5  S    0.108836   3.113662
   36  O  5  X    0.208021  -0.786760
   37  O  5  Y   -0.361241  -0.640050
   38  O  5  Z    0.058030   0.373319
   39  O  6  S    0.056557  -0.003398
   40  O  6  S   -1.717946   0.097618
   41  O  6  X   -0.063006  -0.120631
   42  O  6  Y   -0.238921   0.011168
   43  O  6  Z    0.086464   0.024560
   44  O  6  S    2.563187  -0.296178
   45  O  6  X    0.209156   0.433769
   46  O  6  Y    0.787483  -0.057409
   47  O  6  Z   -0.292010  -0.078272
   48  H  7  S   -0.065396   0.037952
   49  H  7  S   -0.074732   0.152361
   50  H  8  S    0.020383  -0.023443
   51  H  8  S   -0.030018   0.004167
   52  H  9  S    0.122348  -0.090408
   53  H  9  S    0.041117  -0.158473
   54  H 10  S    0.017529  -0.032982
   55  H 10  S    0.034752  -0.095483
   56  H 11  S   -0.315613  -0.123652
   57  H 11  S   -0.072694   0.031714
 ...... END OF RHF CALCULATION ......
 CPU     0: STEP CPU TIME=     0.21 TOTAL CPU TIME=          0.3 (      0.0 MIN)
 TOTAL WALL CLOCK TIME=          0.4 SECONDS, CPU UTILIZATION IS    74.29%

     ----------------------------------------------------------------
     PROPERTY VALUES FOR THE RHF   SELF-CONSISTENT FIELD WAVEFUNCTION
     ----------------------------------------------------------------

          -----------------
          ENERGY COMPONENTS
          -----------------

         WAVEFUNCTION NORMALIZATION =       1.0000000000

                ONE ELECTRON ENERGY =    -713.2433439808
                TWO ELECTRON ENERGY =     270.7530489467
           NUCLEAR REPULSION ENERGY =     177.1386125301
                                      ------------------
                       TOTAL ENERGY =    -265.3516825041

 ELECTRON-ELECTRON POTENTIAL ENERGY =     270.7530489467
  NUCLEUS-ELECTRON POTENTIAL ENERGY =    -977.6695577116
   NUCLEUS-NUCLEUS POTENTIAL ENERGY =     177.1386125301
                                      ------------------
             TOTAL POTENTIAL ENERGY =    -529.7778962349
               TOTAL KINETIC ENERGY =     264.4262137308
                 VIRIAL RATIO (V/T) =       2.0034999131

          ---------------------------------------
          MULLIKEN AND LOWDIN POPULATION ANALYSES
          ---------------------------------------

     ATOMIC MULLIKEN POPULATION IN EACH MOLECULAR ORBITAL

                      1          2          3          4          5

                  2.000000   2.000000   2.000000   2.000000   2.000000

    1            -0.000029  -0.000024   0.005157   1.983309   0.003885
    2             0.000001  -0.000001   0.000054   0.002916   0.000026
    3            -0.000002   0.000000   0.000140   0.004620   1.987481
    4             0.004122   0.007769   1.996689   0.006186   0.000126
    5            -0.000006   1.992249  -0.002209  -0.000005   0.000000
    6             1.995184  -0.000001   0.000059   0.000005  -0.000001
    7             0.000000  -0.000000  -0.000001   0.000011   0.002855
    8             0.000004   0.000000  -0.000001   0.000013   0.002868
    9            -0.000000   0.000012   0.000062   0.002946   0.000018
   10            -0.000000   0.000000  -0.000000  -0.000000   0.002741
   11             0.000725  -0.000005   0.000052   0.000001   0.000000

                      6          7          8          9         10

                  2.000000   2.000000   2.000000   2.000000   2.000000

    1             0.001742   0.012107   1.031592   0.290062   0.365889
    2            -0.000400  -0.000108   0.039610   0.021191   0.059376
    3            -0.000938   0.000282   0.552235   0.890714   0.090215
    4             0.335043   0.120780   0.186784   0.304789   0.322363
    5             0.769924   0.912271   0.030174   0.059924   0.091038
    6             0.852828   0.902764   0.050156   0.094023   0.720822
    7             0.000108  -0.000159   0.023019   0.093653   0.014570
    8             0.000456   0.000860   0.019519   0.085931   0.020401
    9            -0.001097  -0.000908   0.033612   0.016003   0.114432
   10            -0.000120   0.000113   0.018613   0.114900   0.001935
   11             0.042454   0.051998   0.014685   0.028809   0.198960

                     11         12         13         14         15

                  2.000000   2.000000   2.000000   2.000000   2.000000

    1             0.210448   0.336299   0.302494   0.303524   0.173052
    2             0.065047   0.128055   0.050861   0.050387   0.002488
    3             0.064062   0.131951   0.215569   0.457438   0.399081
    4             0.235514   0.473823   0.432621   0.167336   0.107615
    5             0.905571   0.354712   0.397181   0.162833   0.259624
    6             0.391153   0.500197   0.417177   0.434313   0.632947
    7             0.033523   0.028193   0.009199   0.120706   0.075241
    8             0.009780   0.014934   0.070407   0.118997   0.007702
    9             0.012022   0.004004   0.081915   0.119628   0.034831
   10             0.000560   0.028212   0.018176   0.038911   0.210855
   11             0.072320  -0.000382   0.004401   0.025927   0.096563

                     16         17         18         19         20

                  2.000000   2.000000   2.000000   2.000000   2.000000

    1             0.167854   0.665524   0.408520   0.041025   0.234941
    2             0.000812   0.082371   0.185889   0.029762   0.024104
    3             0.467479   0.635430   0.563755   0.049971   0.073558
    4             0.201352   0.009032   0.006958   0.151257   0.087192
    5             0.354350   0.018377   0.016817   1.044417   1.236657
    6             0.436718   0.217655   0.117336   0.670064   0.264396
    7             0.026902   0.107105   0.239084   0.010277   0.004822
    8             0.011079   0.134041   0.257694   0.003168   0.000902
    9             0.010257   0.109375   0.202596   0.000168   0.006844
   10             0.285713   0.017694   0.001224  -0.000112   0.049507
   11             0.037485   0.003396   0.000127   0.000003   0.017077

               ----- POPULATIONS IN EACH AO -----
                             MULLIKEN      LOWDIN
              1  C  1  S      1.98942     1.97619
              2  C  1  S      0.34447     0.41560
              3  C  1  X      0.51840     0.50264
              4  C  1  Y      0.55716     0.53103
              5  C  1  Z      0.55378     0.52560
              6  C  1  S      1.16094     0.57234
              7  C  1  X      0.31121     0.52353
              8  C  1  Y      0.52317     0.57719
              9  C  1  Z      0.57883     0.59610
             10  H  2  S      0.45771     0.46482
             11  H  2  S      0.28473     0.41575
             12  C  3  S      1.98814     1.97642
             13  C  3  S      0.35141     0.41255
             14  C  3  X      0.53185     0.50529
             15  C  3  Y      0.53722     0.50893
             16  C  3  Z      0.54182     0.51041
             17  C  3  S      1.12561     0.58363
             18  C  3  X      0.48556     0.57393
             19  C  3  Y      0.49102     0.58282
             20  C  3  Z      0.53040     0.59631
             21  C  4  S      1.98708     1.97632
             22  C  4  S      0.43484     0.44170
             23  C  4  X      0.62449     0.59886
             24  C  4  Y      0.48924     0.46868
             25  C  4  Z      0.35542     0.34048
             26  C  4  S      0.55015     0.51530
             27  C  4  X      0.22911     0.45655
             28  C  4  Y      0.11128     0.40495
             29  C  4  Z      0.37574     0.44824
             30  O  5  S      1.98725     1.98173
             31  O  5  S      0.42809     0.58708
             32  O  5  X      0.72296     0.71869
             33  O  5  Y      0.74760     0.74543
             34  O  5  Z      0.59561     0.59010
             35  O  5  S      1.55606     1.04869
             36  O  5  X      0.84940     0.89071
             37  O  5  Y      0.90012     0.92834
             38  O  5  Z      0.81681     0.82710
             39  O  6  S      1.98628     1.98041
             40  O  6  S      0.41457     0.57556
             41  O  6  X      0.64910     0.63372
             42  O  6  Y      0.63906     0.63535
             43  O  6  Z      0.80149     0.81054
             44  O  6  S      1.52073     1.02763
             45  O  6  X      0.82058     0.82751
             46  O  6  Y      0.83322     0.85736
             47  O  6  Z      1.03276     1.01855
             48  H  7  S      0.46641     0.46875
             49  H  7  S      0.32270     0.43764
             50  H  8  S      0.46405     0.46515
             51  H  8  S      0.29471     0.42555
             52  H  9  S      0.46368     0.47080
             53  H  9  S      0.28304     0.41793
             54  H 10  S      0.46672     0.46821
             55  H 10  S      0.32220     0.43739
             56  H 11  S      0.39644     0.41169
             57  H 11  S      0.19816     0.31023

          ----- MULLIKEN ATOMIC OVERLAP POPULATIONS -----
          (OFF-DIAGONAL ELEMENTS NEED TO BE MULTIPLIED BY 2)

             1           2           3           4           5

    1    5.7097822
    2    0.3687683   0.4626602
    3    0.2139709  -0.0344253   5.3725046
    4    0.1647273  -0.0390215  -0.0702974   4.4599588
    5   -0.0729931   0.0007472   0.0006802   0.5223052   8.2033265
    6   -0.0917432   0.0018211   0.0036621   0.1991143  -0.0562834
    7   -0.0463257   0.0026321   0.3781701  -0.0005521   0.0001466
    8   -0.0449608  -0.0010051   0.3736178  -0.0029207   0.0000278
    9    0.3683014  -0.0169544  -0.0317343  -0.0475163   0.0025305
   10   -0.0390354  -0.0026164   0.3771794   0.0029343  -0.0000143
   11    0.0068783  -0.0001659  -0.0002875  -0.0313801   0.0034288

             6           7           8           9          10

    6    8.3758682
    7   -0.0000635   0.5043499
    8    0.0073798  -0.0229739   0.4688125
    9    0.0018726  -0.0014007   0.0024230   0.4706365
   10    0.0000795  -0.0248495  -0.0214679  -0.0012928   0.4980002
   11    0.2560862  -0.0000236  -0.0001775  -0.0001459   0.0000028

            11

   11    0.3603815

          TOTAL MULLIKEN AND LOWDIN ATOMIC POPULATIONS
       ATOM         MULL.POP.    CHARGE          LOW.POP.     CHARGE
    1 C             6.537370   -0.537370         6.220215   -0.220215
    2 H             0.742440    0.257560         0.880574    0.119426
    3 C             6.583041   -0.583041         6.250295   -0.250295
    4 C             5.157352    0.842648         5.651081    0.348919
    5 O             8.603902   -0.603902         8.317861   -0.317861
    6 O             8.697794   -0.697794         8.366635   -0.366635
    7 H             0.789110    0.210890         0.906385    0.093615
    8 H             0.758755    0.241245         0.890701    0.109299
    9 H             0.746720    0.253280         0.888729    0.111271
   10 H             0.788920    0.211080         0.905603    0.094397
   11 H             0.594597    0.405403         0.721921    0.278079

          -------------------------------
          BOND ORDER AND VALENCE ANALYSIS     BOND ORDER THRESHOLD=0.050
          -------------------------------

                   BOND                       BOND                       BOND
  ATOM PAIR DIST  ORDER      ATOM PAIR DIST  ORDER      ATOM PAIR DIST  ORDER
    1   2  1.098  0.898        1   3  1.547  0.899        1   4  1.513  0.846
    1   9  1.092  0.900        3   7  1.095  0.926        3   8  1.092  0.908
    3  10  1.094  0.927        4   5  1.224  1.799        4   6  1.388  0.888
    5   6  2.289  0.083        6  11  0.998  0.788

                       TOTAL       BONDED        FREE
      ATOM            VALENCE     VALENCE     VALENCE
    1 C                 3.533       3.533       0.000
    2 H                 0.892       0.892       0.000
    3 C                 3.638       3.638       0.000
    4 C                 3.511       3.511      -0.000
    5 O                 1.935       1.935       0.000
    6 O                 1.779       1.779      -0.000
    7 H                 0.913       0.913       0.000
    8 H                 0.908       0.908      -0.000
    9 H                 0.895       0.895      -0.000
   10 H                 0.916       0.916      -0.000
   11 H                 0.824       0.824      -0.000

          ---------------------
          ELECTROSTATIC MOMENTS
          ---------------------

 POINT   1           X           Y           Z (BOHR)    CHARGE
                 2.588233   -0.459493    0.087452        0.00 (A.U.)
         DX          DY          DZ         /D/  (DEBYE)
    -1.288808   -1.047950    0.518562    1.740153
 ...... END OF PROPERTY EVALUATION ......
 CPU     0: STEP CPU TIME=     0.02 TOTAL CPU TIME=          0.3 (      0.0 MIN)
 TOTAL WALL CLOCK TIME=          0.4 SECONDS, CPU UTILIZATION IS    73.68%
               580000  WORDS OF DYNAMIC MEMORY USED
 EXECUTION OF GAMESS TERMINATED NORMALLY Sat May 16 17:44:54 2020
 DDI: 263640 bytes (0.3 MB / 0 MWords) used by master data server.
Note: The following floating-point exceptions are signalling:Note: The following floating-point exceptions are signalling:Note: The following floating-point exceptions are signalling: IEEE_DENORMAL IEEE_DENORMAL
 ----------------------------------------
 CPU timing information for all processes
 ========================================
 0: 0.179 + 0.111 = 0.291
 1: 0.198 + 0.12 = 0.210
 2: 0.191 + 0.13 = 0.205
 3: 0.189 + 0.21 = 0.211
 4: 0.202 + 0.04 = 0.206
 5: 0.201 + 0.08 = 0.210
 ----------------------------------------
 IEEE_DENORMAL


Note: The following floating-point exceptions are signalling: IEEE_DENORMALNote: The following floating-point exceptions are signalling: IEEE_DENORMALNote: The following floating-point exceptions are signalling:

 IEEE_DENORMAL
 ddikick.x: exited gracefully.
unset echo
----- accounting info -----
Files used on the master node pietdev were:
-rwxr-xr-x 1 piet piet      738 mei 16 17:44 /home/piet/scr/aspartate_fukui_neu.F05*
-rw-r--r-- 1 piet piet 49152000 mei 16 17:44 /home/piet/scr/aspartate_fukui_neu.F10
ls: No match.
ls: No match.
ls: No match.
za 16 mei 2020 17:44:57 CEST
0.094u 0.035s 0:03.53 3.3%	0+0k 0+8io 0pf+0w
