----- GAMESS execution script 'rungms' -----
This job is running on host pietdev
under operating system Linux at ma 25 mei 2020 19:17:40 CEST
Available scratch disk space (Kbyte units) at beginning of the job is
Filesystem     1K-blocks     Used Available Use% Mounted on
/dev/sda2      244568380 31071496 201003828  14% /
GAMESS temporary binary files will be written to /home/piet/scr
GAMESS supplementary output files will be written to /home/piet/gamess/scr
Copying input file methyl_chavicol_fukui_acid.inp to your run's scratch directory...
cp methyl_chavicol_fukui_acid.inp /home/piet/scr/methyl_chavicol_fukui_acid.F05
unset echo
 
Assuming a single but multicore node.
 
/home/piet/gamess/ddikick.x /home/piet/gamess/gamess.03.x methyl_chavicol_fukui_acid -ddi 1 6 pietdev:cpus=6 -scr /home/piet/scr

 Distributed Data Interface kickoff program.
 Initiating 6 compute processes on 1 nodes to run the following command:
 /home/piet/gamess/gamess.03.x methyl_chavicol_fukui_acid 

          ******************************************************
          *         GAMESS VERSION = 30 SEP 2019 (R2)          *
          *             FROM IOWA STATE UNIVERSITY             *
          * M.W.SCHMIDT, K.K.BALDRIDGE, J.A.BOATZ, S.T.ELBERT, *
          *   M.S.GORDON, J.H.JENSEN, S.KOSEKI, N.MATSUNAGA,   *
          *          K.A.NGUYEN, S.J.SU, T.L.WINDUS,           *
          *       TOGETHER WITH M.DUPUIS, J.A.MONTGOMERY       *
          *         J.COMPUT.CHEM.  14, 1347-1363(1993)        *
          **************** 64 BIT LINUX VERSION ****************

  SINCE 1993, STUDENTS AND POSTDOCS WORKING AT IOWA STATE UNIVERSITY
  AND ALSO IN THEIR VARIOUS JOBS AFTER LEAVING ISU HAVE MADE IMPORTANT
  CONTRIBUTIONS TO THE CODE:
     IVANA ADAMOVIC, CHRISTINE AIKENS, YURI ALEXEEV, POOJA ARORA,
     ANDREY ASADCHEV, ROB BELL, PRADIPTA BANDYOPADHYAY, JONATHAN BENTZ,
     COLLEEN BERTONI, BRETT BODE, KURT BRORSEN, CALEB CARLIN, GALINA CHABAN,
     WEI CHEN, CHEOL HO CHOI, PAUL DAY, ALBERT DEFUSCO, NUWAN DESILVA,
     TIM DUDLEY, DMITRI FEDOROV, ALEX FINDLATER, GRAHAM FLETCHER, 
     MARK FREITAG, KURT GLAESEMANN, EMILIE B GUIDEZ, ANASTASIA GUNINA, 
     DAN KEMP, SAROM SOK LEANG, GRANT MERRILL,
     NORIYUKI MINEZAWA, JONATHAN MULLIN,
     TAKESHI NAGATA, SEAN NEDD, HEATHER NETZLOFF, BOSILJKA NJEGIC, RYAN OLSON,
     MIKE PAK, BUU PHAM, DAVID POOLE,
     SPENCER PRUITT, LUKE ROSKOP, TOSAPORN SATTASATHUCHANA,
     JIM SHOEMAKER, LYUDMILA SLIPCHENKO,
     TONY SMITH, JIE SONG, TETSUYA TAKETSUGU, SIMON WEBB,
     JORGE LUIS GALVEZ VALLEJO, PENG XU, SOOHAENG YOO,
     FEDERICO ZAHARIEV

  ADDITIONAL CODE HAS BEEN PROVIDED BY COLLABORATORS IN OTHER GROUPS:
     IOWA STATE UNIVERSITY:
          JOE IVANIC, AARON WEST, LAIMUTIS BYTAUTAS, KLAUS RUEDENBERG
     UNIVERSITY OF TOKYO: KIMIHIKO HIRAO, TAKAHITO NAKAJIMA,
          TAKAO TSUNEDA, MUNEAKI KAMIYA, SUSUMU YANAGISAWA,
          KIYOSHI YAGI, MAHITO CHIBA, SEIKEN TOKURA, NAOAKI KAWAKAMI
     UNIVERSITY OF AARHUS: FRANK JENSEN
     UNIVERSITY OF IOWA: VISVALDAS KAIRYS, HUI LI
     NATIONAL INST. OF STANDARDS AND TECHNOLOGY: WALT STEVENS, DAVID GARMER
     UNIVERSITY OF PISA: BENEDETTA MENNUCCI, JACOPO TOMASI
     UNIVERSITY OF MEMPHIS: HENRY KURTZ, PRAKASHAN KORAMBATH
     UNIVERSITY OF ALBERTA: TOBY ZENG, MARIUSZ KLOBUKOWSKI
     UNIVERSITY OF NEW ENGLAND: MARK SPACKMAN
     MIE UNIVERSITY: HIROAKI UMEDA
     NAT. INST. OF ADVANCED INDUSTRIAL SCIENCE AND TECHNOLOGY: KAZUO KITAURA
     MICHIGAN STATE UNIVERSITY:
          KAROL KOWALSKI, MARTA WLOCH, JEFFREY GOUR, JESSE LUTZ,
          WEI LI, JUN SHEN, J. EMILIANO DEUSTUA, PIOTR PIECUCH
     UNIVERSITY OF MINNESOTA:
          ANDREW SAND, PRACHI SHARMA, YINAN SHU
     UNIVERSITY OF SILESIA: MONIKA MUSIAL, STANISLAW KUCHARSKI
     FACULTES UNIVERSITAIRES NOTRE-DAME DE LA PAIX:
          OLIVIER QUINET, BENOIT CHAMPAGNE
     UNIVERSITY OF CALIFORNIA - SANTA BARBARA: BERNARD KIRTMAN
     INSTITUTE FOR MOLECULAR SCIENCE:
          KAZUYA ISHIMURA, MICHIO KATOUDA, AND SHIGERU NAGASE
     UNIVERSITY OF NOTRE DAME: ANNA POMOGAEVA, DAN CHIPMAN
     KYUSHU UNIVERSITY:
          HARUYUKI NAKANO,
          FENG LONG GU, JACEK KORCHOWIEC, MARCIN MAKOWSKI, AND YURIKO AOKI,
          HIROTOSHI MORI AND EISAKU MIYOSHI
     PENNSYLVANIA STATE UNIVERSITY:
          TZVETELIN IORDANOV, CHET SWALINA, JONATHAN SKONE,
          SHARON HAMMES-SCHIFFER
     WASEDA UNIVERSITY:
          MASATO KOBAYASHI, TOMOKO AKAMA, TSUGUKI TOUMA,
          TAKESHI YOSHIKAWA, YASUHIRO IKABATA, JUNJI SEINO,
          YUYA NAKAJIMA, HIROMI NAKAI
     NANJING UNIVERSITY: SHUHUA LI
     UNIVERSITY OF NEBRASKA:
          PEIFENG SU, DEJUN SI, NANDUN THELLAMUREGE, YALI WANG, HUI LI
     UNIVERSITY OF ZURICH: ROBERTO PEVERATI, KIM BALDRIDGE
     N. COPERNICUS UNIVERSITY AND JACKSON STATE UNIVERSITY:
          MARIA BARYSZ
     UNIVERSITY OF COPENHAGEN: Jimmy Kromann, CASPER STEINMANN
     TOKYO INSTITUTE OF TECHNOLOGY: HIROYA NAKATA
     NAGOYA UNIVERSITY: YOSHIO NISHIMOTO, STEPHAN IRLE
     MOSCOW STATE UNIVERSITY: VLADIMIR MIRONOV
     A.N.NESMEYANOV INSTITUTE OF ORGANOELEMENT COMPOUNDS OF RUSSIAN ACADEMY OF SCIENCES:
          IGOR S. GERASIMOV
     JOHANNES KEPLER UNIVERSITY LINZ:
          CHRISTIAN FRIEDL


 PARALLEL VERSION RUNNING ON        6 PROCESSORS IN        1 NODES.

 EXECUTION OF GAMESS BEGUN Mon May 25 19:17:40 2020

            ECHO OF THE FIRST FEW INPUT CARDS -
 INPUT CARD> $BASIS GBASIS=N21 NGAUSS=3 $END                                                
 INPUT CARD> $CONTRL SCFTYP=UHF MAXIT=60 MULT=2 ICHARG=-1 $END                              
 INPUT CARD> $SYSTEM MEMDDI=1000 MWORDS=30 $END                                             
 INPUT CARD> $SCF DIRSCF=.TRUE. $END                                                        
 INPUT CARD> $STATPT OPTTOL=0.0001 NSTEP=999 $END                                           
 INPUT CARD> $DATA                                                                          
 INPUT CARD>                                                                                
 INPUT CARD>C1                                                                              
 INPUT CARD>C 6.0000000 1.94377 2.19075 0.12328                                             
 INPUT CARD>C 6.0000000 1.24360 0.86090 -0.00295                                            
 INPUT CARD>C 6.0000000 1.97505 -0.33685 0.10854                                            
 INPUT CARD>C 6.0000000 1.34264 -1.57462 -0.00715                                           
 INPUT CARD>C 6.0000000 -0.03617 -1.63721 -0.23516                                          
 INPUT CARD>C 6.0000000 -0.79560 -0.46964 -0.35044                                          
 INPUT CARD>C 6.0000000 -0.13150 0.76186 -0.22843                                           
 INPUT CARD>C 6.0000000 -2.29627 -0.51725 -0.59831                                          
 INPUT CARD>C 6.0000000 -3.10759 0.04218 0.54562                                            
 INPUT CARD>C 6.0000000 -3.98332 1.04742 0.44855                                            
 INPUT CARD>O 8.0000000 3.32751 -0.21884 0.33424                                            
 INPUT CARD>H 1.0000000 2.77096 2.27210 -0.59073                                            
 INPUT CARD>H 1.0000000 1.24789 3.01506 -0.05553                                            
 INPUT CARD>H 1.0000000 2.37926 2.31800 1.12181                                             
 INPUT CARD>H 1.0000000 1.92338 -2.49141 0.07985                                            
 INPUT CARD>H 1.0000000 -0.51559 -2.60892 -0.32641                                          
 INPUT CARD>H 1.0000000 -0.70889 1.68079 -0.30907                                           
 INPUT CARD>H 1.0000000 -2.54451 0.03230 -1.51585                                           
 INPUT CARD>H 1.0000000 -2.58808 -1.56234 -0.76929                                          
 INPUT CARD>H 1.0000000 -2.93969 -0.42575 1.51659                                           
 INPUT CARD>H 1.0000000 -4.17643 1.54664 -0.49921                                           
 INPUT CARD>H 1.0000000 -4.53870 1.40362 1.31179                                            
 INPUT CARD>H 1.0000000 3.72730 -1.09692 0.38503                                            
 INPUT CARD> $END                                                                           
   30000000 WORDS OF MEMORY AVAILABLE

     BASIS OPTIONS
     -------------
     GBASIS=N21          IGAUSS=       3      POLAR=NONE    
     NDFUNC=       0     NFFUNC=       0     DIFFSP=       F
     NPFUNC=       0      DIFFS=       F     BASNAM=        


     RUN TITLE
     ---------
                                                                                 

 THE POINT GROUP OF THE MOLECULE IS C1      
 THE ORDER OF THE PRINCIPAL AXIS IS     0

 ATOM      ATOMIC                      COORDINATES (BOHR)
           CHARGE         X                   Y                   Z
 C           6.0     3.6731926832        4.1399172076        0.2329654198
 C           6.0     2.3500632383        1.6268651028       -0.0055746917
 C           6.0     3.7323033121       -0.6365541990        0.2051108587
 C           6.0     2.5372217002       -2.9756003348       -0.0135115408
 C           6.0    -0.0683513890       -3.0938782844       -0.4443879633
 C           6.0    -1.5034659958       -0.8874909129       -0.6622355751
 C           6.0    -0.2484989674        1.4397066410       -0.4316701074
 C           6.0    -4.3393210938       -0.9774607671       -1.1306419557
 C           6.0    -5.8724935822        0.0797086422        1.0310722934
 C           6.0    -7.5273833214        1.9793367941        0.8476365918
 O           8.0     6.2880821214       -0.4135476352        0.6316220141
 H           1.0     5.2363551229        4.2936464167       -1.1163178327
 H           1.0     2.3581701628        5.6976372365       -0.1049364841
 H           1.0     4.4961494535        4.3803848395        2.1199135103
 H           1.0     3.6346611703       -4.7080822231        0.1508946201
 H           1.0    -0.9743238220       -4.9301439239       -0.6168254597
 H           1.0    -1.3396078554        3.1762325429       -0.5840576110
 H           1.0    -4.8084266730        0.0610381494       -2.8645411385
 H           1.0    -4.8907620343       -2.9523944997       -1.4537473051
 H           1.0    -5.5552085888       -0.8045508393        2.8659395357
 H           1.0    -7.8923083069        2.9227258017       -0.9433701103
 H           1.0    -8.5768993405        2.6524571909        2.4789236534
 H           1.0     7.0435756740       -2.0728782305        0.7276011971

          INTERNUCLEAR DISTANCES (ANGS.)
          ------------------------------

                1 C          2 C          3 C          4 C          5 C     

   1 C       0.0000000    1.5082019 *  2.5278365 *  3.8152825    4.3245716  
   2 C       1.5082019 *  0.0000000    1.4078545 *  2.4375365 *  2.8164315 *
   3 C       2.5278365 *  1.4078545 *  0.0000000    1.3947764 *  2.4195189 *
   4 C       3.8152825    2.4375365 *  1.3947764 *  0.0000000    1.3989364 *
   5 C       4.3245716    2.8164315 *  2.4195189 *  1.3989364 *  0.0000000  
   6 C       3.8478869    2.4595574 *  2.8115471 *  2.4312341 *  1.3975847 *
   7 C       2.5440464 *  1.3969789 *  2.3996386 *  2.7714964 *  2.4009727 *
   8 C       5.0825088    3.8450527    4.3331692    3.8352532    2.5483799 *
   9 C       5.5055392    4.4613995    5.1154601    4.7669848    3.5865846  
  10 C       6.0451137    5.2496985    6.1264985    5.9538732    4.8223118  
  11 O       2.7866404 *  2.3711213 *  1.3762321 *  2.4278376 *  3.6946357  
  12 H       1.0957515 *  2.1609719 *  2.8158607 *  4.1446252    4.8258796  
  13 H       1.0934848 *  2.1548059 *  3.4337998    4.5909128    4.8295645  
  14 H       1.0967708 *  2.1628567 *  2.8702492 *  4.1834940    4.8290119  
  15 H       4.6824058    3.4215404    2.1553704 *  1.0887295 *  2.1607233 *
  16 H       5.4117931    3.9037196    3.3992310    2.1505167 *  1.0873778 *
  17 H       2.7356153 *  2.1396603 *  3.3836080    3.8597442    3.3863164  
  18 H       5.2431203    4.1623577    4.8167766    4.4685907    3.2740189  
  19 H       5.9514729    4.5979496    4.8056807    4.0039440    2.6082839 *
  20 H       5.7127547    4.6329672    5.1132355    4.6882871    3.6009293  
  21 H       6.1854037    5.4857304    6.4620121    6.3596007    5.2295675  
  22 H       6.6373599    5.9546687    6.8487945    6.7230705    5.6491130  
  23 H       3.7494355    3.1862758    1.9299050 *  2.4634540 *  3.8523052  

                6 C          7 C          8 C          9 C         10 C     

   1 C       3.8478869    2.5440464 *  5.0825088    5.5055392    6.0451137  
   2 C       2.4595574 *  1.3969789 *  3.8450527    4.4613995    5.2496985  
   3 C       2.8115471 *  2.3996386 *  4.3331692    5.1154601    6.1264985  
   4 C       2.4312341 *  2.7714964 *  3.8352532    4.7669848    5.9538732  
   5 C       1.3975847 *  2.4009727 *  2.5483799 *  3.5865846    4.8223118  
   6 C       0.0000000    1.4044599 *  1.5217479 *  2.5318335 *  3.6195877  
   7 C       1.4044599 *  0.0000000    2.5414883 *  3.1581964    3.9212707  
   8 C       1.5217479 *  2.5414883 *  0.0000000    1.5098933 *  2.5278935 *
   9 C       2.5318335 *  3.1581964    1.5098933 *  0.0000000    1.3367248 *
  10 C       3.6195877    3.9212707    2.5278935 *  1.3367248 *  0.0000000  
  11 O       4.1870901    3.6391098    5.7083798    6.4438595    7.4205604  
  12 H       4.5050225    3.2918627    5.7842329    6.3891458    6.9426394  
  13 H       4.0504268    2.6475501 *  5.0331793    5.3075044    5.6117076  
  14 H       4.4741695    3.2478663    5.7321930    5.9679875    6.5230420  
  15 H       3.4154876    3.8602246    4.7077229    5.6521393    6.8955321  
  16 H       2.1576612 *  3.3940069    2.7604047 *  3.8088360    5.0984838  
  17 H       2.1525750 *  1.0882621 *  2.7266857 *  3.0280851    3.4200932  
  18 H       2.1607430 *  2.8306051 *  1.0979563 *  2.1370108 *  2.6380884 *
  19 H       2.1406572 *  3.4247950    1.0984536 *  2.1385423 *  3.2001057  
  20 H       2.8433869 *  3.5130391    2.2125017 *  1.0908399 *  2.0976422 *
  21 H       3.9392295    4.1292445    2.7936471 *  2.1207283 *  1.0884673 *
  22 H       4.5036551    4.7124882    3.5166342    2.1186343 *  1.0865122 *
  23 H       4.6250428    4.3268619    6.1307724    6.9310215    8.0034923  

               11 O         12 H         13 H         14 H         15 H     

   1 C       2.7866404 *  1.0957515 *  1.0934848 *  1.0967708 *  4.6824058  
   2 C       2.3711213 *  2.1609719 *  2.1548059 *  2.1628567 *  3.4215404  
   3 C       1.3762321 *  2.8158607 *  3.4337998    2.8702492 *  2.1553704 *
   4 C       2.4278376 *  4.1446252    4.5909128    4.1834940    1.0887295 *
   5 C       3.6946357    4.8258796    4.8295645    4.8290119    2.1607233 *
   6 C       4.1870901    4.5050225    4.0504268    4.4741695    3.4154876  
   7 C       3.6391098    3.2918627    2.6475501 *  3.2478663    3.8602246  
   8 C       5.7083798    5.7842329    5.0331793    5.7321930    4.7077229  
   9 C       6.4438595    6.3891458    5.3075044    5.9679875    5.6521393  
  10 C       7.4205604    6.9426394    5.6117076    6.5230420    6.8955321  
  11 O       0.0000000    2.7147927 *  3.8645633    2.8204613 *  2.6834436 *
  12 H       2.7147927 *  0.0000000    1.7771243 *  1.7573642 *  4.8845775  
  13 H       3.8645633    1.7771243 *  0.0000000    1.7753930 *  5.5493987  
  14 H       2.8204613 *  1.7573642 *  1.7753930 *  0.0000000    4.9420574  
  15 H       2.6834436 *  4.8845775    5.5493987    4.9420574    0.0000000  
  16 H       4.5736592    5.8902998    5.9002024    5.8950860    2.4753647 *
  17 H       4.5072128    3.5409513    2.3819208 *  3.4626759    4.9484702  
  18 H       6.1616981    5.8418124    5.0410008    6.0353281    5.3737707  
  19 H       6.1657908    6.5919742    6.0147078    6.5808635    4.6837465  
  20 H       6.3811096    6.6581315    5.6432757    5.9979367    5.4754564  
  21 H       7.7537523    6.9857638    5.6370521    6.7970415    7.3381769  
  22 H       8.0910593    7.6029579    6.1604323    6.9807130    7.6450908  
  23 H       0.9661450 *  3.6355178    4.8218198    3.7445608    2.3004053 *

               16 H         17 H         18 H         19 H         20 H     

   1 C       5.4117931    2.7356153 *  5.2431203    5.9514729    5.7127547  
   2 C       3.9037196    2.1396603 *  4.1623577    4.5979496    4.6329672  
   3 C       3.3992310    3.3836080    4.8167766    4.8056807    5.1132355  
   4 C       2.1505167 *  3.8597442    4.4685907    4.0039440    4.6882871  
   5 C       1.0873778 *  3.3863164    3.2740189    2.6082839 *  3.6009293  
   6 C       2.1576612 *  2.1525750 *  2.1607430 *  2.1406572 *  2.8433869 *
   7 C       3.3940069    1.0882621 *  2.8306051 *  3.4247950    3.5130391  
   8 C       2.7604047 *  2.7266857 *  1.0979563 *  1.0984536 *  2.2125017 *
   9 C       3.8088360    3.0280851    2.1370108 *  2.1385423 *  1.0908399 *
  10 C       5.0984838    3.4200932    2.6380884 *  3.2001057    2.0976422 *
  11 O       4.5736592    4.5072128    6.1616981    6.1657908    6.3811096  
  12 H       5.8902998    3.5409513    5.8418124    6.5919742    6.6581315  
  13 H       5.9002024    2.3819208 *  5.0410008    6.0147078    5.6432757  
  14 H       5.8950860    3.4626759    6.0353281    6.5808635    5.9979367  
  15 H       2.4753647 *  4.9484702    5.3737707    4.6837465    5.4754564  
  16 H       0.0000000    4.2940980    3.5365699    2.3636174 *  3.7468842  
  17 H       4.2940980    0.0000000    2.7465138 *  3.7763805    3.5702960  
  18 H       3.5365699    2.7465138 *  0.0000000    1.7612856 *  3.0921949  
  19 H       2.3636174 *  3.7763805    1.7612856 *  0.0000000    2.5769582 *
  20 H       3.7468842    3.5702960    3.0921949    2.5769582 *  0.0000000  
  21 H       5.5407841    3.4753393    2.4474365 *  3.5016504    3.0794964  
  22 H       5.9135092    4.1679077    3.7219431    4.1149400    2.4383131 *
  23 H       4.5600884    5.2798891    6.6501190    6.4368544    6.7955613  

               21 H         22 H         23 H     

   1 C       6.1854037    6.6373599    3.7494355  
   2 C       5.4857304    5.9546687    3.1862758  
   3 C       6.4620121    6.8487945    1.9299050 *
   4 C       6.3596007    6.7230705    2.4634540 *
   5 C       5.2295675    5.6491130    3.8523052  
   6 C       3.9392295    4.5036551    4.6250428  
   7 C       4.1292445    4.7124882    4.3268619  
   8 C       2.7936471 *  3.5166342    6.1307724  
   9 C       2.1207283 *  2.1186343 *  6.9310215  
  10 C       1.0884673 *  1.0865122 *  8.0034923  
  11 O       7.7537523    8.0910593    0.9661450 *
  12 H       6.9857638    7.6029579    3.6355178  
  13 H       5.6370521    6.1604323    4.8218198  
  14 H       6.7970415    6.9807130    3.7445608  
  15 H       7.3381769    7.6450908    2.3004053 *
  16 H       5.5407841    5.9135092    4.5600884  
  17 H       3.4753393    4.1679077    5.2798891  
  18 H       2.4474365 *  3.7219431    6.6501190  
  19 H       3.5016504    4.1149400    6.4368544  
  20 H       3.0794964    2.4383131 *  6.7955613  
  21 H       0.0000000    1.8524080 *  8.3808853  
  22 H       1.8524080 *  0.0000000    8.6855248  
  23 H       8.3808853    8.6855248    0.0000000  

  * ... LESS THAN  3.000


     ATOMIC BASIS SET
     ----------------
 THE CONTRACTED PRIMITIVE FUNCTIONS HAVE BEEN UNNORMALIZED
 THE CONTRACTED BASIS FUNCTIONS ARE NOW NORMALIZED TO UNITY

  SHELL TYPE  PRIMITIVE        EXPONENT          CONTRACTION COEFFICIENT(S)

 C         

      1   S       1           172.2560000    0.061766907377
      1   S       2            25.9109000    0.358794042852
      1   S       3             5.5333500    0.700713083689

      2   L       4             3.6649800   -0.395895162119    0.236459946619
      2   L       5             0.7705450    1.215834355681    0.860618805716

      3   L       6             0.1958570    1.000000000000    1.000000000000

 C         

      4   S       7           172.2560000    0.061766907377
      4   S       8            25.9109000    0.358794042852
      4   S       9             5.5333500    0.700713083689

      5   L      10             3.6649800   -0.395895162119    0.236459946619
      5   L      11             0.7705450    1.215834355681    0.860618805716

      6   L      12             0.1958570    1.000000000000    1.000000000000

 C         

      7   S      13           172.2560000    0.061766907377
      7   S      14            25.9109000    0.358794042852
      7   S      15             5.5333500    0.700713083689

      8   L      16             3.6649800   -0.395895162119    0.236459946619
      8   L      17             0.7705450    1.215834355681    0.860618805716

      9   L      18             0.1958570    1.000000000000    1.000000000000

 C         

     10   S      19           172.2560000    0.061766907377
     10   S      20            25.9109000    0.358794042852
     10   S      21             5.5333500    0.700713083689

     11   L      22             3.6649800   -0.395895162119    0.236459946619
     11   L      23             0.7705450    1.215834355681    0.860618805716

     12   L      24             0.1958570    1.000000000000    1.000000000000

 C         

     13   S      25           172.2560000    0.061766907377
     13   S      26            25.9109000    0.358794042852
     13   S      27             5.5333500    0.700713083689

     14   L      28             3.6649800   -0.395895162119    0.236459946619
     14   L      29             0.7705450    1.215834355681    0.860618805716

     15   L      30             0.1958570    1.000000000000    1.000000000000

 C         

     16   S      31           172.2560000    0.061766907377
     16   S      32            25.9109000    0.358794042852
     16   S      33             5.5333500    0.700713083689

     17   L      34             3.6649800   -0.395895162119    0.236459946619
     17   L      35             0.7705450    1.215834355681    0.860618805716

     18   L      36             0.1958570    1.000000000000    1.000000000000

 C         

     19   S      37           172.2560000    0.061766907377
     19   S      38            25.9109000    0.358794042852
     19   S      39             5.5333500    0.700713083689

     20   L      40             3.6649800   -0.395895162119    0.236459946619
     20   L      41             0.7705450    1.215834355681    0.860618805716

     21   L      42             0.1958570    1.000000000000    1.000000000000

 C         

     22   S      43           172.2560000    0.061766907377
     22   S      44            25.9109000    0.358794042852
     22   S      45             5.5333500    0.700713083689

     23   L      46             3.6649800   -0.395895162119    0.236459946619
     23   L      47             0.7705450    1.215834355681    0.860618805716

     24   L      48             0.1958570    1.000000000000    1.000000000000

 C         

     25   S      49           172.2560000    0.061766907377
     25   S      50            25.9109000    0.358794042852
     25   S      51             5.5333500    0.700713083689

     26   L      52             3.6649800   -0.395895162119    0.236459946619
     26   L      53             0.7705450    1.215834355681    0.860618805716

     27   L      54             0.1958570    1.000000000000    1.000000000000

 C         

     28   S      55           172.2560000    0.061766907377
     28   S      56            25.9109000    0.358794042852
     28   S      57             5.5333500    0.700713083689

     29   L      58             3.6649800   -0.395895162119    0.236459946619
     29   L      59             0.7705450    1.215834355681    0.860618805716

     30   L      60             0.1958570    1.000000000000    1.000000000000

 O         

     31   S      61           322.0370000    0.059239393389
     31   S      62            48.4308000    0.351499960776
     31   S      63            10.4206000    0.707657921031

     32   L      64             7.4029400   -0.404453583190    0.244586106967
     32   L      65             1.5762000    1.221561761397    0.853955373466

     33   L      66             0.3736840    1.000000000000    1.000000000000

 H         

     34   S      67             5.4471780    0.156284978695
     34   S      68             0.8245472    0.904690876670

     35   S      69             0.1831916    1.000000000000

 H         

     36   S      70             5.4471780    0.156284978695
     36   S      71             0.8245472    0.904690876670

     37   S      72             0.1831916    1.000000000000

 H         

     38   S      73             5.4471780    0.156284978695
     38   S      74             0.8245472    0.904690876670

     39   S      75             0.1831916    1.000000000000

 H         

     40   S      76             5.4471780    0.156284978695
     40   S      77             0.8245472    0.904690876670

     41   S      78             0.1831916    1.000000000000

 H         

     42   S      79             5.4471780    0.156284978695
     42   S      80             0.8245472    0.904690876670

     43   S      81             0.1831916    1.000000000000

 H         

     44   S      82             5.4471780    0.156284978695
     44   S      83             0.8245472    0.904690876670

     45   S      84             0.1831916    1.000000000000

 H         

     46   S      85             5.4471780    0.156284978695
     46   S      86             0.8245472    0.904690876670

     47   S      87             0.1831916    1.000000000000

 H         

     48   S      88             5.4471780    0.156284978695
     48   S      89             0.8245472    0.904690876670

     49   S      90             0.1831916    1.000000000000

 H         

     50   S      91             5.4471780    0.156284978695
     50   S      92             0.8245472    0.904690876670

     51   S      93             0.1831916    1.000000000000

 H         

     52   S      94             5.4471780    0.156284978695
     52   S      95             0.8245472    0.904690876670

     53   S      96             0.1831916    1.000000000000

 H         

     54   S      97             5.4471780    0.156284978695
     54   S      98             0.8245472    0.904690876670

     55   S      99             0.1831916    1.000000000000

 H         

     56   S     100             5.4471780    0.156284978695
     56   S     101             0.8245472    0.904690876670

     57   S     102             0.1831916    1.000000000000

 TOTAL NUMBER OF BASIS SET SHELLS             =   57
 NUMBER OF CARTESIAN GAUSSIAN BASIS FUNCTIONS =  123
 NUMBER OF ELECTRONS                          =   81
 CHARGE OF MOLECULE                           =   -1
 SPIN MULTIPLICITY                            =    2
 NUMBER OF OCCUPIED ORBITALS (ALPHA)          =   41
 NUMBER OF OCCUPIED ORBITALS (BETA )          =   40
 TOTAL NUMBER OF ATOMS                        =   23
 THE NUCLEAR REPULSION ENERGY IS      565.5090674368

     $CONTRL OPTIONS
     ---------------
 SCFTYP=UHF          RUNTYP=ENERGY       EXETYP=RUN     
 MPLEVL=       0     CITYP =NONE         CCTYP =NONE         VBTYP =NONE    
 DFTTYP=NONE         TDDFT =NONE    
 MULT  =       2     ICHARG=      -1     NZVAR =       0     COORD =UNIQUE  
 PP    =NONE         RELWFN=NONE         LOCAL =NONE         NUMGRD=       F
 ISPHER=      -1     NOSYM =       0     MAXIT =      60     UNITS =ANGS    
 PLTORB=       F     MOLPLT=       F     AIMPAC=       F     FRIEND=        
 NPRINT=       7     IREST =       0     GEOM  =INPUT   
 NORMF =       0     NORMP =       0     ITOL  =      20     ICUT  =       9
 INTTYP=BEST         GRDTYP=BEST         QMTTOL= 1.0E-06

     $SYSTEM OPTIONS
     ---------------
  REPLICATED MEMORY=    30000000 WORDS (ON EVERY NODE).
 DISTRIBUTED MEMDDI=        1000 MILLION WORDS IN AGGREGATE,
 MEMDDI DISTRIBUTED OVER   6 PROCESSORS IS   166666666 WORDS/PROCESSOR.
 TOTAL MEMORY REQUESTED ON EACH PROCESSOR=   196666666 WORDS.
 TIMLIM=      525600.00 MINUTES, OR     365.0 DAYS.
 PARALL= T  BALTYP=  DLB     KDIAG=    0  COREFL= F
 MXSEQ2=     300 MXSEQ3=     150  mem10=         0

          ----------------
          PROPERTIES INPUT
          ----------------

     MOMENTS            FIELD           POTENTIAL          DENSITY
 IEMOM =       1   IEFLD =       0   IEPOT =       0   IEDEN =       0
 WHERE =COMASS     WHERE =NUCLEI     WHERE =NUCLEI     WHERE =NUCLEI  
 OUTPUT=BOTH       OUTPUT=BOTH       OUTPUT=BOTH       OUTPUT=BOTH    
 IEMINT=       0   IEFINT=       0                     IEDINT=       0
                                                       MORB  =       0
          EXTRAPOLATION IN EFFECT
          SOSCF IN EFFECT
          DIIS or SOSCF will be reset if energy rises
 ORBITAL PRINTING OPTION: NPREO=     1   123     2     1

     -------------------------------
     INTEGRAL TRANSFORMATION OPTIONS
     -------------------------------
     NWORD  =            0
     CUTOFF = 1.0E-09     MPTRAN =       0
     DIRTRF =       T     AOINTS =DUP     

          ----------------------
          INTEGRAL INPUT OPTIONS
          ----------------------
 NOPK  =       1 NORDER=       0 SCHWRZ=       T

     ------------------------------------------
     THE POINT GROUP IS C1 , NAXIS= 0, ORDER= 1
     ------------------------------------------

     DIMENSIONS OF THE SYMMETRY SUBSPACES ARE
 A   =  123

 ..... DONE SETTING UP THE RUN .....
 CPU     0: STEP CPU TIME=     0.02 TOTAL CPU TIME=          0.0 (      0.0 MIN)
 TOTAL WALL CLOCK TIME=          0.0 SECONDS, CPU UTILIZATION IS    66.67%

          ********************
          1 ELECTRON INTEGRALS
          ********************
 ...... END OF ONE-ELECTRON INTEGRALS ......
 CPU     0: STEP CPU TIME=     0.02 TOTAL CPU TIME=          0.0 (      0.0 MIN)
 TOTAL WALL CLOCK TIME=          0.1 SECONDS, CPU UTILIZATION IS    80.00%

          -------------
          GUESS OPTIONS
          -------------
          GUESS =HUCKEL            NORB  =       0          NORDER=       0
          MIX   =       F          PRTMO =       F          PUNMO =       F
          TOLZ  = 1.0E-08          TOLE  = 1.0E-05
          SYMDEN=       F          PURIFY=       F

 INITIAL GUESS ORBITALS GENERATED BY HUCKEL   ROUTINE.
 HUCKEL GUESS REQUIRES    144696 WORDS.

 SYMMETRIES FOR INITIAL GUESS ORBITALS FOLLOW.  ALPHA SET(S).
    41 ORBITALS ARE OCCUPIED (   11 CORE ORBITALS).
    12=A       13=A       14=A       15=A       16=A       17=A       18=A   
    19=A       20=A       21=A       22=A       23=A       24=A       25=A   
    26=A       27=A       28=A       29=A       30=A       31=A       32=A   
    33=A       34=A       35=A       36=A       37=A       38=A       39=A   
    40=A       41=A       42=A       43=A       44=A       45=A       46=A   
    47=A       48=A       49=A       50=A       51=A   

 SYMMETRIES FOR INITIAL GUESS ORBITALS FOLLOW.   BETA SET(S).
    40 ORBITALS ARE OCCUPIED (   11 CORE ORBITALS).
    12=A       13=A       14=A       15=A       16=A       17=A       18=A   
    19=A       20=A       21=A       22=A       23=A       24=A       25=A   
    26=A       27=A       28=A       29=A       30=A       31=A       32=A   
    33=A       34=A       35=A       36=A       37=A       38=A       39=A   
    40=A       41=A       42=A       43=A       44=A       45=A       46=A   
    47=A       48=A       49=A       50=A   
 ...... END OF INITIAL ORBITAL SELECTION ......
 CPU     0: STEP CPU TIME=     0.04 TOTAL CPU TIME=          0.1 (      0.0 MIN)
 TOTAL WALL CLOCK TIME=          0.1 SECONDS, CPU UTILIZATION IS    72.73%

                    ----------------------
                    AO INTEGRAL TECHNOLOGY
                    ----------------------
     S,P,L SHELL ROTATED AXIS INTEGRALS, REPROGRAMMED BY
        KAZUYA ISHIMURA (IMS) AND JOSE SIERRA (SYNSTAR).
     S,P,D,L SHELL ROTATED AXIS INTEGRALS PROGRAMMED BY
        KAZUYA ISHIMURA (INSTITUTE FOR MOLECULAR SCIENCE).
     S,P,D,F,G SHELL TO TOTAL QUARTET ANGULAR MOMENTUM SUM 5,
        ERIC PROGRAM BY GRAHAM FLETCHER (ELORET AND NASA ADVANCED
        SUPERCOMPUTING DIVISION, AMES RESEARCH CENTER).
     S,P,D,F,G,L SHELL GENERAL RYS QUADRATURE PROGRAMMED BY
        MICHEL DUPUIS (PACIFIC NORTHWEST NATIONAL LABORATORY).

          --------------------
          2 ELECTRON INTEGRALS
          --------------------

 DIRECT SCF METHOD SKIPS INTEGRAL STORAGE ON DISK.
 DIRECT TRANSFORMATION SKIPS AO INTEGRAL STORAGE ON DISK.
  ...... END OF TWO-ELECTRON INTEGRALS .....
 CPU     0: STEP CPU TIME=     0.02 TOTAL CPU TIME=          0.1 (      0.0 MIN)
 TOTAL WALL CLOCK TIME=          0.1 SECONDS, CPU UTILIZATION IS    76.92%

          ---------------------------
                  UHF SCF CALCULATION
          ---------------------------

     NUCLEAR ENERGY =       565.5090674368
     MAXIT = 60     NPUNCH=  2     MULT=  2
     EXTRAP=T  DAMP=F  SHIFT=F  RSTRCT=F  DIIS=F  SOSCF=T
     DENSITY MATRIX CONV=  2.00E-05
     SOSCF WILL OPTIMIZE    3362 ALPHA AND    3320 BETA ROTATION ANGLES.
     SOGTOL= 2.500E-01
     MEMORY REQUIRED FOR UHF/ROHF ITERS=    247694 WORDS.

 DIRECT SCF CALCULATION, SCHWRZ=T   FDIFF=T
 SCHWARZ INEQUALITY OVERHEAD:      7050 INTEGRALS, T=        0.00

                                                                                NONZERO     BLOCKS
 ITER EX      TOTAL ENERGY        E CHANGE  DENSITY CHANGE    ORB. GRAD       INTEGRALS    SKIPPED
   1  0     -456.8783847567  -456.8783847567   0.615980024   0.000000000       16244391     778955
          ---------------START SECOND ORDER SCF---------------
   2  1     -457.7904832433    -0.9120984866   0.146380914   0.041940672       16175609     797291
   3  2     -457.8345758509    -0.0440926077   0.084392598   0.015858746       15954043     831323
   4  3     -457.8431182596    -0.0085424086   0.014662160   0.005630387       15782783     849456
   5  4     -457.8441664787    -0.0010482191   0.022772164   0.003018456       15238909     888158
   6  5     -457.8448161235    -0.0006496448   0.009006210   0.002361364       15396260     879842
   7  6     -457.8449511122    -0.0001349887   0.013248009   0.001443281       14780538     914624
   8  7     -457.8450573218    -0.0001062095   0.008237414   0.000986039       14981661     905842
   9  8     -457.8451077866    -0.0000504648   0.013083421   0.000683873       14777538     920109
  10  9     -457.8451702313    -0.0000624448   0.007764407   0.000584113       14993087     908786
  11 10     -457.8452041384    -0.0000339070   0.003607923   0.000606910       14808481     917726
  12 11     -457.8452168761    -0.0000127377   0.001093850   0.000292739       14471509     933939
  13 12     -457.8452202757    -0.0000033996   0.001086745   0.000316568       13752379     963368
  14 13     -457.8452231360    -0.0000028603   0.002174284   0.000316835       13629616     967113
  15 14     -457.8452276174    -0.0000044814   0.003917622   0.000342137       13876845     956887
  16 15     -457.8452343017    -0.0000066843   0.006354548   0.000372246       14130409     947798
  17 16     -457.8452436053    -0.0000093036   0.006984858   0.000390721       14339538     939641
  18 17     -457.8452530637    -0.0000094584   0.004658277   0.000441775       14379052     936760
  19 18     -457.8452606712    -0.0000076075   0.001930668   0.000342702       14156964     943039
  20 19     -457.8452659161    -0.0000052449   0.001655173   0.000280471       13865425     953637
  21 20     -457.8452695518    -0.0000036357   0.001907112   0.000249682       13767942     960977
  22 21     -457.8452731948    -0.0000036431   0.001528183   0.000156291       13922596     956021
  23 22     -457.8452754028    -0.0000022079   0.000793297   0.000074223       13817913     962261
  24 23     -457.8452763315    -0.0000009287   0.000510407   0.000041905       13513252     973655
  25 24     -457.8452765895    -0.0000002581   0.000214492   0.000021140       12956239     995522
  26 25     -457.8452766550    -0.0000000655   0.000102417   0.000015227       12380281    1016574
  27 26     -457.8452766732    -0.0000000182   0.000065813   0.000009630       11886317    1037963
  28 27     -457.8452766781    -0.0000000049   0.000033003   0.000005132       11419140    1056373
  29 28     -457.8452766792    -0.0000000011   0.000016259   0.000003980       10939456    1073873
  30 29     -457.8452766794    -0.0000000002   0.000009753   0.000001715       10418221    1093027

          -----------------
          DENSITY CONVERGED
          -----------------
     TIME TO FORM FOCK OPERATORS=       7.8 SECONDS (       0.3 SEC/ITER)
     FOCK TIME ON FIRST ITERATION=       0.3, LAST ITERATION=       0.2
     TIME TO SOLVE SCF EQUATIONS=       0.4 SECONDS (       0.0 SEC/ITER)

 FINAL UHF ENERGY IS     -457.8452766794 AFTER  30 ITERATIONS

          --------------------
          SPIN SZ   =    0.500
          S-SQUARED =    0.874
          --------------------

  ----- ALPHA SET ----- 

          ------------
          EIGENVECTORS
          ------------

                      1          2          3          4          5
                  -20.3050   -11.0525   -11.0430   -11.0413   -11.0285
                     A          A          A          A          A   
    1  C  1  S   -0.000230  -0.000203  -0.002117   0.000009  -0.000755
    2  C  1  S   -0.001041  -0.000133  -0.001556   0.000038  -0.000411
    3  C  1  X   -0.000355   0.000029  -0.000280   0.000031   0.000066
    4  C  1  Y   -0.000938   0.000019  -0.000153   0.000020   0.000018
    5  C  1  Z   -0.000065  -0.000013  -0.000052   0.000006  -0.000002
    6  C  1  S    0.016018   0.000202   0.014873  -0.000661   0.001922
    7  C  1  X   -0.003033   0.000113  -0.004902   0.000158   0.000071
    8  C  1  Y   -0.006074  -0.000123  -0.005620   0.000333  -0.001384
    9  C  1  Z   -0.000590   0.000259  -0.000835   0.000011   0.000027
   10  C  2  S   -0.000180  -0.000220  -0.002611   0.000056  -0.000816
   11  C  2  S   -0.000864  -0.000151  -0.004524   0.000085  -0.000741
   12  C  2  X    0.001294   0.000198   0.000095   0.000003   0.000556
   13  C  2  Y    0.001048   0.000037   0.002326  -0.000093   0.000176
   14  C  2  Z    0.000219   0.000166   0.000035  -0.000006   0.000080
   15  C  2  S    0.019801  -0.001196   0.042009  -0.001029   0.002222
   16  C  2  X   -0.020229  -0.000933  -0.006980   0.000188  -0.005386
   17  C  2  Y   -0.025252   0.001284  -0.039016   0.001618  -0.000651
   18  C  2  Z   -0.003508  -0.000824  -0.001465   0.000102  -0.000740
   19  C  3  S   -0.000043  -0.001160   0.987488   0.000687   0.001707
   20  C  3  S    0.001940  -0.000266   0.099437   0.000034  -0.000038
   21  C  3  X    0.000280   0.000028  -0.000581  -0.000018   0.000139
   22  C  3  Y    0.000013  -0.000045  -0.000154   0.000012  -0.000044
   23  C  3  Z    0.000049  -0.000002  -0.000101   0.000001   0.000034
   24  C  3  S   -0.006184   0.001887  -0.098798   0.000666   0.000151
   25  C  3  X    0.043648  -0.000806   0.041916  -0.000484   0.001198
   26  C  3  Y    0.001026   0.000796   0.001566   0.000740   0.001989
   27  C  3  Z    0.007223  -0.000010   0.006975  -0.000098   0.000187
   28  C  4  S   -0.000257  -0.000046  -0.003092  -0.000007  -0.000806
   29  C  4  S   -0.001439   0.000024  -0.005358   0.000011  -0.000721
   30  C  4  X    0.001177   0.000174   0.000207  -0.000011   0.000452
   31  C  4  Y   -0.000012  -0.000007  -0.001540  -0.000037  -0.000118
   32  C  4  Z    0.000190  -0.000009   0.000018   0.000002   0.000114
   33  C  4  S    0.024148  -0.002372   0.047912  -0.000696   0.001251
   34  C  4  X   -0.020663   0.001217  -0.009265   0.000776  -0.000704
   35  C  4  Y    0.015457  -0.000664   0.030924   0.000356   0.001667
   36  C  4  Z   -0.003250   0.000475  -0.001239   0.000132  -0.000248
   37  C  5  S    0.000250  -0.000360  -0.000290   0.000097  -0.001538
   38  C  5  S    0.001004  -0.000439   0.000650   0.000128  -0.000981
   39  C  5  X   -0.000753  -0.000155  -0.001191  -0.000026   0.000623
   40  C  5  Y   -0.000252  -0.000075  -0.000212   0.000006  -0.000150
   41  C  5  Z   -0.000122   0.000206  -0.000194  -0.000026  -0.000021
   42  C  5  S   -0.023437   0.004442  -0.023088  -0.000851   0.002367
   43  C  5  X   -0.009845   0.002317  -0.006993   0.001679   0.001535
   44  C  5  Y   -0.007574   0.003367  -0.012996  -0.000501   0.003143
   45  C  5  Z   -0.001720  -0.000396  -0.001298   0.000253   0.000449
   46  C  6  S   -0.000177  -0.002946  -0.001552  -0.000481  -0.000748
   47  C  6  S   -0.000825  -0.001759  -0.001440  -0.000298  -0.001262
   48  C  6  X   -0.000507   0.001367  -0.000636   0.000136   0.000563
   49  C  6  Y   -0.000014  -0.000430  -0.000025   0.000276   0.000339
   50  C  6  Z   -0.000092  -0.000182  -0.000122  -0.000040   0.000200
   51  C  6  S    0.011746   0.002111   0.018601   0.000317   0.016341
   52  C  6  X    0.012259  -0.010153   0.015616  -0.001325  -0.022537
   53  C  6  Y    0.001810  -0.000200   0.001464  -0.002778  -0.004001
   54  C  6  Z    0.002093  -0.001376   0.002641  -0.000041  -0.002808
   55  C  7  S    0.000240  -0.000364  -0.000422   0.000078  -0.001123
   56  C  7  S    0.000953  -0.000250   0.000388   0.000001  -0.000780
   57  C  7  X   -0.000820   0.000396  -0.001207  -0.000137   0.000797
   58  C  7  Y    0.000104   0.000220   0.000089   0.000149   0.000335
   59  C  7  Z   -0.000138  -0.000354  -0.000205  -0.000004   0.000228
   60  C  7  S   -0.024484   0.001221  -0.022664   0.001673   0.001796
   61  C  7  X   -0.009411   0.000486  -0.006915   0.000407  -0.003450
   62  C  7  Y    0.009418  -0.004109   0.014366  -0.002298  -0.006056
   63  C  7  Z   -0.001437   0.001076  -0.000968  -0.000084  -0.001083
   64  C  8  S   -0.000044  -0.002543  -0.001810  -0.009909   0.988065
   65  C  8  S   -0.000161  -0.001173  -0.000630  -0.001677   0.105658
   66  C  8  X    0.000334   0.000033   0.000224   0.000417  -0.000160
   67  C  8  Y    0.000059  -0.000279   0.000018  -0.000505  -0.000018
   68  C  8  Z    0.000074   0.000035   0.000027  -0.000338   0.000322
   69  C  8  S    0.004939   0.010712   0.006317   0.001097  -0.101842
   70  C  8  X    0.001790  -0.011881   0.002574  -0.000781  -0.004938
   71  C  8  Y   -0.000483   0.007008  -0.000154   0.000700  -0.001878
   72  C  8  Z    0.000175   0.005187   0.000534   0.001531  -0.008137
   73  C  9  S   -0.000003   0.987209   0.001118   0.000823   0.002194
   74  C  9  S   -0.000033   0.098254   0.000034  -0.003709  -0.001472
   75  C  9  X   -0.000006  -0.000029  -0.000019   0.001644   0.000129
   76  C  9  Y    0.000058   0.000418   0.000025  -0.001914   0.000017
   77  C  9  Z    0.000014  -0.000736   0.000047   0.000309   0.000233
   78  C  9  S   -0.000158  -0.077991  -0.000193   0.024215   0.019447
   79  C  9  X   -0.000008   0.003531  -0.000311  -0.010245   0.011003
   80  C  9  Y   -0.000135  -0.006914   0.000140   0.011546  -0.007379
   81  C  9  Z    0.000121   0.009820   0.000114  -0.000736  -0.013066
   82  C 10  S   -0.000005  -0.001319  -0.000714   0.986682   0.009806
   83  C 10  S   -0.000032  -0.004180  -0.000082   0.096548   0.000041
   84  C 10  X    0.000003  -0.001416  -0.000004   0.000056  -0.000527
   85  C 10  Y    0.000009   0.001511   0.000016  -0.000135   0.000405
   86  C 10  Z    0.000016   0.000132   0.000017   0.000056   0.000202
   87  C 10  S    0.000163   0.028459  -0.000093  -0.069573   0.003465
   88  C 10  X    0.000102   0.010997   0.000001  -0.005457   0.001286
   89  C 10  Y   -0.000096  -0.011016   0.000031   0.006377  -0.002335
   90  C 10  Z   -0.000134  -0.003721  -0.000163  -0.000839   0.003357
   91  O 11  S    0.983846  -0.000002   0.000274  -0.000002   0.000011
   92  O 11  S    0.101158  -0.000022   0.003050  -0.000017   0.000068
   93  O 11  X   -0.002891   0.000008  -0.001000  -0.000004   0.000034
   94  O 11  Y   -0.002728   0.000001  -0.000037   0.000014   0.000014
   95  O 11  Z   -0.000527   0.000005  -0.000166  -0.000002   0.000004
   96  O 11  S   -0.059649   0.000079  -0.008415   0.000101  -0.000571
   97  O 11  X    0.013173  -0.000005   0.005277   0.000000   0.000109
   98  O 11  Y    0.005876  -0.000045   0.000320  -0.000102  -0.000111
   99  O 11  Z    0.002280  -0.000022   0.000878   0.000005   0.000025
  100  H 12  S   -0.000481   0.000005  -0.000466   0.000018  -0.000114
  101  H 12  S   -0.000524  -0.000019   0.000302   0.000004  -0.000088
  102  H 13  S   -0.000649   0.000047  -0.000711   0.000047  -0.000090
  103  H 13  S   -0.000242  -0.000095  -0.000098  -0.000110   0.000501
  104  H 14  S   -0.000435  -0.000074  -0.000470   0.000024  -0.000094
  105  H 14  S   -0.000491  -0.000076   0.000220   0.000004  -0.000140
  106  H 15  S    0.002161  -0.000048   0.000631   0.000027   0.000045
  107  H 15  S    0.006795  -0.000135   0.008420   0.000002   0.000985
  108  H 16  S   -0.000190   0.000287  -0.000712   0.000103   0.000379
  109  H 16  S   -0.001748   0.001175  -0.002417   0.000162   0.000438
  110  H 17  S   -0.000342  -0.000184  -0.000801  -0.000078  -0.000041
  111  H 17  S   -0.002496   0.002759  -0.003076   0.001396   0.001720
  112  H 18  S   -0.000102  -0.000954  -0.000161  -0.000177   0.001211
  113  H 18  S   -0.000082  -0.001572  -0.000037   0.000280   0.013904
  114  H 19  S   -0.000101  -0.000877  -0.000166   0.000034   0.001519
  115  H 19  S   -0.000701   0.002755  -0.000347   0.000378   0.014795
  116  H 20  S   -0.000016  -0.001489   0.000008  -0.000959  -0.000912
  117  H 20  S   -0.000054   0.009500   0.000019   0.001363   0.001887
  118  H 21  S   -0.000036  -0.001650  -0.000030  -0.001359   0.000352
  119  H 21  S    0.000003  -0.001054  -0.000026   0.011988   0.000950
  120  H 22  S    0.000013  -0.000570   0.000025  -0.001359  -0.000625
  121  H 22  S    0.000070   0.002567   0.000050   0.012241   0.000281
  122  H 23  S    0.003543   0.000004   0.000225  -0.000023  -0.000004
  123  H 23  S    0.003067   0.000012  -0.001056   0.000012   0.000036

                      6          7          8          9         10
                  -10.9878   -10.9825   -10.9469   -10.9411   -10.9410
                     A          A          A          A          A   
    1  C  1  S    0.987559   0.009767   0.000144  -0.000108   0.002253
    2  C  1  S    0.101989   0.000549  -0.000176  -0.000042  -0.000844
    3  C  1  X    0.000253   0.000248  -0.000031  -0.000133  -0.000052
    4  C  1  Y    0.000280   0.000301  -0.000192   0.000426   0.000149
    5  C  1  Z    0.000053   0.000024  -0.000004  -0.000029  -0.000027
    6  C  1  S   -0.084860  -0.002396   0.003825  -0.005293   0.005288
    7  C  1  X    0.002977  -0.000284  -0.000774   0.000591   0.001175
    8  C  1  Y    0.005597  -0.000096  -0.001417   0.001303  -0.003174
    9  C  1  Z    0.000494   0.000050  -0.000155   0.000177   0.000284
   10  C  2  S   -0.002501  -0.000991  -0.005417   0.080388  -0.171679
   11  C  2  S   -0.001828   0.000193  -0.001293   0.011041  -0.020592
   12  C  2  X   -0.000204   0.000584   0.000244  -0.001457   0.001236
   13  C  2  Y   -0.000841   0.000030   0.000393  -0.000005   0.001288
   14  C  2  Z   -0.000029   0.000088   0.000043  -0.000234   0.000212
   15  C  2  S    0.016794  -0.008962   0.012251  -0.039563   0.036758
   16  C  2  X    0.004954   0.002249  -0.006532   0.018991  -0.014744
   17  C  2  Y    0.017182   0.007543  -0.008386   0.016356  -0.012336
   18  C  2  Z    0.000905   0.000470  -0.001134   0.003216  -0.002531
   19  C  3  S    0.001861   0.001162   0.000582   0.001211   0.001659
   20  C  3  S   -0.000404  -0.000795   0.000656  -0.003638  -0.002155
   21  C  3  X   -0.000335   0.000155   0.000482   0.000308   0.000936
   22  C  3  Y   -0.001046   0.000036   0.000542   0.001460   0.000842
   23  C  3  Z   -0.000077   0.000024   0.000084   0.000066   0.000161
   24  C  3  S   -0.000185   0.011341  -0.017591   0.039664   0.009653
   25  C  3  X   -0.000488  -0.006030   0.010066  -0.019806  -0.002407
   26  C  3  Y    0.006902  -0.000816   0.003275  -0.010998  -0.012788
   27  C  3  Z    0.000024  -0.000990   0.001694  -0.003375  -0.000506
   28  C  4  S   -0.001806  -0.001185  -0.055662   0.732905   0.656643
   29  C  4  S   -0.001159   0.000027  -0.010116   0.074946   0.065868
   30  C  4  X   -0.000057   0.000732   0.001491  -0.000467  -0.000102
   31  C  4  Y   -0.000357  -0.000010  -0.000542   0.000917   0.000655
   32  C  4  Z   -0.000008   0.000138   0.000239  -0.000066  -0.000016
   33  C  4  S    0.006405  -0.008862   0.044426  -0.077616  -0.050221
   34  C  4  X    0.001174   0.001790  -0.019428   0.011477   0.001335
   35  C  4  Y    0.004993  -0.007624   0.015036  -0.020528  -0.009245
   36  C  4  Z    0.000215   0.000127  -0.003064   0.001702   0.000159
   37  C  5  S   -0.000240  -0.006394   0.985534   0.032574   0.044974
   38  C  5  S    0.000014  -0.004610   0.100469   0.000009   0.001746
   39  C  5  X   -0.000118   0.000664   0.000699  -0.001359  -0.000652
   40  C  5  Y   -0.000056  -0.001395   0.001081   0.000169  -0.001025
   41  C  5  Z   -0.000019   0.000040   0.000125  -0.000221  -0.000108
   42  C  5  S   -0.002456   0.032121  -0.097852   0.033733   0.009870
   43  C  5  X   -0.000121  -0.004723  -0.011339   0.016933   0.004559
   44  C  5  Y   -0.002988   0.019432  -0.025427   0.015270   0.002583
   45  C  5  Z   -0.000036  -0.000408  -0.002094   0.002930   0.000741
   46  C  6  S   -0.009914   0.987566   0.005478  -0.001800   0.004461
   47  C  6  S   -0.001550   0.100410  -0.003494   0.002645  -0.002474
   48  C  6  X   -0.000404  -0.000246  -0.001614   0.000518  -0.001558
   49  C  6  Y   -0.000257   0.000115   0.001313   0.001304  -0.000553
   50  C  6  Z   -0.000072   0.000176  -0.000263   0.000088  -0.000301
   51  C  6  S    0.002857  -0.095259   0.035603  -0.033331   0.018930
   52  C  6  X    0.004299  -0.013639   0.026398  -0.022444   0.016289
   53  C  6  Y    0.000013  -0.001152  -0.013910  -0.009228   0.012832
   54  C  6  Z    0.000663  -0.002240   0.004265  -0.003800   0.002829
   55  C  7  S   -0.002278  -0.005577  -0.012704  -0.655913   0.715326
   56  C  7  S   -0.000798  -0.004535  -0.001204  -0.067729   0.073063
   57  C  7  X   -0.000446   0.000470   0.000312  -0.000703   0.000601
   58  C  7  Y   -0.000498   0.001364   0.000939   0.000954  -0.000540
   59  C  7  Z   -0.000099   0.000153   0.000056  -0.000110   0.000094
   60  C  7  S   -0.000712   0.033729  -0.012834   0.075194  -0.072637
   61  C  7  X    0.000484  -0.002866  -0.008409   0.014060  -0.010876
   62  C  7  Y   -0.000591  -0.019529   0.006718  -0.019371   0.015762
   63  C  7  Z    0.000160  -0.000822  -0.001300   0.002107  -0.001618
   64  C  8  S    0.000632   0.000489   0.001286  -0.000065   0.001062
   65  C  8  S   -0.000302  -0.000307  -0.000957   0.000038  -0.000950
   66  C  8  X    0.000027  -0.000001   0.000023  -0.000252  -0.000248
   67  C  8  Y   -0.000040   0.000053   0.000142   0.000169   0.000199
   68  C  8  Z   -0.000028   0.000142  -0.000029  -0.000043  -0.000166
   69  C  8  S    0.002516   0.004996   0.009267  -0.005746   0.006957
   70  C  8  X    0.001297   0.008316   0.004140  -0.002418   0.004893
   71  C  8  Y    0.000167  -0.001260   0.002226   0.000735  -0.003822
   72  C  8  Z    0.000459  -0.003236   0.000709  -0.000177   0.001510
   73  C  9  S    0.000160   0.002642   0.000280  -0.000152   0.000270
   74  C  9  S   -0.000052  -0.001329  -0.000256   0.000105  -0.000198
   75  C  9  X   -0.000025  -0.001365  -0.000106   0.000140  -0.000075
   76  C  9  Y   -0.000026   0.000609   0.000038  -0.000032  -0.000164
   77  C  9  Z    0.000044   0.000238   0.000160   0.000002   0.000152
   78  C  9  S    0.000028   0.002251   0.000099  -0.000179   0.001360
   79  C  9  X   -0.000342   0.007278  -0.000247  -0.000376  -0.001094
   80  C  9  Y    0.000294  -0.005206   0.000027   0.000136   0.001986
   81  C  9  Z   -0.000001  -0.003002   0.000099   0.000035  -0.001599
   82  C 10  S    0.000005   0.000396  -0.000050   0.000058  -0.000024
   83  C 10  S    0.000012  -0.000333   0.000061  -0.000027   0.000079
   84  C 10  X   -0.000011   0.000225   0.000046  -0.000078  -0.000012
   85  C 10  Y    0.000010   0.000122  -0.000005  -0.000039   0.000165
   86  C 10  Z    0.000008  -0.000157  -0.000046   0.000007   0.000063
   87  C 10  S   -0.000320   0.005518  -0.000227  -0.000161  -0.002038
   88  C 10  X   -0.000090   0.000797  -0.000282   0.000163  -0.000779
   89  C 10  Y    0.000129  -0.002984   0.000172   0.000214   0.000378
   90  C 10  Z   -0.000075   0.002118   0.000181  -0.000022  -0.000030
   91  O 11  S    0.000000  -0.000022   0.000018  -0.000035  -0.000013
   92  O 11  S   -0.000102  -0.000201   0.000118  -0.000434  -0.000270
   93  O 11  X    0.000130   0.000047   0.000131   0.000068   0.000204
   94  O 11  Y   -0.000090  -0.000031   0.000156  -0.000007  -0.000228
   95  O 11  Z    0.000003   0.000007   0.000023   0.000009   0.000033
   96  O 11  S   -0.000090   0.001123  -0.001687   0.002905   0.000632
   97  O 11  X   -0.000267  -0.000328  -0.000175  -0.000268  -0.000566
   98  O 11  Y   -0.000457   0.000143  -0.000742   0.000727   0.001951
   99  O 11  Z    0.000002  -0.000053  -0.000036  -0.000033  -0.000081
  100  H 12  S    0.000427   0.000009  -0.000071  -0.000076  -0.000331
  101  H 12  S    0.014226   0.000392  -0.000097   0.000339  -0.000546
  102  H 13  S    0.000337  -0.000257  -0.000127   0.000071   0.000102
  103  H 13  S    0.014284   0.000923  -0.000057   0.000589   0.000684
  104  H 14  S    0.000434  -0.000000  -0.000071  -0.000075  -0.000293
  105  H 14  S    0.014259   0.000242  -0.000074   0.000269  -0.000658
  106  H 15  S   -0.000003  -0.000533   0.000239  -0.001915  -0.001305
  107  H 15  S    0.001108  -0.001180   0.004709   0.003159   0.005891
  108  H 16  S   -0.000251  -0.000430  -0.002510   0.000368  -0.000520
  109  H 16  S   -0.000624   0.003123   0.005089   0.004964   0.001825
  110  H 17  S    0.000195  -0.000385  -0.000560   0.001725  -0.001616
  111  H 17  S   -0.000360   0.002476  -0.002021  -0.002165   0.004306
  112  H 18  S   -0.000110  -0.001084  -0.000446   0.000143   0.000051
  113  H 18  S    0.000091   0.001071  -0.000181  -0.000074   0.001169
  114  H 19  S   -0.000121  -0.000269  -0.000116   0.000056  -0.000821
  115  H 19  S    0.000160  -0.000832   0.000201   0.000395  -0.000467
  116  H 20  S    0.000023  -0.000891  -0.000070   0.000048   0.000178
  117  H 20  S    0.000066   0.000244   0.000008   0.000031   0.001074
  118  H 21  S   -0.000003   0.000131   0.000048  -0.000026   0.000057
  119  H 21  S   -0.000029   0.000996  -0.000003  -0.000007   0.000072
  120  H 22  S    0.000017  -0.000393  -0.000007   0.000009   0.000040
  121  H 22  S    0.000012  -0.000483  -0.000190   0.000019   0.000061
  122  H 23  S   -0.000012   0.000017  -0.000352  -0.000023   0.000315
  123  H 23  S    0.000380   0.000328   0.000570   0.000455   0.000044

                     11         12         13         14         15
                  -10.9393    -1.2194    -0.9544    -0.9240    -0.8527
                     A          A          A          A          A   
    1  C  1  S    0.002572  -0.004128  -0.022947   0.038363  -0.107932
    2  C  1  S   -0.001433   0.006192   0.025414  -0.039770   0.104885
    3  C  1  X    0.000566  -0.000197  -0.008301   0.010771  -0.016012
    4  C  1  Y    0.000230  -0.001658  -0.013235   0.019497  -0.031325
    5  C  1  Z    0.000168  -0.000203  -0.001492   0.002011  -0.003107
    6  C  1  S    0.013658  -0.035758   0.035093  -0.076968   0.283205
    7  C  1  X   -0.005988   0.015122   0.001400  -0.001011  -0.002066
    8  C  1  Y   -0.007888   0.009948   0.012305  -0.009678  -0.000036
    9  C  1  Z   -0.001462   0.003679   0.000152  -0.000160  -0.000258
   10  C  2  S    0.968902  -0.014992  -0.062227   0.084036  -0.112610
   11  C  2  S    0.098534   0.019287   0.068449  -0.088977   0.114274
   12  C  2  X    0.000296   0.009908  -0.020163   0.011614   0.022569
   13  C  2  Y   -0.000081  -0.014538  -0.023252   0.026681   0.016608
   14  C  2  Z    0.000053   0.001544  -0.003481   0.002105   0.003910
   15  C  2  S   -0.087511  -0.042231   0.111393  -0.167976   0.277481
   16  C  2  X   -0.000470   0.055361   0.026992  -0.016421   0.008303
   17  C  2  Y    0.007274   0.072428   0.010781  -0.009070  -0.008740
   18  C  2  Z    0.000028   0.009411   0.004425  -0.003082   0.001314
   19  C  3  S    0.002034  -0.077238  -0.045090   0.064473  -0.042651
   20  C  3  S   -0.003802   0.079901   0.053089  -0.074536   0.049172
   21  C  3  X    0.000952   0.085034  -0.044616   0.056680  -0.021546
   22  C  3  Y   -0.001531   0.001712   0.002366  -0.006156   0.071114
   23  C  3  Z    0.000146   0.014059  -0.007400   0.009293  -0.002953
   24  C  3  S    0.028621   0.137097   0.085561  -0.126961   0.083778
   25  C  3  X   -0.011089  -0.118633  -0.026716   0.032728  -0.013759
   26  C  3  Y    0.015736   0.001938  -0.016962   0.017364  -0.013868
   27  C  3  Z   -0.001723  -0.019516  -0.004456   0.005913  -0.002433
   28  C  4  S    0.055393  -0.015542  -0.054042   0.067318   0.030890
   29  C  4  S    0.005174   0.020592   0.061878  -0.074692  -0.031604
   30  C  4  X   -0.000218   0.009382  -0.024031   0.018333   0.035393
   31  C  4  Y   -0.000634   0.014757   0.025527  -0.033478   0.015570
   32  C  4  Z   -0.000040   0.001690  -0.003714   0.002836   0.006042
   33  C  4  S   -0.006254  -0.046396   0.078732  -0.105685  -0.075333
   34  C  4  X    0.005889   0.069855   0.003110  -0.000785  -0.013251
   35  C  4  Y   -0.001719  -0.045012  -0.009536   0.008953  -0.012373
   36  C  4  Z    0.000955   0.011040   0.000143  -0.000611  -0.002488
   37  C  5  S    0.010510  -0.003170  -0.072730   0.059932   0.081310
   38  C  5  S    0.000212   0.001170   0.079601  -0.063880  -0.084746
   39  C  5  X   -0.000153   0.004751   0.000345  -0.024406   0.015292
   40  C  5  Y   -0.000339   0.002513   0.039608  -0.026642  -0.026548
   41  C  5  Z   -0.000029   0.000794   0.000693  -0.003900   0.002373
   42  C  5  S    0.006938   0.069599   0.150666  -0.143401  -0.196819
   43  C  5  X    0.002858   0.031077   0.001873  -0.011629  -0.003291
   44  C  5  Y    0.002482   0.016513   0.010990  -0.026972  -0.006307
   45  C  5  Z    0.000504   0.005368   0.001706  -0.000301  -0.000105
   46  C  6  S    0.002229  -0.000996  -0.098423   0.037891   0.080804
   47  C  6  S   -0.000309   0.003201   0.110045  -0.039942  -0.085065
   48  C  6  X   -0.000669   0.003140   0.005279  -0.059681   0.010823
   49  C  6  Y   -0.000623   0.000236   0.002130   0.000124   0.039788
   50  C  6  Z   -0.000115   0.000547   0.003740  -0.006510   0.003110
   51  C  6  S   -0.001862  -0.021620   0.150198  -0.065685  -0.165174
   52  C  6  X   -0.001250  -0.033365   0.010453   0.041351   0.001218
   53  C  6  Y    0.002003  -0.006425   0.003564   0.000770  -0.001166
   54  C  6  Z   -0.000224  -0.005742  -0.000916   0.004192   0.000941
   55  C  7  S    0.180335  -0.003123  -0.076007   0.063674  -0.020114
   56  C  7  S    0.014405   0.001639   0.082461  -0.068906   0.022791
   57  C  7  X   -0.001525   0.005063   0.005210  -0.035165   0.066947
   58  C  7  Y   -0.000010  -0.001749  -0.037040   0.019944   0.040536
   59  C  7  Z   -0.000247   0.000822   0.001244  -0.004456   0.011797
   60  C  7  S    0.013388   0.067124   0.166310  -0.146115   0.035549
   61  C  7  X    0.014093   0.024074   0.013380  -0.014618  -0.007263
   62  C  7  Y   -0.001312  -0.021722  -0.007487   0.026979   0.003190
   63  C  7  Z    0.002277   0.003759   0.003159  -0.000655  -0.001147
   64  C  8  S    0.000872   0.000055  -0.103093  -0.058475   0.069206
   65  C  8  S   -0.000730   0.001018   0.096913   0.052107  -0.062544
   66  C  8  X   -0.000291  -0.000532   0.006533  -0.037526  -0.038481
   67  C  8  Y   -0.000294  -0.000109   0.014101   0.017981   0.015260
   68  C  8  Z   -0.000109  -0.000116   0.025321   0.023534   0.003765
   69  C  8  S    0.001272  -0.015848   0.280487   0.180972  -0.216206
   70  C  8  X    0.001233  -0.006812   0.002096   0.013102  -0.006205
   71  C  8  Y    0.001220   0.001560   0.002195   0.000964   0.000145
   72  C  8  Z    0.000457  -0.000780   0.017176   0.010167  -0.011402
   73  C  9  S    0.000286  -0.000014  -0.099491  -0.117018  -0.036780
   74  C  9  S   -0.000163   0.000156   0.111558   0.127499   0.037918
   75  C  9  X   -0.000176   0.000108  -0.006677  -0.037404  -0.058649
   76  C  9  Y   -0.000047  -0.000150   0.018931   0.042938   0.054859
   77  C  9  Z    0.000068  -0.000089  -0.028662  -0.018590   0.021374
   78  C  9  S    0.000120   0.000394   0.188836   0.242516   0.094698
   79  C  9  X   -0.000192   0.000207  -0.018604  -0.011258   0.002211
   80  C  9  Y    0.000225   0.000368   0.013188   0.008004   0.001028
   81  C  9  Z    0.000061  -0.000069   0.004457  -0.007128  -0.008161
   82  C 10  S   -0.000039   0.000009  -0.073684  -0.108042  -0.077497
   83  C 10  S    0.000054   0.000079   0.081820   0.118060   0.082039
   84  C 10  X    0.000030  -0.000001   0.036892   0.046832   0.019250
   85  C 10  Y    0.000010  -0.000043  -0.041213  -0.054170  -0.024972
   86  C 10  Z   -0.000022  -0.000048  -0.000740   0.001944   0.007605
   87  C 10  S   -0.000301  -0.000325   0.147374   0.239508   0.202194
   88  C 10  X   -0.000250  -0.000283   0.001220   0.003054   0.003648
   89  C 10  Y    0.000135   0.000282   0.000929  -0.007659  -0.010827
   90  C 10  Z    0.000060   0.000356  -0.003078   0.004430   0.010217
   91  O 11  S    0.000022  -0.224202   0.022298  -0.029896   0.017915
   92  O 11  S   -0.000074   0.199957  -0.021859   0.029168  -0.017113
   93  O 11  X    0.000274  -0.045167  -0.014406   0.024387  -0.030341
   94  O 11  Y    0.000069  -0.062267   0.010706  -0.016349   0.030548
   95  O 11  Z    0.000042  -0.008588  -0.002197   0.003785  -0.004662
   96  O 11  S   -0.000286   0.744416  -0.073056   0.100746  -0.062227
   97  O 11  X    0.000023  -0.085972  -0.011225   0.019574  -0.025381
   98  O 11  Y   -0.001217  -0.074913   0.011375  -0.016780   0.028584
   99  O 11  Z    0.000009  -0.015592  -0.001713   0.002944  -0.003922
  100  H 12  S   -0.001142   0.001791   0.010496  -0.017738   0.054372
  101  H 12  S    0.002158   0.003449  -0.002483   0.002892   0.001779
  102  H 13  S   -0.000819   0.002753   0.010984  -0.017924   0.054437
  103  H 13  S   -0.000979   0.004967  -0.002479   0.001828   0.005196
  104  H 14  S   -0.001181   0.001742   0.010443  -0.017613   0.054064
  105  H 14  S    0.002660   0.001513  -0.002304   0.002892   0.001448
  106  H 15  S   -0.000573   0.000591   0.017503  -0.023243  -0.015193
  107  H 15  S   -0.000042  -0.024215  -0.007666   0.004893  -0.005180
  108  H 16  S   -0.000083   0.000721   0.026366  -0.021081  -0.039202
  109  H 16  S    0.001059   0.003114   0.000872  -0.004176  -0.010033
  110  H 17  S   -0.000892   0.001094   0.029228  -0.021448   0.010678
  111  H 17  S    0.003465   0.004380  -0.000997  -0.007729   0.002943
  112  H 18  S   -0.000297   0.000377   0.046463   0.028507  -0.031364
  113  H 18  S    0.000073   0.000139  -0.001971   0.003395   0.000300
  114  H 19  S   -0.000028   0.000305   0.044712   0.024710  -0.039285
  115  H 19  S    0.000880   0.002388  -0.007104  -0.004527  -0.008108
  116  H 20  S   -0.000017   0.000044   0.045532   0.053631   0.016501
  117  H 20  S    0.000010   0.000002   0.001844   0.005071   0.003694
  118  H 21  S    0.000044   0.000072   0.032435   0.049603   0.039303
  119  H 21  S   -0.000052  -0.000015   0.001100   0.006210   0.009257
  120  H 22  S    0.000001  -0.000025   0.030608   0.047828   0.042255
  121  H 22  S   -0.000092  -0.000237  -0.000917   0.000575   0.007386
  122  H 23  S   -0.000061   0.102877  -0.018561   0.027562  -0.031504
  123  H 23  S    0.001039   0.027111  -0.008266   0.012464  -0.014791

                     16         17         18         19         20
                   -0.8273    -0.7596    -0.7361    -0.6459    -0.6280
                     A          A          A          A          A   
    1  C  1  S    0.060758  -0.079285  -0.125242  -0.032300   0.022133
    2  C  1  S   -0.057989   0.075591   0.116083   0.029651  -0.020728
    3  C  1  X    0.010675   0.015276   0.011992  -0.013697  -0.008229
    4  C  1  Y    0.008179   0.002172   0.034904   0.049252  -0.031146
    5  C  1  Z    0.001980   0.002480   0.002077  -0.001665  -0.001414
    6  C  1  S   -0.167873   0.236201   0.402677   0.119519  -0.074134
    7  C  1  X    0.002028   0.005152   0.002797  -0.014786  -0.001173
    8  C  1  Y    0.002623   0.008312   0.006604   0.023053  -0.021133
    9  C  1  Z    0.000122   0.000472   0.000587  -0.002226   0.000370
   10  C  2  S    0.036661   0.005051   0.044729   0.036617  -0.034561
   11  C  2  S   -0.039147  -0.007520  -0.045879  -0.035601   0.033917
   12  C  2  X    0.021568   0.104703   0.021090  -0.108701   0.008722
   13  C  2  Y   -0.049506   0.016625   0.113030   0.076031  -0.022189
   14  C  2  Z    0.003143   0.017273   0.004273  -0.016914   0.002538
   15  C  2  S   -0.065132   0.011796  -0.129009  -0.109994   0.112954
   16  C  2  X   -0.007380   0.033473  -0.015363  -0.052754  -0.011993
   17  C  2  Y   -0.007409  -0.007017   0.007318   0.010755  -0.011970
   18  C  2  Z   -0.001276   0.005372  -0.002480  -0.008755  -0.002971
   19  C  3  S   -0.061634  -0.056811   0.097516   0.051541   0.011192
   20  C  3  S    0.070196   0.064388  -0.108236  -0.054436  -0.012351
   21  C  3  X   -0.041158  -0.007584   0.036449  -0.038159  -0.001955
   22  C  3  Y   -0.084052  -0.027741  -0.012058  -0.171744   0.092958
   23  C  3  Z   -0.007566  -0.001553   0.005925  -0.007824   0.000757
   24  C  3  S    0.116596   0.119191  -0.238617  -0.178063  -0.025568
   25  C  3  X   -0.013786  -0.012503   0.046200   0.032084   0.003753
   26  C  3  Y   -0.014038  -0.028499   0.015745  -0.060375   0.052557
   27  C  3  Z   -0.002376  -0.002295   0.007681   0.005042   0.002058
   28  C  4  S   -0.127738  -0.063943   0.004944  -0.092449   0.040036
   29  C  4  S    0.131527   0.066525  -0.004040   0.087591  -0.039035
   30  C  4  X   -0.013856   0.024789  -0.086285   0.043257  -0.069439
   31  C  4  Y    0.031577   0.017353  -0.064247  -0.022515  -0.014762
   32  C  4  Z   -0.002003   0.004240  -0.014893   0.007285  -0.010296
   33  C  4  S    0.308021   0.158928  -0.016499   0.320248  -0.119292
   34  C  4  X   -0.000966   0.001635  -0.014137   0.013019  -0.030731
   35  C  4  Y    0.020336  -0.005615  -0.010271   0.027160  -0.002046
   36  C  4  Z   -0.000198  -0.000040  -0.002274   0.001955  -0.005895
   37  C  5  S   -0.065989   0.003512  -0.112584   0.049842  -0.053112
   38  C  5  S    0.070491  -0.002592   0.113226  -0.047356   0.053290
   39  C  5  X    0.076773   0.036927  -0.023397   0.104384  -0.022298
   40  C  5  Y   -0.009666  -0.039652   0.007698  -0.030707  -0.000959
   41  C  5  Z    0.012471   0.006040  -0.004203   0.019023   0.001929
   42  C  5  S    0.142843  -0.023047   0.317353  -0.183094   0.154522
   43  C  5  X    0.006579  -0.007766   0.000332   0.031603  -0.009629
   44  C  5  Y   -0.002701  -0.018106   0.015070  -0.032940  -0.005217
   45  C  5  Z    0.001330  -0.000276  -0.000529   0.007748   0.005859
   46  C  6  S    0.050877   0.062638  -0.038937   0.039145   0.012730
   47  C  6  S   -0.054093  -0.064295   0.040524  -0.040631  -0.011116
   48  C  6  X    0.050375  -0.090043   0.040707   0.001871   0.051455
   49  C  6  Y   -0.048249  -0.066350  -0.085102   0.114732  -0.058385
   50  C  6  Z    0.008398  -0.014155   0.004865   0.007722   0.025908
   51  C  6  S   -0.095920  -0.148428   0.090523  -0.095496  -0.036377
   52  C  6  X    0.007354   0.009731  -0.014194   0.013279   0.036682
   53  C  6  Y   -0.007773  -0.011235  -0.020559   0.034992  -0.033981
   54  C  6  Z    0.002317  -0.001151  -0.001413   0.003532   0.010016
   55  C  7  S    0.063885   0.127551   0.037685  -0.075706   0.014385
   56  C  7  S   -0.066074  -0.129561  -0.039204   0.074015  -0.013232
   57  C  7  X    0.009880   0.008587  -0.027803  -0.019686   0.047656
   58  C  7  Y    0.002208   0.039040  -0.003578   0.038690  -0.001672
   59  C  7  Z    0.002005   0.002295  -0.004927  -0.000207   0.015471
   60  C  7  S   -0.157122  -0.337335  -0.102259   0.230283  -0.058330
   61  C  7  X   -0.005042  -0.002773  -0.003168  -0.012278   0.000504
   62  C  7  Y    0.002520   0.033458   0.001641   0.016434   0.001342
   63  C  7  Z   -0.000566   0.000789  -0.001017   0.000600   0.008315
   64  C  8  S    0.091630  -0.098682   0.043292   0.006826   0.051489
   65  C  8  S   -0.082946   0.088259  -0.038033  -0.006118  -0.047374
   66  C  8  X   -0.025340  -0.043567   0.031790  -0.046186  -0.040731
   67  C  8  Y    0.001506  -0.016358  -0.015573   0.040307  -0.004361
   68  C  8  Z    0.001910   0.002553  -0.002816   0.033516   0.102209
   69  C  8  S   -0.292111   0.339722  -0.155816  -0.025475  -0.187969
   70  C  8  X   -0.004670  -0.012865   0.008958  -0.018432  -0.004602
   71  C  8  Y   -0.002282  -0.008106  -0.008713   0.026609  -0.007457
   72  C  8  Z   -0.012555   0.007830  -0.003490   0.013351   0.053761
   73  C  9  S   -0.023446  -0.017865   0.014412  -0.050045  -0.115115
   74  C  9  S    0.024068   0.019052  -0.014565   0.050771   0.117792
   75  C  9  X   -0.070327   0.061013  -0.033622   0.022531   0.015291
   76  C  9  Y    0.063553  -0.066471   0.032586  -0.026510  -0.053473
   77  C  9  Z    0.033275  -0.043199   0.024033   0.010963   0.100507
   78  C  9  S    0.063493   0.038247  -0.038763   0.160827   0.379341
   79  C  9  X   -0.000637   0.009641  -0.007774   0.014293   0.010465
   80  C  9  Y    0.001928  -0.016977   0.008164  -0.016921  -0.037978
   81  C  9  Z   -0.003610  -0.007095   0.006248   0.005462   0.050790
   82  C 10  S   -0.082629   0.066721  -0.036001   0.043111   0.077325
   83  C 10  S    0.086888  -0.068808   0.037012  -0.042994  -0.075355
   84  C 10  X    0.013838   0.005755  -0.008113   0.043231   0.092109
   85  C 10  Y   -0.020435  -0.004877   0.006535  -0.047693  -0.120344
   86  C 10  Z    0.010692  -0.013634   0.008038   0.006511   0.055505
   87  C 10  S    0.224464  -0.192832   0.107766  -0.143196  -0.272071
   88  C 10  X    0.002775   0.002552  -0.003914   0.022998   0.044737
   89  C 10  Y   -0.010944  -0.001792   0.002043  -0.023332  -0.058916
   90  C 10  Z    0.011205  -0.008094   0.004205   0.006870   0.038501
   91  O 11  S    0.025031   0.024593  -0.027231   0.002815  -0.012544
   92  O 11  S   -0.024554  -0.024178   0.028218  -0.000540   0.012638
   93  O 11  X   -0.028105  -0.053242   0.079287   0.115356   0.007089
   94  O 11  Y   -0.006668   0.019402  -0.022480  -0.117044   0.038047
   95  O 11  Z   -0.004581  -0.008494   0.012591   0.017634   0.001800
   96  O 11  S   -0.092059  -0.088353   0.096465  -0.023505   0.047378
   97  O 11  X   -0.025395  -0.049678   0.077126   0.112412   0.009985
   98  O 11  Y   -0.003705   0.021192  -0.019739  -0.107085   0.033877
   99  O 11  Z   -0.004095  -0.007954   0.012272   0.017254   0.002080
  100  H 12  S   -0.030613   0.051713   0.079377   0.017582  -0.018747
  101  H 12  S   -0.003569   0.012247   0.023338   0.005748  -0.008423
  102  H 13  S   -0.034857   0.042991   0.084416   0.046755  -0.025253
  103  H 13  S   -0.007769   0.004315   0.026554   0.027226  -0.011535
  104  H 14  S   -0.030741   0.050919   0.079632   0.020190  -0.019137
  105  H 14  S   -0.003151   0.012446   0.023331   0.007848  -0.009222
  106  H 15  S    0.061183   0.039598   0.001039   0.087609  -0.041420
  107  H 15  S    0.017668   0.011759   0.003537   0.062194  -0.024741
  108  H 16  S    0.027943   0.005744   0.072415  -0.044825   0.042520
  109  H 16  S    0.001137   0.002351   0.031669  -0.029242   0.020130
  110  H 17  S   -0.038082  -0.065577  -0.018121   0.072488  -0.023861
  111  H 17  S   -0.012572  -0.024004  -0.000789   0.036491  -0.021543
  112  H 18  S   -0.048044   0.056016  -0.031141  -0.003981  -0.080216
  113  H 18  S   -0.005398   0.010971  -0.009589  -0.002130  -0.045306
  114  H 19  S   -0.047528   0.069881  -0.021253  -0.021605  -0.033044
  115  H 19  S   -0.004999   0.017809  -0.001127  -0.014757  -0.013576
  116  H 20  S    0.010534   0.012741  -0.009203   0.052024   0.154598
  117  H 20  S    0.003197   0.002155  -0.001761   0.025252   0.086320
  118  H 21  S    0.043580  -0.041292   0.023771  -0.051644  -0.125567
  119  H 21  S    0.010838  -0.012612   0.007875  -0.027788  -0.077222
  120  H 22  S    0.049323  -0.051747   0.030851  -0.051027  -0.085401
  121  H 22  S    0.011688  -0.020431   0.013534  -0.030523  -0.053174
  122  H 23  S   -0.016471  -0.037159   0.050086   0.101004  -0.012686
  123  H 23  S   -0.009425  -0.021252   0.027998   0.064198  -0.007103

                     21         22         23         24         25
                   -0.5861    -0.5280    -0.5119    -0.4672    -0.4592
                     A          A          A          A          A   
    1  C  1  S    0.039298   0.009393   0.010971   0.000634  -0.000498
    2  C  1  S   -0.035799  -0.009487  -0.009077  -0.001936   0.000302
    3  C  1  X   -0.061720  -0.009438  -0.049632   0.096489  -0.005188
    4  C  1  Y   -0.070629  -0.009212  -0.025562  -0.039238   0.009745
    5  C  1  Z   -0.010941  -0.002574  -0.008445   0.014927   0.010390
    6  C  1  S   -0.133681  -0.031749  -0.048350   0.006226   0.002685
    7  C  1  X   -0.034417  -0.001258  -0.032057   0.078267  -0.003924
    8  C  1  Y   -0.047129  -0.019286  -0.016066  -0.044516   0.006497
    9  C  1  Z   -0.005808  -0.000222  -0.005130   0.013433   0.008877
   10  C  2  S   -0.095613   0.026806  -0.012268   0.000080   0.003677
   11  C  2  S    0.093530  -0.026095   0.010653   0.004533  -0.003590
   12  C  2  X   -0.070694  -0.008230  -0.039005   0.097533  -0.014550
   13  C  2  Y    0.010810   0.060739   0.066394  -0.073486   0.002248
   14  C  2  Z   -0.012226  -0.001096  -0.005112   0.015647   0.014209
   15  C  2  S    0.317493  -0.098854   0.043556  -0.045413  -0.010219
   16  C  2  X   -0.075584   0.000008  -0.007646   0.008006  -0.008269
   17  C  2  Y   -0.012323   0.036291   0.041052  -0.025890   0.000575
   18  C  2  Z   -0.012641   0.000374  -0.000944   0.000704   0.006828
   19  C  3  S    0.057141   0.019497   0.006622   0.034288  -0.001097
   20  C  3  S   -0.060510  -0.025188  -0.009281  -0.037387   0.001190
   21  C  3  X   -0.092458   0.171154   0.079754  -0.094982   0.007310
   22  C  3  Y    0.076150   0.059107  -0.016669   0.135337  -0.009628
   23  C  3  Z   -0.015022   0.029096   0.013510  -0.014626   0.012388
   24  C  3  S   -0.186825  -0.048548  -0.022306  -0.086489   0.003004
   25  C  3  X    0.009462   0.084380   0.033474  -0.009485   0.002823
   26  C  3  Y    0.068905   0.046856  -0.023225   0.179229  -0.008060
   27  C  3  Z    0.001948   0.014456   0.006009   0.000207   0.012377
   28  C  4  S   -0.002374  -0.014593  -0.013120  -0.041737   0.002375
   29  C  4  S    0.000518   0.012350   0.011357   0.037484  -0.002124
   30  C  4  X   -0.094222  -0.062390   0.046411  -0.121647  -0.002721
   31  C  4  Y   -0.059234  -0.135225  -0.075478  -0.079654   0.007981
   32  C  4  Z   -0.016805  -0.011807   0.007590  -0.020493   0.013012
   33  C  4  S    0.043613   0.060983   0.037742   0.216123  -0.009000
   34  C  4  X   -0.045389  -0.034266   0.035244  -0.080686  -0.002841
   35  C  4  Y    0.002470  -0.067828  -0.052555  -0.009831   0.005339
   36  C  4  Z   -0.007716  -0.006226   0.005192  -0.013508   0.006210
   37  C  5  S   -0.048565  -0.038389   0.002384   0.019527  -0.002202
   38  C  5  S    0.048184   0.037482  -0.005825  -0.015041   0.002351
   39  C  5  X    0.047572   0.063241  -0.026101   0.179120  -0.007849
   40  C  5  Y   -0.080979  -0.122794  -0.089653  -0.009941   0.007341
   41  C  5  Z    0.004296   0.007950  -0.003042   0.031158   0.029374
   42  C  5  S    0.143870   0.124482   0.016798  -0.107352   0.003381
   43  C  5  X    0.012383   0.017355  -0.017563   0.092571  -0.007687
   44  C  5  Y   -0.043057  -0.071781  -0.043466  -0.005301   0.001265
   45  C  5  Z   -0.000564   0.000706  -0.000276   0.017261   0.030563
   46  C  6  S    0.089835   0.040581   0.021483  -0.001600   0.002526
   47  C  6  S   -0.091783  -0.043169  -0.022861   0.002411  -0.001120
   48  C  6  X   -0.001283  -0.001816  -0.090168  -0.012125   0.004668
   49  C  6  Y   -0.070973   0.068440  -0.023318   0.145534  -0.007031
   50  C  6  Z   -0.007535  -0.002096  -0.012250   0.001068   0.055403
   51  C  6  S   -0.270023  -0.127796  -0.079983   0.005540  -0.008599
   52  C  6  X    0.013697  -0.001283  -0.062359  -0.001553   0.009696
   53  C  6  Y   -0.042762   0.037396  -0.013024   0.080096  -0.008186
   54  C  6  Z   -0.002305  -0.000836  -0.010103   0.001533   0.027826
   55  C  7  S    0.000710  -0.050900  -0.024008   0.008268  -0.003091
   56  C  7  S    0.002673   0.048067   0.021378  -0.007761   0.003307
   57  C  7  X    0.158120  -0.063883   0.016396  -0.078254   0.001199
   58  C  7  Y    0.091565   0.080867   0.105995  -0.097474   0.001801
   59  C  7  Z    0.023686  -0.010604   0.005203  -0.012805   0.031321
   60  C  7  S   -0.043920   0.183762   0.096834  -0.048645   0.010267
   61  C  7  X    0.034534  -0.039915   0.005185  -0.045754  -0.003444
   62  C  7  Y    0.033146   0.052273   0.052920  -0.072852   0.001006
   63  C  7  Z    0.002964  -0.007778   0.003609  -0.006663   0.031190
   64  C  8  S   -0.038301   0.005933  -0.016978  -0.015482   0.010592
   65  C  8  S    0.034637  -0.003156   0.013794   0.012344  -0.008217
   66  C  8  X   -0.102162  -0.053758   0.064438   0.011209  -0.041964
   67  C  8  Y   -0.031917   0.075400  -0.128645   0.067111  -0.011889
   68  C  8  Z   -0.048863  -0.012191   0.003588  -0.001145   0.223910
   69  C  8  S    0.149171  -0.029973   0.072975   0.068325  -0.051247
   70  C  8  X   -0.062332  -0.029004   0.033882   0.003610  -0.023956
   71  C  8  Y   -0.023678   0.052023  -0.086242   0.059155  -0.010334
   72  C  8  Z   -0.035300  -0.015656   0.012211  -0.002815   0.170937
   73  C  9  S    0.020149  -0.009335   0.024757   0.009092  -0.011088
   74  C  9  S   -0.021583   0.010080  -0.029391  -0.010973   0.003801
   75  C  9  X   -0.002050  -0.011606   0.044961   0.070792   0.187716
   76  C  9  Y   -0.006362   0.044682  -0.108953  -0.068481  -0.189133
   77  C  9  Z   -0.077620  -0.082532   0.161961   0.040934  -0.057404
   78  C  9  S   -0.076650   0.026087  -0.069874  -0.025633   0.073678
   79  C  9  X    0.004570   0.002324   0.020917   0.040934   0.113365
   80  C  9  Y   -0.005301   0.024492  -0.066174  -0.042110  -0.117307
   81  C  9  Z   -0.047575  -0.060931   0.118291   0.036224  -0.025903
   82  C 10  S   -0.007857   0.007043  -0.009892   0.003452   0.003405
   83  C 10  S    0.007102  -0.005570   0.003758  -0.007611  -0.011243
   84  C 10  X   -0.017892   0.059314  -0.143069  -0.082627  -0.113968
   85  C 10  Y    0.021600  -0.036492   0.100883   0.081431   0.191091
   86  C 10  Z   -0.049102  -0.079529   0.176893   0.076552  -0.206937
   87  C 10  S    0.037869  -0.028636   0.059001   0.005000   0.021712
   88  C 10  X   -0.009686   0.039443  -0.087204  -0.049463  -0.072874
   89  C 10  Y    0.005438  -0.021691   0.056182   0.049897   0.131172
   90  C 10  Z   -0.029293  -0.052809   0.124681   0.059282  -0.160210
   91  O 11  S   -0.016809  -0.023013   0.002822  -0.039392   0.000274
   92  O 11  S    0.020480   0.020448  -0.003623   0.042940  -0.000639
   93  O 11  X    0.167953  -0.177390  -0.077938   0.151646  -0.015594
   94  O 11  Y   -0.047437   0.171411   0.014753   0.170610  -0.001563
[...]
   20             0.000040   0.003149   0.000022   0.000950   0.000051
   21             0.000073   0.000587   0.000006   0.000150  -0.000001
   22             0.000407   0.001062   0.000120   0.000350   0.000005
   23             0.009959   0.000008   0.000022   0.000001   0.000001

     ATOMIC SPIN POPULATION (ALPHA MINUS BETA)
       ATOM         MULL.POP.                    LOW.POP.
    1 C            -0.084380                    -0.042226
    2 C             0.429479                     0.348553
    3 C            -0.289615                    -0.160195
    4 C             0.384673                     0.321340
    5 C             0.578401                     0.443427
    6 C            -0.506480                    -0.297176
    7 C             0.536652                     0.410723
    8 C             0.090306                     0.043626
    9 C            -0.256032                    -0.186671
   10 C             0.258190                     0.194162
   11 O            -0.002929                    -0.007874
   12 H             0.020754                     0.017021
   13 H             0.004570                     0.002813
   14 H             0.024896                     0.020527
   15 H            -0.039641                    -0.020892
   16 H            -0.051942                    -0.028134
   17 H            -0.047404                    -0.025686
   18 H            -0.013544                    -0.010915
   19 H            -0.013334                    -0.010471
   20 H             0.019064                     0.010699
   21 H            -0.020498                    -0.011017
   22 H            -0.020756                    -0.011123
   23 H            -0.000434                    -0.000511


          ********* ALL ELECTRONS ********

               ----- POPULATIONS IN EACH AO -----
                             MULLIKEN      LOWDIN
              1  C  1  S      1.98833     1.97627
              2  C  1  S      0.35601     0.40985
              3  C  1  X      0.53974     0.50699
              4  C  1  Y      0.53891     0.51591
              5  C  1  Z      0.52784     0.49162
              6  C  1  S      1.10414     0.56820
              7  C  1  X      0.50986     0.58382
              8  C  1  Y      0.42842     0.56472
              9  C  1  Z      0.53773     0.60137
             10  C  2  S      1.98794     1.97543
             11  C  2  S      0.37402     0.39218
             12  C  2  X      0.58019     0.56522
             13  C  2  Y      0.53420     0.51842
             14  C  2  Z      0.54038     0.55065
             15  C  2  S      0.79444     0.50910
             16  C  2  X      0.37271     0.50641
             17  C  2  Y      0.25249     0.49271
             18  C  2  Z      0.73858     0.72564
             19  C  3  S      1.98825     1.97609
             20  C  3  S      0.40504     0.41912
             21  C  3  X      0.47249     0.45595
             22  C  3  Y      0.66663     0.64070
             23  C  3  Z      0.39942     0.38143
             24  C  3  S      0.80450     0.50496
             25  C  3  X      0.02853     0.38152
             26  C  3  Y      0.32303     0.49957
             27  C  3  Z      0.52300     0.56286
             28  C  4  S      1.98773     1.97584
             29  C  4  S      0.37639     0.39856
             30  C  4  X      0.57771     0.55597
             31  C  4  Y      0.53794     0.51072
             32  C  4  Z      0.53575     0.54616
             33  C  4  S      0.83057     0.53108
             34  C  4  X      0.39301     0.52351
             35  C  4  Y      0.32488     0.51546
             36  C  4  Z      0.80333     0.78573
             37  C  5  S      1.98789     1.97611
             38  C  5  S      0.38093     0.40061
             39  C  5  X      0.58077     0.55875
             40  C  5  Y      0.54644     0.51793
             41  C  5  Z      0.50071     0.50696
             42  C  5  S      0.86258     0.52781
             43  C  5  X      0.30971     0.50458
             44  C  5  Y      0.40624     0.52430
             45  C  5  Z      0.72562     0.72864
             46  C  6  S      1.98848     1.97630
             47  C  6  S      0.38872     0.40699
             48  C  6  X      0.53915     0.52432
             49  C  6  Y      0.62353     0.60465
             50  C  6  Z      0.42022     0.40891
             51  C  6  S      0.82709     0.51373
             52  C  6  X      0.31094     0.49024
             53  C  6  Y      0.34330     0.50805
             54  C  6  Z      0.57967     0.59996
             55  C  7  S      1.98804     1.97614
             56  C  7  S      0.38162     0.40244
             57  C  7  X      0.57817     0.55633
             58  C  7  Y      0.55200     0.52638
             59  C  7  Z      0.49452     0.50019
             60  C  7  S      0.86579     0.52553
             61  C  7  X      0.30285     0.50255
             62  C  7  Y      0.39229     0.51888
             63  C  7  Z      0.71953     0.72300
             64  C  8  S      1.98961     1.97603
             65  C  8  S      0.34665     0.40996
             66  C  8  X      0.54945     0.53502
             67  C  8  Y      0.53951     0.50950
             68  C  8  Z      0.52440     0.49753
             69  C  8  S      1.16696     0.55157
             70  C  8  X      0.37146     0.53423
             71  C  8  Y      0.53674     0.56960
             72  C  8  Z      0.45644     0.55787
             73  C  9  S      1.98802     1.97744
             74  C  9  S      0.39683     0.42508
             75  C  9  X      0.48697     0.46807
             76  C  9  Y      0.51944     0.49649
             77  C  9  Z      0.55619     0.53025
             78  C  9  S      0.91743     0.55545
             79  C  9  X      0.39373     0.51764
             80  C  9  Y      0.41134     0.53168
             81  C  9  Z      0.48554     0.55226
             82  C 10  S      1.98701     1.97724
             83  C 10  S      0.38937     0.41807
             84  C 10  X      0.51588     0.49849
             85  C 10  Y      0.53358     0.51397
             86  C 10  Z      0.53780     0.50097
             87  C 10  S      0.94480     0.57670
             88  C 10  X      0.52170     0.60705
             89  C 10  Y      0.47965     0.58939
             90  C 10  Z      0.53804     0.57903
             91  O 11  S      1.98657     1.97997
             92  O 11  S      0.40856     0.56477
             93  O 11  X      0.60583     0.59720
             94  O 11  Y      0.66837     0.65407
             95  O 11  Z      0.83881     0.85231
             96  O 11  S      1.54687     0.99862
             97  O 11  X      0.81691     0.80978
             98  O 11  Y      0.83918     0.86143
             99  O 11  Z      1.05923     1.04269
            100  H 12  S      0.47247     0.47962
            101  H 12  S      0.36715     0.45934
            102  H 13  S      0.47453     0.47885
            103  H 13  S      0.37736     0.46193
            104  H 14  S      0.47244     0.48033
            105  H 14  S      0.37164     0.46209
            106  H 15  S      0.47242     0.47565
            107  H 15  S      0.41687     0.48328
            108  H 16  S      0.47582     0.47979
            109  H 16  S      0.40346     0.47606
            110  H 17  S      0.47471     0.47881
            111  H 17  S      0.39194     0.47091
            112  H 18  S      0.46755     0.47976
            113  H 18  S      0.33873     0.44399
            114  H 19  S      0.46668     0.47940
            115  H 19  S      0.33760     0.44241
            116  H 20  S      0.47279     0.47400
            117  H 20  S      0.31397     0.43599
            118  H 21  S      0.47122     0.46728
            119  H 21  S      0.35123     0.45505
            120  H 22  S      0.47414     0.47054
            121  H 22  S      0.35679     0.45648
            122  H 23  S      0.43171     0.44649
            123  H 23  S      0.21102     0.31452

          ----- MULLIKEN ATOMIC OVERLAP POPULATIONS -----
          (OFF-DIAGONAL ELEMENTS NEED TO BE MULTIPLIED BY 2)

             1           2           3           4           5

    1    5.2241131
    2    0.2942108   5.5951428
    3   -0.0781918   0.4387211   4.8732346
    4    0.0031342  -0.1184648   0.3835921   5.6370006
    5   -0.0001012   0.0009442  -0.0576991   0.2467080   5.4151072
    6    0.0025016  -0.0893904  -0.0159589  -0.0870682   0.4712288
    7   -0.0508386   0.3197073  -0.0735722  -0.0045923  -0.1024213
    8   -0.0000522   0.0017479   0.0000883   0.0024623  -0.0494571
    9    0.0000001   0.0001131  -0.0000114   0.0000274  -0.0006439
   10   -0.0000000   0.0000175  -0.0000001   0.0000000   0.0000336
   11    0.0036070  -0.0639930   0.2518039  -0.0656231   0.0031115
   12    0.3802151  -0.0605397  -0.0027941   0.0001796  -0.0000094
   13    0.3777862  -0.0505885   0.0038566   0.0000012  -0.0000140
   14    0.3783919  -0.0634515  -0.0025919   0.0001430  -0.0000059
   15   -0.0000537   0.0027417  -0.0606089   0.4067858  -0.0339156
   16    0.0000016  -0.0000270   0.0026012  -0.0357178   0.4037515
   17   -0.0033769  -0.0390495   0.0032841  -0.0000175   0.0026981
   18   -0.0000007   0.0000217   0.0000066  -0.0000327  -0.0000172
   19    0.0000004  -0.0000442   0.0000004   0.0001669   0.0006795
   20   -0.0000000  -0.0000011  -0.0000016  -0.0000198   0.0005932
   21   -0.0000000   0.0000001   0.0000000  -0.0000000  -0.0000004
   22    0.0000000  -0.0000000   0.0000000  -0.0000000   0.0000004
   23   -0.0003757   0.0071397  -0.0548827  -0.0013515   0.0003281

             6           7           8           9          10

    6    5.2689447
    7    0.4774671   5.3600216
    8    0.2743394  -0.0739944   5.3945688
    9   -0.0987591   0.0050208   0.2674133   5.2741682
   10    0.0013639  -0.0002158  -0.0740657   0.5294511   5.2419520
   11   -0.0002324   0.0024342  -0.0000000  -0.0000000  -0.0000000
   12   -0.0000466   0.0020895   0.0000007  -0.0000000   0.0000000
   13    0.0001795  -0.0020348  -0.0000038  -0.0000004   0.0000001
   14   -0.0000521   0.0021472   0.0000004   0.0000002  -0.0000000
   15    0.0034436  -0.0001467  -0.0000596   0.0000009  -0.0000000
   16   -0.0450383   0.0028507  -0.0026264  -0.0000080   0.0000000
   17   -0.0448510   0.4062787  -0.0032961   0.0006369   0.0009001
   18   -0.0444130   0.0014117   0.3902510  -0.0617517   0.0018030
   19   -0.0532205   0.0028869   0.3877859  -0.0492482   0.0007484
   20    0.0007189   0.0004597  -0.0352923   0.3922223  -0.0440271
   21    0.0000200   0.0000249  -0.0011501  -0.0519815   0.3967640
   22   -0.0000876   0.0000012   0.0025578  -0.0511574   0.3931023
   23    0.0000070  -0.0001720  -0.0000001  -0.0000000  -0.0000000

            11          12          13          14          15

   11    8.3637382
   12    0.0019680   0.5916155
   13    0.0001081  -0.0284436   0.5802225
   14    0.0012320  -0.0446127  -0.0315069   0.6043673
   15   -0.0044568   0.0000005   0.0000006   0.0000009   0.5741641
   16   -0.0000053  -0.0000000  -0.0000000  -0.0000000  -0.0025512
   17   -0.0000089   0.0000413   0.0023273   0.0000503   0.0000017
   18   -0.0000000   0.0000000   0.0000005  -0.0000000   0.0000008
   19   -0.0000000  -0.0000000   0.0000000  -0.0000000  -0.0000026
   20    0.0000000  -0.0000000   0.0000000  -0.0000000   0.0000001
   21   -0.0000000  -0.0000000  -0.0000000   0.0000000  -0.0000000
   22   -0.0000000   0.0000000   0.0000000  -0.0000000   0.0000000
   23    0.2766393  -0.0000496  -0.0000019  -0.0000362   0.0039435

            16          17          18          19          20

   16    0.5532372
   17   -0.0000683   0.5401555
   18    0.0000370   0.0007207   0.5387262
   19    0.0028048   0.0000740  -0.0257972   0.5376599
   20    0.0000382   0.0000507   0.0025391  -0.0002277   0.4694009
   21    0.0000001   0.0000891   0.0026989   0.0000790   0.0022958
   22   -0.0000000   0.0000075   0.0000735  -0.0000696  -0.0019885
   23   -0.0000031   0.0000017   0.0000000   0.0000000   0.0000000

            21          22          23

   21    0.4992182
   22   -0.0256099   0.5140935
   23    0.0000000   0.0000000   0.4115429

          TOTAL MULLIKEN AND LOWDIN ATOMIC POPULATIONS
       ATOM         MULL.POP.    CHARGE          LOW.POP.     CHARGE
    1 C             6.530971   -0.530971         6.218755   -0.218755
    2 C             6.174958   -0.174958         6.235748   -0.235748
    3 C             5.610876    0.389124         5.822186    0.177814
    4 C             6.367313   -0.367313         6.343037   -0.343037
    5 C             6.300899   -0.300899         6.245680   -0.245680
    6 C             6.021097   -0.021097         6.033151   -0.033151
    7 C             6.274813   -0.274813         6.231451   -0.231451
    8 C             6.481218   -0.481218         6.141313   -0.141313
    9 C             6.155493   -0.155493         6.054359   -0.054359
   10 C             6.447827   -0.447827         6.260906   -0.260906
   11 O             8.770323   -0.770323         8.360835   -0.360835
   12 H             0.839615    0.160385         0.938957    0.061043
   13 H             0.851889    0.148111         0.940778    0.059222
   14 H             0.844076    0.155924         0.942422    0.057578
   15 H             0.889289    0.110711         0.958929    0.041071
   16 H             0.879277    0.120723         0.955851    0.044149
   17 H             0.866650    0.133350         0.949723    0.050277
   18 H             0.806278    0.193722         0.923757    0.076243
   19 H             0.804276    0.195724         0.921809    0.078191
   20 H             0.786761    0.213239         0.909984    0.090016
   21 H             0.822448    0.177552         0.922336    0.077664
   22 H             0.830923    0.169077         0.927025    0.072975
   23 H             0.642729    0.357271         0.761009    0.238991

          -------------------------------
          BOND ORDER AND VALENCE ANALYSIS     BOND ORDER THRESHOLD=0.050
          -------------------------------

                   BOND                       BOND                       BOND
  ATOM PAIR DIST  ORDER      ATOM PAIR DIST  ORDER      ATOM PAIR DIST  ORDER
    1   2  1.508  0.968        1  12  1.096  0.930        1  13  1.093  0.945
    1  14  1.097  0.928        2   3  1.408  1.322        2   5  2.816  0.056
    2   7  1.397  1.175        3   4  1.395  1.338        3   6  2.812  0.062
    3  11  1.376  0.761        4   5  1.399  1.143        4   7  2.771  0.055
    4  15  1.089  0.965        5   6  1.398  1.364        5  16  1.087  0.968
    6   7  1.404  1.364        6   8  1.522  0.921        7  17  1.088  0.966
    8   9  1.510  0.919        8  18  1.098  0.929        8  19  1.098  0.925
    9  10  1.337  1.843        9  20  1.091  0.936       10  21  1.088  0.951
   10  22  1.087  0.953       11  23  0.966  0.829

                       TOTAL       BONDED        FREE
      ATOM            VALENCE     VALENCE     VALENCE
    1 C                 3.736       3.734       0.003
    2 C                 3.591       3.468       0.123
    3 C                 3.426       3.395       0.031
    4 C                 3.621       3.519       0.102
    5 C                 3.722       3.531       0.191
    6 C                 3.677       3.583       0.093
    7 C                 3.710       3.544       0.166
    8 C                 3.621       3.619       0.002
    9 C                 3.671       3.640       0.030
   10 C                 3.776       3.742       0.034
   11 O                 1.686       1.686       0.000
   12 H                 0.922       0.921       0.000
   13 H                 0.932       0.932       0.000
   14 H                 0.920       0.919       0.001
   15 H                 0.953       0.951       0.002
   16 H                 0.955       0.952       0.003
   17 H                 0.954       0.951       0.002
   18 H                 0.918       0.918       0.000
   19 H                 0.915       0.915       0.000
   20 H                 0.923       0.922       0.000
   21 H                 0.938       0.938       0.000
   22 H                 0.938       0.937       0.000
   23 H                 0.853       0.853       0.000

          -----------------------------------------
          ATOMIC SPIN DENSITY AT THE NUCLEUS (A.U.)
          -----------------------------------------
                            SPIN DENS    ALPHA DENS     BETA DENS
    1  C            6.0    -0.0272890      46.97067      46.99795
    2  C            6.0     0.0782846      46.99721      46.91892
    3  C            6.0    -0.0662006      46.96814      47.03434
    4  C            6.0     0.0637064      46.98578      46.92207
    5  C            6.0     0.0994120      47.01587      46.91646
    6  C            6.0    -0.1050922      46.95479      47.05989
    7  C            6.0     0.0903083      47.01988      46.92958
    8  C            6.0     0.0265399      47.05384      47.02730
    9  C            6.0    -0.0564693      46.98890      47.04537
   10  C            6.0     0.0440422      46.98167      46.93763
   11  O            8.0    -0.0089653     116.73562     116.74459
   12  H            1.0     0.0071970       0.18938       0.18218
   13  H            1.0     0.0010463       0.18690       0.18585
   14  H            1.0     0.0083234       0.18996       0.18164
   15  H            1.0    -0.0092250       0.18047       0.18970
   16  H            1.0    -0.0125120       0.18030       0.19281
   17  H            1.0    -0.0116420       0.18034       0.19198
   18  H            1.0    -0.0048350       0.18173       0.18656
   19  H            1.0    -0.0047495       0.18147       0.18622
   20  H            1.0     0.0049619       0.18704       0.18208
   21  H            1.0    -0.0049555       0.18121       0.18617
   22  H            1.0    -0.0049985       0.18247       0.18747
   23  H            1.0    -0.0002011       0.17615       0.17635

          ---------------------
          ELECTROSTATIC MOMENTS
          ---------------------

 POINT   1           X           Y           Z (BOHR)    CHARGE
                 0.013638    0.064126    0.042627       -1.00 (A.U.)
         DX          DY          DZ         /D/  (DEBYE)
    -2.133688   -0.622579    0.352706    2.250474
 ...... END OF PROPERTY EVALUATION ......
 CPU     0: STEP CPU TIME=     0.09 TOTAL CPU TIME=          8.6 (      0.1 MIN)
 TOTAL WALL CLOCK TIME=         16.0 SECONDS, CPU UTILIZATION IS    53.78%
               580000  WORDS OF DYNAMIC MEMORY USED
 EXECUTION OF GAMESS TERMINATED NORMALLY Mon May 25 19:17:56 2020
 DDI: 263640 bytes (0.3 MB / 0 MWords) used by master data server.
Note: The following floating-point exceptions are signalling: IEEE_DENORMALNote: The following floating-point exceptions are signalling: IEEE_DENORMALNote: The following floating-point exceptions are signalling: IEEE_DENORMALNote: The following floating-point exceptions are signalling: IEEE_DENORMAL
 ----------------------------------------
 CPU timing information for all processes
 ========================================
 0: 8.365 + 0.240 = 8.606
 1: 8.771 + 0.71 = 8.843
 2: 8.529 + 0.40 = 8.569
 3: 8.356 + 0.48 = 8.405
 4: 8.288 + 0.52 = 8.340
 5: 8.502 + 0.44 = 8.546
 ----------------------------------------

Note: The following floating-point exceptions are signalling:


Note: The following floating-point exceptions are signalling: IEEE_DENORMAL IEEE_DENORMAL

 ddikick.x: exited gracefully.
unset echo
----- accounting info -----
Files used on the master node pietdev were:
-rwxr-xr-x 1 piet piet     1065 mei 25 19:17 /home/piet/scr/methyl_chavicol_fukui_acid.F05*
-rw-r--r-- 1 piet piet 68812800 mei 25 19:17 /home/piet/scr/methyl_chavicol_fukui_acid.F10
ls: No match.
ls: No match.
ls: No match.
ma 25 mei 2020 19:17:59 CEST
0.124u 0.029s 0:19.14 0.7%	0+0k 0+8io 0pf+0w
