----- GAMESS execution script 'rungms' -----
This job is running on host pietdev
under operating system Linux at ma 25 mei 2020 19:17:40 CEST
Available scratch disk space (Kbyte units) at beginning of the job is
Filesystem     1K-blocks     Used Available Use% Mounted on
/dev/sda2      244568380 31071500 201003824  14% /
GAMESS temporary binary files will be written to /home/piet/scr
GAMESS supplementary output files will be written to /home/piet/gamess/scr
Copying input file methyl_chavicol_fukui_neu.inp to your run's scratch directory...
cp methyl_chavicol_fukui_neu.inp /home/piet/scr/methyl_chavicol_fukui_neu.F05
unset echo
 
Assuming a single but multicore node.
 
/home/piet/gamess/ddikick.x /home/piet/gamess/gamess.03.x methyl_chavicol_fukui_neu -ddi 1 6 pietdev:cpus=6 -scr /home/piet/scr

 Distributed Data Interface kickoff program.
 Initiating 6 compute processes on 1 nodes to run the following command:
 /home/piet/gamess/gamess.03.x methyl_chavicol_fukui_neu 

          ******************************************************
          *         GAMESS VERSION = 30 SEP 2019 (R2)          *
          *             FROM IOWA STATE UNIVERSITY             *
          * M.W.SCHMIDT, K.K.BALDRIDGE, J.A.BOATZ, S.T.ELBERT, *
          *   M.S.GORDON, J.H.JENSEN, S.KOSEKI, N.MATSUNAGA,   *
          *          K.A.NGUYEN, S.J.SU, T.L.WINDUS,           *
          *       TOGETHER WITH M.DUPUIS, J.A.MONTGOMERY       *
          *         J.COMPUT.CHEM.  14, 1347-1363(1993)        *
          **************** 64 BIT LINUX VERSION ****************

  SINCE 1993, STUDENTS AND POSTDOCS WORKING AT IOWA STATE UNIVERSITY
  AND ALSO IN THEIR VARIOUS JOBS AFTER LEAVING ISU HAVE MADE IMPORTANT
  CONTRIBUTIONS TO THE CODE:
     IVANA ADAMOVIC, CHRISTINE AIKENS, YURI ALEXEEV, POOJA ARORA,
     ANDREY ASADCHEV, ROB BELL, PRADIPTA BANDYOPADHYAY, JONATHAN BENTZ,
     COLLEEN BERTONI, BRETT BODE, KURT BRORSEN, CALEB CARLIN, GALINA CHABAN,
     WEI CHEN, CHEOL HO CHOI, PAUL DAY, ALBERT DEFUSCO, NUWAN DESILVA,
     TIM DUDLEY, DMITRI FEDOROV, ALEX FINDLATER, GRAHAM FLETCHER, 
     MARK FREITAG, KURT GLAESEMANN, EMILIE B GUIDEZ, ANASTASIA GUNINA, 
     DAN KEMP, SAROM SOK LEANG, GRANT MERRILL,
     NORIYUKI MINEZAWA, JONATHAN MULLIN,
     TAKESHI NAGATA, SEAN NEDD, HEATHER NETZLOFF, BOSILJKA NJEGIC, RYAN OLSON,
     MIKE PAK, BUU PHAM, DAVID POOLE,
     SPENCER PRUITT, LUKE ROSKOP, TOSAPORN SATTASATHUCHANA,
     JIM SHOEMAKER, LYUDMILA SLIPCHENKO,
     TONY SMITH, JIE SONG, TETSUYA TAKETSUGU, SIMON WEBB,
     JORGE LUIS GALVEZ VALLEJO, PENG XU, SOOHAENG YOO,
     FEDERICO ZAHARIEV

  ADDITIONAL CODE HAS BEEN PROVIDED BY COLLABORATORS IN OTHER GROUPS:
     IOWA STATE UNIVERSITY:
          JOE IVANIC, AARON WEST, LAIMUTIS BYTAUTAS, KLAUS RUEDENBERG
     UNIVERSITY OF TOKYO: KIMIHIKO HIRAO, TAKAHITO NAKAJIMA,
          TAKAO TSUNEDA, MUNEAKI KAMIYA, SUSUMU YANAGISAWA,
          KIYOSHI YAGI, MAHITO CHIBA, SEIKEN TOKURA, NAOAKI KAWAKAMI
     UNIVERSITY OF AARHUS: FRANK JENSEN
     UNIVERSITY OF IOWA: VISVALDAS KAIRYS, HUI LI
     NATIONAL INST. OF STANDARDS AND TECHNOLOGY: WALT STEVENS, DAVID GARMER
     UNIVERSITY OF PISA: BENEDETTA MENNUCCI, JACOPO TOMASI
     UNIVERSITY OF MEMPHIS: HENRY KURTZ, PRAKASHAN KORAMBATH
     UNIVERSITY OF ALBERTA: TOBY ZENG, MARIUSZ KLOBUKOWSKI
     UNIVERSITY OF NEW ENGLAND: MARK SPACKMAN
     MIE UNIVERSITY: HIROAKI UMEDA
     NAT. INST. OF ADVANCED INDUSTRIAL SCIENCE AND TECHNOLOGY: KAZUO KITAURA
     MICHIGAN STATE UNIVERSITY:
          KAROL KOWALSKI, MARTA WLOCH, JEFFREY GOUR, JESSE LUTZ,
          WEI LI, JUN SHEN, J. EMILIANO DEUSTUA, PIOTR PIECUCH
     UNIVERSITY OF MINNESOTA:
          ANDREW SAND, PRACHI SHARMA, YINAN SHU
     UNIVERSITY OF SILESIA: MONIKA MUSIAL, STANISLAW KUCHARSKI
     FACULTES UNIVERSITAIRES NOTRE-DAME DE LA PAIX:
          OLIVIER QUINET, BENOIT CHAMPAGNE
     UNIVERSITY OF CALIFORNIA - SANTA BARBARA: BERNARD KIRTMAN
     INSTITUTE FOR MOLECULAR SCIENCE:
          KAZUYA ISHIMURA, MICHIO KATOUDA, AND SHIGERU NAGASE
     UNIVERSITY OF NOTRE DAME: ANNA POMOGAEVA, DAN CHIPMAN
     KYUSHU UNIVERSITY:
          HARUYUKI NAKANO,
          FENG LONG GU, JACEK KORCHOWIEC, MARCIN MAKOWSKI, AND YURIKO AOKI,
          HIROTOSHI MORI AND EISAKU MIYOSHI
     PENNSYLVANIA STATE UNIVERSITY:
          TZVETELIN IORDANOV, CHET SWALINA, JONATHAN SKONE,
          SHARON HAMMES-SCHIFFER
     WASEDA UNIVERSITY:
          MASATO KOBAYASHI, TOMOKO AKAMA, TSUGUKI TOUMA,
          TAKESHI YOSHIKAWA, YASUHIRO IKABATA, JUNJI SEINO,
          YUYA NAKAJIMA, HIROMI NAKAI
     NANJING UNIVERSITY: SHUHUA LI
     UNIVERSITY OF NEBRASKA:
          PEIFENG SU, DEJUN SI, NANDUN THELLAMUREGE, YALI WANG, HUI LI
     UNIVERSITY OF ZURICH: ROBERTO PEVERATI, KIM BALDRIDGE
     N. COPERNICUS UNIVERSITY AND JACKSON STATE UNIVERSITY:
          MARIA BARYSZ
     UNIVERSITY OF COPENHAGEN: Jimmy Kromann, CASPER STEINMANN
     TOKYO INSTITUTE OF TECHNOLOGY: HIROYA NAKATA
     NAGOYA UNIVERSITY: YOSHIO NISHIMOTO, STEPHAN IRLE
     MOSCOW STATE UNIVERSITY: VLADIMIR MIRONOV
     A.N.NESMEYANOV INSTITUTE OF ORGANOELEMENT COMPOUNDS OF RUSSIAN ACADEMY OF SCIENCES:
          IGOR S. GERASIMOV
     JOHANNES KEPLER UNIVERSITY LINZ:
          CHRISTIAN FRIEDL


 PARALLEL VERSION RUNNING ON        6 PROCESSORS IN        1 NODES.

 EXECUTION OF GAMESS BEGUN Mon May 25 19:17:40 2020

            ECHO OF THE FIRST FEW INPUT CARDS -
 INPUT CARD> $BASIS GBASIS=N21 NGAUSS=3 $END                                                
 INPUT CARD> $CONTRL SCFTYP=RHF MAXIT=60 MULT=1 ICHARG=0 $END                               
 INPUT CARD> $SYSTEM MEMDDI=1000 MWORDS=30 $END                                             
 INPUT CARD> $SCF DIRSCF=.TRUE. $END                                                        
 INPUT CARD> $DATA                                                                          
 INPUT CARD>                                                                                
 INPUT CARD>C1                                                                              
 INPUT CARD>C 6.0000000 1.94377 2.19075 0.12328                                             
 INPUT CARD>C 6.0000000 1.24360 0.86090 -0.00295                                            
 INPUT CARD>C 6.0000000 1.97505 -0.33685 0.10854                                            
 INPUT CARD>C 6.0000000 1.34264 -1.57462 -0.00715                                           
 INPUT CARD>C 6.0000000 -0.03617 -1.63721 -0.23516                                          
 INPUT CARD>C 6.0000000 -0.79560 -0.46964 -0.35044                                          
 INPUT CARD>C 6.0000000 -0.13150 0.76186 -0.22843                                           
 INPUT CARD>C 6.0000000 -2.29627 -0.51725 -0.59831                                          
 INPUT CARD>C 6.0000000 -3.10759 0.04218 0.54562                                            
 INPUT CARD>C 6.0000000 -3.98332 1.04742 0.44855                                            
 INPUT CARD>O 8.0000000 3.32751 -0.21884 0.33424                                            
 INPUT CARD>H 1.0000000 2.77096 2.27210 -0.59073                                            
 INPUT CARD>H 1.0000000 1.24789 3.01506 -0.05553                                            
 INPUT CARD>H 1.0000000 2.37926 2.31800 1.12181                                             
 INPUT CARD>H 1.0000000 1.92338 -2.49141 0.07985                                            
 INPUT CARD>H 1.0000000 -0.51559 -2.60892 -0.32641                                          
 INPUT CARD>H 1.0000000 -0.70889 1.68079 -0.30907                                           
 INPUT CARD>H 1.0000000 -2.54451 0.03230 -1.51585                                           
 INPUT CARD>H 1.0000000 -2.58808 -1.56234 -0.76929                                          
 INPUT CARD>H 1.0000000 -2.93969 -0.42575 1.51659                                           
 INPUT CARD>H 1.0000000 -4.17643 1.54664 -0.49921                                           
 INPUT CARD>H 1.0000000 -4.53870 1.40362 1.31179                                            
 INPUT CARD>H 1.0000000 3.72730 -1.09692 0.38503                                            
 INPUT CARD> $END                                                                           
   30000000 WORDS OF MEMORY AVAILABLE

     BASIS OPTIONS
     -------------
     GBASIS=N21          IGAUSS=       3      POLAR=NONE    
     NDFUNC=       0     NFFUNC=       0     DIFFSP=       F
     NPFUNC=       0      DIFFS=       F     BASNAM=        


     RUN TITLE
     ---------
                                                                                 

 THE POINT GROUP OF THE MOLECULE IS C1      
 THE ORDER OF THE PRINCIPAL AXIS IS     0

 ATOM      ATOMIC                      COORDINATES (BOHR)
           CHARGE         X                   Y                   Z
 C           6.0     3.6731926832        4.1399172076        0.2329654198
 C           6.0     2.3500632383        1.6268651028       -0.0055746917
 C           6.0     3.7323033121       -0.6365541990        0.2051108587
 C           6.0     2.5372217002       -2.9756003348       -0.0135115408
 C           6.0    -0.0683513890       -3.0938782844       -0.4443879633
 C           6.0    -1.5034659958       -0.8874909129       -0.6622355751
 C           6.0    -0.2484989674        1.4397066410       -0.4316701074
 C           6.0    -4.3393210938       -0.9774607671       -1.1306419557
 C           6.0    -5.8724935822        0.0797086422        1.0310722934
 C           6.0    -7.5273833214        1.9793367941        0.8476365918
 O           8.0     6.2880821214       -0.4135476352        0.6316220141
 H           1.0     5.2363551229        4.2936464167       -1.1163178327
 H           1.0     2.3581701628        5.6976372365       -0.1049364841
 H           1.0     4.4961494535        4.3803848395        2.1199135103
 H           1.0     3.6346611703       -4.7080822231        0.1508946201
 H           1.0    -0.9743238220       -4.9301439239       -0.6168254597
 H           1.0    -1.3396078554        3.1762325429       -0.5840576110
 H           1.0    -4.8084266730        0.0610381494       -2.8645411385
 H           1.0    -4.8907620343       -2.9523944997       -1.4537473051
 H           1.0    -5.5552085888       -0.8045508393        2.8659395357
 H           1.0    -7.8923083069        2.9227258017       -0.9433701103
 H           1.0    -8.5768993405        2.6524571909        2.4789236534
 H           1.0     7.0435756740       -2.0728782305        0.7276011971

          INTERNUCLEAR DISTANCES (ANGS.)
          ------------------------------

                1 C          2 C          3 C          4 C          5 C     

   1 C       0.0000000    1.5082019 *  2.5278365 *  3.8152825    4.3245716  
   2 C       1.5082019 *  0.0000000    1.4078545 *  2.4375365 *  2.8164315 *
   3 C       2.5278365 *  1.4078545 *  0.0000000    1.3947764 *  2.4195189 *
   4 C       3.8152825    2.4375365 *  1.3947764 *  0.0000000    1.3989364 *
   5 C       4.3245716    2.8164315 *  2.4195189 *  1.3989364 *  0.0000000  
   6 C       3.8478869    2.4595574 *  2.8115471 *  2.4312341 *  1.3975847 *
   7 C       2.5440464 *  1.3969789 *  2.3996386 *  2.7714964 *  2.4009727 *
   8 C       5.0825088    3.8450527    4.3331692    3.8352532    2.5483799 *
   9 C       5.5055392    4.4613995    5.1154601    4.7669848    3.5865846  
  10 C       6.0451137    5.2496985    6.1264985    5.9538732    4.8223118  
  11 O       2.7866404 *  2.3711213 *  1.3762321 *  2.4278376 *  3.6946357  
  12 H       1.0957515 *  2.1609719 *  2.8158607 *  4.1446252    4.8258796  
  13 H       1.0934848 *  2.1548059 *  3.4337998    4.5909128    4.8295645  
  14 H       1.0967708 *  2.1628567 *  2.8702492 *  4.1834940    4.8290119  
  15 H       4.6824058    3.4215404    2.1553704 *  1.0887295 *  2.1607233 *
  16 H       5.4117931    3.9037196    3.3992310    2.1505167 *  1.0873778 *
  17 H       2.7356153 *  2.1396603 *  3.3836080    3.8597442    3.3863164  
  18 H       5.2431203    4.1623577    4.8167766    4.4685907    3.2740189  
  19 H       5.9514729    4.5979496    4.8056807    4.0039440    2.6082839 *
  20 H       5.7127547    4.6329672    5.1132355    4.6882871    3.6009293  
  21 H       6.1854037    5.4857304    6.4620121    6.3596007    5.2295675  
  22 H       6.6373599    5.9546687    6.8487945    6.7230705    5.6491130  
  23 H       3.7494355    3.1862758    1.9299050 *  2.4634540 *  3.8523052  

                6 C          7 C          8 C          9 C         10 C     

   1 C       3.8478869    2.5440464 *  5.0825088    5.5055392    6.0451137  
   2 C       2.4595574 *  1.3969789 *  3.8450527    4.4613995    5.2496985  
   3 C       2.8115471 *  2.3996386 *  4.3331692    5.1154601    6.1264985  
   4 C       2.4312341 *  2.7714964 *  3.8352532    4.7669848    5.9538732  
   5 C       1.3975847 *  2.4009727 *  2.5483799 *  3.5865846    4.8223118  
   6 C       0.0000000    1.4044599 *  1.5217479 *  2.5318335 *  3.6195877  
   7 C       1.4044599 *  0.0000000    2.5414883 *  3.1581964    3.9212707  
   8 C       1.5217479 *  2.5414883 *  0.0000000    1.5098933 *  2.5278935 *
   9 C       2.5318335 *  3.1581964    1.5098933 *  0.0000000    1.3367248 *
  10 C       3.6195877    3.9212707    2.5278935 *  1.3367248 *  0.0000000  
  11 O       4.1870901    3.6391098    5.7083798    6.4438595    7.4205604  
  12 H       4.5050225    3.2918627    5.7842329    6.3891458    6.9426394  
  13 H       4.0504268    2.6475501 *  5.0331793    5.3075044    5.6117076  
  14 H       4.4741695    3.2478663    5.7321930    5.9679875    6.5230420  
  15 H       3.4154876    3.8602246    4.7077229    5.6521393    6.8955321  
  16 H       2.1576612 *  3.3940069    2.7604047 *  3.8088360    5.0984838  
  17 H       2.1525750 *  1.0882621 *  2.7266857 *  3.0280851    3.4200932  
  18 H       2.1607430 *  2.8306051 *  1.0979563 *  2.1370108 *  2.6380884 *
  19 H       2.1406572 *  3.4247950    1.0984536 *  2.1385423 *  3.2001057  
  20 H       2.8433869 *  3.5130391    2.2125017 *  1.0908399 *  2.0976422 *
  21 H       3.9392295    4.1292445    2.7936471 *  2.1207283 *  1.0884673 *
  22 H       4.5036551    4.7124882    3.5166342    2.1186343 *  1.0865122 *
  23 H       4.6250428    4.3268619    6.1307724    6.9310215    8.0034923  

               11 O         12 H         13 H         14 H         15 H     

   1 C       2.7866404 *  1.0957515 *  1.0934848 *  1.0967708 *  4.6824058  
   2 C       2.3711213 *  2.1609719 *  2.1548059 *  2.1628567 *  3.4215404  
   3 C       1.3762321 *  2.8158607 *  3.4337998    2.8702492 *  2.1553704 *
   4 C       2.4278376 *  4.1446252    4.5909128    4.1834940    1.0887295 *
   5 C       3.6946357    4.8258796    4.8295645    4.8290119    2.1607233 *
   6 C       4.1870901    4.5050225    4.0504268    4.4741695    3.4154876  
   7 C       3.6391098    3.2918627    2.6475501 *  3.2478663    3.8602246  
   8 C       5.7083798    5.7842329    5.0331793    5.7321930    4.7077229  
   9 C       6.4438595    6.3891458    5.3075044    5.9679875    5.6521393  
  10 C       7.4205604    6.9426394    5.6117076    6.5230420    6.8955321  
  11 O       0.0000000    2.7147927 *  3.8645633    2.8204613 *  2.6834436 *
  12 H       2.7147927 *  0.0000000    1.7771243 *  1.7573642 *  4.8845775  
  13 H       3.8645633    1.7771243 *  0.0000000    1.7753930 *  5.5493987  
  14 H       2.8204613 *  1.7573642 *  1.7753930 *  0.0000000    4.9420574  
  15 H       2.6834436 *  4.8845775    5.5493987    4.9420574    0.0000000  
  16 H       4.5736592    5.8902998    5.9002024    5.8950860    2.4753647 *
  17 H       4.5072128    3.5409513    2.3819208 *  3.4626759    4.9484702  
  18 H       6.1616981    5.8418124    5.0410008    6.0353281    5.3737707  
  19 H       6.1657908    6.5919742    6.0147078    6.5808635    4.6837465  
  20 H       6.3811096    6.6581315    5.6432757    5.9979367    5.4754564  
  21 H       7.7537523    6.9857638    5.6370521    6.7970415    7.3381769  
  22 H       8.0910593    7.6029579    6.1604323    6.9807130    7.6450908  
  23 H       0.9661450 *  3.6355178    4.8218198    3.7445608    2.3004053 *

               16 H         17 H         18 H         19 H         20 H     

   1 C       5.4117931    2.7356153 *  5.2431203    5.9514729    5.7127547  
   2 C       3.9037196    2.1396603 *  4.1623577    4.5979496    4.6329672  
   3 C       3.3992310    3.3836080    4.8167766    4.8056807    5.1132355  
   4 C       2.1505167 *  3.8597442    4.4685907    4.0039440    4.6882871  
   5 C       1.0873778 *  3.3863164    3.2740189    2.6082839 *  3.6009293  
   6 C       2.1576612 *  2.1525750 *  2.1607430 *  2.1406572 *  2.8433869 *
   7 C       3.3940069    1.0882621 *  2.8306051 *  3.4247950    3.5130391  
   8 C       2.7604047 *  2.7266857 *  1.0979563 *  1.0984536 *  2.2125017 *
   9 C       3.8088360    3.0280851    2.1370108 *  2.1385423 *  1.0908399 *
  10 C       5.0984838    3.4200932    2.6380884 *  3.2001057    2.0976422 *
  11 O       4.5736592    4.5072128    6.1616981    6.1657908    6.3811096  
  12 H       5.8902998    3.5409513    5.8418124    6.5919742    6.6581315  
  13 H       5.9002024    2.3819208 *  5.0410008    6.0147078    5.6432757  
  14 H       5.8950860    3.4626759    6.0353281    6.5808635    5.9979367  
  15 H       2.4753647 *  4.9484702    5.3737707    4.6837465    5.4754564  
  16 H       0.0000000    4.2940980    3.5365699    2.3636174 *  3.7468842  
  17 H       4.2940980    0.0000000    2.7465138 *  3.7763805    3.5702960  
  18 H       3.5365699    2.7465138 *  0.0000000    1.7612856 *  3.0921949  
  19 H       2.3636174 *  3.7763805    1.7612856 *  0.0000000    2.5769582 *
  20 H       3.7468842    3.5702960    3.0921949    2.5769582 *  0.0000000  
  21 H       5.5407841    3.4753393    2.4474365 *  3.5016504    3.0794964  
  22 H       5.9135092    4.1679077    3.7219431    4.1149400    2.4383131 *
  23 H       4.5600884    5.2798891    6.6501190    6.4368544    6.7955613  

               21 H         22 H         23 H     

   1 C       6.1854037    6.6373599    3.7494355  
   2 C       5.4857304    5.9546687    3.1862758  
   3 C       6.4620121    6.8487945    1.9299050 *
   4 C       6.3596007    6.7230705    2.4634540 *
   5 C       5.2295675    5.6491130    3.8523052  
   6 C       3.9392295    4.5036551    4.6250428  
   7 C       4.1292445    4.7124882    4.3268619  
   8 C       2.7936471 *  3.5166342    6.1307724  
   9 C       2.1207283 *  2.1186343 *  6.9310215  
  10 C       1.0884673 *  1.0865122 *  8.0034923  
  11 O       7.7537523    8.0910593    0.9661450 *
  12 H       6.9857638    7.6029579    3.6355178  
  13 H       5.6370521    6.1604323    4.8218198  
  14 H       6.7970415    6.9807130    3.7445608  
  15 H       7.3381769    7.6450908    2.3004053 *
  16 H       5.5407841    5.9135092    4.5600884  
  17 H       3.4753393    4.1679077    5.2798891  
  18 H       2.4474365 *  3.7219431    6.6501190  
  19 H       3.5016504    4.1149400    6.4368544  
  20 H       3.0794964    2.4383131 *  6.7955613  
  21 H       0.0000000    1.8524080 *  8.3808853  
  22 H       1.8524080 *  0.0000000    8.6855248  
  23 H       8.3808853    8.6855248    0.0000000  

  * ... LESS THAN  3.000


     ATOMIC BASIS SET
     ----------------
 THE CONTRACTED PRIMITIVE FUNCTIONS HAVE BEEN UNNORMALIZED
 THE CONTRACTED BASIS FUNCTIONS ARE NOW NORMALIZED TO UNITY

  SHELL TYPE  PRIMITIVE        EXPONENT          CONTRACTION COEFFICIENT(S)

 C         

      1   S       1           172.2560000    0.061766907377
      1   S       2            25.9109000    0.358794042852
      1   S       3             5.5333500    0.700713083689

      2   L       4             3.6649800   -0.395895162119    0.236459946619
      2   L       5             0.7705450    1.215834355681    0.860618805716

      3   L       6             0.1958570    1.000000000000    1.000000000000

 C         

      4   S       7           172.2560000    0.061766907377
      4   S       8            25.9109000    0.358794042852
      4   S       9             5.5333500    0.700713083689

      5   L      10             3.6649800   -0.395895162119    0.236459946619
      5   L      11             0.7705450    1.215834355681    0.860618805716

      6   L      12             0.1958570    1.000000000000    1.000000000000

 C         

      7   S      13           172.2560000    0.061766907377
      7   S      14            25.9109000    0.358794042852
      7   S      15             5.5333500    0.700713083689

      8   L      16             3.6649800   -0.395895162119    0.236459946619
      8   L      17             0.7705450    1.215834355681    0.860618805716

      9   L      18             0.1958570    1.000000000000    1.000000000000

 C         

     10   S      19           172.2560000    0.061766907377
     10   S      20            25.9109000    0.358794042852
     10   S      21             5.5333500    0.700713083689

     11   L      22             3.6649800   -0.395895162119    0.236459946619
     11   L      23             0.7705450    1.215834355681    0.860618805716

     12   L      24             0.1958570    1.000000000000    1.000000000000

 C         

     13   S      25           172.2560000    0.061766907377
     13   S      26            25.9109000    0.358794042852
     13   S      27             5.5333500    0.700713083689

     14   L      28             3.6649800   -0.395895162119    0.236459946619
     14   L      29             0.7705450    1.215834355681    0.860618805716

     15   L      30             0.1958570    1.000000000000    1.000000000000

 C         

     16   S      31           172.2560000    0.061766907377
     16   S      32            25.9109000    0.358794042852
     16   S      33             5.5333500    0.700713083689

     17   L      34             3.6649800   -0.395895162119    0.236459946619
     17   L      35             0.7705450    1.215834355681    0.860618805716

     18   L      36             0.1958570    1.000000000000    1.000000000000

 C         

     19   S      37           172.2560000    0.061766907377
     19   S      38            25.9109000    0.358794042852
     19   S      39             5.5333500    0.700713083689

     20   L      40             3.6649800   -0.395895162119    0.236459946619
     20   L      41             0.7705450    1.215834355681    0.860618805716

     21   L      42             0.1958570    1.000000000000    1.000000000000

 C         

     22   S      43           172.2560000    0.061766907377
     22   S      44            25.9109000    0.358794042852
     22   S      45             5.5333500    0.700713083689

     23   L      46             3.6649800   -0.395895162119    0.236459946619
     23   L      47             0.7705450    1.215834355681    0.860618805716

     24   L      48             0.1958570    1.000000000000    1.000000000000

 C         

     25   S      49           172.2560000    0.061766907377
     25   S      50            25.9109000    0.358794042852
     25   S      51             5.5333500    0.700713083689

     26   L      52             3.6649800   -0.395895162119    0.236459946619
     26   L      53             0.7705450    1.215834355681    0.860618805716

     27   L      54             0.1958570    1.000000000000    1.000000000000

 C         

     28   S      55           172.2560000    0.061766907377
     28   S      56            25.9109000    0.358794042852
     28   S      57             5.5333500    0.700713083689

     29   L      58             3.6649800   -0.395895162119    0.236459946619
     29   L      59             0.7705450    1.215834355681    0.860618805716

     30   L      60             0.1958570    1.000000000000    1.000000000000

 O         

     31   S      61           322.0370000    0.059239393389
     31   S      62            48.4308000    0.351499960776
     31   S      63            10.4206000    0.707657921031

     32   L      64             7.4029400   -0.404453583190    0.244586106967
     32   L      65             1.5762000    1.221561761397    0.853955373466

     33   L      66             0.3736840    1.000000000000    1.000000000000

 H         

     34   S      67             5.4471780    0.156284978695
     34   S      68             0.8245472    0.904690876670

     35   S      69             0.1831916    1.000000000000

 H         

     36   S      70             5.4471780    0.156284978695
     36   S      71             0.8245472    0.904690876670

     37   S      72             0.1831916    1.000000000000

 H         

     38   S      73             5.4471780    0.156284978695
     38   S      74             0.8245472    0.904690876670

     39   S      75             0.1831916    1.000000000000

 H         

     40   S      76             5.4471780    0.156284978695
     40   S      77             0.8245472    0.904690876670

     41   S      78             0.1831916    1.000000000000

 H         

     42   S      79             5.4471780    0.156284978695
     42   S      80             0.8245472    0.904690876670

     43   S      81             0.1831916    1.000000000000

 H         

     44   S      82             5.4471780    0.156284978695
     44   S      83             0.8245472    0.904690876670

     45   S      84             0.1831916    1.000000000000

 H         

     46   S      85             5.4471780    0.156284978695
     46   S      86             0.8245472    0.904690876670

     47   S      87             0.1831916    1.000000000000

 H         

     48   S      88             5.4471780    0.156284978695
     48   S      89             0.8245472    0.904690876670

     49   S      90             0.1831916    1.000000000000

 H         

     50   S      91             5.4471780    0.156284978695
     50   S      92             0.8245472    0.904690876670

     51   S      93             0.1831916    1.000000000000

 H         

     52   S      94             5.4471780    0.156284978695
     52   S      95             0.8245472    0.904690876670

     53   S      96             0.1831916    1.000000000000

 H         

     54   S      97             5.4471780    0.156284978695
     54   S      98             0.8245472    0.904690876670

     55   S      99             0.1831916    1.000000000000

 H         

     56   S     100             5.4471780    0.156284978695
     56   S     101             0.8245472    0.904690876670

     57   S     102             0.1831916    1.000000000000

 TOTAL NUMBER OF BASIS SET SHELLS             =   57
 NUMBER OF CARTESIAN GAUSSIAN BASIS FUNCTIONS =  123
 NUMBER OF ELECTRONS                          =   80
 CHARGE OF MOLECULE                           =    0
 SPIN MULTIPLICITY                            =    1
 NUMBER OF OCCUPIED ORBITALS (ALPHA)          =   40
 NUMBER OF OCCUPIED ORBITALS (BETA )          =   40
 TOTAL NUMBER OF ATOMS                        =   23
 THE NUCLEAR REPULSION ENERGY IS      565.5090674368

     $CONTRL OPTIONS
     ---------------
 SCFTYP=RHF          RUNTYP=ENERGY       EXETYP=RUN     
 MPLEVL=       0     CITYP =NONE         CCTYP =NONE         VBTYP =NONE    
 DFTTYP=NONE         TDDFT =NONE    
 MULT  =       1     ICHARG=       0     NZVAR =       0     COORD =UNIQUE  
 PP    =NONE         RELWFN=NONE         LOCAL =NONE         NUMGRD=       F
 ISPHER=      -1     NOSYM =       0     MAXIT =      60     UNITS =ANGS    
 PLTORB=       F     MOLPLT=       F     AIMPAC=       F     FRIEND=        
 NPRINT=       7     IREST =       0     GEOM  =INPUT   
 NORMF =       0     NORMP =       0     ITOL  =      20     ICUT  =       9
 INTTYP=BEST         GRDTYP=BEST         QMTTOL= 1.0E-06

     $SYSTEM OPTIONS
     ---------------
  REPLICATED MEMORY=    30000000 WORDS (ON EVERY NODE).
 DISTRIBUTED MEMDDI=        1000 MILLION WORDS IN AGGREGATE,
 MEMDDI DISTRIBUTED OVER   6 PROCESSORS IS   166666666 WORDS/PROCESSOR.
 TOTAL MEMORY REQUESTED ON EACH PROCESSOR=   196666666 WORDS.
 TIMLIM=      525600.00 MINUTES, OR     365.0 DAYS.
 PARALL= T  BALTYP=  DLB     KDIAG=    0  COREFL= F
 MXSEQ2=     300 MXSEQ3=     150  mem10=         0

          ----------------
          PROPERTIES INPUT
          ----------------

     MOMENTS            FIELD           POTENTIAL          DENSITY
 IEMOM =       1   IEFLD =       0   IEPOT =       0   IEDEN =       0
 WHERE =COMASS     WHERE =NUCLEI     WHERE =NUCLEI     WHERE =NUCLEI  
 OUTPUT=BOTH       OUTPUT=BOTH       OUTPUT=BOTH       OUTPUT=BOTH    
 IEMINT=       0   IEFINT=       0                     IEDINT=       0
                                                       MORB  =       0
          EXTRAPOLATION IN EFFECT
          SOSCF IN EFFECT
 ORBITAL PRINTING OPTION: NPREO=     1   123     2     1

     -------------------------------
     INTEGRAL TRANSFORMATION OPTIONS
     -------------------------------
     NWORD  =            0
     CUTOFF = 1.0E-09     MPTRAN =       0
     DIRTRF =       T     AOINTS =DUP     

          ----------------------
          INTEGRAL INPUT OPTIONS
          ----------------------
 NOPK  =       1 NORDER=       0 SCHWRZ=       T

     ------------------------------------------
     THE POINT GROUP IS C1 , NAXIS= 0, ORDER= 1
     ------------------------------------------

     DIMENSIONS OF THE SYMMETRY SUBSPACES ARE
 A   =  123

 ..... DONE SETTING UP THE RUN .....
 CPU     0: STEP CPU TIME=     0.02 TOTAL CPU TIME=          0.0 (      0.0 MIN)
 TOTAL WALL CLOCK TIME=          0.1 SECONDS, CPU UTILIZATION IS    40.00%

          ********************
          1 ELECTRON INTEGRALS
          ********************
 ...... END OF ONE-ELECTRON INTEGRALS ......
 CPU     0: STEP CPU TIME=     0.03 TOTAL CPU TIME=          0.0 (      0.0 MIN)
 TOTAL WALL CLOCK TIME=          0.1 SECONDS, CPU UTILIZATION IS    71.43%

          -------------
          GUESS OPTIONS
          -------------
          GUESS =HUCKEL            NORB  =       0          NORDER=       0
          MIX   =       F          PRTMO =       F          PUNMO =       F
          TOLZ  = 1.0E-08          TOLE  = 1.0E-05
          SYMDEN=       F          PURIFY=       F

 INITIAL GUESS ORBITALS GENERATED BY HUCKEL   ROUTINE.
 HUCKEL GUESS REQUIRES    144696 WORDS.

 SYMMETRIES FOR INITIAL GUESS ORBITALS FOLLOW.   BOTH SET(S).
    40 ORBITALS ARE OCCUPIED (   11 CORE ORBITALS).
    12=A       13=A       14=A       15=A       16=A       17=A       18=A   
    19=A       20=A       21=A       22=A       23=A       24=A       25=A   
    26=A       27=A       28=A       29=A       30=A       31=A       32=A   
    33=A       34=A       35=A       36=A       37=A       38=A       39=A   
    40=A       41=A       42=A       43=A       44=A       45=A       46=A   
    47=A       48=A       49=A       50=A   
 ...... END OF INITIAL ORBITAL SELECTION ......
 CPU     0: STEP CPU TIME=     0.04 TOTAL CPU TIME=          0.1 (      0.0 MIN)
 TOTAL WALL CLOCK TIME=          0.1 SECONDS, CPU UTILIZATION IS    69.23%

                    ----------------------
                    AO INTEGRAL TECHNOLOGY
                    ----------------------
     S,P,L SHELL ROTATED AXIS INTEGRALS, REPROGRAMMED BY
        KAZUYA ISHIMURA (IMS) AND JOSE SIERRA (SYNSTAR).
     S,P,D,L SHELL ROTATED AXIS INTEGRALS PROGRAMMED BY
        KAZUYA ISHIMURA (INSTITUTE FOR MOLECULAR SCIENCE).
     S,P,D,F,G SHELL TO TOTAL QUARTET ANGULAR MOMENTUM SUM 5,
        ERIC PROGRAM BY GRAHAM FLETCHER (ELORET AND NASA ADVANCED
        SUPERCOMPUTING DIVISION, AMES RESEARCH CENTER).
     S,P,D,F,G,L SHELL GENERAL RYS QUADRATURE PROGRAMMED BY
        MICHEL DUPUIS (PACIFIC NORTHWEST NATIONAL LABORATORY).

          --------------------
          2 ELECTRON INTEGRALS
          --------------------

 DIRECT SCF METHOD SKIPS INTEGRAL STORAGE ON DISK.
 DIRECT TRANSFORMATION SKIPS AO INTEGRAL STORAGE ON DISK.
  ...... END OF TWO-ELECTRON INTEGRALS .....
 CPU     0: STEP CPU TIME=     0.02 TOTAL CPU TIME=          0.1 (      0.0 MIN)
 TOTAL WALL CLOCK TIME=          0.1 SECONDS, CPU UTILIZATION IS    73.33%

          --------------------------
                 RHF SCF CALCULATION
          --------------------------

     NUCLEAR ENERGY =       565.5090674368
     MAXIT =   60     NPUNCH=    2
     EXTRAP=T  DAMP=F  SHIFT=F  RSTRCT=F  DIIS=F  DEM=F  SOSCF=T
     DENSITY MATRIX CONV=  2.00E-05
     SOSCF WILL OPTIMIZE    3320 ORBITAL ROTATIONS, SOGTOL=   0.250
     MEMORY REQUIRED FOR RHF ITERS=    168567 WORDS.

 DIRECT SCF CALCULATION, SCHWRZ=T   FDIFF=T,  DIRTHR=  0.00E+00 NITDIR=10
 SCHWARZ INEQUALITY OVERHEAD:      7050 INTEGRALS, T=        0.00

                                                                                   NONZERO     BLOCKS
 ITER EX DEM     TOTAL ENERGY        E CHANGE  DENSITY CHANGE     ORB. GRAD      INTEGRALS    SKIPPED
   1  0  0     -457.0098879841  -457.0098879841   0.605812196   0.000000000       16276392     764470
          ---------------START SECOND ORDER SCF---------------
   2  1  0     -457.9064080733    -0.8965200892   0.137963851   0.047905338       16232484     781937
   3  2  0     -457.9437184082    -0.0373103349   0.071172655   0.012942265       16031953     819994
   4  3  0     -457.9486535069    -0.0049350987   0.008521409   0.004384475       15804604     845866
   5  4  0     -457.9489581710    -0.0003046641   0.002591620   0.000998351       15034417     896745
   6  5  0     -457.9489903723    -0.0000322013   0.001299031   0.000401189       14448923     926822
   7  6  0     -457.9489958658    -0.0000054935   0.000641904   0.000151783       13980474     952524
   8  7  0     -457.9489968598    -0.0000009940   0.000200149   0.000067402       13386757     978960
   9  8  0     -457.9489970501    -0.0000001903   0.000127796   0.000031064       12810233    1004159
  10  9  0     -457.9489970931    -0.0000000429   0.000038281   0.000008139       12479865    1017407
  11 10  0     -457.9489970969    -0.0000000038   0.000013566   0.000003891       11427751    1054225
  12 11  0     -457.9489970974    -0.0000000005   0.000003153   0.000001246       10636866    1081670

          -----------------
          DENSITY CONVERGED
          -----------------
     TIME TO FORM FOCK OPERATORS=       2.7 SECONDS (       0.2 SEC/ITER)
     FOCK TIME ON FIRST ITERATION=       0.3, LAST ITERATION=       0.2
     TIME TO SOLVE SCF EQUATIONS=       0.1 SECONDS (       0.0 SEC/ITER)

 FINAL RHF ENERGY IS     -457.9489970974 AFTER  12 ITERATIONS

          ------------
          EIGENVECTORS
          ------------

                      1          2          3          4          5
                  -20.4794   -11.2467   -11.1851   -11.1837   -11.1833
                     A          A          A          A          A   
    1  C  1  S   -0.000230  -0.001386  -0.003961   0.000954  -0.001763
    2  C  1  S   -0.001041  -0.001468  -0.001851   0.000201  -0.000647
    3  C  1  X   -0.000356  -0.000279   0.000514  -0.000161   0.000187
    4  C  1  Y   -0.000939  -0.000160   0.000188  -0.000343   0.000099
    5  C  1  Z   -0.000065  -0.000051   0.000160  -0.000015   0.000023
    6  C  1  S    0.016033   0.014769   0.012086   0.004298   0.001502
    7  C  1  X   -0.003038  -0.004880  -0.005938  -0.000529  -0.001021
    8  C  1  Y   -0.006075  -0.005587  -0.006827  -0.001202  -0.001051
    9  C  1  Z   -0.000591  -0.000832  -0.001451  -0.000170  -0.000144
   10  C  2  S   -0.000181  -0.004037   0.986314   0.010219   0.031036
   11  C  2  S   -0.000868  -0.004668   0.100693   0.000173   0.003082
   12  C  2  X    0.001294   0.000096  -0.000243  -0.000128   0.000560
   13  C  2  Y    0.001051   0.002336  -0.000549   0.000280   0.000204
   14  C  2  Z    0.000219   0.000035  -0.000044  -0.000010   0.000079
   15  C  2  S    0.019834   0.042144  -0.097980   0.015190  -0.003691
   16  C  2  X   -0.020243  -0.007069   0.004836  -0.007143  -0.001514
   17  C  2  Y   -0.025289  -0.038940   0.011873  -0.011527   0.001057
   18  C  2  Z   -0.003511  -0.001477   0.000938  -0.001306  -0.000162
   19  C  3  S   -0.000042   0.987389   0.003070  -0.000044   0.001274
   20  C  3  S    0.001952   0.099759  -0.003477   0.001055  -0.000126
   21  C  3  X    0.000283  -0.000905   0.000708   0.000297   0.000396
   22  C  3  Y    0.000013  -0.000145  -0.001476   0.000366   0.000289
   23  C  3  Z    0.000049  -0.000155   0.000106   0.000053   0.000067
   24  C  3  S   -0.006206  -0.098658   0.030448  -0.021560  -0.002469
   25  C  3  X    0.043731   0.042184  -0.012784   0.012189   0.001697
   26  C  3  Y    0.001034   0.001570   0.017001   0.003646   0.002474
   27  C  3  Z    0.007237   0.007019  -0.001994   0.002043   0.000306
   28  C  4  S   -0.000258  -0.004334  -0.014383  -0.055642  -0.076266
   29  C  4  S   -0.001444  -0.005485  -0.001513  -0.009331  -0.010323
   30  C  4  X    0.001177   0.000207  -0.000309   0.000684   0.001455
   31  C  4  Y   -0.000013  -0.001554  -0.000666  -0.000469  -0.000422
   32  C  4  Z    0.000190   0.000018  -0.000054   0.000095   0.000251
   33  C  4  S    0.024183   0.048009  -0.004364   0.042917   0.024000
   34  C  4  X   -0.020674  -0.009366   0.007342  -0.017009  -0.010749
   35  C  4  Y    0.015490   0.030913  -0.002187   0.017281   0.004128
   36  C  4  Z   -0.003251  -0.001257   0.001188  -0.002574  -0.001828
   37  C  5  S    0.000250  -0.000554  -0.029247   0.784628   0.591401
   38  C  5  S    0.001003   0.000615  -0.003442   0.082018   0.057026
   39  C  5  X   -0.000756  -0.001197  -0.000193   0.000271   0.001078
   40  C  5  Y   -0.000253  -0.000219  -0.000109   0.001791  -0.000347
   41  C  5  Z   -0.000123  -0.000196  -0.000033   0.000101   0.000115
   42  C  5  S   -0.023451  -0.023089   0.010792  -0.098831  -0.035837
   43  C  5  X   -0.009844  -0.007017   0.004000  -0.006823  -0.011164
   44  C  5  Y   -0.007582  -0.012901   0.003941  -0.032862  -0.000911
   45  C  5  Z   -0.001720  -0.001300   0.000710  -0.001562  -0.001641
   46  C  6  S   -0.000177  -0.001524  -0.020211  -0.596517   0.782661
   47  C  6  S   -0.000827  -0.001429  -0.001535  -0.064231   0.077649
   48  C  6  X   -0.000507  -0.000641  -0.000236  -0.001402  -0.000810
   49  C  6  Y   -0.000014  -0.000025  -0.000441   0.000833   0.000900
   50  C  6  Z   -0.000092  -0.000122  -0.000038  -0.000371   0.000059
   51  C  6  S    0.011762   0.018465  -0.008614   0.087108  -0.053989
   52  C  6  X    0.012265   0.015515  -0.007492   0.030826   0.005314
   53  C  6  Y    0.001809   0.001444  -0.001088  -0.010108  -0.010022
   54  C  6  Z    0.002094   0.002625  -0.001300   0.005005   0.000788
   55  C  7  S    0.000240  -0.000700  -0.029017   0.013805  -0.040291
   56  C  7  S    0.000952   0.000347  -0.006921   0.003855  -0.007245
   57  C  7  X   -0.000822  -0.001213  -0.001636  -0.000042   0.000460
   58  C  7  Y    0.000104   0.000097   0.000156  -0.000115   0.001685
   59  C  7  Z   -0.000139  -0.000205  -0.000264  -0.000065   0.000163
   60  C  7  S   -0.024500  -0.022636   0.035513  -0.032857   0.022307
   61  C  7  X   -0.009414  -0.006932   0.018061  -0.005311  -0.006433
   62  C  7  Y    0.009425   0.014225  -0.006554   0.017878  -0.011602
   63  C  7  Z   -0.001437  -0.000975   0.002875  -0.000549  -0.001347
   64  C  8  S   -0.000044  -0.000437  -0.008566  -0.015655  -0.015483
   65  C  8  S   -0.000160  -0.000479  -0.001440  -0.002397  -0.002487
   66  C  8  X    0.000333   0.000225  -0.000270   0.000042   0.000008
   67  C  8  Y    0.000059   0.000018  -0.000324   0.000060   0.000122
   68  C  8  Z    0.000074   0.000028  -0.000083  -0.000113   0.000094
   69  C  8  S    0.004938   0.006141  -0.000443   0.006985   0.010046
   70  C  8  X    0.001790   0.002568  -0.000339  -0.001711   0.009507
   71  C  8  Y   -0.000483  -0.000165   0.002032   0.002823   0.000265
   72  C  8  Z    0.000175   0.000511   0.000195   0.002868  -0.002397
   73  C  9  S   -0.000003  -0.000169  -0.003922   0.028043  -0.059650
   74  C  9  S   -0.000033  -0.000099  -0.000463   0.003540  -0.007327
   75  C  9  X   -0.000006  -0.000018  -0.000114   0.000737  -0.001147
   76  C  9  Y    0.000058   0.000024  -0.000031  -0.000327   0.000486
   77  C  9  Z    0.000014   0.000047   0.000024  -0.000041   0.000322
   78  C  9  S   -0.000157  -0.000050  -0.000085  -0.003876   0.006259
   79  C  9  X   -0.000009  -0.000302  -0.000244  -0.004702   0.005236
   80  C  9  Y   -0.000135   0.000141   0.000016   0.003107  -0.003653
   81  C  9  Z    0.000121   0.000085   0.000543   0.002426  -0.002575
   82  C 10  S   -0.000005  -0.000017   0.000269   0.001306  -0.000863
   83  C 10  S   -0.000032  -0.000010   0.000095   0.000302  -0.000067
   84  C 10  X    0.000003  -0.000003   0.000030  -0.000129   0.000306
   85  C 10  Y    0.000009   0.000015  -0.000041  -0.000037  -0.000020
   86  C 10  Z    0.000016   0.000017  -0.000032   0.000059  -0.000169
   87  C 10  S    0.000162  -0.000167  -0.000159  -0.002860   0.002554
   88  C 10  X    0.000102  -0.000014  -0.000136  -0.000423  -0.000209
   89  C 10  Y   -0.000096   0.000044   0.000197   0.001662  -0.001535
   90  C 10  Z   -0.000133  -0.000154   0.000002  -0.001317   0.001955
   91  O 11  S    0.983847   0.000278   0.000018   0.000031  -0.000003
   92  O 11  S    0.101173   0.003067  -0.000074   0.000239  -0.000060
   93  O 11  X   -0.003019  -0.001005   0.000225   0.000079   0.000110
   94  O 11  Y   -0.002738  -0.000034   0.000115   0.000145   0.000089
   95  O 11  Z   -0.000549  -0.000167   0.000034   0.000015   0.000019
   96  O 11  S   -0.059697  -0.008557   0.000010  -0.002182  -0.000263
   97  O 11  X    0.013249   0.005311   0.000102   0.000090  -0.000314
   98  O 11  Y    0.005875   0.000315  -0.001536  -0.000715  -0.000488
   99  O 11  Z    0.002293   0.000884   0.000020   0.000008  -0.000055
  100  H 12  S   -0.000481  -0.000461  -0.001050  -0.000074  -0.000054
  101  H 12  S   -0.000525   0.000304   0.002110  -0.000194   0.000200
  102  H 13  S   -0.000650  -0.000708  -0.000806   0.000044  -0.000321
  103  H 13  S   -0.000243  -0.000092  -0.001165  -0.000536   0.000460
  104  H 14  S   -0.000434  -0.000465  -0.001092  -0.000072  -0.000060
  105  H 14  S   -0.000492   0.000225   0.002613  -0.000076   0.000121
  106  H 15  S    0.002162   0.000641  -0.000480   0.000536  -0.000191
  107  H 15  S    0.006807   0.008415  -0.001197   0.004507   0.001690
  108  H 16  S   -0.000190  -0.000701   0.000161  -0.001652  -0.001772
  109  H 16  S   -0.001749  -0.002389   0.000941   0.001832   0.005275
  110  H 17  S   -0.000343  -0.000788  -0.000342  -0.000299  -0.000591
  111  H 17  S   -0.002496  -0.003034   0.002471  -0.003039   0.000413
  112  H 18  S   -0.000102  -0.000158  -0.000257   0.000227  -0.001093
  113  H 18  S   -0.000081  -0.000018  -0.000322  -0.001070   0.000511
  114  H 19  S   -0.000102  -0.000161   0.000158   0.000004  -0.000191
  115  H 19  S   -0.000699  -0.000336   0.000874   0.000531  -0.000882
  116  H 20  S   -0.000016   0.000008  -0.000016   0.000449  -0.000643
  117  H 20  S   -0.000053   0.000007  -0.000279   0.000098  -0.000507
  118  H 21  S   -0.000036  -0.000028   0.000029  -0.000098   0.000230
  119  H 21  S    0.000003  -0.000015  -0.000088  -0.000634   0.000809
  120  H 22  S    0.000013   0.000023   0.000009   0.000225  -0.000269
  121  H 22  S    0.000070   0.000056  -0.000096   0.000235  -0.000681
  122  H 23  S    0.003551   0.000230  -0.000130  -0.000290  -0.000223
  123  H 23  S    0.003037  -0.001092   0.001043   0.000258   0.000612

                      6          7          8          9         10
                  -11.1808   -11.1803   -11.1782   -11.1780   -11.1656
                     A          A          A          A          A   
    1  C  1  S   -0.003691  -0.000728   0.001562  -0.006225  -0.000082
    2  C  1  S   -0.001221  -0.000220   0.000413  -0.001842   0.000023
    3  C  1  X   -0.000095   0.000040  -0.000025   0.000183   0.000033
    4  C  1  Y    0.000445   0.000051   0.000081  -0.000083   0.000022
    5  C  1  Z   -0.000027  -0.000013  -0.000018   0.000029   0.000006
    6  C  1  S    0.000678   0.000013  -0.003600   0.010758  -0.000645
    7  C  1  X    0.000752   0.000071   0.000424  -0.000692   0.000164
    8  C  1  Y   -0.001586  -0.000096   0.001167  -0.005156   0.000315
    9  C  1  Z    0.000207   0.000259   0.000125  -0.000172   0.000013
   10  C  2  S    0.016359   0.005090  -0.006594   0.030806  -0.000150
   11  C  2  S    0.001844   0.000514   0.000848  -0.000861   0.000058
   12  C  2  X   -0.000309   0.000177  -0.000455   0.001911   0.000015
   13  C  2  Y    0.000835   0.000043  -0.000303   0.000934  -0.000092
   14  C  2  Z   -0.000044   0.000164  -0.000085   0.000316  -0.000005
   15  C  2  S   -0.012667  -0.003369  -0.015932   0.030158  -0.001049
   16  C  2  X    0.005226  -0.000028   0.007056  -0.023260   0.000105
   17  C  2  Y    0.004993   0.002237   0.008665  -0.016221   0.001672
   18  C  2  Z    0.000886  -0.000666   0.001337  -0.003875   0.000090
   19  C  3  S    0.003409   0.000287  -0.000217   0.001355   0.000013
   20  C  3  S   -0.004291  -0.000310  -0.000257  -0.000193  -0.000040
   21  C  3  X    0.000887   0.000054  -0.000196   0.000711  -0.000015
   22  C  3  Y    0.001523   0.000014   0.000324  -0.000565   0.000013
   23  C  3  Z    0.000161   0.000003  -0.000019   0.000116   0.000002
   24  C  3  S    0.038467   0.003760   0.007170  -0.009900   0.000778
   25  C  3  X   -0.017554  -0.001796  -0.003632   0.007931  -0.000514
   26  C  3  Y   -0.015797   0.000378   0.001082   0.001733   0.000777
   27  C  3  Z   -0.003046  -0.000177  -0.000613   0.001315  -0.000103
   28  C  4  S    0.981674   0.024565   0.008700   0.036956   0.000149
   29  C  4  S    0.098971   0.002487   0.000741   0.002449   0.000020
   30  C  4  X   -0.000512   0.000215   0.000304   0.000421  -0.000001
   31  C  4  Y    0.001173   0.000018   0.000028  -0.000251  -0.000038
   32  C  4  Z   -0.000077  -0.000003   0.000087   0.000082   0.000004
   33  C  4  S   -0.091546  -0.005090  -0.005868   0.009635  -0.000759
   34  C  4  X    0.009664   0.001504   0.001809  -0.004934   0.000785
   35  C  4  Y   -0.021937  -0.001722  -0.001751   0.005735   0.000348
   36  C  4  Z    0.001400   0.000510   0.000148  -0.000811   0.000130
   37  C  5  S    0.087585   0.014848   0.013136   0.025643  -0.000246
   38  C  5  S    0.004341   0.000732   0.000633   0.001838   0.000069
   39  C  5  X   -0.001371  -0.000166   0.000345   0.000647  -0.000012
   40  C  5  Y   -0.000544  -0.000143   0.000371  -0.000942   0.000000
   41  C  5  Z   -0.000229   0.000203  -0.000046   0.000047  -0.000027
   42  C  5  S    0.030582   0.006398   0.006921  -0.009821  -0.000704
   43  C  5  X    0.015767   0.002427   0.004961  -0.005411   0.001730
   44  C  5  Y    0.013301   0.004824   0.006003  -0.004353  -0.000389
   45  C  5  Z    0.002722  -0.000362   0.001023  -0.000886   0.000267
   46  C  6  S    0.024084   0.063768  -0.016277   0.038275   0.001451
   47  C  6  S    0.002675   0.005116  -0.000719  -0.000313  -0.000120
   48  C  6  X   -0.000745   0.001372   0.001235  -0.001097   0.000148
   49  C  6  Y    0.000659  -0.000371   0.000977  -0.000951   0.000288
   50  C  6  Z   -0.000136  -0.000176   0.000311  -0.000161  -0.000035
   51  C  6  S   -0.015321  -0.005432  -0.001869   0.035875   0.000415
   52  C  6  X   -0.005675  -0.011039  -0.032204   0.011396  -0.001844
   53  C  6  Y    0.000959  -0.000660  -0.011698   0.011659  -0.002909
   54  C  6  Z   -0.000959  -0.001526  -0.004622   0.002479  -0.000111
   55  C  7  S   -0.030214  -0.024492  -0.493869   0.852614  -0.000566
   56  C  7  S   -0.003982  -0.002987  -0.050578   0.085815  -0.000086
   57  C  7  X   -0.000277   0.000379   0.000336   0.001046  -0.000121
   58  C  7  Y    0.000433   0.000358   0.000857  -0.000717   0.000160
   59  C  7  Z   -0.000032  -0.000356   0.000141   0.000198   0.000002
   60  C  7  S    0.012362   0.006059   0.051263  -0.084578   0.001880
   61  C  7  X    0.004622   0.000865   0.004185  -0.014377   0.000339
   62  C  7  Y   -0.004874  -0.005892  -0.017111   0.017302  -0.002504
   63  C  7  Z    0.000687   0.001113   0.000133  -0.002377  -0.000104
   64  C  8  S   -0.027772  -0.029810   0.855246   0.492578   0.010097
   65  C  8  S   -0.003685  -0.004087   0.091871   0.051716   0.000457
   66  C  8  X   -0.000389   0.000025   0.000173   0.000014   0.000421
   67  C  8  Y    0.000254  -0.000271   0.000001  -0.000027  -0.000511
   68  C  8  Z   -0.000157   0.000019   0.000350   0.000071  -0.000335
   69  C  8  S    0.003042   0.013567  -0.092457  -0.041923  -0.000980
   70  C  8  X    0.002136  -0.011205  -0.007264   0.002259  -0.000875
   71  C  8  Y   -0.001934   0.006986   0.000041  -0.003431   0.000672
   72  C  8  Z    0.000895   0.005168  -0.007642  -0.002832   0.001369
   73  C  9  S   -0.029037   0.983884   0.013978   0.031880   0.000186
   74  C  9  S   -0.002957   0.098075   0.000145   0.002070  -0.003807
   75  C  9  X    0.000008   0.000017   0.000184  -0.000151   0.001632
   76  C  9  Y   -0.000133   0.000423   0.000102  -0.000039  -0.001901
   77  C  9  Z    0.000133  -0.000852   0.000119   0.000206   0.000314
   78  C  9  S    0.002548  -0.077833   0.014828   0.008101   0.024784
   79  C  9  X   -0.001276   0.003564   0.010010   0.005375  -0.010054
   80  C  9  Y    0.001711  -0.006966  -0.007333  -0.002901   0.011450
   81  C  9  Z   -0.000988   0.010037  -0.010537  -0.007335  -0.001029
   82  C 10  S    0.000143  -0.000470  -0.009066  -0.004656   0.986757
   83  C 10  S    0.000186  -0.004089  -0.001766  -0.000966   0.096310
   84  C 10  X   -0.000003  -0.001394  -0.000499  -0.000259   0.000137
   85  C 10  Y    0.000023   0.001509   0.000292   0.000382  -0.000165
   86  C 10  Z    0.000030   0.000121   0.000153   0.000130   0.000026
   87  C 10  S   -0.002310   0.028426   0.005271   0.002156  -0.069689
   88  C 10  X   -0.000750   0.010947   0.001680   0.000412  -0.005522
   89  C 10  Y    0.000751  -0.011034  -0.002324  -0.001503   0.006393
   90  C 10  Z    0.000038  -0.003724   0.002886   0.001649  -0.000732
   91  O 11  S   -0.000035  -0.000004  -0.000000   0.000022  -0.000002
   92  O 11  S   -0.000520  -0.000048   0.000011   0.000092  -0.000019
   93  O 11  X    0.000206   0.000014  -0.000042   0.000168  -0.000002
   94  O 11  Y   -0.000151   0.000001   0.000087  -0.000123   0.000014
   95  O 11  Z    0.000032   0.000006  -0.000009   0.000027  -0.000001
   96  O 11  S    0.002669   0.000244   0.000282  -0.001593   0.000100
   97  O 11  X   -0.000610  -0.000036   0.000186  -0.000147  -0.000002
   98  O 11  Y    0.001755  -0.000020  -0.000443   0.000583  -0.000105
   99  O 11  Z   -0.000084  -0.000027   0.000035  -0.000019   0.000004
  100  H 12  S   -0.000350   0.000001   0.000107  -0.000462   0.000017
  101  H 12  S   -0.000011   0.000010   0.000071  -0.000292   0.000001
  102  H 13  S    0.000054   0.000029  -0.000009  -0.000186   0.000046
  103  H 13  S    0.000754  -0.000052   0.000514   0.000135  -0.000099
  104  H 14  S   -0.000325  -0.000079   0.000114  -0.000438   0.000023
  105  H 14  S   -0.000104  -0.000057  -0.000005  -0.000261   0.000000
  106  H 15  S   -0.002228  -0.000147  -0.000085   0.000104   0.000026
  107  H 15  S    0.006085  -0.000064  -0.000068   0.002652   0.000014
  108  H 16  S   -0.000145   0.000231   0.000598  -0.000422   0.000112
  109  H 16  S    0.005347   0.001644   0.001376  -0.000956   0.000178
  110  H 17  S    0.000204  -0.000157   0.001128  -0.002105  -0.000078
  111  H 17  S    0.001269   0.002803  -0.001103   0.005395   0.001441
  112  H 18  S    0.000082  -0.001047   0.001111   0.000438  -0.000159
  113  H 18  S    0.000369  -0.001860   0.011496   0.007691   0.000575
  114  H 19  S   -0.000514  -0.000928   0.001645   0.000148   0.000068
  115  H 19  S   -0.000453   0.002314   0.013029   0.007015   0.000681
  116  H 20  S    0.000201  -0.001548  -0.000834  -0.000434  -0.000982
  117  H 20  S    0.000394   0.009377   0.001334   0.001915   0.001408
  118  H 21  S    0.000063  -0.001651   0.000279   0.000201  -0.001302
  119  H 21  S    0.000069  -0.001026   0.000571   0.000405   0.012012
  120  H 22  S    0.000058  -0.000566  -0.000537  -0.000308  -0.001317
  121  H 22  S   -0.000050   0.002541   0.000031   0.000089   0.012201
  122  H 23  S    0.000178  -0.000000  -0.000127   0.000204  -0.000023
  123  H 23  S    0.000491   0.000059   0.000089  -0.000002   0.000014

                     11         12         13         14         15
                  -11.1586    -1.3964    -1.1546    -1.0794    -1.0423
                     A          A          A          A          A   
    1  C  1  S    0.987535  -0.004596  -0.030427   0.039493  -0.101422
    2  C  1  S    0.102075   0.006792   0.033230  -0.039099   0.098544
    3  C  1  X    0.000076  -0.000316  -0.012126   0.008951  -0.021628
    4  C  1  Y   -0.000106  -0.002298  -0.020317   0.019747  -0.036049
    5  C  1  Z    0.000027  -0.000221  -0.002170   0.001691  -0.003965
    6  C  1  S   -0.084395  -0.036365   0.052170  -0.095136   0.267377
    7  C  1  X    0.002961   0.015459   0.002287   0.000136  -0.002994
    8  C  1  Y    0.005616   0.011088   0.011978  -0.000621  -0.006562
    9  C  1  Z    0.000482   0.003729   0.000347  -0.000142  -0.000158
   10  C  2  S    0.003876  -0.017596  -0.093418   0.070150  -0.115523
   11  C  2  S   -0.001195   0.022922   0.103735  -0.074728   0.123234
   12  C  2  X   -0.000175   0.011194  -0.029097  -0.009249  -0.000450
   13  C  2  Y   -0.000821  -0.017250  -0.039577   0.017682   0.031069
   14  C  2  Z   -0.000025   0.001734  -0.005062  -0.001322   0.000294
   15  C  2  S    0.016377  -0.042116   0.173769  -0.153932   0.261826
   16  C  2  X    0.004637   0.059151   0.017540   0.000455   0.006176
   17  C  2  Y    0.016921   0.075360   0.006466  -0.001379  -0.000051
   18  C  2  Z    0.000853   0.010071   0.003085   0.000010   0.001113
   19  C  3  S    0.001189  -0.083771  -0.070526   0.056402  -0.007007
   20  C  3  S   -0.000518   0.087667   0.083638  -0.064632   0.008141
   21  C  3  X   -0.000325   0.086240  -0.075192   0.044638   0.001285
   22  C  3  Y   -0.001073   0.001951   0.002442  -0.014520   0.107242
   23  C  3  Z   -0.000076   0.014253  -0.012445   0.007260   0.001146
   24  C  3  S    0.000039   0.158453   0.137369  -0.124188   0.025286
   25  C  3  X   -0.000403  -0.123568  -0.036287   0.028130  -0.010812
   26  C  3  Y    0.007097  -0.001875  -0.019419   0.010672   0.000428
   27  C  3  Z    0.000039  -0.020390  -0.006301   0.005026  -0.001815
   28  C  4  S    0.003500  -0.018142  -0.083064   0.038482   0.096804
   29  C  4  S   -0.000649   0.024544   0.095140  -0.042745  -0.101994
   30  C  4  X   -0.000046   0.010441  -0.034706  -0.007353   0.046534
   31  C  4  Y   -0.000351   0.017480   0.041964  -0.027887  -0.001195
   32  C  4  Z   -0.000006   0.001891  -0.005369  -0.001370   0.007727
   33  C  4  S    0.006196  -0.050878   0.131139  -0.064718  -0.233868
   34  C  4  X    0.001211   0.071757  -0.004820   0.004816  -0.000425
   35  C  4  Y    0.004989  -0.048902  -0.005874   0.005816  -0.023241
   36  C  4  Z    0.000221   0.011320  -0.000780   0.000435  -0.000429
   37  C  5  S    0.000629  -0.004263  -0.094700  -0.006717   0.108443
   38  C  5  S    0.000033   0.002060   0.105869   0.008397  -0.117012
   39  C  5  X   -0.000114   0.005729   0.016186  -0.040538  -0.034479
   40  C  5  Y   -0.000082   0.003143   0.052480   0.010896  -0.018864
   41  C  5  Z   -0.000019   0.000961   0.003227  -0.006142  -0.005611
   42  C  5  S   -0.002119   0.075934   0.187846  -0.000216  -0.243137
   43  C  5  X   -0.000196   0.033090   0.010375  -0.010236  -0.012109
   44  C  5  Y   -0.002837   0.019149   0.020005  -0.017576  -0.005119
   45  C  5  Z   -0.000045   0.005726   0.001993  -0.000112  -0.001290
   46  C  6  S    0.002162  -0.001671  -0.108016  -0.058740   0.038463
   47  C  6  S   -0.000374   0.004224   0.119607   0.064252  -0.039095
   48  C  6  X   -0.000423   0.003925   0.042953  -0.054355  -0.028307
   49  C  6  Y   -0.000264   0.000279   0.002108  -0.004747   0.064455
   50  C  6  Z   -0.000073   0.000677   0.007867  -0.004704  -0.002237
   51  C  6  S    0.002165  -0.023159   0.192195   0.122641  -0.100481
   52  C  6  X    0.004415  -0.036392  -0.003615   0.040425  -0.001746
   53  C  6  Y    0.000210  -0.006259   0.002088   0.004965   0.006864
   54  C  6  Z    0.000686  -0.006250  -0.001335   0.004033  -0.000516
   55  C  7  S    0.005664  -0.004236  -0.098372   0.010252  -0.056772
   56  C  7  S   -0.000060   0.002643   0.109836  -0.010780   0.061152
   57  C  7  X   -0.000454   0.006125   0.024692  -0.055712   0.056222
   58  C  7  Y   -0.000502  -0.002299  -0.047103  -0.019032   0.033912
   59  C  7  Z   -0.000100   0.000991   0.003678  -0.008369   0.009980
   60  C  7  S   -0.001154   0.073539   0.200421  -0.032795   0.130944
   61  C  7  X    0.000420   0.026551   0.019939  -0.006577   0.002891
   62  C  7  Y   -0.000436  -0.023434  -0.017768   0.021299   0.000782
   63  C  7  Z    0.000149   0.004137   0.003105   0.000380   0.000555
   64  C  8  S    0.001471  -0.000010  -0.049871  -0.123887  -0.012829
   65  C  8  S   -0.000234   0.001157   0.048333   0.113123   0.012098
   66  C  8  X    0.000024  -0.000507   0.023598  -0.006655  -0.025004
   67  C  8  Y   -0.000040  -0.000106   0.003373   0.017975   0.016705
   68  C  8  Z   -0.000028  -0.000113   0.009397   0.031054   0.010011
   69  C  8  S    0.002610  -0.017044   0.119138   0.359029   0.035942
   70  C  8  X    0.001462  -0.007405  -0.005273   0.019781   0.000809
   71  C  8  Y    0.000111   0.001510   0.002238   0.002342   0.000821
   72  C  8  Z    0.000440  -0.000820   0.008810   0.021768   0.000904
   73  C  9  S    0.000627  -0.000027  -0.025116  -0.128169  -0.051552
   74  C  9  S   -0.000031   0.000195   0.029966   0.140993   0.055023
   75  C  9  X   -0.000043   0.000142   0.008690  -0.009117  -0.018571
   76  C  9  Y   -0.000022  -0.000169  -0.001268   0.023818   0.022036
   77  C  9  Z    0.000049  -0.000105  -0.011830  -0.035977  -0.006260
   78  C  9  S    0.000057   0.000443   0.040203   0.261583   0.117862
   79  C  9  X   -0.000262   0.000152  -0.011307  -0.019155  -0.001179
   80  C  9  Y    0.000252   0.000465   0.008551   0.017546   0.003918
   81  C  9  Z   -0.000065  -0.000088   0.007256  -0.001992  -0.006925
   82  C 10  S    0.000078   0.000008  -0.011808  -0.089168  -0.047067
   83  C 10  S    0.000013   0.000089   0.013936   0.099973   0.051607
   84  C 10  X   -0.000010  -0.000003   0.007943   0.047816   0.021562
   85  C 10  Y    0.000014  -0.000047  -0.008299  -0.052525  -0.024244
   86  C 10  Z    0.000007  -0.000050  -0.000802  -0.001374   0.000981
   87  C 10  S   -0.000272  -0.000417   0.013413   0.168433   0.101879
   88  C 10  X   -0.000085  -0.000310  -0.000691   0.000473   0.002207
   89  C 10  Y    0.000094   0.000330   0.004746   0.001740  -0.003512
   90  C 10  Z   -0.000049   0.000363  -0.004292  -0.001958   0.003152
   91  O 11  S    0.000003  -0.221707   0.039183  -0.026470   0.002853
   92  O 11  S   -0.000090   0.198243  -0.037806   0.025657  -0.002549
   93  O 11  X    0.000132  -0.048865  -0.019076   0.023936  -0.012476
   94  O 11  Y   -0.000091  -0.061606   0.017254  -0.017124   0.027219
   95  O 11  Z    0.000003  -0.009193  -0.002863   0.003712  -0.001798
   96  O 11  S   -0.000177   0.735485  -0.131397   0.091549  -0.007323
   97  O 11  X   -0.000236  -0.091869  -0.011678   0.018314  -0.009798
   98  O 11  Y   -0.000463  -0.074787   0.018579  -0.017210   0.023087
   99  O 11  Z    0.000007  -0.016576  -0.001632   0.002756  -0.001460
  100  H 12  S    0.000428   0.002046   0.012989  -0.018042   0.047381
  101  H 12  S    0.014170   0.002890  -0.005499   0.003519  -0.003940
  102  H 13  S    0.000339   0.002848   0.013467  -0.017228   0.049304
  103  H 13  S    0.014191   0.004594  -0.004008   0.001555   0.002188
  104  H 14  S    0.000435   0.001998   0.012975  -0.017935   0.047370
  105  H 14  S    0.014213   0.001030  -0.005290   0.003654  -0.004425
  106  H 15  S   -0.000020   0.001547   0.027601  -0.014933  -0.047376
  107  H 15  S    0.001173  -0.025455  -0.008351   0.001116  -0.012495
  108  H 16  S   -0.000271   0.001047   0.033884   0.006172  -0.051555
  109  H 16  S   -0.000595   0.003686   0.000676  -0.001137  -0.007710
  110  H 17  S    0.000149   0.001376   0.036031   0.000065   0.032801
  111  H 17  S   -0.000323   0.004820   0.001052  -0.006569   0.007481
  112  H 18  S   -0.000123   0.000441   0.020796   0.056892   0.009327
  113  H 18  S    0.000131   0.000153  -0.004500   0.000216   0.003156
  114  H 19  S   -0.000134   0.000350   0.020756   0.054437   0.002059
  115  H 19  S    0.000162   0.002425  -0.004034  -0.006373  -0.005807
  116  H 20  S    0.000014   0.000059   0.011319   0.057315   0.022923
  117  H 20  S    0.000089   0.000029  -0.001171   0.002098   0.002295
  118  H 21  S   -0.000001   0.000077   0.004660   0.039433   0.021808
  119  H 21  S   -0.000015  -0.000020  -0.001715   0.001645   0.003096
  120  H 22  S    0.000012  -0.000024   0.004485   0.036189   0.020645
  121  H 22  S    0.000009  -0.000244  -0.000305  -0.002949  -0.000315
  122  H 23  S   -0.000007   0.099374  -0.029563   0.026252  -0.017501
  123  H 23  S    0.000375   0.022427  -0.011061   0.010185  -0.006410

                     16         17         18         19         20
                   -1.0093    -0.9340    -0.9185    -0.8375    -0.7880
                     A          A          A          A          A   
    1  C  1  S    0.003303  -0.142794   0.072893  -0.037843  -0.052876
    2  C  1  S   -0.003989   0.134729  -0.066766   0.034813   0.048685
    3  C  1  X   -0.006266   0.011515   0.004121  -0.017494   0.051380
    4  C  1  Y    0.005703   0.004654  -0.016564   0.044520   0.060447
    5  C  1  Z   -0.001048   0.001907   0.000598  -0.002442   0.008880
    6  C  1  S   -0.003599   0.437761  -0.243759   0.136117   0.179125
    7  C  1  X   -0.001470  -0.000026   0.005699  -0.017025   0.022853
    8  C  1  Y   -0.004757   0.000684   0.007160   0.016502   0.036982
    9  C  1  Z   -0.000031  -0.000054   0.000611  -0.002736   0.003431
   10  C  2  S    0.008513   0.013365  -0.018724   0.037420   0.087070
   11  C  2  S   -0.008454  -0.013810   0.020866  -0.040690  -0.089166
   12  C  2  X   -0.059044   0.107972   0.033991  -0.118594   0.081240
   13  C  2  Y    0.036922   0.090717  -0.096324   0.099288   0.000802
   14  C  2  Z   -0.009524   0.018381   0.004785  -0.018688   0.012558
   15  C  2  S   -0.036498  -0.041925   0.047682  -0.102109  -0.293477
   16  C  2  X   -0.014179   0.040630   0.037185  -0.053883   0.079893
   17  C  2  Y    0.003775   0.013961  -0.001539   0.019215   0.017818
   18  C  2  Z   -0.002353   0.006789   0.006197  -0.008503   0.013060
   19  C  3  S    0.085119   0.013500  -0.099358   0.050536  -0.056379
   20  C  3  S   -0.096798  -0.014547   0.110028  -0.054562   0.060589
   21  C  3  X    0.049952   0.024649  -0.031551  -0.021535   0.054865
   22  C  3  Y    0.048423  -0.001445   0.000316  -0.193849  -0.103941
   23  C  3  Z    0.008734   0.004032  -0.005264  -0.005266   0.008005
   24  C  3  S   -0.189870  -0.036534   0.272088  -0.177541   0.190986
   25  C  3  X    0.034976   0.010478  -0.061677   0.038929  -0.027181
   26  C  3  Y    0.026062  -0.011048  -0.023374  -0.078949  -0.081828
   27  C  3  Z    0.005937   0.001525  -0.010450   0.005769  -0.005681
   28  C  4  S    0.102645  -0.023562  -0.010234  -0.100434  -0.006818
   29  C  4  S   -0.110055   0.026263   0.013057   0.101262   0.010663
   30  C  4  X   -0.018955  -0.027581   0.095516   0.060781   0.122525
   31  C  4  Y   -0.041476  -0.028351   0.067498  -0.030950   0.077912
   32  C  4  Z   -0.003627  -0.004874   0.016357   0.009809   0.020350
   33  C  4  S   -0.239575   0.049371   0.004204   0.332954  -0.023843
   34  C  4  X    0.005455  -0.006346   0.027122   0.023325   0.059213
   35  C  4  Y   -0.004370  -0.020585  -0.003726   0.013002   0.002290
   36  C  4  Z    0.001346  -0.001186   0.004438   0.003845   0.010064
   37  C  5  S    0.000337  -0.051106   0.094883   0.059411   0.062418
   38  C  5  S   -0.000838   0.053717  -0.099902  -0.062605  -0.065243
   39  C  5  X   -0.084614  -0.003905   0.003422   0.113894  -0.049637
   40  C  5  Y    0.039217  -0.023409  -0.011975  -0.045856   0.093827
   41  C  5  Z   -0.013877  -0.000987   0.000549   0.018731  -0.009202
   42  C  5  S    0.006499   0.138846  -0.250200  -0.186105  -0.182397
   43  C  5  X   -0.004228  -0.005566  -0.009085   0.035077  -0.011323
   44  C  5  Y    0.008592  -0.002498  -0.006667  -0.028082   0.054090
   45  C  5  Z   -0.002089  -0.000860  -0.001227   0.006143  -0.004441
   46  C  6  S   -0.102605   0.005834   0.023472   0.040768  -0.091205
   47  C  6  S    0.106463  -0.005411  -0.023681  -0.042357   0.092143
   48  C  6  X    0.007083  -0.070093  -0.101732  -0.030766   0.000106
   49  C  6  Y    0.032321  -0.095623   0.040944   0.126936   0.074705
   50  C  6  Z   -0.001798  -0.012929  -0.016634  -0.002649  -0.007414
   51  C  6  S    0.247275  -0.024772  -0.074118  -0.117038   0.294333
   52  C  6  X   -0.007664  -0.018000  -0.011284  -0.009725  -0.017814
   53  C  6  Y    0.007561  -0.022887   0.015906   0.048809   0.050303
   54  C  6  Z   -0.001313  -0.004965  -0.004191  -0.001254  -0.004474
   55  C  7  S   -0.083701   0.106739   0.021791  -0.077713   0.004742
   56  C  7  S    0.089833  -0.113270  -0.022818   0.080408  -0.005329
   57  C  7  X   -0.034947  -0.017107   0.003156  -0.024954  -0.161750
   58  C  7  Y   -0.037728   0.028639   0.004955   0.056241  -0.096418
   59  C  7  Z   -0.006991  -0.002657   0.000410  -0.003177  -0.029939
   60  C  7  S    0.192306  -0.270074  -0.044380   0.232675   0.008904
   61  C  7  X    0.007547  -0.002145   0.006246  -0.010047  -0.032289
   62  C  7  Y   -0.010900   0.022965   0.002553   0.026729  -0.033228
   63  C  7  Z    0.000322   0.000035   0.001228  -0.001558  -0.007960
   64  C  8  S   -0.032109  -0.079647  -0.113465  -0.023045   0.022344
   65  C  8  S    0.028449   0.071964   0.100827   0.020753  -0.019730
   66  C  8  X    0.062333   0.001709  -0.012200  -0.030852   0.097210
   67  C  8  Y   -0.012619  -0.023307  -0.003365   0.029356   0.021201
   68  C  8  Z   -0.015178  -0.004012  -0.005221   0.002112  -0.026878
   69  C  8  S    0.102104   0.260918   0.385545   0.081416  -0.087149
   70  C  8  X    0.005446   0.000317   0.000280  -0.012198   0.037118
   71  C  8  Y    0.002481  -0.008420   0.001491   0.017974   0.015561
   72  C  8  Z    0.006593   0.006659   0.009517  -0.000268  -0.010316
   73  C  9  S    0.085872   0.012414   0.010160  -0.011299   0.051473
   74  C  9  S   -0.090326  -0.012307  -0.010139   0.011271  -0.051052
   75  C  9  X    0.062247   0.051684   0.080336   0.026914  -0.030766
   76  C  9  Y   -0.059010  -0.053512  -0.077631  -0.022031   0.055244
   77  C  9  Z   -0.007447  -0.029016  -0.047890  -0.018751   0.004841
   78  C  9  S   -0.208134  -0.042380  -0.038230   0.032906  -0.163525
   79  C  9  X   -0.002259   0.003966   0.008590   0.011167  -0.020760
   80  C  9  Y   -0.001650  -0.009030  -0.012508  -0.008287   0.031562
   81  C  9  Z    0.013612   0.001443  -0.002718  -0.006983   0.003789
   82  C 10  S    0.102810   0.059384   0.087639   0.028087  -0.054211
   83  C 10  S   -0.111474  -0.062821  -0.092615  -0.029580   0.055300
   84  C 10  X   -0.038953  -0.010274  -0.009870   0.008380  -0.032692
   85  C 10  Y    0.046554   0.012776   0.014928  -0.005833   0.043057
   86  C 10  Z   -0.005776  -0.008822  -0.014685  -0.006698   0.000036
   87  C 10  S   -0.243071  -0.156374  -0.236634  -0.080926   0.168904
   88  C 10  X   -0.005887  -0.003400  -0.002876   0.005314  -0.013045
   89  C 10  Y    0.013016   0.004470   0.006398  -0.003118   0.023289
   90  C 10  Z   -0.010347  -0.007133  -0.010611  -0.002339  -0.004840
   91  O 11  S   -0.036729   0.001823   0.032271   0.001636   0.023982
   92  O 11  S    0.036075  -0.001200  -0.033362  -0.000086  -0.026518
   93  O 11  X    0.045295  -0.004015  -0.080533   0.094304  -0.112996
   94  O 11  Y   -0.012329   0.011926   0.026296  -0.108919   0.013041
   95  O 11  Z    0.007193  -0.000604  -0.012793   0.014273  -0.018390
   96  O 11  S    0.131089  -0.005212  -0.112700  -0.014507  -0.080014
   97  O 11  X    0.038717  -0.002741  -0.076082   0.089540  -0.115512
   98  O 11  Y   -0.015273   0.013291   0.025492  -0.097012   0.016418
   99  O 11  Z    0.006114  -0.000431  -0.012063   0.013642  -0.018759
  100  H 12  S   -0.003793   0.085434  -0.040769   0.018641   0.054327
  101  H 12  S    0.000320   0.014088  -0.007935   0.004667   0.024490
  102  H 13  S    0.001864   0.080786  -0.049614   0.047858   0.041464
  103  H 13  S    0.004437   0.010155  -0.014861   0.023068   0.013014
  104  H 14  S   -0.003408   0.084936  -0.041403   0.021004   0.053077
  105  H 14  S    0.000080   0.013952  -0.007771   0.006150   0.024877
  106  H 15  S   -0.053210   0.019879   0.004228   0.104549   0.005239
  107  H 15  S   -0.009893   0.003563  -0.006777   0.060161  -0.006361
  108  H 16  S    0.001357   0.043679  -0.059142  -0.049739  -0.079922
  109  H 16  S    0.003869   0.018192  -0.018615  -0.023715  -0.040183
  110  H 17  S    0.045299  -0.054797  -0.013145   0.085590   0.000337
  111  H 17  S    0.012240  -0.013180  -0.006879   0.038529   0.006849
  112  H 18  S    0.013738   0.040809   0.067087   0.024574  -0.006851
  113  H 18  S   -0.002584   0.004233   0.012003   0.009453  -0.000797
  114  H 19  S    0.015636   0.056152   0.067749   0.003384  -0.039527
  115  H 19  S    0.003780   0.013553   0.011139  -0.003809  -0.020506
  116  H 20  S   -0.039289  -0.005055  -0.004503   0.006364  -0.050728
  117  H 20  S   -0.005316  -0.002553  -0.003176   0.001390  -0.022915
  118  H 21  S   -0.049489  -0.032103  -0.048635  -0.019392   0.054274
  119  H 21  S   -0.008865  -0.007596  -0.011940  -0.006042   0.024640
  120  H 22  S   -0.049468  -0.036795  -0.057604  -0.025718   0.057199
  121  H 22  S   -0.002913  -0.009112  -0.016025  -0.011206   0.030438
  122  H 23  S    0.035666  -0.007068  -0.053660   0.087580  -0.056630
  123  H 23  S    0.015822  -0.003684  -0.026411   0.047575  -0.038241

                     21         22         23         24         25
                   -0.7537    -0.7223    -0.6771    -0.6428    -0.6186
                     A          A          A          A          A   
    1  C  1  S   -0.018409  -0.015501  -0.008270  -0.008773   0.004525
    2  C  1  S    0.016257   0.013376   0.005137   0.005526   0.000246
    3  C  1  X    0.028266   0.008058   0.079557  -0.030914  -0.016288
    4  C  1  Y    0.028810   0.022965   0.006674   0.102495  -0.092764
    5  C  1  Z    0.005714   0.002189   0.012258  -0.005545  -0.002342
    6  C  1  S    0.069198   0.066699   0.049860   0.054843  -0.049469
    7  C  1  X    0.014413  -0.001607   0.055021  -0.029115  -0.013360
    8  C  1  Y    0.014421   0.016337  -0.011746   0.059026  -0.035136
    9  C  1  Z    0.002882  -0.000020   0.008907  -0.005553  -0.002810
   10  C  2  S    0.035789  -0.023864   0.017469   0.042858  -0.040221
   11  C  2  S   -0.036262   0.025197  -0.013786  -0.045156   0.037743
   12  C  2  X    0.030584  -0.020076   0.089039  -0.121788   0.085114
   13  C  2  Y   -0.012331  -0.059428  -0.086671   0.028745   0.019341
   14  C  2  Z    0.008009  -0.003940   0.012315  -0.021824   0.014243
   15  C  2  S   -0.118918   0.086531  -0.091247  -0.113602   0.158312
   16  C  2  X    0.023612  -0.028817   0.018310  -0.079733   0.099700
   17  C  2  Y   -0.006170  -0.052785  -0.053481  -0.014813   0.029457
   18  C  2  Z    0.005549  -0.005338   0.001479  -0.014449   0.017393
   19  C  3  S   -0.015187  -0.000022   0.026849  -0.026515  -0.007385
   20  C  3  S    0.016641   0.003654  -0.028073   0.029761   0.008268
   21  C  3  X    0.024104  -0.197217  -0.068776   0.079430  -0.013637
   22  C  3  Y   -0.017038  -0.071722   0.130033  -0.127569   0.032853
   23  C  3  Z    0.005213  -0.033716  -0.011389   0.010918  -0.002646
   24  C  3  S    0.051590  -0.015858  -0.083352   0.071338   0.021299
   25  C  3  X   -0.001228  -0.080066  -0.003298   0.052062  -0.051054
   26  C  3  Y   -0.013828  -0.046726   0.142536  -0.106446  -0.041103
   27  C  3  Z    0.000793  -0.013946  -0.000257   0.006690  -0.009879
   28  C  4  S    0.008803   0.014287  -0.020667   0.033439   0.012894
   29  C  4  S   -0.007939  -0.012456   0.019748  -0.031003  -0.012957
   30  C  4  X    0.009315   0.030383  -0.179858  -0.028204   0.127685
   31  C  4  Y    0.035071   0.155045  -0.031292   0.159136  -0.079532
   32  C  4  Z    0.004607   0.006339  -0.031252  -0.004867   0.019864
   33  C  4  S   -0.036110  -0.056630   0.122942  -0.133785  -0.093601
   34  C  4  X   -0.000105   0.009510  -0.119151  -0.054088   0.119350
   35  C  4  Y    0.015114   0.097169   0.020413   0.116862  -0.095130
   36  C  4  Z    0.000982   0.002370  -0.020279  -0.009110   0.018842
   37  C  5  S    0.005880   0.027354   0.004070  -0.039253   0.000453
   38  C  5  S   -0.004663  -0.025889  -0.000131   0.044375  -0.006141
   39  C  5  X   -0.010617  -0.041154   0.207408  -0.040540  -0.135292
   40  C  5  Y    0.056880   0.144131   0.025733   0.061016  -0.072039
   41  C  5  Z    0.007429  -0.005417   0.031635  -0.010121  -0.023204
   42  C  5  S   -0.035171  -0.106694  -0.052147   0.096343   0.054443
   43  C  5  X   -0.002907  -0.006304   0.102055  -0.041505  -0.056234
   44  C  5  Y    0.021861   0.082194   0.020521   0.009866  -0.047767
   45  C  5  Z    0.008532  -0.000250   0.014327  -0.010256  -0.011156
   46  C  6  S   -0.029257  -0.024594   0.008702   0.036578  -0.035767
   47  C  6  S    0.031179   0.027142  -0.006902  -0.036110   0.034145
   48  C  6  X    0.059139   0.044515   0.070319   0.120531  -0.053443
   49  C  6  Y    0.029390  -0.075337   0.158405  -0.085904  -0.003690
   50  C  6  Z    0.038401   0.006399   0.005880   0.011227  -0.007680
   51  C  6  S    0.107894   0.082347  -0.032251  -0.114585   0.131772
   52  C  6  X    0.044105   0.031881   0.058545   0.123971  -0.056608
   53  C  6  Y    0.013300  -0.044921   0.098017  -0.051166  -0.000010
   54  C  6  Z    0.022884   0.004451   0.005777   0.013249  -0.006948
   55  C  7  S   -0.001035   0.051164   0.003345  -0.022434   0.024666
   56  C  7  S    0.001065  -0.050283  -0.001068   0.025390  -0.026455
   57  C  7  X   -0.060934   0.094611  -0.085625   0.056897  -0.024625
   58  C  7  Y   -0.062264  -0.091519  -0.127939   0.066046  -0.026341
   59  C  7  Z   -0.000914   0.014277  -0.018402   0.006195  -0.003669
   60  C  7  S    0.004752  -0.193157  -0.037753   0.059756  -0.063809
   61  C  7  X   -0.022699   0.050417  -0.042568   0.007809   0.005681
   62  C  7  Y   -0.019448  -0.061580  -0.074280   0.073763  -0.023413
   63  C  7  Z    0.004510   0.007935  -0.010781  -0.002090   0.000299
   64  C  8  S    0.059444  -0.005962  -0.009804   0.002991   0.025347
   65  C  8  S   -0.053463   0.003971   0.007970  -0.003547  -0.017982
   66  C  8  X   -0.008214  -0.004634  -0.075570  -0.144012   0.070885
   67  C  8  Y    0.027603  -0.030074   0.119700   0.028686   0.142714
   68  C  8  Z    0.127836  -0.001556  -0.029743  -0.031079   0.030086
   69  C  8  S   -0.229889   0.026551   0.046815   0.012162  -0.132056
   70  C  8  X    0.008325  -0.004758  -0.040748  -0.075915   0.050997
   71  C  8  Y    0.011325  -0.020202   0.084043   0.020999   0.109068
   72  C  8  Z    0.071488   0.000615  -0.027429  -0.028941   0.017920
   73  C  9  S   -0.113831   0.001381  -0.004068  -0.016767  -0.021222
   74  C  9  S    0.115163  -0.001090   0.005711   0.017688   0.026089
   75  C  9  X    0.036031  -0.004929   0.005256  -0.041719  -0.037342
   76  C  9  Y   -0.059545  -0.007190   0.033727   0.051710   0.130015
   77  C  9  Z    0.106118   0.003285  -0.104419  -0.131556  -0.102804
   78  C  9  S    0.393352  -0.006124   0.003954   0.048252   0.066316
   79  C  9  X    0.026515  -0.006109   0.002790  -0.020012  -0.021922
   80  C  9  Y   -0.038766  -0.002950   0.022575   0.030881   0.087903
   81  C  9  Z    0.054992   0.004333  -0.070328  -0.097865  -0.081117
   82  C 10  S    0.084680  -0.003312   0.010139   0.011884   0.007686
   83  C 10  S   -0.084505   0.003958  -0.009095  -0.008746  -0.001837
   84  C 10  X    0.087162  -0.007390   0.042984   0.084970   0.144241
   85  C 10  Y   -0.109589   0.001913  -0.020921  -0.070993  -0.096462
   86  C 10  Z    0.056856   0.002788  -0.077703  -0.124356  -0.126910
   87  C 10  S   -0.290983   0.008952  -0.040093  -0.057355  -0.061752
   88  C 10  X    0.037356  -0.007106   0.026878   0.049286   0.089277
   89  C 10  Y   -0.049811   0.001160  -0.011526  -0.042286  -0.047286
   90  C 10  Z    0.038965   0.000875  -0.050329  -0.085866  -0.093652
   91  O 11  S    0.002911   0.010242  -0.033145   0.007053   0.030139
   92  O 11  S   -0.003957  -0.008256   0.035233  -0.010619  -0.029301
   93  O 11  X   -0.044466   0.214998   0.092945  -0.133130   0.025792
   94  O 11  Y    0.020936  -0.172336   0.115368  -0.019644  -0.132287
   95  O 11  Z   -0.006176   0.032605   0.015219  -0.022452   0.001132
   96  O 11  S   -0.007316  -0.050608   0.124489  -0.023037  -0.119787
   97  O 11  X   -0.045113   0.212089   0.106967  -0.143577   0.015800
   98  O 11  Y    0.020672  -0.164354   0.112501  -0.018475  -0.136595
   99  O 11  Z   -0.006379   0.032267   0.017481  -0.024196  -0.000618
  100  H 12  S    0.023212   0.013412   0.037201  -0.001983  -0.013714
  101  H 12  S    0.012548   0.003341   0.030654  -0.002091  -0.018411
  102  H 13  S    0.013821   0.015021  -0.024881   0.070516  -0.042971
  103  H 13  S    0.005721   0.002088  -0.017921   0.058475  -0.045272
  104  H 14  S    0.022999   0.014998   0.031583   0.002053  -0.014298
  105  H 14  S    0.012738   0.004513   0.025270   0.001975  -0.017601
  106  H 15  S   -0.020734  -0.073033  -0.024621  -0.129589   0.080384
  107  H 15  S   -0.013829  -0.042630  -0.016070  -0.090410   0.060817
  108  H 16  S   -0.030498  -0.084377  -0.075348   0.016153   0.077431
  109  H 16  S   -0.022901  -0.050552  -0.056452  -0.003361   0.060132
  110  H 17  S   -0.009851  -0.114314  -0.037083   0.040223  -0.028317
  111  H 17  S   -0.011030  -0.065352  -0.024533   0.016541  -0.015166
  112  H 18  S   -0.093623  -0.004121   0.070669   0.044798   0.003096
  113  H 18  S   -0.052250  -0.005174   0.047141   0.036709   0.003780
  114  H 19  S   -0.065008   0.019739  -0.051306   0.007900  -0.122894
  115  H 19  S   -0.035460   0.009759  -0.042658   0.009295  -0.093077
  116  H 20  S    0.156193   0.002050  -0.058876  -0.074354  -0.076350
  117  H 20  S    0.081860   0.000336  -0.040803  -0.055070  -0.060466
  118  H 21  S   -0.129370   0.002643   0.022118   0.028040   0.019898
  119  H 21  S   -0.075454   0.000308   0.018652   0.022421   0.010708
  120  H 22  S   -0.087089   0.006676  -0.061686  -0.112673  -0.138656
  121  H 22  S   -0.050151   0.003936  -0.043850  -0.086831  -0.112784
  122  H 23  S   -0.028560   0.163753  -0.018781  -0.043763   0.077898
  123  H 23  S   -0.019826   0.111520  -0.001821  -0.050810   0.062484

                     26         27         28         29         30
                   -0.6029    -0.5980    -0.5877    -0.5720    -0.5528
                     A          A          A          A          A   
    1  C  1  S   -0.002929  -0.000110  -0.000151   0.007484   0.005274
    2  C  1  S    0.002662   0.000016  -0.000139  -0.001298  -0.008308
    3  C  1  X    0.059116  -0.018859  -0.023812  -0.169582   0.125290
    4  C  1  Y    0.033671   0.001829  -0.000045  -0.140667  -0.016526
    5  C  1  Z    0.005221   0.120657   0.133451  -0.035424   0.011736
[...]

                     31         32         33         34         35

                  2.000000   2.000000   2.000000   2.000000   2.000000

    1             0.465497   0.733223   0.343945   0.051702   0.103633
    2             0.188119   0.045966   0.104628   0.036770   0.101657
    3             0.026545   0.081883   0.088649   0.013384   0.026562
    4             0.013886   0.021638   0.056636   0.049377   0.141829
    5             0.049697   0.006046   0.041159   0.094462   0.165092
    6             0.104580   0.009101   0.044734   0.165814   0.275855
    7             0.084176   0.012931   0.105405   0.090119   0.122568
    8             0.184646   0.013151   0.358988   0.194717   0.346970
    9             0.025748   0.002441   0.085706   0.321295   0.122834
   10             0.008017   0.000876   0.071016   0.268578   0.140195
   11             0.367178   0.558239   0.066309   0.078050   0.132563
   12             0.000278   0.254178   0.058215   0.030787   0.019805
   13             0.283372   0.008491   0.190044   0.019093   0.034104
   14             0.055116   0.242859   0.041912   0.000059   0.028143
   15             0.001166   0.000078   0.001434   0.009318   0.033459
   16             0.014443   0.000498   0.003211   0.000501   0.012695
   17             0.027905   0.001197   0.004087   0.009119   0.023447
   18             0.000169   0.000020   0.107212   0.081496   0.030426
   19             0.070351   0.004350   0.163236   0.000840   0.004298
   20             0.000227   0.000125   0.023096   0.240551   0.011865
   21             0.000360   0.000095   0.000884   0.172021   0.034391
   22             0.000007   0.000008   0.025983   0.071226   0.086337
   23             0.028519   0.002606   0.013511   0.000720   0.001271

                     36         37         38         39         40

                  2.000000   2.000000   2.000000   2.000000   2.000000

    1             0.217578   0.038753   0.001559   0.021838   0.009379
    2             0.245424   0.114034   0.001666   0.392701   0.282112
    3             0.186521   0.043447   0.009241   0.003920   0.433411
    4             0.174405   0.258168   0.043849   0.515152   0.142803
    5             0.185020   0.300088   0.012068   0.315878   0.231092
    6             0.192519   0.200182   0.061597   0.025226   0.530959
    7             0.213780   0.192838   0.028685   0.596325   0.033998
    8             0.038640   0.147570   0.037428   0.002761   0.010515
    9             0.012564   0.145971   0.800377   0.024439   0.030981
   10             0.010437   0.045180   0.932453   0.041458   0.024770
   11             0.139533   0.284928   0.009046   0.004221   0.215175
   12             0.014935   0.018475   0.000072   0.025146   0.012586
   13             0.017463   0.000091   0.000045   0.000115   0.000091
   14             0.009958   0.026734   0.000562   0.028062   0.014934
   15             0.074066   0.000116   0.000393   0.000010   0.000002
   16             0.103680   0.000355   0.000622   0.000006  -0.000005
   17             0.100680   0.000233   0.001568   0.000053   0.000010
   18             0.011934   0.070718   0.000036   0.001074   0.023477
   19             0.027548   0.003304   0.058562   0.001458   0.000070
   20             0.000115   0.055844   0.000050   0.000075   0.002355
   21             0.000612   0.024847   0.000015   0.000044   0.000311
   22             0.003529   0.028107   0.000099   0.000037   0.000971
   23             0.019059   0.000017   0.000006   0.000000   0.000003

               ----- POPULATIONS IN EACH AO -----
                             MULLIKEN      LOWDIN
              1  C  1  S      1.98830     1.97621
              2  C  1  S      0.35445     0.40992
              3  C  1  X      0.55103     0.51963
              4  C  1  Y      0.52477     0.50236
              5  C  1  Z      0.54896     0.51534
              6  C  1  S      1.12537     0.57043
              7  C  1  X      0.51722     0.58662
              8  C  1  Y      0.36572     0.53979
              9  C  1  Z      0.57942     0.61497
             10  C  2  S      1.98853     1.97629
             11  C  2  S      0.39221     0.40938
             12  C  2  X      0.60239     0.58493
             13  C  2  Y      0.57890     0.56348
             14  C  2  Z      0.42596     0.41582
             15  C  2  S      0.82685     0.51508
             16  C  2  X      0.38317     0.49875
             17  C  2  Y      0.30579     0.49993
             18  C  2  Z      0.59835     0.60344
             19  C  3  S      1.98815     1.97587
             20  C  3  S      0.40487     0.41849
             21  C  3  X      0.49340     0.47522
             22  C  3  Y      0.65358     0.62771
             23  C  3  Z      0.41781     0.39943
             24  C  3  S      0.79376     0.50109
             25  C  3  X      0.03035     0.38776
             26  C  3  Y      0.29320     0.49073
             27  C  3  Z      0.53920     0.57378
             28  C  4  S      1.98817     1.97648
             29  C  4  S      0.39193     0.41257
             30  C  4  X      0.59882     0.57559
             31  C  4  Y      0.57602     0.54982
             32  C  4  Z      0.44530     0.43742
             33  C  4  S      0.85629     0.53602
             34  C  4  X      0.39798     0.51457
             35  C  4  Y      0.36764     0.51907
             36  C  4  Z      0.65582     0.65920
             37  C  5  S      1.98834     1.97676
             38  C  5  S      0.39648     0.41467
             39  C  5  X      0.59923     0.57489
             40  C  5  Y      0.58762     0.56072
             41  C  5  Z      0.40775     0.39608
             42  C  5  S      0.89082     0.53304
             43  C  5  X      0.30494     0.49385
             44  C  5  Y      0.45897     0.52964
             45  C  5  Z      0.58797     0.61050
             46  C  6  S      1.98850     1.97631
             47  C  6  S      0.38988     0.40935
             48  C  6  X      0.56503     0.55411
             49  C  6  Y      0.60887     0.58947
             50  C  6  Z      0.42361     0.41209
             51  C  6  S      0.83156     0.51490
             52  C  6  X      0.35390     0.50169
             53  C  6  Y      0.30469     0.49547
             54  C  6  Z      0.59428     0.60373
             55  C  7  S      1.98848     1.97678
             56  C  7  S      0.39698     0.41646
             57  C  7  X      0.59763     0.57426
             58  C  7  Y      0.59127     0.56661
             59  C  7  Z      0.40554     0.39448
             60  C  7  S      0.89264     0.53044
             61  C  7  X      0.29966     0.49234
             62  C  7  Y      0.43676     0.52329
             63  C  7  Z      0.57998     0.60563
             64  C  8  S      1.98957     1.97597
             65  C  8  S      0.34497     0.40839
             66  C  8  X      0.52802     0.51273
             67  C  8  Y      0.55085     0.52322
             68  C  8  Z      0.53856     0.51252
             69  C  8  S      1.17600     0.55199
             70  C  8  X      0.30854     0.51277
             71  C  8  Y      0.56846     0.58027
             72  C  8  Z      0.47616     0.56534
             73  C  9  S      1.98792     1.97728
             74  C  9  S      0.39330     0.42169
             75  C  9  X      0.49695     0.47945
             76  C  9  Y      0.52458     0.50278
             77  C  9  Z      0.54977     0.52388
             78  C  9  S      0.91440     0.55389
             79  C  9  X      0.41840     0.53507
             80  C  9  Y      0.43039     0.54417
             81  C  9  Z      0.47314     0.54913
             82  C 10  S      1.98711     1.97741
             83  C 10  S      0.39279     0.42111
             84  C 10  X      0.50361     0.48485
             85  C 10  Y      0.52543     0.50392
             86  C 10  Z      0.54995     0.51423
             87  C 10  S      0.96007     0.57913
             88  C 10  X      0.48948     0.58338
             89  C 10  Y      0.45242     0.56965
             90  C 10  Z      0.56304     0.58196
             91  O 11  S      1.98661     1.98002
             92  O 11  S      0.41075     0.56630
             93  O 11  X      0.59340     0.58234
             94  O 11  Y      0.67785     0.66318
             95  O 11  Z      0.83843     0.85061
             96  O 11  S      1.54892     0.99723
             97  O 11  X      0.79086     0.79501
             98  O 11  Y      0.84349     0.86652
             99  O 11  Z      1.04654     1.03396
            100  H 12  S      0.46269     0.46481
            101  H 12  S      0.30936     0.42964
            102  H 13  S      0.46900     0.47081
            103  H 13  S      0.33064     0.43990
            104  H 14  S      0.46222     0.46458
            105  H 14  S      0.31184     0.43078
            106  H 15  S      0.46841     0.46794
            107  H 15  S      0.30479     0.43506
            108  H 16  S      0.47119     0.47142
            109  H 16  S      0.29368     0.42862
            110  H 17  S      0.47000     0.47062
            111  H 17  S      0.28912     0.42646
            112  H 18  S      0.46314     0.47433
            113  H 18  S      0.30576     0.42815
            114  H 19  S      0.46380     0.47539
            115  H 19  S      0.30703     0.42863
            116  H 20  S      0.47009     0.47166
            117  H 20  S      0.30039     0.43105
            118  H 21  S      0.46996     0.46497
            119  H 21  S      0.32739     0.44409
            120  H 22  S      0.47058     0.46499
            121  H 22  S      0.31762     0.43832
            122  H 23  S      0.42402     0.43732
            123  H 23  S      0.18553     0.29840

          ----- MULLIKEN ATOMIC OVERLAP POPULATIONS -----
          (OFF-DIAGONAL ELEMENTS NEED TO BE MULTIPLIED BY 2)

             1           2           3           4           5

    1    5.2794695
    2    0.2415788   5.4328572
    3   -0.0694146   0.4022736   4.8943281
    4    0.0028935  -0.1011914   0.3618472   5.4260579
    5   -0.0001725  -0.0084860  -0.0657671   0.3939590   5.1782080
    6    0.0022347  -0.0962109  -0.0102702  -0.0997209   0.4815757
    7   -0.0491786   0.4724624  -0.0818440  -0.0140654  -0.0833551
    8   -0.0000375   0.0014623   0.0000580   0.0025595  -0.0498462
    9   -0.0000000   0.0002789  -0.0000097  -0.0000241   0.0007556
   10   -0.0000000   0.0000124  -0.0000001   0.0000005   0.0000127
   11    0.0037388  -0.0688781   0.2788558  -0.0655300   0.0030944
   12    0.3823165  -0.0499042  -0.0029650   0.0000664   0.0000040
   13    0.3819343  -0.0514697   0.0040443   0.0000083  -0.0000171
   14    0.3816258  -0.0502630  -0.0026221   0.0000183   0.0000071
   15   -0.0000292   0.0022936  -0.0495763   0.4022905  -0.0279219
   16    0.0000012  -0.0000631   0.0018854  -0.0292324   0.3966384
   17   -0.0014573  -0.0318353   0.0023588  -0.0000364   0.0021713
   18   -0.0000002   0.0000769   0.0000060  -0.0000560   0.0006937
   19    0.0000002  -0.0000396  -0.0000031   0.0002208  -0.0000164
   20    0.0000000  -0.0000111  -0.0000016  -0.0000090   0.0002878
   21   -0.0000000   0.0000002   0.0000000  -0.0000000  -0.0000007
   22    0.0000000  -0.0000000   0.0000000  -0.0000000   0.0000003
   23   -0.0002813   0.0071952  -0.0488635  -0.0020953   0.0003116

             6           7           8           9          10

    6    5.3637848
    7    0.4442890   5.1575529
    8    0.2459119  -0.0618836   5.3928483
    9   -0.1053374   0.0006412   0.2782428   5.2826985
   10    0.0011327   0.0003722  -0.0761979   0.5387993   5.2038496
   11   -0.0002509   0.0024638  -0.0000000  -0.0000000  -0.0000000
   12   -0.0000467   0.0012630   0.0000005   0.0000000  -0.0000000
   13    0.0002370  -0.0028414  -0.0000026   0.0000000  -0.0000000
   14   -0.0000458   0.0008480   0.0000005  -0.0000001   0.0000000
   15    0.0026805  -0.0002147  -0.0000395   0.0000008  -0.0000000
   16   -0.0332415   0.0023162  -0.0010889  -0.0000256   0.0000003
   17   -0.0339781   0.3972202  -0.0023610   0.0014648   0.0011741
   18   -0.0461142  -0.0005987   0.3951977  -0.0532393   0.0023384
   19   -0.0569307   0.0029923   0.3940969  -0.0463447   0.0003807
   20    0.0006670   0.0006602  -0.0392002   0.3940645  -0.0379583
   21    0.0000010   0.0000225  -0.0010234  -0.0544084   0.3968269
   22   -0.0000754  -0.0000000   0.0024242  -0.0487095   0.3931496
   23    0.0000113  -0.0001773  -0.0000000  -0.0000000  -0.0000000

            11          12          13          14          15

   11    8.3053962
   12    0.0017239   0.4911027
   13    0.0001076  -0.0240104   0.5146264
   14    0.0010184  -0.0274711  -0.0244820   0.4954211
   15   -0.0038874   0.0000007   0.0000004   0.0000007   0.4463948
   16   -0.0000030  -0.0000000  -0.0000000  -0.0000000  -0.0014829
   17   -0.0000058   0.0000107   0.0015032   0.0000262   0.0000013
   18   -0.0000000  -0.0000001   0.0000002   0.0000000   0.0000006
   19   -0.0000000  -0.0000000   0.0000000  -0.0000000  -0.0000009
   20    0.0000000  -0.0000000   0.0000000   0.0000000   0.0000001
   21   -0.0000000   0.0000000   0.0000000  -0.0000000  -0.0000000
   22   -0.0000000   0.0000000   0.0000000  -0.0000000   0.0000000
   23    0.2790233  -0.0000419  -0.0000022  -0.0000272   0.0026968

            16          17          18          19          20

   16    0.4273524
   17   -0.0000408   0.4222606
   18    0.0000253   0.0004220   0.4862596
   19    0.0018007   0.0000821  -0.0207413   0.4952944
   20    0.0000286   0.0000458   0.0021532   0.0000173   0.4494828
   21    0.0000001   0.0000865   0.0024237   0.0000703   0.0020734
   22   -0.0000000   0.0000031   0.0000561  -0.0000566  -0.0018219
   23   -0.0000015   0.0000010   0.0000000   0.0000000   0.0000000

            21          22          23

   21    0.4721132
   22   -0.0208378   0.4640701
   23    0.0000000   0.0000000   0.3718058

          TOTAL MULLIKEN AND LOWDIN ATOMIC POPULATIONS
       ATOM         MULL.POP.    CHARGE          LOW.POP.     CHARGE
    1 C             6.555222   -0.555222         6.235273   -0.235273
    2 C             6.102139   -0.102139         6.067098   -0.067098
    3 C             5.614320    0.385680         5.850062    0.149938
    4 C             6.277961   -0.277961         6.180755   -0.180755
    5 C             6.222137   -0.222137         6.090166   -0.090166
    6 C             6.060303   -0.060303         6.057109   -0.057109
    7 C             6.188945   -0.188945         6.080288   -0.080288
    8 C             6.481122   -0.481122         6.143208   -0.143208
    9 C             6.188848   -0.188848         6.087326   -0.087326
   10 C             6.423893   -0.423893         6.215632   -0.215632
   11 O             8.736867   -0.736867         8.335174   -0.335174
   12 H             0.772049    0.227951         0.894444    0.105556
   13 H             0.799636    0.200364         0.910705    0.089295
   14 H             0.774055    0.225945         0.895360    0.104640
   15 H             0.773208    0.226792         0.903003    0.096997
   16 H             0.764869    0.235131         0.900031    0.099969
   17 H             0.759117    0.240883         0.897074    0.102926
   18 H             0.768904    0.231096         0.902473    0.097527
   19 H             0.770822    0.229178         0.904020    0.095980
   20 H             0.770479    0.229521         0.902708    0.097292
   21 H             0.797348    0.202652         0.909065    0.090935
   22 H             0.788202    0.211798         0.903308    0.096692
   23 H             0.609555    0.390445         0.735718    0.264282

          -------------------------------
          BOND ORDER AND VALENCE ANALYSIS     BOND ORDER THRESHOLD=0.050
          -------------------------------

                   BOND                       BOND                       BOND
  ATOM PAIR DIST  ORDER      ATOM PAIR DIST  ORDER      ATOM PAIR DIST  ORDER
    1   2  1.508  0.948        1  12  1.096  0.913        1  13  1.093  0.929
    1  14  1.097  0.913        2   3  1.408  1.303        2   5  2.816  0.100
    2   7  1.397  1.444        3   4  1.395  1.355        3   6  2.812  0.091
    3  11  1.376  0.828        4   5  1.399  1.374        4   7  2.771  0.096
    4  15  1.089  0.938        5   6  1.398  1.431        5  16  1.087  0.940
    6   7  1.404  1.354        6   8  1.522  0.918        7  17  1.088  0.938
    8   9  1.510  0.919        8  18  1.098  0.920        8  19  1.098  0.916
    9  10  1.337  1.892        9  20  1.091  0.932       10  21  1.088  0.945
   10  22  1.087  0.942       11  23  0.966  0.806

                       TOTAL       BONDED        FREE
      ATOM            VALENCE     VALENCE     VALENCE
    1 C                 3.660       3.660      -0.000
    2 C                 3.688       3.688      -0.000
    3 C                 3.471       3.471      -0.000
    4 C                 3.721       3.721       0.000
    5 C                 3.768       3.768      -0.000
    6 C                 3.657       3.657       0.000
    7 C                 3.738       3.738       0.000
    8 C                 3.594       3.594      -0.000
    9 C                 3.668       3.668       0.000
   10 C                 3.771       3.771       0.000
   11 O                 1.735       1.735      -0.000
   12 H                 0.906       0.906      -0.000
   13 H                 0.919       0.919       0.000
   14 H                 0.905       0.905      -0.000
   15 H                 0.920       0.920      -0.000
   16 H                 0.922       0.922       0.000
   17 H                 0.922       0.922       0.000
   18 H                 0.905       0.905       0.000
   19 H                 0.904       0.904       0.000
   20 H                 0.917       0.917      -0.000
   21 H                 0.930       0.930       0.000
   22 H                 0.926       0.926      -0.000
   23 H                 0.829       0.829       0.000

          ---------------------
          ELECTROSTATIC MOMENTS
          ---------------------

 POINT   1           X           Y           Z (BOHR)    CHARGE
                 0.013638    0.064126    0.042627        0.00 (A.U.)
         DX          DY          DZ         /D/  (DEBYE)
    -0.067046   -1.416946   -0.077131    1.420627
 ...... END OF PROPERTY EVALUATION ......
 CPU     0: STEP CPU TIME=     0.06 TOTAL CPU TIME=          3.0 (      0.1 MIN)
 TOTAL WALL CLOCK TIME=          7.7 SECONDS, CPU UTILIZATION IS    39.66%
               580000  WORDS OF DYNAMIC MEMORY USED
 EXECUTION OF GAMESS TERMINATED NORMALLY Mon May 25 19:17:47 2020
 DDI: 263640 bytes (0.3 MB / 0 MWords) used by master data server.
Note: The following floating-point exceptions are signalling: IEEE_DENORMAL
Note: The following floating-point exceptions are signalling: IEEE_DENORMALNote: The following floating-point exceptions are signalling: IEEE_DENORMALNote: The following floating-point exceptions are signalling: IEEE_DENORMALNote: The following floating-point exceptions are signalling: IEEE_DENORMAL
 ----------------------------------------
 CPU timing information for all processes
 ========================================
 0: 2.872 + 0.186 = 3.59
 1: 2.758 + 0.24 = 2.782
 2: 2.764 + 0.28 = 2.792
 3: 2.904 + 0.36 = 2.941
 4: 2.795 + 0.43 = 2.839
 5: 2.885 + 0.12 = 2.897
 ----------------------------------------
Note: The following floating-point exceptions are signalling: IEEE_DENORMAL




 ddikick.x: exited gracefully.
unset echo
----- accounting info -----
Files used on the master node pietdev were:
-rwxr-xr-x 1 piet piet     1026 mei 25 19:17 /home/piet/scr/methyl_chavicol_fukui_neu.F05*
-rw-r--r-- 1 piet piet 49152000 mei 25 19:17 /home/piet/scr/methyl_chavicol_fukui_neu.F10
ls: No match.
ls: No match.
ls: No match.
ma 25 mei 2020 19:17:51 CEST
0.129u 0.038s 0:10.96 1.3%	0+0k 0+8io 0pf+0w
