----- GAMESS execution script 'rungms' -----
This job is running on host pietdev
under operating system Linux at do 21 mei 2020 18:22:43 CEST
Available scratch disk space (Kbyte units) at beginning of the job is
Filesystem     1K-blocks     Used Available Use% Mounted on
/dev/sda2      244568380 30776500 201298824  14% /
GAMESS temporary binary files will be written to /home/piet/scr
GAMESS supplementary output files will be written to /home/piet/gamess/scr
Copying input file c-glucose-6-phosphate_fukui_neu.inp to your run's scratch directory...
cp c-glucose-6-phosphate_fukui_neu.inp /home/piet/scr/c-glucose-6-phosphate_fukui_neu.F05
unset echo
 
Assuming a single but multicore node.
 
/home/piet/gamess/ddikick.x /home/piet/gamess/gamess.03.x c-glucose-6-phosphate_fukui_neu -ddi 1 8 pietdev:cpus=8 -scr /home/piet/scr

 Distributed Data Interface kickoff program.
 Initiating 8 compute processes on 1 nodes to run the following command:
 /home/piet/gamess/gamess.03.x c-glucose-6-phosphate_fukui_neu 

          ******************************************************
          *         GAMESS VERSION = 30 SEP 2019 (R2)          *
          *             FROM IOWA STATE UNIVERSITY             *
          * M.W.SCHMIDT, K.K.BALDRIDGE, J.A.BOATZ, S.T.ELBERT, *
          *   M.S.GORDON, J.H.JENSEN, S.KOSEKI, N.MATSUNAGA,   *
          *          K.A.NGUYEN, S.J.SU, T.L.WINDUS,           *
          *       TOGETHER WITH M.DUPUIS, J.A.MONTGOMERY       *
          *         J.COMPUT.CHEM.  14, 1347-1363(1993)        *
          **************** 64 BIT LINUX VERSION ****************

  SINCE 1993, STUDENTS AND POSTDOCS WORKING AT IOWA STATE UNIVERSITY
  AND ALSO IN THEIR VARIOUS JOBS AFTER LEAVING ISU HAVE MADE IMPORTANT
  CONTRIBUTIONS TO THE CODE:
     IVANA ADAMOVIC, CHRISTINE AIKENS, YURI ALEXEEV, POOJA ARORA,
     ANDREY ASADCHEV, ROB BELL, PRADIPTA BANDYOPADHYAY, JONATHAN BENTZ,
     COLLEEN BERTONI, BRETT BODE, KURT BRORSEN, CALEB CARLIN, GALINA CHABAN,
     WEI CHEN, CHEOL HO CHOI, PAUL DAY, ALBERT DEFUSCO, NUWAN DESILVA,
     TIM DUDLEY, DMITRI FEDOROV, ALEX FINDLATER, GRAHAM FLETCHER, 
     MARK FREITAG, KURT GLAESEMANN, EMILIE B GUIDEZ, ANASTASIA GUNINA, 
     DAN KEMP, SAROM SOK LEANG, GRANT MERRILL,
     NORIYUKI MINEZAWA, JONATHAN MULLIN,
     TAKESHI NAGATA, SEAN NEDD, HEATHER NETZLOFF, BOSILJKA NJEGIC, RYAN OLSON,
     MIKE PAK, BUU PHAM, DAVID POOLE,
     SPENCER PRUITT, LUKE ROSKOP, TOSAPORN SATTASATHUCHANA,
     JIM SHOEMAKER, LYUDMILA SLIPCHENKO,
     TONY SMITH, JIE SONG, TETSUYA TAKETSUGU, SIMON WEBB,
     JORGE LUIS GALVEZ VALLEJO, PENG XU, SOOHAENG YOO,
     FEDERICO ZAHARIEV

  ADDITIONAL CODE HAS BEEN PROVIDED BY COLLABORATORS IN OTHER GROUPS:
     IOWA STATE UNIVERSITY:
          JOE IVANIC, AARON WEST, LAIMUTIS BYTAUTAS, KLAUS RUEDENBERG
     UNIVERSITY OF TOKYO: KIMIHIKO HIRAO, TAKAHITO NAKAJIMA,
          TAKAO TSUNEDA, MUNEAKI KAMIYA, SUSUMU YANAGISAWA,
          KIYOSHI YAGI, MAHITO CHIBA, SEIKEN TOKURA, NAOAKI KAWAKAMI
     UNIVERSITY OF AARHUS: FRANK JENSEN
     UNIVERSITY OF IOWA: VISVALDAS KAIRYS, HUI LI
     NATIONAL INST. OF STANDARDS AND TECHNOLOGY: WALT STEVENS, DAVID GARMER
     UNIVERSITY OF PISA: BENEDETTA MENNUCCI, JACOPO TOMASI
     UNIVERSITY OF MEMPHIS: HENRY KURTZ, PRAKASHAN KORAMBATH
     UNIVERSITY OF ALBERTA: TOBY ZENG, MARIUSZ KLOBUKOWSKI
     UNIVERSITY OF NEW ENGLAND: MARK SPACKMAN
     MIE UNIVERSITY: HIROAKI UMEDA
     NAT. INST. OF ADVANCED INDUSTRIAL SCIENCE AND TECHNOLOGY: KAZUO KITAURA
     MICHIGAN STATE UNIVERSITY:
          KAROL KOWALSKI, MARTA WLOCH, JEFFREY GOUR, JESSE LUTZ,
          WEI LI, JUN SHEN, J. EMILIANO DEUSTUA, PIOTR PIECUCH
     UNIVERSITY OF MINNESOTA:
          ANDREW SAND, PRACHI SHARMA, YINAN SHU
     UNIVERSITY OF SILESIA: MONIKA MUSIAL, STANISLAW KUCHARSKI
     FACULTES UNIVERSITAIRES NOTRE-DAME DE LA PAIX:
          OLIVIER QUINET, BENOIT CHAMPAGNE
     UNIVERSITY OF CALIFORNIA - SANTA BARBARA: BERNARD KIRTMAN
     INSTITUTE FOR MOLECULAR SCIENCE:
          KAZUYA ISHIMURA, MICHIO KATOUDA, AND SHIGERU NAGASE
     UNIVERSITY OF NOTRE DAME: ANNA POMOGAEVA, DAN CHIPMAN
     KYUSHU UNIVERSITY:
          HARUYUKI NAKANO,
          FENG LONG GU, JACEK KORCHOWIEC, MARCIN MAKOWSKI, AND YURIKO AOKI,
          HIROTOSHI MORI AND EISAKU MIYOSHI
     PENNSYLVANIA STATE UNIVERSITY:
          TZVETELIN IORDANOV, CHET SWALINA, JONATHAN SKONE,
          SHARON HAMMES-SCHIFFER
     WASEDA UNIVERSITY:
          MASATO KOBAYASHI, TOMOKO AKAMA, TSUGUKI TOUMA,
          TAKESHI YOSHIKAWA, YASUHIRO IKABATA, JUNJI SEINO,
          YUYA NAKAJIMA, HIROMI NAKAI
     NANJING UNIVERSITY: SHUHUA LI
     UNIVERSITY OF NEBRASKA:
          PEIFENG SU, DEJUN SI, NANDUN THELLAMUREGE, YALI WANG, HUI LI
     UNIVERSITY OF ZURICH: ROBERTO PEVERATI, KIM BALDRIDGE
     N. COPERNICUS UNIVERSITY AND JACKSON STATE UNIVERSITY:
          MARIA BARYSZ
     UNIVERSITY OF COPENHAGEN: Jimmy Kromann, CASPER STEINMANN
     TOKYO INSTITUTE OF TECHNOLOGY: HIROYA NAKATA
     NAGOYA UNIVERSITY: YOSHIO NISHIMOTO, STEPHAN IRLE
     MOSCOW STATE UNIVERSITY: VLADIMIR MIRONOV
     A.N.NESMEYANOV INSTITUTE OF ORGANOELEMENT COMPOUNDS OF RUSSIAN ACADEMY OF SCIENCES:
          IGOR S. GERASIMOV
     JOHANNES KEPLER UNIVERSITY LINZ:
          CHRISTIAN FRIEDL


 PARALLEL VERSION RUNNING ON        8 PROCESSORS IN        1 NODES.

 EXECUTION OF GAMESS BEGUN Thu May 21 18:22:43 2020

            ECHO OF THE FIRST FEW INPUT CARDS -
 INPUT CARD> $BASIS GBASIS=N21 NGAUSS=3 $END                                                
 INPUT CARD> $CONTRL SCFTYP=RHF MAXIT=60 MULT=1 ICHARG=0 $END                               
 INPUT CARD> $SYSTEM MEMDDI=1000 MWORDS=30 $END                                             
 INPUT CARD> $SCF DIRSCF=.TRUE. $END                                                        
 INPUT CARD> $DATA                                                                          
 INPUT CARD>                                                                                
 INPUT CARD>C1                                                                              
 INPUT CARD>O 8.0000000 -1.2740541755 2.5286153286 0.0255506259                             
 INPUT CARD>C 6.0000000 -0.7319900987 1.2718220660 0.4145541853                             
 INPUT CARD>C 6.0000000 -1.6841612794 0.2197764186 -0.1388277322                            
 INPUT CARD>H 1.0000000 -1.7375393123 0.3673558082 -1.2251173735                            
 INPUT CARD>O 8.0000000 -2.9885415837 0.2932032308 0.4987091349                             
 INPUT CARD>C 6.0000000 -1.1350028235 -1.1596725399 0.1662169114                            
 INPUT CARD>H 1.0000000 -1.0516833824 -1.2744486470 1.2577857291                            
 INPUT CARD>O 8.0000000 -1.9542168659 -2.2129142647 -0.4122142021                           
 INPUT CARD>C 6.0000000 0.2496544141 -1.3063853067 -0.4504092947                            
 INPUT CARD>H 1.0000000 0.1593403326 -1.1714829070 -1.5377883378                            
 INPUT CARD>O 8.0000000 0.8305746710 -2.5872476750 -0.0969938787                            
 INPUT CARD>C 6.0000000 1.1562587388 -0.2190058870 0.1246663489                             
 INPUT CARD>H 1.0000000 1.2329879757 -0.3490882443 1.2094175761                             
 INPUT CARD>O 8.0000000 0.5794917303 1.1016379365 -0.1936379635                             
 INPUT CARD>C 6.0000000 2.5417155812 -0.2229620537 -0.4894331531                            
 INPUT CARD>P 15.0000000 3.5660328114 1.1266004264 0.2113195205                             
 INPUT CARD>H 1.0000000 -0.6511003325 1.1593282241 1.5087718483                             
 INPUT CARD>H 1.0000000 -3.3080981646 1.2267854628 0.3622837978                             
 INPUT CARD>H 1.0000000 -2.8890319632 -2.0144972079 -0.1296285403                           
 INPUT CARD>H 1.0000000 0.1030533043 -3.2513749312 -0.2578755699                            
 INPUT CARD>H 1.0000000 3.0290850557 -1.1788406588 -0.2865021456                            
 INPUT CARD>H 1.0000000 2.4721398483 -0.0716320120 -1.5698336310                            
 INPUT CARD>H 1.0000000 -0.6191765617 3.2417745487 0.2547819318                             
 INPUT CARD>O 8.0000000 5.0710503183 0.3935553223 0.0171581609                              
 INPUT CARD>O 8.0000000 3.1465528245 0.9563802745 1.8356088815                              
 INPUT CARD>H 1.0000000 5.8241383890 1.0425352473 0.0522361416                              
 INPUT CARD>H 1.0000000 3.3749792487 1.7554576093 2.3806603011                              
 INPUT CARD>O 8.0000000 3.5622810995 2.6134346312 -0.2652393728                             
 INPUT CARD> $END                                                                           
   30000000 WORDS OF MEMORY AVAILABLE

     BASIS OPTIONS
     -------------
     GBASIS=N21          IGAUSS=       3      POLAR=NONE    
     NDFUNC=       0     NFFUNC=       0     DIFFSP=       F
     NPFUNC=       0      DIFFS=       F     BASNAM=        


     RUN TITLE
     ---------
                                                                                 

 THE POINT GROUP OF THE MOLECULE IS C1      
 THE ORDER OF THE PRINCIPAL AXIS IS     0

 ATOM      ATOMIC                      COORDINATES (BOHR)
           CHARGE         X                   Y                   Z
 O           8.0    -2.4076132852        4.7783900994        0.0482836818
 C           6.0    -1.3832607123        2.4033952099        0.7833938173
 C           6.0    -3.1826033372        0.4153172097       -0.2623463734
 H           1.0    -3.2834731931        0.6942018175       -2.3151361387
 O           8.0    -5.6475246961        0.5540737649        0.9424236125
 C           6.0    -2.1448443317       -2.1914633359        0.3141044171
 H           1.0    -1.9873934186       -2.4083587283        2.3768703793
 O           8.0    -3.6929343971       -4.1818015946       -0.7789718902
 C           6.0     0.4717784343       -2.4687102640       -0.8511501493
 H           1.0     0.3011095674       -2.2137816935       -2.9059985856
 O           8.0     1.5695585405       -4.8891891681       -0.1832918532
 C           6.0     2.1850121872       -0.4138611161        0.2355852393
 H           1.0     2.3300094202       -0.6596811273        2.2854678236
 O           8.0     1.0950805824        2.0817938377       -0.3659226918
 C           6.0     4.8031459872       -0.4213371872       -0.9248945487
 P          15.0     6.7388248768        2.1289661035        0.3993359896
 H           1.0    -1.2304012189        2.1908126734        2.8511653713
 H           1.0    -6.2513990716        2.3182883704        0.6846171076
 H           1.0    -5.4594787802       -3.8068477260       -0.2449624214
 H           1.0     0.1947425073       -6.1442077033       -0.4873141660
 H           1.0     5.7241407488       -2.2276858283       -0.5414105501
 H           1.0     4.6716669166       -0.1353648746       -2.9665554089
 H           1.0    -1.1700740396        6.1260656110        0.4814680377
 O           8.0     9.5828955715        0.7437117202        0.0324242226
 O           8.0     5.9461226442        1.8072966589        3.4687978067
 H           1.0    11.0060256698        1.9701059499        0.0987119943
 H           1.0     6.3777859943        3.3173338646        4.4987956389
 O           8.0     6.7317351693        4.9386753398       -0.5012297357

          INTERNUCLEAR DISTANCES (ANGS.)
          ------------------------------

                1 O          2 C          3 C          4 H          5 O     

   1 O       0.0000000    1.4229148 *  2.3507329 *  2.5396912 *  2.8566437 *
   2 C       1.4229148 *  0.0000000    1.5230435 *  2.1254908 *  2.4610570 *
   3 C       2.3507329 *  1.5230435 *  0.0000000    1.0975673 *  1.4537031 *
   4 H       2.5396912 *  2.1254908 *  1.0975673 *  0.0000000    2.1312163 *
   5 O       2.8566437 *  2.4610570 *  1.4537031 *  2.1312163 *  0.0000000  
   6 C       3.6935876    2.4771469 *  1.5157528 *  2.1519008 *  2.3784459 *
   7 H       4.0038916    2.7012474 *  2.1408564 *  3.0546240    2.6048319 *
   8 O       4.8100273    3.7842795    2.4628549 *  2.7139555 *  2.8601108 *
   9 C       4.1539687    2.8911833 *  2.4831222 *  2.7111844 *  3.7343571  
  10 H       4.2649004    3.2520533    2.7002206 *  2.4625069 *  4.0251445  
  11 O       5.5332209    4.1947240    3.7689563    4.0740095    4.8205299  
  12 C       3.6695595    2.4232389 *  2.8861644 *  3.2465063    4.1930461  
  13 H       3.9959954    2.6683884 *  3.2636072    3.9069534    4.3288517  
  14 O       2.3494554 *  1.4556253 *  2.4299812 *  2.6404077 *  3.7234088  
  15 C       4.7324925    3.7106228    4.2634466    4.3819777    5.6415065  
  16 P       5.0424793    4.3052752    5.3394261    5.5468622    6.6135912  
  17 H       2.1125728 *  1.1029553 *  2.1597585 *  3.0465916    2.6896154 *
  18 H       2.4383366 *  2.5770319 *  1.9754369 *  2.3927217 *  0.9961446 *
  19 H       4.8241171    3.9684832    2.5384595 *  2.8634341 *  2.3937819 *
  20 H       5.9485328    4.6485235    3.9060466    4.1735536    4.7638654  
  21 H       5.6885511    4.5434474    4.9186003    5.0982772    6.2446217  
  22 H       4.8312014    4.0011389    4.4053985    4.2465207    5.8507278  
  23 H       0.9949913 *  1.9796381 *  3.2282493    3.4209824    3.7904438  
  24 O       6.6946921    5.8825636    6.7592466    6.9210424    8.0745888  
  25 O       5.0289164    4.1427038    5.2703685    5.7939064    6.3139915  
  26 H       7.2521365    6.5701345    7.5556602    7.6984719    8.8557419  
  27 H       5.2685697    4.5789381    5.8567089    6.4082997    6.7951693  
  28 O       4.8458118    4.5500339    5.7680792    5.8356090    6.9914497  

                6 C          7 H          8 O          9 C         10 H     

   1 O       3.6935876    4.0038916    4.8100273    4.1539687    4.2649004  
   2 C       2.4771469 *  2.7012474 *  3.7842795    2.8911833 *  3.2520533  
   3 C       1.5157528 *  2.1408564 *  2.4628549 *  2.4831222 *  2.7002206 *
   4 H       2.1519008 *  3.0546240    2.7139555 *  2.7111844 *  2.4625069 *
   5 O       2.3784459 *  2.6048319 *  2.8601108 *  3.7343571    4.0251445  
   6 C       0.0000000    1.1007444 *  1.4543082 *  1.5228356 *  2.1398826 *
   7 H       1.1007444 *  0.0000000    2.1175892 *  2.1476569 *  3.0483462  
   8 O       1.4543082 *  2.1175892 *  0.0000000    2.3833385 *  2.6112488 *
   9 C       1.5228356 *  2.1476569 *  2.3833385 *  0.0000000    1.0994310 *
  10 H       2.1398826 *  3.0483462    2.6112488 *  1.0994310 *  0.0000000  
  11 O       2.4435109 *  2.6649136 *  2.8274641 *  1.4501652 *  2.1285756 *
  12 C       2.4771879 *  2.6968365 *  3.7334930    1.5280829 *  2.1598181 *
  13 H       2.7115853 *  2.4654319 *  4.0325937    2.1536917 *  3.0620569  
  14 O       2.8605091 *  3.2269413    4.1777639    2.4440336 *  2.6740131 *
  15 C       3.8503976    4.1316963    4.9172432    2.5355223 *  2.7702802 *
  16 P       5.2276969    5.3088069    6.4818446    4.1660137    4.4661078  
  17 H       2.7229359 *  2.4792601 *  4.0939369    3.2755905    3.9205897  
  18 H       3.2335688    3.4856138    3.7768209    4.4424124    4.6244021  
  19 H       1.9735420 *  2.4183548 *  0.9965457 *  3.2335236    3.4621035  
  20 H       2.4673582 *  2.7457027 *  2.3096713 *  1.9599862 *  2.4428049 *
  21 H       4.1886692    4.3642453    5.0910126    2.7871792 *  3.1306878  
  22 H       4.1483951    4.6754175    5.0515152    2.7779791 *  2.5611990 *
  23 H       4.4324550    4.6464342    5.6551611    4.6837933    4.8266177  
  24 O       6.3992055    6.4660082    7.5054929    5.1336416    5.3844311  
  25 O       5.0592754    4.7891194    6.4120970    4.3287420    4.9830763  
  26 H       7.3001614    7.3551811    8.4449083    6.0700043    6.2864928  
  27 H       5.8087590    5.4805585    7.2075276    5.2112851    5.8533370  
  28 O       6.0404444    6.2228539    7.3312342    5.1354427    5.2464262  

               11 O         12 C         13 H         14 O         15 C     

   1 O       5.5332209    3.6695595    3.9959954    2.3494554 *  4.7324925  
   2 C       4.1947240    2.4232389 *  2.6683884 *  1.4556253 *  3.7106228  
   3 C       3.7689563    2.8861644 *  3.2636072    2.4299812 *  4.2634466  
   4 H       4.0740095    3.2465063    3.9069534    2.6404077 *  4.3819777  
   5 O       4.8205299    4.1930461    4.3288517    3.7234088    5.6415065  
   6 C       2.4435109 *  2.4771879 *  2.7115853 *  2.8605091 *  3.8503976  
   7 H       2.6649136 *  2.6968365 *  2.4654319 *  3.2269413    4.1316963  
   8 O       2.8274641 *  3.7334930    4.0325937    4.1777639    4.9172432  
   9 C       1.4501652 *  1.5280829 *  2.1536917 *  2.4440336 *  2.5355223 *
  10 H       2.1285756 *  2.1598181 *  3.0620569    2.6740131 *  2.7702802 *
  11 O       0.0000000    2.4007858 *  2.6225951 *  3.6986835    2.9448019 *
  12 C       2.4007858 *  0.0000000    1.0952141 *  1.4758313 *  1.5154618 *
  13 H       2.6225951 *  1.0952141 *  0.0000000    2.1213742 *  2.1482015 *
  14 O       3.6986835    1.4758313 *  2.1213742 *  0.0000000    2.3858714 *
  15 C       2.9448019 *  1.5154618 *  2.1482015 *  2.3858714 *  0.0000000  
  16 P       4.6228191    2.7613722 *  2.9354650 *  3.0139743    1.8334664 *
  17 H       4.3371275    2.6612215 *  2.4320201 *  2.1014005 *  4.0121843  
  18 H       5.6468042    4.6986442    4.8808275    3.9291305    6.0866666  
  19 H       3.7635863    4.4331515    4.6430249    4.6631590    5.7299281  
  20 H       0.9981159 *  3.2327762    3.4428142    4.3794795    3.8951222  
  21 H       2.6178181 *  2.1442530 *  2.4803688 *  3.3480911    1.0919771 *
  22 H       3.3454918    2.1504865 *  3.0556041    2.6177459 *  1.0931636 *
  23 H       6.0168950    3.8917993    4.1516428    2.4936060 *  4.7486309  
  24 O       5.1845782    3.9638848    4.0870190    4.5519133    2.6522184 *
  25 O       4.6536015    2.8757829 *  2.3996029 *  3.2754763    2.6762842 *
  26 H       6.1752143    4.8358901    4.9350124    5.2507395    3.5593804  
  27 H       5.6099781    3.7297098    3.2232048    3.8560656    3.5841190  
  28 O       5.8768719    3.7368020    4.0468211    3.3448002    3.0227410  

               16 P         17 H         18 H         19 H         20 H     

   1 O       5.0424793    2.1125728 *  2.4383366 *  4.8241171    5.9485328  
   2 C       4.3052752    1.1029553 *  2.5770319 *  3.9684832    4.6485235  
   3 C       5.3394261    2.1597585 *  1.9754369 *  2.5384595 *  3.9060466  
   4 H       5.5468622    3.0465916    2.3927217 *  2.8634341 *  4.1735536  
   5 O       6.6135912    2.6896154 *  0.9961446 *  2.3937819 *  4.7638654  
   6 C       5.2276969    2.7229359 *  3.2335688    1.9735420 *  2.4673582 *
   7 H       5.3088069    2.4792601 *  3.4856138    2.4183548 *  2.7457027 *
   8 O       6.4818446    4.0939369    3.7768209    0.9965457 *  2.3096713 *
   9 C       4.1660137    3.2755905    4.4424124    3.2335236    1.9599862 *
  10 H       4.4661078    3.9205897    4.6244021    3.4621035    2.4428049 *
  11 O       4.6228191    4.3371275    5.6468042    3.7635863    0.9981159 *
  12 C       2.7613722 *  2.6612215 *  4.6986442    4.4331515    3.2327762  
  13 H       2.9354650 *  2.4320201 *  4.8808275    4.6430249    3.4428142  
  14 O       3.0139743    2.1014005 *  3.9291305    4.6631590    4.3794795  
  15 C       1.8334664 *  4.0121843    6.0866666    5.7299281    3.8951222  
  16 P       0.0000000    4.4123311    6.8765183    7.1868353    5.6016997  
  17 H       4.4123311    0.0000000    2.8945851 *  4.2149569    4.8108308  
  18 H       6.8765183    2.8945851 *  0.0000000    3.3050730    5.6634329  
  19 H       7.1868353    4.2149569    3.3050730    0.0000000    3.2401988  
  20 H       5.6016997    4.8108308    5.6634329    3.2401988    0.0000000  
  21 H       2.4189249 *  4.7152738    6.8093943    5.9788829    3.5857886  
  22 H       2.4093296 *  4.5549648    6.2313816    5.8814181    4.1766697  
  23 H       4.6895445    2.4310682 *  3.3618502    5.7383280    6.5532758  
  24 O       1.6852690 *  5.9627450    8.4275449    8.3176423    6.1678322  
  25 O       1.6861952 *  3.8170905    6.6261848    7.0083204    5.5991759  
  26 H       2.2652627 *  6.6380610    9.1393557    9.2356840    7.1599336  
  27 H       2.2667162 *  4.1623162    7.0012043    7.7299383    6.5372581  
  28 O       1.5613451 *  4.7973039    7.0369519    7.9407546    6.8089869  

               21 H         22 H         23 H         24 O         25 O     

   1 O       5.6885511    4.8312014    0.9949913 *  6.6946921    5.0289164  
   2 C       4.5434474    4.0011389    1.9796381 *  5.8825636    4.1427038  
   3 C       4.9186003    4.4053985    3.2282493    6.7592466    5.2703685  
   4 H       5.0982772    4.2465207    3.4209824    6.9210424    5.7939064  
   5 O       6.2446217    5.8507278    3.7904438    8.0745888    6.3139915  
   6 C       4.1886692    4.1483951    4.4324550    6.3992055    5.0592754  
   7 H       4.3642453    4.6754175    4.6464342    6.4660082    4.7891194  
   8 O       5.0910126    5.0515152    5.6551611    7.5054929    6.4120970  
   9 C       2.7871792 *  2.7779791 *  4.6837933    5.1336416    4.3287420  
  10 H       3.1306878    2.5611990 *  4.8266177    5.3844311    4.9830763  
  11 O       2.6178181 *  3.3454918    6.0168950    5.1845782    4.6536015  
  12 C       2.1442530 *  2.1504865 *  3.8917993    3.9638848    2.8757829 *
  13 H       2.4803688 *  3.0556041    4.1516428    4.0870190    2.3996029 *
  14 O       3.3480911    2.6177459 *  2.4936060 *  4.5519133    3.2754763  
  15 C       1.0919771 *  1.0931636 *  4.7486309    2.6522184 *  2.6762842 *
  16 P       2.4189249 *  2.4093296 *  4.6895445    1.6852690 *  1.6861952 *
  17 H       4.7152738    4.5549648    2.4310682 *  5.9627450    3.8170905  
  18 H       6.8093943    6.2313816    3.3618502    8.4275449    6.6261848  
  19 H       5.9788829    5.8814181    5.7383280    8.3176423    7.0083204  
  20 H       3.5857886    4.1766697    6.5532758    6.1678322    5.5991759  
  21 H       0.0000000    1.7841072 *  5.7571382    2.5950454 *  3.0126935  
  22 H       1.7841072 *  0.0000000    4.8850918    3.0804671    3.6205912  
  23 H       5.7571382    4.8850918    0.0000000    6.3676919    4.6800383  
  24 O       2.5950454 *  3.0804671    6.3676919    0.0000000    2.7068848 *
  25 O       3.0126935    3.6205912    4.6800383    2.7068848 *  0.0000000  
  26 H       3.5863042    3.8869491    6.8113131    0.9947598 *  3.2182768  
  27 H       3.9803900    4.4451972    4.7625390    3.2120986    0.9938734 *
  28 O       3.8296347    3.1780430    4.2602607    2.6988881 *  2.7078077 *

               26 H         27 H         28 O     

   1 O       7.2521365    5.2685697    4.8458118  
   2 C       6.5701345    4.5789381    4.5500339  
   3 C       7.5556602    5.8567089    5.7680792  
   4 H       7.6984719    6.4082997    5.8356090  
   5 O       8.8557419    6.7951693    6.9914497  
   6 C       7.3001614    5.8087590    6.0404444  
   7 H       7.3551811    5.4805585    6.2228539  
   8 O       8.4449083    7.2075276    7.3312342  
   9 C       6.0700043    5.2112851    5.1354427  
  10 H       6.2864928    5.8533370    5.2464262  
  11 O       6.1752143    5.6099781    5.8768719  
  12 C       4.8358901    3.7297098    3.7368020  
  13 H       4.9350124    3.2232048    4.0468211  
  14 O       5.2507395    3.8560656    3.3448002  
  15 C       3.5593804    3.5841190    3.0227410  
  16 P       2.2652627 *  2.2667162 *  1.5613451 *
  17 H       6.6380610    4.1623162    4.7973039  
  18 H       9.1393557    7.0012043    7.0369519  
  19 H       9.2356840    7.7299383    7.9407546  
  20 H       7.1599336    6.5372581    6.8089869  
  21 H       3.5863042    3.9803900    3.8296347  
  22 H       3.8869491    4.4451972    3.1780430  
  23 H       6.8113131    4.7625390    4.2602607  
  24 O       0.9947598 *  3.2120986    2.6988881 *
  25 O       3.2182768    0.9938734 *  2.7078077 *
  26 H       0.0000000    3.4537223    2.7720956 *
  27 H       3.4537223    0.0000000    2.7878292 *
  28 O       2.7720956 *  2.7878292 *  0.0000000  

  * ... LESS THAN  3.000


     ATOMIC BASIS SET
     ----------------
 THE CONTRACTED PRIMITIVE FUNCTIONS HAVE BEEN UNNORMALIZED
 THE CONTRACTED BASIS FUNCTIONS ARE NOW NORMALIZED TO UNITY

  SHELL TYPE  PRIMITIVE        EXPONENT          CONTRACTION COEFFICIENT(S)

 O         

      1   S       1           322.0370000    0.059239393389
      1   S       2            48.4308000    0.351499960776
      1   S       3            10.4206000    0.707657921031

      2   L       4             7.4029400   -0.404453583190    0.244586106967
      2   L       5             1.5762000    1.221561761397    0.853955373466

      3   L       6             0.3736840    1.000000000000    1.000000000000

 C         

      4   S       7           172.2560000    0.061766907377
      4   S       8            25.9109000    0.358794042852
      4   S       9             5.5333500    0.700713083689

      5   L      10             3.6649800   -0.395895162119    0.236459946619
      5   L      11             0.7705450    1.215834355681    0.860618805716

      6   L      12             0.1958570    1.000000000000    1.000000000000

 C         

      7   S      13           172.2560000    0.061766907377
      7   S      14            25.9109000    0.358794042852
      7   S      15             5.5333500    0.700713083689

      8   L      16             3.6649800   -0.395895162119    0.236459946619
      8   L      17             0.7705450    1.215834355681    0.860618805716

      9   L      18             0.1958570    1.000000000000    1.000000000000

 H         

     10   S      19             5.4471780    0.156284978695
     10   S      20             0.8245472    0.904690876670

     11   S      21             0.1831916    1.000000000000

 O         

     12   S      22           322.0370000    0.059239393389
     12   S      23            48.4308000    0.351499960776
     12   S      24            10.4206000    0.707657921031

     13   L      25             7.4029400   -0.404453583190    0.244586106967
     13   L      26             1.5762000    1.221561761397    0.853955373466

     14   L      27             0.3736840    1.000000000000    1.000000000000

 C         

     15   S      28           172.2560000    0.061766907377
     15   S      29            25.9109000    0.358794042852
     15   S      30             5.5333500    0.700713083689

     16   L      31             3.6649800   -0.395895162119    0.236459946619
     16   L      32             0.7705450    1.215834355681    0.860618805716

     17   L      33             0.1958570    1.000000000000    1.000000000000

 H         

     18   S      34             5.4471780    0.156284978695
     18   S      35             0.8245472    0.904690876670

     19   S      36             0.1831916    1.000000000000

 O         

     20   S      37           322.0370000    0.059239393389
     20   S      38            48.4308000    0.351499960776
     20   S      39            10.4206000    0.707657921031

     21   L      40             7.4029400   -0.404453583190    0.244586106967
     21   L      41             1.5762000    1.221561761397    0.853955373466

     22   L      42             0.3736840    1.000000000000    1.000000000000

 C         

     23   S      43           172.2560000    0.061766907377
     23   S      44            25.9109000    0.358794042852
     23   S      45             5.5333500    0.700713083689

     24   L      46             3.6649800   -0.395895162119    0.236459946619
     24   L      47             0.7705450    1.215834355681    0.860618805716

     25   L      48             0.1958570    1.000000000000    1.000000000000

 H         

     26   S      49             5.4471780    0.156284978695
     26   S      50             0.8245472    0.904690876670

     27   S      51             0.1831916    1.000000000000

 O         

     28   S      52           322.0370000    0.059239393389
     28   S      53            48.4308000    0.351499960776
     28   S      54            10.4206000    0.707657921031

     29   L      55             7.4029400   -0.404453583190    0.244586106967
     29   L      56             1.5762000    1.221561761397    0.853955373466

     30   L      57             0.3736840    1.000000000000    1.000000000000

 C         

     31   S      58           172.2560000    0.061766907377
     31   S      59            25.9109000    0.358794042852
     31   S      60             5.5333500    0.700713083689

     32   L      61             3.6649800   -0.395895162119    0.236459946619
     32   L      62             0.7705450    1.215834355681    0.860618805716

     33   L      63             0.1958570    1.000000000000    1.000000000000

 H         

     34   S      64             5.4471780    0.156284978695
     34   S      65             0.8245472    0.904690876670

     35   S      66             0.1831916    1.000000000000

 O         

     36   S      67           322.0370000    0.059239393389
     36   S      68            48.4308000    0.351499960776
     36   S      69            10.4206000    0.707657921031

     37   L      70             7.4029400   -0.404453583190    0.244586106967
     37   L      71             1.5762000    1.221561761397    0.853955373466

     38   L      72             0.3736840    1.000000000000    1.000000000000

 C         

     39   S      73           172.2560000    0.061766907377
     39   S      74            25.9109000    0.358794042852
     39   S      75             5.5333500    0.700713083689

     40   L      76             3.6649800   -0.395895162119    0.236459946619
     40   L      77             0.7705450    1.215834355681    0.860618805716

     41   L      78             0.1958570    1.000000000000    1.000000000000

 P         

     42   S      79          1054.9000000    0.065540713549
     42   S      80           159.1950000    0.384036079392
     42   S      81            34.5304000    0.674541139449

     43   L      82            44.2866000   -0.102130053458    0.110851002536
     43   L      83            10.1019000    0.081592242708    0.456495010442
     43   L      84             2.7399700    0.969788507613    0.606936013883

     44   L      85             1.2186500   -0.371496021877    0.091582310217
     44   L      86             0.3955460    1.270993496131    0.934924104303

     45   L      87             0.1228110    1.000000000000    1.000000000000

 H         

     46   S      88             5.4471780    0.156284978695
     46   S      89             0.8245472    0.904690876670

     47   S      90             0.1831916    1.000000000000

 H         

     48   S      91             5.4471780    0.156284978695
     48   S      92             0.8245472    0.904690876670

     49   S      93             0.1831916    1.000000000000

 H         

     50   S      94             5.4471780    0.156284978695
     50   S      95             0.8245472    0.904690876670

     51   S      96             0.1831916    1.000000000000

 H         

     52   S      97             5.4471780    0.156284978695
     52   S      98             0.8245472    0.904690876670

     53   S      99             0.1831916    1.000000000000

 H         

     54   S     100             5.4471780    0.156284978695
     54   S     101             0.8245472    0.904690876670

     55   S     102             0.1831916    1.000000000000

 H         

     56   S     103             5.4471780    0.156284978695
     56   S     104             0.8245472    0.904690876670

     57   S     105             0.1831916    1.000000000000

 H         

     58   S     106             5.4471780    0.156284978695
     58   S     107             0.8245472    0.904690876670

     59   S     108             0.1831916    1.000000000000

 O         

     60   S     109           322.0370000    0.059239393389
     60   S     110            48.4308000    0.351499960776
     60   S     111            10.4206000    0.707657921031

     61   L     112             7.4029400   -0.404453583190    0.244586106967
     61   L     113             1.5762000    1.221561761397    0.853955373466

     62   L     114             0.3736840    1.000000000000    1.000000000000

 O         

     63   S     115           322.0370000    0.059239393389
     63   S     116            48.4308000    0.351499960776
     63   S     117            10.4206000    0.707657921031

     64   L     118             7.4029400   -0.404453583190    0.244586106967
     64   L     119             1.5762000    1.221561761397    0.853955373466

     65   L     120             0.3736840    1.000000000000    1.000000000000

 H         

     66   S     121             5.4471780    0.156284978695
     66   S     122             0.8245472    0.904690876670

     67   S     123             0.1831916    1.000000000000

 H         

     68   S     124             5.4471780    0.156284978695
     68   S     125             0.8245472    0.904690876670

     69   S     126             0.1831916    1.000000000000

 O         

     70   S     127           322.0370000    0.059239393389
     70   S     128            48.4308000    0.351499960776
     70   S     129            10.4206000    0.707657921031

     71   L     130             7.4029400   -0.404453583190    0.244586106967
     71   L     131             1.5762000    1.221561761397    0.853955373466

     72   L     132             0.3736840    1.000000000000    1.000000000000

 TOTAL NUMBER OF BASIS SET SHELLS             =   72
 NUMBER OF CARTESIAN GAUSSIAN BASIS FUNCTIONS =  165
 NUMBER OF ELECTRONS                          =  128
 CHARGE OF MOLECULE                           =    0
 SPIN MULTIPLICITY                            =    1
 NUMBER OF OCCUPIED ORBITALS (ALPHA)          =   64
 NUMBER OF OCCUPIED ORBITALS (BETA )          =   64
 TOTAL NUMBER OF ATOMS                        =   28
 THE NUCLEAR REPULSION ENERGY IS     1296.2562764093

     $CONTRL OPTIONS
     ---------------
 SCFTYP=RHF          RUNTYP=ENERGY       EXETYP=RUN     
 MPLEVL=       0     CITYP =NONE         CCTYP =NONE         VBTYP =NONE    
 DFTTYP=NONE         TDDFT =NONE    
 MULT  =       1     ICHARG=       0     NZVAR =       0     COORD =UNIQUE  
 PP    =NONE         RELWFN=NONE         LOCAL =NONE         NUMGRD=       F
 ISPHER=      -1     NOSYM =       0     MAXIT =      60     UNITS =ANGS    
 PLTORB=       F     MOLPLT=       F     AIMPAC=       F     FRIEND=        
 NPRINT=       7     IREST =       0     GEOM  =INPUT   
 NORMF =       0     NORMP =       0     ITOL  =      20     ICUT  =       9
 INTTYP=BEST         GRDTYP=BEST         QMTTOL= 1.0E-06

     $SYSTEM OPTIONS
     ---------------
  REPLICATED MEMORY=    30000000 WORDS (ON EVERY NODE).
 DISTRIBUTED MEMDDI=        1000 MILLION WORDS IN AGGREGATE,
 MEMDDI DISTRIBUTED OVER   8 PROCESSORS IS   125000000 WORDS/PROCESSOR.
 TOTAL MEMORY REQUESTED ON EACH PROCESSOR=   155000000 WORDS.
 TIMLIM=      525600.00 MINUTES, OR     365.0 DAYS.
 PARALL= T  BALTYP=  DLB     KDIAG=    0  COREFL= F
 MXSEQ2=     300 MXSEQ3=     150  mem10=         0

          ----------------
          PROPERTIES INPUT
          ----------------

     MOMENTS            FIELD           POTENTIAL          DENSITY
 IEMOM =       1   IEFLD =       0   IEPOT =       0   IEDEN =       0
 WHERE =COMASS     WHERE =NUCLEI     WHERE =NUCLEI     WHERE =NUCLEI  
 OUTPUT=BOTH       OUTPUT=BOTH       OUTPUT=BOTH       OUTPUT=BOTH    
 IEMINT=       0   IEFINT=       0                     IEDINT=       0
                                                       MORB  =       0
          EXTRAPOLATION IN EFFECT
          SOSCF IN EFFECT
 ORBITAL PRINTING OPTION: NPREO=     1   165     2     1

     -------------------------------
     INTEGRAL TRANSFORMATION OPTIONS
     -------------------------------
     NWORD  =            0
     CUTOFF = 1.0E-09     MPTRAN =       0
     DIRTRF =       T     AOINTS =DUP     

          ----------------------
          INTEGRAL INPUT OPTIONS
          ----------------------
 NOPK  =       1 NORDER=       0 SCHWRZ=       T

     ------------------------------------------
     THE POINT GROUP IS C1 , NAXIS= 0, ORDER= 1
     ------------------------------------------

     DIMENSIONS OF THE SYMMETRY SUBSPACES ARE
 A   =  165

 ..... DONE SETTING UP THE RUN .....
 CPU     0: STEP CPU TIME=     0.02 TOTAL CPU TIME=          0.0 (      0.0 MIN)
 TOTAL WALL CLOCK TIME=          0.1 SECONDS, CPU UTILIZATION IS    40.00%

          ********************
          1 ELECTRON INTEGRALS
          ********************
 ...... END OF ONE-ELECTRON INTEGRALS ......
 CPU     0: STEP CPU TIME=     0.01 TOTAL CPU TIME=          0.0 (      0.0 MIN)
 TOTAL WALL CLOCK TIME=          0.1 SECONDS, CPU UTILIZATION IS    50.00%

          -------------
          GUESS OPTIONS
          -------------
          GUESS =HUCKEL            NORB  =       0          NORDER=       0
          MIX   =       F          PRTMO =       F          PUNMO =       F
          TOLZ  = 1.0E-08          TOLE  = 1.0E-05
          SYMDEN=       F          PURIFY=       F

 INITIAL GUESS ORBITALS GENERATED BY HUCKEL   ROUTINE.
 HUCKEL GUESS REQUIRES    252285 WORDS.

 SYMMETRIES FOR INITIAL GUESS ORBITALS FOLLOW.   BOTH SET(S).
    64 ORBITALS ARE OCCUPIED (   19 CORE ORBITALS).
    20=A       21=A       22=A       23=A       24=A       25=A       26=A   
    27=A       28=A       29=A       30=A       31=A       32=A       33=A   
    34=A       35=A       36=A       37=A       38=A       39=A       40=A   
    41=A       42=A       43=A       44=A       45=A       46=A       47=A   
    48=A       49=A       50=A       51=A       52=A       53=A       54=A   
    55=A       56=A       57=A       58=A       59=A       60=A       61=A   
    62=A       63=A       64=A       65=A       66=A       67=A       68=A   
    69=A       70=A       71=A       72=A       73=A       74=A   
 ...... END OF INITIAL ORBITAL SELECTION ......
 CPU     0: STEP CPU TIME=     0.06 TOTAL CPU TIME=          0.1 (      0.0 MIN)
 TOTAL WALL CLOCK TIME=          0.2 SECONDS, CPU UTILIZATION IS    56.25%

                    ----------------------
                    AO INTEGRAL TECHNOLOGY
                    ----------------------
     S,P,L SHELL ROTATED AXIS INTEGRALS, REPROGRAMMED BY
        KAZUYA ISHIMURA (IMS) AND JOSE SIERRA (SYNSTAR).
     S,P,D,L SHELL ROTATED AXIS INTEGRALS PROGRAMMED BY
        KAZUYA ISHIMURA (INSTITUTE FOR MOLECULAR SCIENCE).
     S,P,D,F,G SHELL TO TOTAL QUARTET ANGULAR MOMENTUM SUM 5,
        ERIC PROGRAM BY GRAHAM FLETCHER (ELORET AND NASA ADVANCED
        SUPERCOMPUTING DIVISION, AMES RESEARCH CENTER).
     S,P,D,F,G,L SHELL GENERAL RYS QUADRATURE PROGRAMMED BY
        MICHEL DUPUIS (PACIFIC NORTHWEST NATIONAL LABORATORY).

          --------------------
          2 ELECTRON INTEGRALS
          --------------------

 DIRECT SCF METHOD SKIPS INTEGRAL STORAGE ON DISK.
 DIRECT TRANSFORMATION SKIPS AO INTEGRAL STORAGE ON DISK.
  ...... END OF TWO-ELECTRON INTEGRALS .....
 CPU     0: STEP CPU TIME=     0.01 TOTAL CPU TIME=          0.1 (      0.0 MIN)
 TOTAL WALL CLOCK TIME=          0.2 SECONDS, CPU UTILIZATION IS    58.82%

          --------------------------
                 RHF SCF CALCULATION
          --------------------------

     NUCLEAR ENERGY =      1296.2562764093
     MAXIT =   60     NPUNCH=    2
     EXTRAP=T  DAMP=F  SHIFT=F  RSTRCT=F  DIIS=F  DEM=F  SOSCF=T
     DENSITY MATRIX CONV=  2.00E-05
     SOSCF WILL OPTIMIZE    6464 ORBITAL ROTATIONS, SOGTOL=   0.250
     MEMORY REQUIRED FOR RHF ITERS=    268353 WORDS.

 DIRECT SCF CALCULATION, SCHWRZ=T   FDIFF=T,  DIRTHR=  0.00E+00 NITDIR=10
 SCHWARZ INEQUALITY OVERHEAD:     11670 INTEGRALS, T=        0.00

                                                                                   NONZERO     BLOCKS
 ITER EX DEM     TOTAL ENERGY        E CHANGE  DENSITY CHANGE     ORB. GRAD      INTEGRALS    SKIPPED
   1  0  0    -1165.3390882912 -1165.3390882912   0.966879965   0.000000000       36164404    2253385
          ---------------START SECOND ORDER SCF---------------
   2  1  0    -1167.7742760497    -2.4351877585   0.308894400   0.111328565       36143891    2269200
   3  2  0    -1167.8599746083    -0.0856985586   0.158003470   0.112226847       35794905    2339175
   4  3  0    -1168.0451685302    -0.1851939219   0.069285500   0.025712317       35274777    2398458
   5  4  0    -1168.0540575466    -0.0088890165   0.015456684   0.012968298       34763239    2438750
   6  5  0    -1168.0557729262    -0.0017153795   0.002645104   0.000877890       33147273    2530224
   7  6  0    -1168.0558357349    -0.0000628087   0.001782209   0.000513204       31841033    2583479
   8  7  0    -1168.0558494166    -0.0000136817   0.000378595   0.000262635       31188966    2610093
   9  8  0    -1168.0558502449    -0.0000008282   0.000135387   0.000050167       27992154    2721830
  10  9  0    -1168.0558503104    -0.0000000656   0.000023543   0.000016085       26018774    2786023
  11 10  0    -1168.0558503166    -0.0000000062   0.000007917   0.000006696       22803443    2892085
  12 11  0    -1168.0558503174    -0.0000000007   0.000002044   0.000000530       20344382    2967428

          -----------------
          DENSITY CONVERGED
          -----------------
     TIME TO FORM FOCK OPERATORS=       3.8 SECONDS (       0.3 SEC/ITER)
     FOCK TIME ON FIRST ITERATION=       0.4, LAST ITERATION=       0.2
     TIME TO SOLVE SCF EQUATIONS=       0.1 SECONDS (       0.0 SEC/ITER)

 FINAL RHF ENERGY IS    -1168.0558503174 AFTER  12 ITERATIONS

          ------------
          EIGENVECTORS
          ------------

                      1          2          3          4          5
                  -79.5805   -20.4962   -20.4904   -20.4882   -20.4839
                     A          A          A          A          A   
    1  O  1  S   -0.000001  -0.000849   0.000247   0.054005   0.982044
    2  O  1  S   -0.000010  -0.000128   0.000028   0.006606   0.098543
    3  O  1  X   -0.000005  -0.000014   0.000010   0.000570   0.003139
    4  O  1  Y   -0.000001   0.000017   0.000010  -0.000285  -0.001532
    5  O  1  Z    0.000003   0.000015  -0.000000  -0.000158   0.001632
    6  O  1  S    0.000020   0.000182  -0.000005  -0.006782  -0.048106
    7  O  1  X    0.000013   0.000057  -0.000032  -0.003151  -0.007805
    8  O  1  Y   -0.000014  -0.000086  -0.000055   0.002558   0.007406
    9  O  1  Z   -0.000008  -0.000067   0.000003   0.000745  -0.003737
   10  C  2  S    0.000024  -0.000014  -0.000001  -0.000919  -0.000929
   11  C  2  S    0.000115  -0.000129  -0.000009  -0.003561  -0.003538
   12  C  2  X   -0.000046  -0.000047  -0.000008   0.001611  -0.000057
   13  C  2  Y   -0.000007   0.000021   0.000006   0.000017   0.001258
   14  C  2  Z    0.000028  -0.000015  -0.000001  -0.000247   0.000117
   15  C  2  S   -0.000682   0.000453   0.000021   0.020112   0.023998
   16  C  2  X    0.000057  -0.000040   0.000086   0.007018  -0.006670
   17  C  2  Y    0.000302  -0.000272  -0.000072  -0.000274   0.010736
   18  C  2  Z   -0.000018   0.000449   0.000015  -0.007888  -0.009240
   19  C  3  S   -0.000013   0.000005  -0.000008   0.000148   0.000290
   20  C  3  S   -0.000070   0.000058  -0.000036   0.000230   0.001281
   21  C  3  X    0.000019   0.000039   0.000003  -0.000589  -0.000005
   22  C  3  Y    0.000006   0.000007  -0.000024  -0.000431  -0.000425
   23  C  3  Z   -0.000036   0.000033   0.000017  -0.000434  -0.000312
   24  C  3  S    0.000483  -0.000021   0.000300  -0.004719  -0.009096
   25  C  3  X    0.000126  -0.000218   0.000030  -0.002406  -0.004020
   26  C  3  Y    0.000098  -0.000159  -0.000100  -0.002039  -0.005205
   27  C  3  Z    0.000429  -0.000452  -0.000121   0.002998   0.001218
   28  H  4  S    0.000015  -0.000040  -0.000018   0.000836   0.000968
   29  H  4  S    0.000149  -0.000169  -0.000119   0.001006   0.000838
   30  O  5  S    0.000003   0.000073   0.000184  -0.001459   0.010225
   31  O  5  S    0.000025   0.000012   0.000032  -0.000183   0.001369
   32  O  5  X    0.000008  -0.000004   0.000004  -0.000122   0.000142
   33  O  5  Y    0.000008  -0.000001  -0.000012  -0.000177   0.000083
   34  O  5  Z    0.000006  -0.000014  -0.000001  -0.000009   0.000034
   35  O  5  S   -0.000115  -0.000006  -0.000045  -0.000456  -0.001401
   36  O  5  X   -0.000081   0.000034  -0.000024   0.000178  -0.000289
   37  O  5  Y   -0.000033   0.000013   0.000051   0.000761   0.000078
   38  O  5  Z   -0.000021   0.000069   0.000013   0.000009  -0.000115
   39  C  6  S   -0.000010   0.000002   0.000043   0.000101  -0.000185
   40  C  6  S   -0.000047   0.000006   0.000236   0.000885  -0.001203
   41  C  6  X    0.000061  -0.000065  -0.000053   0.000304  -0.000232
   42  C  6  Y    0.000033  -0.000013  -0.000015   0.000273  -0.000392
   43  C  6  Z    0.000034  -0.000092  -0.000015   0.000503  -0.000185
   44  C  6  S    0.000655  -0.000414  -0.001612  -0.001875   0.004252
   45  C  6  X    0.000172   0.000181  -0.000473  -0.001424   0.004287
   46  C  6  Y   -0.000494   0.000216   0.000123  -0.001446   0.002283
   47  C  6  Z   -0.000489   0.001001   0.000471  -0.004071   0.000700
   48  H  7  S    0.000043  -0.000098   0.000018   0.000782  -0.000725
   49  H  7  S    0.000046  -0.000398   0.000063   0.001829  -0.000065
   50  O  8  S    0.000009  -0.000413  -0.000578   0.004595  -0.002827
   51  O  8  S    0.000070  -0.000104  -0.000125   0.000878  -0.000504
   52  O  8  X   -0.000001   0.000015  -0.000008   0.000117  -0.000046
   53  O  8  Y    0.000006  -0.000019  -0.000011   0.000138   0.000041
   54  O  8  Z    0.000008  -0.000002  -0.000001  -0.000055  -0.000087
   55  O  8  S   -0.000322   0.000360   0.000319  -0.001825   0.001375
   56  O  8  X   -0.000080   0.000015   0.000117  -0.000729   0.000252
   57  O  8  Y   -0.000098   0.000173   0.000119  -0.000842   0.000132
   58  O  8  Z   -0.000058   0.000019   0.000026   0.000188   0.000464
   59  C  9  S   -0.000008   0.000058  -0.000013   0.000105   0.000144
   60  C  9  S   -0.000066   0.000370  -0.000035   0.000022   0.000750
   61  C  9  X   -0.000164   0.000194   0.000211  -0.000326   0.000246
   62  C  9  Y   -0.000038   0.000012   0.000043  -0.000605  -0.000179
   63  C  9  Z    0.000054   0.000044  -0.000108  -0.000404   0.000357
   64  C  9  S   -0.000343  -0.001272   0.001307  -0.003725  -0.005239
   65  C  9  X    0.001079  -0.001962  -0.001137   0.000014   0.000476
   66  C  9  Y    0.000085   0.000272   0.000596  -0.002580   0.000168
   67  C  9  Z   -0.000508  -0.000726   0.000761   0.002462  -0.004503
   68  H 10  S   -0.000103   0.000045   0.000006   0.000616  -0.000251
   69  H 10  S   -0.000063  -0.000316   0.000246   0.001099  -0.001286
   70  O 11  S    0.000003  -0.000912  -0.000360  -0.001001  -0.003158
   71  O 11  S    0.000016  -0.000259  -0.000086  -0.000167  -0.000683
   72  O 11  X   -0.000003  -0.000011  -0.000007  -0.000171   0.000068
   73  O 11  Y   -0.000002  -0.000013  -0.000012  -0.000183  -0.000114
   74  O 11  Z   -0.000023   0.000036   0.000022  -0.000028  -0.000098
   75  O 11  S   -0.000094   0.000842   0.000230  -0.000252   0.001663
   76  O 11  X   -0.000057  -0.000020   0.000071   0.000742  -0.000485
   77  O 11  Y   -0.000055   0.000354   0.000110   0.000482   0.000963
   78  O 11  Z    0.000110  -0.000167  -0.000148   0.000032   0.000432
   79  C 12  S    0.000103   0.000012  -0.000014  -0.000815  -0.000018
   80  C 12  S    0.000595   0.000324  -0.000103  -0.003392  -0.000348
   81  C 12  X    0.000085   0.000026  -0.000116  -0.000600   0.000577
   82  C 12  Y    0.000067   0.000369  -0.000113   0.001297  -0.000567
   83  C 12  Z    0.000007  -0.000139  -0.000128   0.000363  -0.000289
   84  C 12  S   -0.002922   0.001293  -0.000205   0.017373  -0.000065
   85  C 12  X   -0.001916   0.001407   0.000974  -0.003518  -0.003696
   86  C 12  Y   -0.000766  -0.002415   0.000590   0.008173  -0.001688
   87  C 12  Z    0.000519   0.000236   0.001708  -0.005807   0.002526
   88  H 13  S    0.000235  -0.000655  -0.000058  -0.000807  -0.000505
   89  H 13  S   -0.000017   0.000237  -0.001287   0.000222  -0.000313
   90  O 14  S   -0.000015   0.001894  -0.006038   0.982198  -0.053645
   91  O 14  S   -0.000078   0.000172  -0.000654   0.099480  -0.004142
   92  O 14  X    0.000095   0.000257  -0.000054  -0.001843  -0.000383
   93  O 14  Y    0.000017   0.000122  -0.000018  -0.002353   0.000608
   94  O 14  Z   -0.000048   0.000124   0.000032   0.002084  -0.000259
   95  O 14  S    0.000522   0.000663   0.000363  -0.051212  -0.002059
   96  O 14  X   -0.000110  -0.000653   0.000110   0.005538   0.003743
   97  O 14  Y   -0.000241  -0.000703   0.000002   0.006278  -0.003094
   98  O 14  Z    0.000186  -0.000264  -0.000200  -0.005213   0.000501
   99  C 15  S   -0.000288   0.000353   0.000278   0.000179  -0.000047
  100  C 15  S   -0.001845   0.002205   0.001701   0.000718  -0.000175
  101  C 15  X   -0.000075   0.000201   0.000530   0.000494  -0.000199
  102  C 15  Y   -0.000217   0.000167   0.000193   0.000067   0.000118
  103  C 15  Z   -0.000015   0.000575   0.000403  -0.000428   0.000046
  104  C 15  S    0.005990  -0.009287  -0.006953  -0.005488   0.002861
  105  C 15  X    0.000096  -0.002253  -0.005257   0.003149  -0.001306
  106  C 15  Y    0.002034  -0.002530  -0.002369  -0.003048  -0.000060
  107  C 15  Z    0.001202  -0.005812  -0.003567   0.001620   0.000532
  108  P 16  S    0.986995   0.000083   0.000080   0.000002   0.000000
  109  P 16  S    0.049231  -0.001298  -0.001164  -0.000033  -0.000003
  110  P 16  X    0.000040  -0.000034  -0.000407  -0.000074   0.000024
  111  P 16  Y   -0.000001  -0.000055   0.000090   0.000025  -0.000016
  112  P 16  Z    0.000074  -0.000446   0.000011   0.000013   0.000000
  113  P 16  S   -0.014931  -0.003770  -0.002942   0.000000  -0.000004
  114  P 16  X    0.000030   0.000185   0.002033   0.000390  -0.000125
  115  P 16  Y   -0.000211   0.000700  -0.000160  -0.000236   0.000104
  116  P 16  Z   -0.000120   0.002160  -0.000206  -0.000001  -0.000003
  117  P 16  S    0.000642   0.019791   0.017470   0.000907  -0.000027
  118  P 16  X   -0.000307  -0.004197   0.004748  -0.001581   0.000322
  119  P 16  Y    0.000797  -0.007943  -0.009356   0.000883  -0.000205
  120  P 16  Z    0.000065   0.006625  -0.001572  -0.001160  -0.000045
  121  H 17  S    0.000052  -0.000040  -0.000031  -0.000979  -0.000524
  122  H 17  S    0.000112  -0.000346   0.000045  -0.000232   0.000512
  123  H 18  S    0.000014   0.000008  -0.000012  -0.000436  -0.000219
  124  H 18  S   -0.000018  -0.000001   0.000004   0.000507   0.000513
  125  H 19  S    0.000026  -0.000042  -0.000014   0.000041   0.000050
  126  H 19  S   -0.000022   0.000027  -0.000001  -0.000460   0.000015
  127  H 20  S    0.000011  -0.000050  -0.000009   0.000269  -0.000078
  128  H 20  S   -0.000004   0.000085   0.000069  -0.000140   0.000304
  129  H 21  S   -0.000262   0.001182   0.000781  -0.000429  -0.000082
  130  H 21  S   -0.000263  -0.001355  -0.000357  -0.000343  -0.000215
  131  H 22  S   -0.000342  -0.000177   0.000416   0.000807  -0.000107
  132  H 22  S   -0.000643  -0.001395  -0.002230   0.000911   0.000042
  133  H 23  S   -0.000001  -0.000003  -0.000013   0.000733   0.003213
  134  H 23  S   -0.000029   0.000022   0.000089  -0.000612   0.004104
  135  O 24  S   -0.000137   0.052891   0.981930   0.005895  -0.000527
  136  O 24  S   -0.001303   0.006519   0.096771   0.000511  -0.000035
  137  O 24  X    0.000475  -0.000542  -0.000830  -0.000054   0.000008
  138  O 24  Y   -0.000290  -0.000045   0.002886  -0.000003   0.000004
  139  O 24  Z   -0.000092   0.000601   0.000575  -0.000099   0.000010
  140  O 24  S    0.002622  -0.006033  -0.040901   0.000146  -0.000075
  141  O 24  X   -0.002114   0.002678   0.002837   0.000118  -0.000015
  142  O 24  Y    0.001223   0.000347  -0.005078   0.000042  -0.000019
  143  O 24  Z    0.000373  -0.002231  -0.001123   0.000361  -0.000032
  144  O 25  S   -0.000129   0.981962  -0.052599  -0.002177   0.000969
  145  O 25  S   -0.001239   0.096964  -0.003892  -0.000176   0.000051
  146  O 25  X   -0.000172   0.001426   0.000424  -0.000210   0.000043
  147  O 25  Y   -0.000089   0.002108  -0.000599   0.000041  -0.000004
  148  O 25  Z    0.000512  -0.001587  -0.000290  -0.000090   0.000026
  149  O 25  S    0.002369  -0.041403  -0.001583   0.000156   0.000057
  150  O 25  X    0.000747  -0.002740  -0.001820   0.000651  -0.000135
  151  O 25  Y    0.000360  -0.003122   0.002059  -0.000153   0.000017
  152  O 25  Z   -0.002221   0.004306   0.001816   0.000227  -0.000090
  153  H 26  S   -0.000313   0.000090   0.002520  -0.000108   0.000026
  154  H 26  S    0.000202  -0.000412   0.004522   0.000285  -0.000070
  155  H 27  S   -0.000273   0.002460  -0.000149  -0.000034  -0.000005
  156  H 27  S    0.000046   0.004470  -0.000980  -0.000010   0.000069
  157  O 28  S   -0.000140   0.001284   0.001183   0.001074  -0.000105
  158  O 28  S   -0.001091   0.000545   0.000484   0.000453  -0.000041
  159  O 28  X   -0.000036  -0.000300   0.000461  -0.000096   0.000019
  160  O 28  Y    0.000299  -0.000218  -0.000394  -0.000062   0.000000
  161  O 28  Z   -0.000088   0.000498  -0.000210  -0.000030  -0.000006
  162  O 28  S    0.002361  -0.000573  -0.000513  -0.001121   0.000106
  163  O 28  X    0.000129   0.001119  -0.001746   0.000360  -0.000071
  164  O 28  Y   -0.002431   0.000921   0.001591   0.000321   0.000002
  165  O 28  Z    0.000751  -0.001911   0.000756   0.000099   0.000023

                      6          7          8          9         10
                  -20.4740   -20.4675   -20.4600   -20.4054   -11.3081
                     A          A          A          A          A   
    1  O  1  S   -0.010067   0.002657   0.003029   0.000042  -0.000135
    2  O  1  S   -0.000659   0.000052  -0.000050  -0.000009  -0.000116
    3  O  1  X   -0.000233  -0.000068  -0.000027  -0.000025   0.000333
    4  O  1  Y   -0.000320  -0.000034   0.000094  -0.000018  -0.000382
    5  O  1  Z   -0.000203  -0.000087   0.000051   0.000021   0.000367
    6  O  1  S   -0.000030   0.000954   0.001302   0.000026   0.006340
    7  O  1  X    0.000505   0.000397   0.000328   0.000117  -0.000127
    8  O  1  Y    0.000978  -0.000121  -0.000802   0.000065  -0.002583
    9  O  1  Z    0.000866   0.000451  -0.000202  -0.000100  -0.000560
   10  C  2  S    0.000148  -0.000073   0.000073   0.000024   0.987954
   11  C  2  S    0.000413  -0.000505   0.000144   0.000163   0.102689
   12  C  2  X    0.000547   0.000116  -0.000120   0.000042   0.000479
   13  C  2  Y    0.000392   0.000479   0.000366  -0.000043  -0.001351
   14  C  2  Z    0.000403  -0.000008  -0.000114  -0.000045  -0.000200
   15  C  2  S   -0.004463   0.000217  -0.003075  -0.000521  -0.081981
   16  C  2  X    0.003884   0.001015   0.000347  -0.000447   0.005118
   17  C  2  Y    0.002046  -0.002486  -0.000455   0.000301   0.014605
   18  C  2  Z   -0.003649  -0.000118   0.002927   0.000446   0.002513
   19  C  3  S   -0.000976   0.000232  -0.000139   0.000011  -0.004774
   20  C  3  S   -0.004155   0.000850  -0.001009   0.000078  -0.004597
   21  C  3  X   -0.001184  -0.000191  -0.000638   0.000014   0.000025
   22  C  3  Y    0.000128   0.000470   0.000144   0.000042   0.000324
   23  C  3  Z   -0.000182  -0.000190   0.000236   0.000037  -0.000276
   24  C  3  S    0.024151  -0.006913   0.001920  -0.000458   0.029708
   25  C  3  X   -0.009849   0.000439   0.004578   0.000128   0.011754
   26  C  3  Y   -0.001415   0.004421   0.001030   0.000343   0.010713
   27  C  3  Z    0.011176   0.002426  -0.001696  -0.000265   0.008141
   28  H  4  S   -0.000588   0.000807  -0.000764  -0.000018  -0.001908
   29  H  4  S    0.000661   0.001082   0.000003  -0.000042   0.002787
   30  O  5  S    0.983421  -0.010339   0.005956   0.000059   0.000036
   31  O  5  S    0.098253  -0.000855   0.000194  -0.000022  -0.000032
   32  O  5  X    0.002397   0.000121  -0.000035   0.000005  -0.000283
   33  O  5  Y    0.002195  -0.000392  -0.000024   0.000007  -0.000070
   34  O  5  Z   -0.001921   0.000108   0.000073   0.000001   0.000097
   35  O  5  S   -0.046827   0.000655   0.001616   0.000164  -0.001340
   36  O  5  X   -0.008673  -0.000170   0.000616   0.000048  -0.000731
   37  O  5  Y   -0.003778   0.001026   0.000030  -0.000040  -0.000496
   38  O  5  Z    0.005146  -0.000603  -0.000537  -0.000024  -0.000438
   39  C  6  S    0.000276  -0.000977   0.000260  -0.000016  -0.003369
   40  C  6  S    0.001166  -0.004091   0.000991  -0.000080  -0.001984
   41  C  6  X    0.000308  -0.000651  -0.000458   0.000057   0.000248
   42  C  6  Y   -0.000325  -0.000876   0.000047  -0.000041  -0.001020
   43  C  6  Z    0.000163   0.000173   0.000281  -0.000001  -0.000064
   44  C  6  S   -0.008947   0.024439  -0.007911   0.000483   0.003937
   45  C  6  X    0.002957  -0.006802  -0.005250  -0.000270   0.002914
   46  C  6  Y   -0.005093  -0.007850   0.002843   0.000657  -0.000306
   47  C  6  Z   -0.001654  -0.010421  -0.000844  -0.000300  -0.000488
   48  H  7  S    0.000827  -0.000712   0.000824   0.000015  -0.000202
   49  H  7  S    0.000695   0.000393   0.000964   0.000090  -0.001060
   50  O  8  S    0.010448   0.983435  -0.009757  -0.000070  -0.000020
   51  O  8  S    0.001238   0.098336  -0.000771   0.000012  -0.000247
   52  O  8  X   -0.000032  -0.000353   0.000390   0.000013   0.000004
   53  O  8  Y    0.000121   0.003088  -0.000113   0.000015  -0.000285
   54  O  8  Z   -0.000041   0.002172  -0.000166  -0.000018  -0.000007
   55  O  8  S   -0.000832  -0.047011   0.000555  -0.000031   0.000307
   56  O  8  X   -0.000009  -0.001887  -0.000870  -0.000034  -0.000145
   57  O  8  Y    0.000066  -0.009257   0.000430  -0.000087   0.001067
   58  O  8  Z    0.000277  -0.005487   0.000688   0.000080   0.000044
   59  C  9  S   -0.000140   0.000265  -0.001004   0.000050   0.001114
   60  C  9  S   -0.001024   0.001074  -0.004344   0.000328   0.001534
   61  C  9  X    0.000352   0.000397   0.000223   0.000002  -0.000241
   62  C  9  Y   -0.000569   0.000096  -0.001131   0.000078  -0.000391
   63  C  9  Z    0.000106  -0.000259  -0.000472  -0.000096  -0.000016
   64  C  9  S    0.002332  -0.008685   0.024696  -0.001721  -0.009503
   65  C  9  X   -0.001103   0.005099   0.004391  -0.000183   0.002078
   66  C  9  Y    0.004972  -0.000064  -0.011578  -0.001768  -0.002948
   67  C  9  Z   -0.000948   0.000804   0.009972   0.000946  -0.004258
   68  H 10  S   -0.000774   0.000844  -0.000565   0.000255   0.000459
   69  H 10  S   -0.000102   0.000800   0.001070   0.000604  -0.001240
   70  O 11  S   -0.005922   0.009832   0.983497  -0.000421  -0.000028
   71  O 11  S   -0.000988   0.001200   0.098425   0.000066  -0.000238
   72  O 11  X   -0.000029  -0.000116  -0.003388  -0.000007  -0.000008
   73  O 11  Y   -0.000074   0.000037   0.001479   0.000016  -0.000137
   74  O 11  Z    0.000097   0.000094  -0.001271  -0.000017  -0.000154
   75  O 11  S    0.002244  -0.000808  -0.047529  -0.000484   0.000750
   76  O 11  X   -0.000138  -0.000058   0.008415   0.000160  -0.000160
   77  O 11  Y    0.000747   0.000051  -0.006882  -0.000155   0.000884
   78  O 11  Z   -0.000474  -0.000375   0.003057   0.000059   0.000708
   79  C 12  S    0.000095  -0.000094   0.000140  -0.000040  -0.006113
   80  C 12  S    0.000355  -0.000595   0.000340  -0.000146  -0.003830
   81  C 12  X    0.000467   0.000642   0.000155   0.000267   0.001552
   82  C 12  Y    0.000002   0.000251   0.000412  -0.000001  -0.000528
   83  C 12  Z   -0.000280  -0.000068   0.000624   0.000396  -0.000747
   84  C 12  S   -0.003954   0.000737  -0.004641   0.001194   0.009926
   85  C 12  X   -0.000607  -0.004331   0.001348  -0.001616  -0.012218
   86  C 12  Y   -0.000581  -0.000192   0.006212   0.001339   0.002209
   87  C 12  Z    0.003337   0.000284  -0.004049  -0.003609   0.004200
   88  H 13  S   -0.000205  -0.000276   0.000947   0.000411  -0.001387
   89  H 13  S   -0.000994   0.000105   0.002011   0.001721  -0.002831
   90  O 14  S    0.001953  -0.004647   0.000888  -0.000997  -0.000156
   91  O 14  S    0.000102   0.000006   0.000039   0.000268  -0.000208
   92  O 14  X   -0.000020  -0.000035   0.000294   0.000182  -0.000492
   93  O 14  Y    0.000297  -0.000075   0.000015   0.000081  -0.000243
   94  O 14  Z    0.000086   0.000126   0.000063   0.000006   0.000707
   95  O 14  S   -0.000180  -0.001771  -0.000579  -0.001263   0.006626
   96  O 14  X    0.000706   0.000513  -0.001830  -0.000785  -0.004127
   97  O 14  Y   -0.001600   0.000860   0.000532   0.000335   0.002428
   98  O 14  Z   -0.000430  -0.000663  -0.000161   0.000104  -0.000748
   99  C 15  S   -0.000071  -0.000025   0.000067   0.000014  -0.000505
  100  C 15  S   -0.000387  -0.000127   0.000510   0.000181  -0.000649
  101  C 15  X   -0.000054  -0.000248  -0.000186  -0.000263  -0.000166
  102  C 15  Y    0.000016  -0.000144  -0.000087   0.000849   0.000192
  103  C 15  Z    0.000074  -0.000104  -0.000334  -0.000696  -0.000172
  104  C 15  S    0.002585   0.002099  -0.001881   0.000933   0.005991
  105  C 15  X   -0.001721  -0.000229   0.001680   0.002755  -0.002430
  106  C 15  Y    0.000113   0.000634  -0.000586  -0.003997  -0.001444
  107  C 15  Z   -0.000288   0.001442   0.002255   0.004790   0.002486
  108  P 16  S   -0.000002  -0.000005   0.000002   0.000066  -0.000001
  109  P 16  S    0.000002   0.000023   0.000049  -0.000829  -0.000001
  110  P 16  X   -0.000012  -0.000023   0.000000  -0.000035  -0.000009
  111  P 16  Y   -0.000002  -0.000042  -0.000011  -0.000241  -0.000038
  112  P 16  Z   -0.000011  -0.000002   0.000017   0.000065   0.000009
  113  P 16  S   -0.000128  -0.000189   0.000530  -0.000282  -0.000141
  114  P 16  X    0.000059   0.000197  -0.000039   0.000128   0.000067
  115  P 16  Y    0.000017   0.000270   0.000007   0.002571   0.000216
  116  P 16  Z    0.000057   0.000020  -0.000023  -0.000842  -0.000012
  117  P 16  S    0.000292  -0.000433  -0.001502   0.011690   0.000266
  118  P 16  X    0.000040  -0.000083   0.000564   0.000717   0.000003
  119  P 16  Y   -0.000265   0.000250   0.001087   0.012577   0.000087
  120  P 16  Z   -0.000098   0.000138  -0.000583  -0.002965  -0.000598
  121  H 17  S    0.000823  -0.000296  -0.000207   0.000039   0.000974
  122  H 17  S    0.001518   0.000198  -0.000936  -0.000197   0.015083
  123  H 18  S    0.003053  -0.000451  -0.000206   0.000010  -0.000478
  124  H 18  S    0.004873  -0.000404   0.000530  -0.000031   0.000979
  125  H 19  S   -0.000355   0.003096  -0.000478  -0.000011  -0.000518
  126  H 19  S    0.000828   0.004857  -0.000388  -0.000015   0.001359
  127  H 20  S    0.000008  -0.000438   0.003184   0.000049   0.000023
  128  H 20  S    0.000104   0.000933   0.004945  -0.000173   0.000157
  129  H 21  S   -0.000083  -0.000022  -0.000441  -0.001009  -0.000479
  130  H 21  S    0.000160  -0.000059   0.000409  -0.001207  -0.000560
  131  H 22  S   -0.000199   0.000088   0.000495   0.001076   0.000012
  132  H 22  S   -0.000475   0.000365   0.001246   0.001506   0.000561
  133  H 23  S   -0.000350  -0.000231  -0.000056   0.000024  -0.000252
  134  H 23  S   -0.000671   0.000311   0.000290  -0.000152   0.001976
  135  O 24  S   -0.000165   0.000560   0.000391  -0.001172  -0.000001
  136  O 24  S    0.000001  -0.000003  -0.000022   0.000303  -0.000011
  137  O 24  X    0.000018   0.000011  -0.000010  -0.000055   0.000011
  138  O 24  Y    0.000014  -0.000003   0.000011   0.000740   0.000018
  139  O 24  Z    0.000011   0.000008  -0.000052  -0.000234  -0.000013
  140  O 24  S   -0.000092   0.000166   0.000245  -0.000472   0.000008
  141  O 24  X   -0.000036  -0.000081  -0.000037   0.000130  -0.000048
  142  O 24  Y   -0.000055   0.000018  -0.000047  -0.002940  -0.000074
  143  O 24  Z   -0.000034  -0.000021   0.000190   0.000838   0.000064
  144  O 25  S   -0.000077   0.000391   0.000847  -0.001131  -0.000011
  145  O 25  S   -0.000001  -0.000004  -0.000064   0.000319  -0.000107
  146  O 25  X    0.000007   0.000020  -0.000063  -0.000012   0.000004
  147  O 25  Y   -0.000010   0.000020   0.000016   0.000723   0.000044
  148  O 25  Z   -0.000007   0.000021   0.000021  -0.000275   0.000005
  149  O 25  S   -0.000020   0.000072   0.000554  -0.000516   0.000325
  150  O 25  X   -0.000027  -0.000048   0.000214  -0.000036  -0.000035
  151  O 25  Y    0.000038  -0.000068  -0.000063  -0.002865  -0.000153
  152  O 25  Z    0.000030  -0.000079  -0.000212   0.001001  -0.000087
  153  H 26  S    0.000036  -0.000017   0.000005   0.001217   0.000033
  154  H 26  S   -0.000009   0.000060  -0.000090  -0.001736  -0.000027
  155  H 27  S   -0.000015   0.000027  -0.000041   0.001247   0.000015
  156  H 27  S    0.000021  -0.000006   0.000132  -0.001821   0.000107
  157  O 28  S   -0.000065   0.000076   0.000447   0.983378   0.000010
  158  O 28  S   -0.000026   0.000028   0.000149   0.096280   0.000101
  159  O 28  X    0.000004  -0.000006   0.000044   0.000119   0.000009
  160  O 28  Y   -0.000004   0.000001  -0.000002  -0.003517  -0.000025
  161  O 28  Z   -0.000012   0.000016  -0.000012   0.001255  -0.000022
  162  O 28  S    0.000070  -0.000064  -0.000384  -0.040124  -0.000323
  163  O 28  X   -0.000015   0.000016  -0.000159  -0.000252  -0.000027
  164  O 28  Y    0.000003   0.000017   0.000053   0.007507   0.000158
  165  O 28  Z    0.000046  -0.000068   0.000037  -0.002720   0.000074

                     11         12         13         14         15
                  -11.2585   -11.2467   -11.2460   -11.2447   -11.2057
                     A          A          A          A          A   
    1  O  1  S   -0.000044   0.000079  -0.000051   0.000030   0.000007
    2  O  1  S   -0.000412   0.000374  -0.000575   0.000206   0.000037
    3  O  1  X    0.000056   0.000070   0.000122   0.000060   0.000013
    4  O  1  Y    0.000118   0.000357   0.000414   0.000071  -0.000006
    5  O  1  Z   -0.000084  -0.000028   0.000095   0.000057  -0.000038
    6  O  1  S    0.002034  -0.002561   0.001712  -0.001271  -0.000066
    7  O  1  X   -0.000164  -0.000212  -0.000319  -0.000293  -0.000137
    8  O  1  Y   -0.000817   0.000520  -0.001728   0.000165   0.000163
    9  O  1  Z    0.000456   0.000121  -0.000341  -0.000358   0.000168
   10  C  2  S    0.005228   0.002870   0.003619   0.000345   0.000220
   11  C  2  S   -0.002465  -0.003868  -0.002101   0.000123  -0.000995
   12  C  2  X   -0.000647  -0.000546   0.000431   0.000098   0.000162
   13  C  2  Y    0.000824  -0.000511   0.000935  -0.000044   0.000133
   14  C  2  Z   -0.000283  -0.000216  -0.000339   0.000305  -0.000120
   15  C  2  S    0.009291   0.031513   0.008517   0.000924   0.005083
   16  C  2  X    0.004283  -0.009028  -0.001520  -0.002811   0.000729
   17  C  2  Y   -0.006406  -0.013269  -0.005626   0.001495  -0.002094
   18  C  2  Z    0.001074  -0.005667   0.001150  -0.000495  -0.000599
   19  C  3  S    0.002835   0.963152   0.147995   0.165208  -0.000380
   20  C  3  S    0.001210   0.104693   0.013275   0.014690   0.000551
   21  C  3  X   -0.000202   0.001179   0.000642  -0.000728  -0.000103
   22  C  3  Y   -0.000354  -0.000279  -0.000474   0.000699   0.000072
   23  C  3  Z   -0.000094   0.000633   0.000261   0.000494   0.000003
   24  C  3  S   -0.005854  -0.103791   0.010889  -0.005893  -0.004437
   25  C  3  X   -0.002839  -0.015765   0.002999   0.003203  -0.001667
   26  C  3  Y    0.001460   0.005294  -0.015355  -0.003212   0.000074
   27  C  3  Z   -0.001561  -0.007447  -0.000577  -0.002836  -0.001068
   28  H  4  S    0.000326   0.001652  -0.001644  -0.000868   0.000170
   29  H  4  S   -0.000502   0.013475   0.002392   0.000633  -0.000098
   30  O  5  S   -0.000007  -0.000244   0.000029  -0.000094  -0.000017
   31  O  5  S   -0.000054  -0.000821   0.000165  -0.000740  -0.000148
   32  O  5  X   -0.000087   0.000436  -0.000252  -0.000230  -0.000077
   33  O  5  Y   -0.000035  -0.000038   0.000170   0.000304   0.000036
   34  O  5  Z   -0.000084  -0.000525  -0.000082  -0.000066  -0.000036
   35  O  5  S    0.000087   0.009474  -0.000687   0.003464   0.000454
   36  O  5  X    0.000492   0.004283   0.000582   0.002042   0.000507
   37  O  5  Y    0.000029  -0.000430   0.000251  -0.001170  -0.000158
   38  O  5  Z    0.000354  -0.000114   0.000389  -0.000226   0.000126
   39  C  6  S   -0.011120  -0.167159   0.968867   0.100750   0.002396
   40  C  6  S   -0.002118  -0.020488   0.104506   0.007745  -0.001091
   41  C  6  X   -0.000819  -0.000510   0.000571   0.000573  -0.000246
   42  C  6  Y    0.000045   0.000317   0.001173   0.000183  -0.000090
   43  C  6  Z    0.000070   0.000126  -0.000613  -0.000434   0.000036
   44  C  6  S    0.002236   0.038075  -0.097776   0.017966   0.006357
   45  C  6  X   -0.001415  -0.007830  -0.011448   0.014221   0.002994
   46  C  6  Y    0.000937   0.017950  -0.008535  -0.002160   0.001709
   47  C  6  Z    0.000957  -0.001516   0.008228  -0.002396  -0.000877
   48  H  7  S   -0.000020  -0.001788   0.001219  -0.002126  -0.000528
   49  H  7  S   -0.001640  -0.001612   0.013604   0.001581   0.000274
   50  O  8  S   -0.000022   0.000063  -0.000239   0.000029  -0.000001
   51  O  8  S   -0.000275   0.000129  -0.000813   0.000061  -0.000039
   52  O  8  X   -0.000317  -0.000150   0.000253  -0.000328  -0.000033
   53  O  8  Y   -0.000022  -0.000172   0.000355  -0.000240   0.000007
   54  O  8  Z    0.000108  -0.000126   0.000497   0.000111  -0.000031
   55  O  8  S    0.000549  -0.002082   0.009372  -0.000749   0.000168
   56  O  8  X    0.001367   0.000331   0.002840   0.000234   0.000034
   57  O  8  Y    0.000013  -0.001621   0.003123   0.000664  -0.000077
   58  O  8  Z   -0.000476   0.000046  -0.000084  -0.000373   0.000172
   59  C  9  S   -0.014928  -0.147222  -0.127327   0.968936   0.003342
   60  C  9  S   -0.005278  -0.018015  -0.017013   0.103667  -0.000431
   61  C  9  X    0.000562   0.001143  -0.000176  -0.000376  -0.000933
   62  C  9  Y    0.000091  -0.000988  -0.000010   0.000744  -0.000288
   63  C  9  Z    0.000019  -0.000217   0.000080   0.001038   0.000272
   64  C  9  S    0.030096   0.016944   0.040972  -0.094355  -0.001224
   65  C  9  X    0.008708  -0.000632  -0.017268   0.001218   0.003642
   66  C  9  Y    0.013830   0.005948   0.003635  -0.010340  -0.000052
   67  C  9  Z    0.005370   0.000914   0.005922  -0.010788  -0.001864
   68  H 10  S   -0.002067  -0.000618  -0.002087   0.000696  -0.000182
   69  H 10  S    0.000694  -0.003440  -0.001660   0.013060  -0.001149
   70  O 11  S    0.000028  -0.000025   0.000064  -0.000262   0.000035
   71  O 11  S   -0.000127  -0.000446   0.000109  -0.001103   0.000338
   72  O 11  X   -0.000097   0.000223   0.000126  -0.000338   0.000169
   73  O 11  Y   -0.000594  -0.000256  -0.000310   0.000227   0.000129
   74  O 11  Z   -0.000102   0.000048   0.000035  -0.000436   0.000006
   75  O 11  S   -0.000967   0.000508  -0.002208   0.010290  -0.001002
   76  O 11  X    0.000282  -0.000794   0.001362  -0.001047  -0.000880
   77  O 11  Y    0.000734   0.000565  -0.000322   0.004834  -0.000827
   78  O 11  Z    0.000183  -0.000160  -0.000221   0.000793   0.000186
   79  C 12  S    0.988219  -0.006333   0.008595   0.014125   0.001228
   80  C 12  S    0.106410   0.000821   0.000448  -0.002095  -0.001507
   81  C 12  X   -0.000538  -0.000323   0.001178   0.000012  -0.000070
   82  C 12  Y    0.000252  -0.000040   0.000755  -0.000259   0.000330
   83  C 12  Z   -0.000614   0.000556  -0.000466  -0.000081   0.000193
   84  C 12  S   -0.098811  -0.007280  -0.005577   0.027167   0.019366
   85  C 12  X    0.001169   0.007636  -0.003265  -0.013271   0.013008
   86  C 12  Y    0.005920   0.002091   0.000551  -0.012482  -0.000850
   87  C 12  Z    0.008422  -0.001061   0.004560  -0.004421  -0.004646
   88  H 13  S    0.001167   0.001093  -0.000117  -0.001863  -0.000943
   89  H 13  S    0.014329   0.000281  -0.002423   0.000407  -0.000066
   90  O 14  S   -0.000237  -0.000000   0.000067  -0.000005   0.000048
   91  O 14  S   -0.000678  -0.000354   0.000652  -0.000408   0.000130
   92  O 14  X    0.000068   0.000326  -0.000159   0.000123  -0.000503
   93  O 14  Y   -0.000568   0.000136  -0.000316   0.000379   0.000368
   94  O 14  Z    0.000608  -0.000062   0.000046  -0.000007   0.000279
   95  O 14  S    0.009017  -0.000217  -0.001738   0.000262  -0.001647
   96  O 14  X    0.003713   0.000761   0.001461  -0.000307   0.001310
   97  O 14  Y   -0.004633  -0.000777   0.001406   0.000379  -0.000827
   98  O 14  Z   -0.001716   0.000151  -0.000727   0.000351  -0.000958
   99  C 15  S   -0.001780   0.001521  -0.002251  -0.003559   0.987785
  100  C 15  S   -0.002366   0.000758  -0.001409  -0.001209   0.104100
  101  C 15  X   -0.000334  -0.000130   0.000210   0.000870   0.000348
  102  C 15  Y   -0.000226  -0.000015   0.000292   0.000629   0.000938
  103  C 15  Z    0.000161  -0.000083   0.000114   0.000261   0.000738
  104  C 15  S    0.021699  -0.003771   0.006237   0.001367  -0.086318
  105  C 15  X   -0.014828   0.001992  -0.004565  -0.001941   0.004197
  106  C 15  Y   -0.000567  -0.000114  -0.001678  -0.001089  -0.001968
  107  C 15  Z    0.003198  -0.000558   0.000113  -0.001021  -0.005120
  108  P 16  S   -0.000017   0.000002  -0.000000  -0.000001   0.000051
  109  P 16  S   -0.000046   0.000015  -0.000024  -0.000182  -0.000787
  110  P 16  X   -0.000151  -0.000004  -0.000004  -0.000029   0.000203
  111  P 16  Y   -0.000089   0.000022  -0.000004  -0.000001   0.000258
  112  P 16  Z   -0.000023   0.000009   0.000015  -0.000001   0.000106
  113  P 16  S   -0.002160   0.000297  -0.000209  -0.001666  -0.001067
  114  P 16  X    0.001201  -0.000013  -0.000044   0.000416  -0.002026
  115  P 16  Y    0.000702  -0.000174   0.000014   0.000096  -0.002337
  116  P 16  Z    0.000048  -0.000047  -0.000111  -0.000100  -0.001384
  117  P 16  S    0.003760  -0.000507   0.001314   0.004664   0.017872
  118  P 16  X   -0.001962  -0.000001   0.000178  -0.003095  -0.006048
  119  P 16  Y   -0.002335   0.000468  -0.001008  -0.001582  -0.009146
  120  P 16  Z   -0.000448   0.000070  -0.000343   0.000381  -0.001629
  121  H 17  S   -0.001212  -0.002231  -0.001032   0.000308  -0.000379
  122  H 17  S   -0.002142   0.000974  -0.001843  -0.000147  -0.000364
  123  H 18  S   -0.000100  -0.000413   0.000210   0.000133   0.000012
  124  H 18  S    0.000239   0.001784   0.001531   0.001345   0.000120
  125  H 19  S    0.000318  -0.000108  -0.000304   0.000165  -0.000001
  126  H 19  S    0.000181  -0.000002   0.001748   0.001685   0.000271
  127  H 20  S    0.000405  -0.000427  -0.000141  -0.000196  -0.000210
  128  H 20  S    0.001573   0.001304   0.000664   0.002334  -0.000084
  129  H 21  S   -0.000969   0.000087  -0.000484  -0.000239   0.000950
  130  H 21  S    0.000794   0.000110  -0.000237  -0.000324   0.012869
  131  H 22  S   -0.001578   0.000176  -0.000563  -0.000061   0.000682
  132  H 22  S   -0.000107   0.000311  -0.000255  -0.001791   0.012427
  133  H 23  S   -0.000023   0.000225   0.000219   0.000189   0.000017
  134  H 23  S    0.000533   0.001352   0.001041  -0.000049   0.000046
  135  O 24  S    0.000003  -0.000003   0.000012   0.000003   0.000112
  136  O 24  S   -0.000018  -0.000026   0.000101   0.000034   0.000943
  137  O 24  X    0.000145  -0.000007   0.000018  -0.000029  -0.000088
  138  O 24  Y    0.000043   0.000001   0.000028  -0.000076  -0.000181
  139  O 24  Z    0.000115  -0.000016   0.000029   0.000040   0.000108
  140  O 24  S   -0.000249   0.000140  -0.000443  -0.000120  -0.003520
  141  O 24  X   -0.000402  -0.000004   0.000035   0.000178   0.001445
  142  O 24  Y   -0.000168  -0.000000  -0.000120   0.000297   0.000675
  143  O 24  Z   -0.000355   0.000052  -0.000094  -0.000137  -0.000300
  144  O 25  S    0.000046   0.000001   0.000000   0.000032   0.000135
  145  O 25  S    0.000425   0.000016  -0.000010   0.000248   0.001144
  146  O 25  X   -0.000077  -0.000041   0.000070   0.000097  -0.000011
  147  O 25  Y   -0.000255  -0.000006  -0.000008   0.000037  -0.000013
  148  O 25  Z    0.000048  -0.000025   0.000002   0.000005  -0.000038
  149  O 25  S   -0.001373   0.000021  -0.000063  -0.001200  -0.004307
  150  O 25  X    0.000507   0.000146  -0.000229  -0.000260   0.000062
  151  O 25  Y    0.001004   0.000012   0.000054  -0.000107   0.000394
  152  O 25  Z    0.000232   0.000062   0.000013   0.000330   0.001347
  153  H 26  S    0.000096  -0.000015   0.000090  -0.000173  -0.000132
  154  H 26  S    0.000442   0.000016  -0.000097   0.000467   0.000356
  155  H 27  S   -0.000146  -0.000022  -0.000033   0.000157   0.000215
  156  H 27  S   -0.000154  -0.000043   0.000140  -0.000246  -0.000053
  157  O 28  S   -0.000002   0.000002  -0.000004   0.000013   0.000011
  158  O 28  S    0.000013   0.000023  -0.000037   0.000155   0.000149
  159  O 28  X   -0.000130   0.000001   0.000014  -0.000194  -0.000384
  160  O 28  Y   -0.000081   0.000009  -0.000022  -0.000065  -0.000262
  161  O 28  Z   -0.000058   0.000010  -0.000036   0.000021  -0.000209
  162  O 28  S    0.000094  -0.000093   0.000152  -0.000405  -0.000055
  163  O 28  X    0.000469  -0.000003  -0.000055   0.000761   0.001609
  164  O 28  Y    0.000288  -0.000036   0.000081   0.000296   0.001096
  165  O 28  Z    0.000211  -0.000038   0.000141  -0.000084   0.000898

                     16         17         18         19         20
                   -7.6267    -5.5139    -5.5132    -5.5130    -1.4243
                     A          A          A          A          A   
    1  O  1  S    0.000003   0.000005  -0.000007  -0.000022  -0.132111
    2  O  1  S    0.000024   0.000039  -0.000048  -0.000147   0.120812
    3  O  1  X    0.000025  -0.000003  -0.000007  -0.000061   0.039833
    4  O  1  Y    0.000003  -0.000011   0.000016   0.000010  -0.023429
    5  O  1  Z   -0.000034   0.000011   0.000019   0.000046   0.019319
    6  O  1  S    0.000010  -0.000194   0.000162   0.000544   0.412060
    7  O  1  X   -0.000064  -0.000016   0.000036   0.000343   0.055249
    8  O  1  Y    0.000021   0.000038  -0.000138  -0.000175  -0.033411
    9  O  1  Z    0.000136  -0.000044  -0.000080  -0.000205   0.023802
   10  C  2  S   -0.000112   0.000089   0.000060   0.000089  -0.092516
   11  C  2  S   -0.000551   0.000547   0.000173   0.000344   0.105092
   12  C  2  X    0.000208  -0.000020  -0.000265  -0.000189   0.018745
   13  C  2  Y    0.000076  -0.000078  -0.000036   0.000023   0.026974
   14  C  2  Z   -0.000107   0.000035   0.000103   0.000050  -0.034958
   15  C  2  S    0.003134  -0.002650  -0.001626  -0.002303   0.130805
   16  C  2  X   -0.000067   0.000102   0.000127  -0.000672  -0.004835
   17  C  2  Y   -0.001696   0.001441   0.000668   0.000487  -0.018024
   18  C  2  Z   -0.000118  -0.000162   0.000326   0.001204   0.021389
   19  C  3  S    0.000058  -0.000034  -0.000046  -0.000016  -0.038839
   20  C  3  S    0.000276  -0.000198  -0.000216   0.000034   0.040278
   21  C  3  X   -0.000140   0.000019   0.000103   0.000148   0.006341
   22  C  3  Y   -0.000046   0.000037   0.000009   0.000040   0.014226
   23  C  3  Z    0.000102  -0.000092  -0.000069   0.000031   0.013206
   24  C  3  S   -0.002433   0.001203   0.001929   0.000770   0.065250
   25  C  3  X   -0.000483   0.000735   0.000048   0.000122   0.010731
   26  C  3  Y   -0.000253   0.000682  -0.000100   0.000366   0.008667
   27  C  3  Z   -0.001603   0.001519   0.000711   0.000046  -0.016987
   28  H  4  S   -0.000020   0.000048   0.000003  -0.000056   0.010542
   29  H  4  S   -0.000515   0.000602   0.000076   0.000041  -0.009701
[...]
             25  C  3  X      0.23108     0.42810
             26  C  3  Y      0.32662     0.50037
             27  C  3  Z      0.49122     0.55148
             28  H  4  S      0.47061     0.48396
             29  H  4  S      0.27954     0.42337
             30  O  5  S      1.98608     1.98035
             31  O  5  S      0.41291     0.57211
             32  O  5  X      0.62082     0.61504
             33  O  5  Y      0.65175     0.63977
             34  O  5  Z      0.80665     0.81451
             35  O  5  S      1.52136     1.04700
             36  O  5  X      0.81751     0.85156
             37  O  5  Y      0.85081     0.85393
             38  O  5  Z      1.01649     1.02701
             39  C  6  S      1.99024     1.97558
             40  C  6  S      0.35131     0.42617
             41  C  6  X      0.52331     0.51872
             42  C  6  Y      0.49571     0.48423
             43  C  6  Z      0.54954     0.52002
             44  C  6  S      1.01047     0.54839
             45  C  6  X      0.29464     0.46597
             46  C  6  Y      0.25392     0.45662
             47  C  6  Z      0.48364     0.55200
             48  H  7  S      0.47303     0.48824
             49  H  7  S      0.30105     0.43312
             50  O  8  S      1.98608     1.98032
             51  O  8  S      0.41266     0.57165
             52  O  8  X      0.57005     0.55018
             53  O  8  Y      0.70919     0.71192
             54  O  8  Z      0.80134     0.80845
             55  O  8  S      1.52178     1.04545
             56  O  8  X      0.73133     0.75449
             57  O  8  Y      0.94033     0.95651
             58  O  8  Z      1.01353     1.02384
             59  C  9  S      1.99020     1.97559
             60  C  9  S      0.35349     0.42480
             61  C  9  X      0.54342     0.53300
             62  C  9  Y      0.45655     0.45050
             63  C  9  Z      0.56217     0.53232
             64  C  9  S      1.00109     0.54855
             65  C  9  X      0.27253     0.48167
             66  C  9  Y      0.22647     0.42286
             67  C  9  Z      0.49948     0.56319
             68  H 10  S      0.47349     0.48760
             69  H 10  S      0.29709     0.43137
             70  O 11  S      1.98616     1.98040
             71  O 11  S      0.41331     0.57309
             72  O 11  X      0.69530     0.69173
             73  O 11  Y      0.54242     0.52520
             74  O 11  Z      0.84047     0.85044
             75  O 11  S      1.52516     1.04571
             76  O 11  X      0.92586     0.92871
             77  O 11  Y      0.70592     0.75054
             78  O 11  Z      1.04458     1.05123
             79  C 12  S      1.99014     1.97567
             80  C 12  S      0.35334     0.42343
             81  C 12  X      0.52509     0.51714
             82  C 12  Y      0.43380     0.42505
             83  C 12  Z      0.58136     0.55371
             84  C 12  S      1.01647     0.54926
             85  C 12  X      0.32412     0.49131
             86  C 12  Y      0.20778     0.41039
             87  C 12  Z      0.52561     0.56526
             88  H 13  S      0.47017     0.48521
             89  H 13  S      0.25943     0.41398
             90  O 14  S      1.98659     1.98066
             91  O 14  S      0.41124     0.57625
             92  O 14  X      0.62264     0.62041
             93  O 14  Y      0.64515     0.64309
             94  O 14  Z      0.79831     0.80512
             95  O 14  S      1.53111     1.02535
             96  O 14  X      0.81439     0.83515
             97  O 14  Y      0.85103     0.87415
             98  O 14  Z      0.98451     1.00121
             99  C 15  S      1.98933     1.97683
            100  C 15  S      0.33379     0.43068
            101  C 15  X      0.53590     0.53153
            102  C 15  Y      0.52852     0.51866
            103  C 15  Z      0.55295     0.53310
            104  C 15  S      1.25080     0.61535
            105  C 15  X      0.44056     0.56544
            106  C 15  Y      0.68719     0.64842
            107  C 15  Z      0.63019     0.62079
            108  P 16  S      1.99839     1.99810
            109  P 16  S      1.96360     1.94061
            110  P 16  X      1.95398     1.92644
            111  P 16  Y      1.95800     1.93416
            112  P 16  Z      1.95403     1.92577
            113  P 16  S      0.88157     0.69026
            114  P 16  X      0.51585     0.50963
            115  P 16  Y      0.65477     0.61014
            116  P 16  Z      0.49630     0.49320
            117  P 16  S      0.15146     0.44184
            118  P 16  X      0.23677     0.37814
            119  P 16  Y      0.08645     0.36238
            120  P 16  Z      0.22488     0.37093
            121  H 17  S      0.48332     0.49674
            122  H 17  S      0.30931     0.44480
            123  H 18  S      0.40148     0.41886
            124  H 18  S      0.19787     0.31325
            125  H 19  S      0.40015     0.41740
            126  H 19  S      0.19704     0.31346
            127  H 20  S      0.40009     0.41688
            128  H 20  S      0.19698     0.31477
            129  H 21  S      0.44648     0.44740
            130  H 21  S      0.22859     0.38905
            131  H 22  S      0.45261     0.45551
            132  H 22  S      0.26347     0.40486
            133  H 23  S      0.39969     0.41702
            134  H 23  S      0.19539     0.30753
            135  O 24  S      1.98579     1.98062
            136  O 24  S      0.41199     0.57671
            137  O 24  X      0.55953     0.54912
            138  O 24  Y      0.69518     0.69437
            139  O 24  Z      0.82099     0.83183
            140  O 24  S      1.51133     1.09385
            141  O 24  X      0.79687     0.81065
            142  O 24  Y      0.96583     0.96769
            143  O 24  Z      1.08063     1.07750
            144  O 25  S      1.98575     1.98052
            145  O 25  S      0.41068     0.57502
            146  O 25  X      0.79779     0.80740
            147  O 25  Y      0.68989     0.68315
            148  O 25  Z      0.59050     0.58735
            149  O 25  S      1.51177     1.09267
            150  O 25  X      1.06358     1.05968
            151  O 25  Y      0.92903     0.93513
            152  O 25  Z      0.85585     0.86466
            153  H 26  S      0.39418     0.40720
            154  H 26  S      0.18580     0.30707
            155  H 27  S      0.39388     0.40667
            156  H 27  S      0.18366     0.30618
            157  O 28  S      1.98660     1.98253
            158  O 28  S      0.42498     0.60469
            159  O 28  X      0.74354     0.74621
            160  O 28  Y      0.54423     0.53662
            161  O 28  Z      0.72141     0.72350
            162  O 28  S      1.55732     1.17480
            163  O 28  X      1.01735     1.04747
            164  O 28  Y      0.79020     0.85589
            165  O 28  Z      0.99581     1.02895

          ----- MULLIKEN ATOMIC OVERLAP POPULATIONS -----
          (OFF-DIAGONAL ELEMENTS NEED TO BE MULTIPLIED BY 2)

             1           2           3           4           5

    1    8.2899440
    2    0.2394158   5.0051482
    3   -0.0459247   0.0800489   5.6212827
    4    0.0018386  -0.0555613   0.3531209   0.5133347
    5   -0.0007555  -0.0343998   0.2093224  -0.0284160   8.2960473
    6    0.0016438  -0.0750221   0.1053123  -0.0472841  -0.0392622
    7   -0.0000286  -0.0003184  -0.0573046   0.0038787   0.0014214
    8   -0.0000003   0.0017892  -0.0355719   0.0007340  -0.0010010
    9   -0.0000556   0.0110483  -0.0904117  -0.0003933   0.0015294
   10   -0.0000049   0.0008954   0.0005064   0.0033218  -0.0000260
   11    0.0000000  -0.0000009   0.0020884  -0.0000114  -0.0000003
   12    0.0013042  -0.0863066   0.0099231   0.0012176   0.0000313
   13   -0.0000286  -0.0052201   0.0001364   0.0000868  -0.0000008
   14   -0.0278837   0.2033802  -0.0397498   0.0015984   0.0002288
   15   -0.0000203   0.0035434  -0.0003260  -0.0000465   0.0000003
   16   -0.0000209  -0.0004774   0.0001155  -0.0000021  -0.0000002
   17   -0.0368231   0.3413198  -0.0767782   0.0046801   0.0032764
   18    0.0091324  -0.0043742  -0.0531020  -0.0015050   0.2661850
   19   -0.0000008   0.0004300  -0.0051218  -0.0002893   0.0102362
   20    0.0000000  -0.0000381   0.0005131  -0.0000011  -0.0000011
   21    0.0000000  -0.0000590  -0.0000023   0.0000007  -0.0000000
   22   -0.0000003  -0.0000893   0.0000039   0.0000042   0.0000000
   23    0.2659175  -0.0414417   0.0057786  -0.0001552  -0.0000358
   24    0.0000000   0.0000000   0.0000000  -0.0000000  -0.0000000
   25    0.0000000  -0.0000034   0.0000002  -0.0000000   0.0000000
   26   -0.0000000  -0.0000000   0.0000000   0.0000000  -0.0000000
   27   -0.0000000   0.0000013  -0.0000001   0.0000000   0.0000000
   28    0.0000000   0.0000019  -0.0000001  -0.0000000   0.0000000

             6           7           8           9          10

    6    5.4728963
    7    0.3601301   0.5405687
    8    0.2301508  -0.0313723   8.2841771
    9    0.1751499  -0.0533690  -0.0428212   5.4304864
   10   -0.0595849   0.0041190   0.0017068   0.3645825   0.5348359
   11   -0.0359119   0.0012421  -0.0013642   0.2158431  -0.0299734
   12   -0.0854839   0.0002634   0.0015868   0.1118826  -0.0528839
   13   -0.0044216   0.0031359  -0.0000107  -0.0529592   0.0034597
   14    0.0011291  -0.0000944  -0.0000018  -0.0424563   0.0019344
   15    0.0043461  -0.0001394  -0.0000114  -0.0700357  -0.0042744
   16   -0.0001548  -0.0000015   0.0000002   0.0017525  -0.0001791
   17    0.0003665   0.0034329  -0.0000243  -0.0004838   0.0000657
   18    0.0059229  -0.0001505  -0.0000347  -0.0001703   0.0000032
   19   -0.0522482  -0.0011470   0.2661485   0.0062865  -0.0001536
   20   -0.0047943  -0.0001952   0.0122075  -0.0531453  -0.0006449
   21    0.0001260   0.0000055  -0.0000001  -0.0032445   0.0004907
   22   -0.0000555  -0.0000004  -0.0000001  -0.0037515   0.0023819
   23   -0.0001701   0.0000031   0.0000001   0.0000158   0.0000013
   24    0.0000000  -0.0000000  -0.0000000  -0.0000049   0.0000001
   25   -0.0000011  -0.0000012   0.0000000   0.0001417  -0.0000003
   26   -0.0000000   0.0000000   0.0000000   0.0000004  -0.0000000
   27    0.0000000   0.0000001  -0.0000000  -0.0000030   0.0000000
   28    0.0000000  -0.0000000  -0.0000000  -0.0000071   0.0000000

            11          12          13          14          15

   11    8.2926420
   12   -0.0410628   5.4997767
   13    0.0036140   0.3586958   0.4788835
   14    0.0001960   0.1935926  -0.0274476   8.4432302
   15    0.0005685   0.1637253  -0.0432317  -0.0476201   6.3330229
   16   -0.0000862  -0.0558635  -0.0067121   0.0219545   0.0057632
   17    0.0000031  -0.0026446   0.0069684  -0.0411139  -0.0001422
   18    0.0000001   0.0000054   0.0000023   0.0000771  -0.0000000
   19   -0.0000197  -0.0001977  -0.0000010  -0.0000006   0.0000014
   20    0.2649386   0.0060747  -0.0001268  -0.0000236  -0.0001654
   21    0.0064847  -0.0354270   0.0011913   0.0012643   0.3412098
   22   -0.0000087  -0.0345045   0.0029053   0.0016922   0.3591714
   23   -0.0000000  -0.0001572  -0.0000046   0.0018922  -0.0000070
   24    0.0000000   0.0007686   0.0000125  -0.0000001  -0.0337248
   25   -0.0000000   0.0040965   0.0108646  -0.0004428  -0.0416511
   26   -0.0000000  -0.0000434  -0.0000009   0.0000003   0.0022986
   27    0.0000000   0.0000059  -0.0001873  -0.0000476   0.0022631
   28    0.0000000  -0.0006600  -0.0000050  -0.0003126  -0.0252861

            16          17          18          19          20

   16   12.3649220
   17   -0.0001241   0.5929331
   18   -0.0000000   0.0001127   0.3778639
   19   -0.0000000  -0.0000086  -0.0003384   0.3739950
   20    0.0000091   0.0000001   0.0000001  -0.0003818   0.3729954
   21   -0.0072185   0.0000069  -0.0000000   0.0000000  -0.0001470
   22   -0.0257363   0.0000120   0.0000000   0.0000000  -0.0000064
   23    0.0000951  -0.0024233  -0.0002814   0.0000001  -0.0000000
   24    0.1910016  -0.0000000  -0.0000000   0.0000000  -0.0000000
   25    0.1782691   0.0000034  -0.0000000  -0.0000000   0.0000000
   26   -0.0222989  -0.0000000   0.0000000  -0.0000000   0.0000000
   27   -0.0222021   0.0000089   0.0000000  -0.0000000  -0.0000000
   28    0.4532326   0.0000005   0.0000000   0.0000000  -0.0000000

            21          22          23          24          25

   21    0.3811001
   22   -0.0102185   0.4244807
   23    0.0000000  -0.0000002   0.3660457
   24   -0.0001873   0.0000518   0.0000000   8.4420315
   25   -0.0005237   0.0004447  -0.0000004  -0.0137476   8.4531523
   26    0.0000626  -0.0000366   0.0000000   0.2595360  -0.0003490
   27    0.0000045  -0.0000256  -0.0000005  -0.0003377   0.2611149
   28    0.0001440  -0.0006372   0.0000012  -0.0172529  -0.0165270

            26          27          28

   26    0.3414146
   27   -0.0000180   0.3376113
   28   -0.0005858  -0.0006493   8.3899749

          TOTAL MULLIKEN AND LOWDIN ATOMIC POPULATIONS
       ATOM         MULL.POP.    CHARGE          LOW.POP.     CHARGE
    1 O             8.697649   -0.697649         8.390171   -0.390171
    2 C             5.583710    0.416290         5.764080    0.235920
    3 C             5.983860    0.016140         5.969272    0.030728
    4 H             0.750151    0.249849         0.907325    0.092675
    5 O             8.684380   -0.684380         8.401285   -0.401285
    6 C             5.952779    0.047221         5.947700    0.052300
    7 H             0.774078    0.225922         0.921363    0.078637
    8 O             8.686287   -0.686287         8.402812   -0.402812
    9 C             5.905407    0.094593         5.932491    0.067509
   10 H             0.770579    0.229421         0.918963    0.081037
   11 O             8.679181   -0.679181         8.397056   -0.397056
   12 C             5.957715    0.042285         5.911223    0.088777
   13 H             0.729599    0.270401         0.899185    0.100815
   14 O             8.644975   -0.644975         8.361399   -0.361399
   15 C             6.949232   -0.949232         6.440803   -0.440803
   16 P            13.076038    1.923962        13.581614    1.418386
   17 H             0.792624    0.207376         0.941548    0.058452
   18 H             0.599349    0.400651         0.732118    0.267882
   19 H             0.597189    0.402811         0.730852    0.269148
   20 H             0.597068    0.402932         0.731658    0.268342
   21 H             0.675063    0.324937         0.836446    0.163554
   22 H             0.716077    0.283923         0.860368    0.139632
   23 H             0.595073    0.404927         0.724552    0.275448
   24 O             8.828147   -0.828147         8.582343   -0.582343
   25 O             8.834840   -0.834840         8.585592   -0.585592
   26 H             0.579980    0.420020         0.714271    0.285729
   27 H             0.577539    0.422461         0.712852    0.287148
   28 O             8.781432   -0.781432         8.700658   -0.700658

          -------------------------------
          BOND ORDER AND VALENCE ANALYSIS     BOND ORDER THRESHOLD=0.050
          -------------------------------

                   BOND                       BOND                       BOND
  ATOM PAIR DIST  ORDER      ATOM PAIR DIST  ORDER      ATOM PAIR DIST  ORDER
    1   2  1.423  0.889        1  23  0.995  0.792        2   3  1.523  0.826
    2  14  1.456  0.820        2  17  1.103  0.860        3   4  1.098  0.870
    3   5  1.454  0.866        3   6  1.516  0.859        5  18  0.996  0.790
    6   7  1.101  0.880        6   8  1.454  0.874        6   9  1.523  0.878
    8  19  0.997  0.787        9  10  1.099  0.879        9  11  1.450  0.872
    9  12  1.528  0.848       11  20  0.998  0.785       12  13  1.095  0.862
   12  14  1.476  0.797       12  15  1.515  0.901       15  16  1.833  0.702
   15  21  1.092  0.862       15  22  1.093  0.892       16  24  1.685  0.770
   16  25  1.686  0.745       16  28  1.561  1.570       24  26  0.995  0.783
   24  28  2.699  0.065       25  27  0.994  0.782       25  28  2.708  0.063

                       TOTAL       BONDED        FREE
      ATOM            VALENCE     VALENCE     VALENCE
    1 O                 1.750       1.750      -0.000
    2 C                 3.406       3.406       0.000
    3 C                 3.437       3.437      -0.000
    4 H                 0.892       0.892       0.000
    5 O                 1.741       1.741       0.000
    6 C                 3.468       3.468      -0.000
    7 H                 0.901       0.901      -0.000
    8 O                 1.745       1.745      -0.000
    9 C                 3.443       3.443       0.000
   10 H                 0.898       0.898      -0.000
   11 O                 1.740       1.740      -0.000
   12 C                 3.370       3.370      -0.000
   13 H                 0.892       0.892      -0.000
   14 O                 1.771       1.771      -0.000
   15 C                 3.398       3.398       0.000
   16 P                 3.837       3.837      -0.000
   17 H                 0.900       0.900       0.000
   18 H                 0.821       0.821      -0.000
   19 H                 0.821       0.821       0.000
   20 H                 0.822       0.822      -0.000
   21 H                 0.872       0.872      -0.000
   22 H                 0.888       0.888       0.000
   23 H                 0.817       0.817       0.000
   24 O                 1.671       1.671      -0.000
   25 O                 1.664       1.664      -0.000
   26 H                 0.804       0.804      -0.000
   27 H                 0.802       0.802      -0.000
   28 O                 1.746       1.746      -0.000

          ---------------------
          ELECTROSTATIC MOMENTS
          ---------------------

 POINT   1           X           Y           Z (BOHR)    CHARGE
                 1.802197    0.516865    0.206272       -0.00 (A.U.)
         DX          DY          DZ         /D/  (DEBYE)
    -0.690219    0.682535    2.278709    2.476848
 ...... END OF PROPERTY EVALUATION ......
 CPU     0: STEP CPU TIME=     0.05 TOTAL CPU TIME=          4.2 (      0.1 MIN)
 TOTAL WALL CLOCK TIME=         14.2 SECONDS, CPU UTILIZATION IS    29.66%
               580000  WORDS OF DYNAMIC MEMORY USED
 EXECUTION OF GAMESS TERMINATED NORMALLY Thu May 21 18:22:58 2020
 DDI: 263640 bytes (0.3 MB / 0 MWords) used by master data server.
Note: The following floating-point exceptions are signalling: IEEE_DENORMALNote: The following floating-point exceptions are signalling: IEEE_DENORMAL
Note: The following floating-point exceptions are signalling: IEEE_DENORMAL
Note: The following floating-point exceptions are signalling: IEEE_DENORMAL

Note: The following floating-point exceptions are signalling: IEEE_DENORMALNote: The following floating-point exceptions are signalling: IEEE_DENORMALNote: The following floating-point exceptions are signalling: IEEE_DENORMAL
 ----------------------------------------
 CPU timing information for all processes
 ========================================
 0: 4.37 + 0.173 = 4.211
 1: 3.587 + 0.72 = 3.660
 2: 3.873 + 0.61 = 3.935
 3: 3.640 + 0.58 = 3.698
 4: 3.760 + 0.63 = 3.824
 5: 3.820 + 0.57 = 3.877
 6: 3.645 + 0.58 = 3.703
 7: 3.875 + 0.43 = 3.918
 ----------------------------------------



Note: The following floating-point exceptions are signalling: IEEE_DENORMAL
 ddikick.x: exited gracefully.
unset echo
----- accounting info -----
Files used on the master node pietdev were:
-rwxr-xr-x 1 piet piet     1628 mei 21 18:22 /home/piet/scr/c-glucose-6-phosphate_fukui_neu.F05*
-rw-r--r-- 1 piet piet 49152000 mei 21 18:23 /home/piet/scr/c-glucose-6-phosphate_fukui_neu.F10
ls: No match.
ls: No match.
ls: No match.
do 21 mei 2020 18:23:01 CEST
0.126u 0.026s 0:17.41 0.8%	0+0k 0+8io 0pf+0w
