----- GAMESS execution script 'rungms' -----
This job is running on host pietdev
under operating system Linux at zo 24 mei 2020 20:34:25 CEST
Available scratch disk space (Kbyte units) at beginning of the job is
Filesystem     1K-blocks     Used Available Use% Mounted on
/dev/sda2      244568380 31203488 200871836  14% /
GAMESS temporary binary files will be written to /home/piet/scr
GAMESS supplementary output files will be written to /home/piet/gamess/scr
Copying input file 6H2O_charge_chelpg.inp to your run's scratch directory...
cp 6H2O_charge_chelpg.inp /home/piet/scr/6H2O_charge_chelpg.F05
unset echo
 
Assuming a single but multicore node.
 
/home/piet/gamess/ddikick.x /home/piet/gamess/gamess.03.x 6H2O_charge_chelpg -ddi 1 6 pietdev:cpus=6 -scr /home/piet/scr

 Distributed Data Interface kickoff program.
 Initiating 6 compute processes on 1 nodes to run the following command:
 /home/piet/gamess/gamess.03.x 6H2O_charge_chelpg 

          ******************************************************
          *         GAMESS VERSION = 30 SEP 2019 (R2)          *
          *             FROM IOWA STATE UNIVERSITY             *
          * M.W.SCHMIDT, K.K.BALDRIDGE, J.A.BOATZ, S.T.ELBERT, *
          *   M.S.GORDON, J.H.JENSEN, S.KOSEKI, N.MATSUNAGA,   *
          *          K.A.NGUYEN, S.J.SU, T.L.WINDUS,           *
          *       TOGETHER WITH M.DUPUIS, J.A.MONTGOMERY       *
          *         J.COMPUT.CHEM.  14, 1347-1363(1993)        *
          **************** 64 BIT LINUX VERSION ****************

  SINCE 1993, STUDENTS AND POSTDOCS WORKING AT IOWA STATE UNIVERSITY
  AND ALSO IN THEIR VARIOUS JOBS AFTER LEAVING ISU HAVE MADE IMPORTANT
  CONTRIBUTIONS TO THE CODE:
     IVANA ADAMOVIC, CHRISTINE AIKENS, YURI ALEXEEV, POOJA ARORA,
     ANDREY ASADCHEV, ROB BELL, PRADIPTA BANDYOPADHYAY, JONATHAN BENTZ,
     COLLEEN BERTONI, BRETT BODE, KURT BRORSEN, CALEB CARLIN, GALINA CHABAN,
     WEI CHEN, CHEOL HO CHOI, PAUL DAY, ALBERT DEFUSCO, NUWAN DESILVA,
     TIM DUDLEY, DMITRI FEDOROV, ALEX FINDLATER, GRAHAM FLETCHER, 
     MARK FREITAG, KURT GLAESEMANN, EMILIE B GUIDEZ, ANASTASIA GUNINA, 
     DAN KEMP, SAROM SOK LEANG, GRANT MERRILL,
     NORIYUKI MINEZAWA, JONATHAN MULLIN,
     TAKESHI NAGATA, SEAN NEDD, HEATHER NETZLOFF, BOSILJKA NJEGIC, RYAN OLSON,
     MIKE PAK, BUU PHAM, DAVID POOLE,
     SPENCER PRUITT, LUKE ROSKOP, TOSAPORN SATTASATHUCHANA,
     JIM SHOEMAKER, LYUDMILA SLIPCHENKO,
     TONY SMITH, JIE SONG, TETSUYA TAKETSUGU, SIMON WEBB,
     JORGE LUIS GALVEZ VALLEJO, PENG XU, SOOHAENG YOO,
     FEDERICO ZAHARIEV

  ADDITIONAL CODE HAS BEEN PROVIDED BY COLLABORATORS IN OTHER GROUPS:
     IOWA STATE UNIVERSITY:
          JOE IVANIC, AARON WEST, LAIMUTIS BYTAUTAS, KLAUS RUEDENBERG
     UNIVERSITY OF TOKYO: KIMIHIKO HIRAO, TAKAHITO NAKAJIMA,
          TAKAO TSUNEDA, MUNEAKI KAMIYA, SUSUMU YANAGISAWA,
          KIYOSHI YAGI, MAHITO CHIBA, SEIKEN TOKURA, NAOAKI KAWAKAMI
     UNIVERSITY OF AARHUS: FRANK JENSEN
     UNIVERSITY OF IOWA: VISVALDAS KAIRYS, HUI LI
     NATIONAL INST. OF STANDARDS AND TECHNOLOGY: WALT STEVENS, DAVID GARMER
     UNIVERSITY OF PISA: BENEDETTA MENNUCCI, JACOPO TOMASI
     UNIVERSITY OF MEMPHIS: HENRY KURTZ, PRAKASHAN KORAMBATH
     UNIVERSITY OF ALBERTA: TOBY ZENG, MARIUSZ KLOBUKOWSKI
     UNIVERSITY OF NEW ENGLAND: MARK SPACKMAN
     MIE UNIVERSITY: HIROAKI UMEDA
     NAT. INST. OF ADVANCED INDUSTRIAL SCIENCE AND TECHNOLOGY: KAZUO KITAURA
     MICHIGAN STATE UNIVERSITY:
          KAROL KOWALSKI, MARTA WLOCH, JEFFREY GOUR, JESSE LUTZ,
          WEI LI, JUN SHEN, J. EMILIANO DEUSTUA, PIOTR PIECUCH
     UNIVERSITY OF MINNESOTA:
          ANDREW SAND, PRACHI SHARMA, YINAN SHU
     UNIVERSITY OF SILESIA: MONIKA MUSIAL, STANISLAW KUCHARSKI
     FACULTES UNIVERSITAIRES NOTRE-DAME DE LA PAIX:
          OLIVIER QUINET, BENOIT CHAMPAGNE
     UNIVERSITY OF CALIFORNIA - SANTA BARBARA: BERNARD KIRTMAN
     INSTITUTE FOR MOLECULAR SCIENCE:
          KAZUYA ISHIMURA, MICHIO KATOUDA, AND SHIGERU NAGASE
     UNIVERSITY OF NOTRE DAME: ANNA POMOGAEVA, DAN CHIPMAN
     KYUSHU UNIVERSITY:
          HARUYUKI NAKANO,
          FENG LONG GU, JACEK KORCHOWIEC, MARCIN MAKOWSKI, AND YURIKO AOKI,
          HIROTOSHI MORI AND EISAKU MIYOSHI
     PENNSYLVANIA STATE UNIVERSITY:
          TZVETELIN IORDANOV, CHET SWALINA, JONATHAN SKONE,
          SHARON HAMMES-SCHIFFER
     WASEDA UNIVERSITY:
          MASATO KOBAYASHI, TOMOKO AKAMA, TSUGUKI TOUMA,
          TAKESHI YOSHIKAWA, YASUHIRO IKABATA, JUNJI SEINO,
          YUYA NAKAJIMA, HIROMI NAKAI
     NANJING UNIVERSITY: SHUHUA LI
     UNIVERSITY OF NEBRASKA:
          PEIFENG SU, DEJUN SI, NANDUN THELLAMUREGE, YALI WANG, HUI LI
     UNIVERSITY OF ZURICH: ROBERTO PEVERATI, KIM BALDRIDGE
     N. COPERNICUS UNIVERSITY AND JACKSON STATE UNIVERSITY:
          MARIA BARYSZ
     UNIVERSITY OF COPENHAGEN: Jimmy Kromann, CASPER STEINMANN
     TOKYO INSTITUTE OF TECHNOLOGY: HIROYA NAKATA
     NAGOYA UNIVERSITY: YOSHIO NISHIMOTO, STEPHAN IRLE
     MOSCOW STATE UNIVERSITY: VLADIMIR MIRONOV
     A.N.NESMEYANOV INSTITUTE OF ORGANOELEMENT COMPOUNDS OF RUSSIAN ACADEMY OF SCIENCES:
          IGOR S. GERASIMOV
     JOHANNES KEPLER UNIVERSITY LINZ:
          CHRISTIAN FRIEDL


 PARALLEL VERSION RUNNING ON        6 PROCESSORS IN        1 NODES.

 EXECUTION OF GAMESS BEGUN Sun May 24 20:34:25 2020

            ECHO OF THE FIRST FEW INPUT CARDS -
 INPUT CARD> $BASIS GBASIS=N21 NGAUSS=3 $END                                                
 INPUT CARD> $CONTRL SCFTYP=RHF DFTTYP=B3LYP MAXIT=60 MULT=1 ICHARG=0 $END                  
 INPUT CARD> $SYSTEM MEMDDI=1000 MWORDS=30 $END                                             
 INPUT CARD> $SCF DIRSCF=.TRUE. $END                                                        
 INPUT CARD> $ELPOT  IEPOT=1 WHERE=PDC $END                                                 
 INPUT CARD> $PDC PTSEL=CHELPG CONSTR=CHARGE $END                                           
 INPUT CARD> $DATA                                                                          
 INPUT CARD>                                                                                
 INPUT CARD>C1                                                                              
 INPUT CARD>O 8.0000000 -1.4014998184 1.5271992249 0.5734888185                             
 INPUT CARD>H 1.0000000 -0.3309512099 0.6181170272 0.6123319204                             
 INPUT CARD>H 1.0000000 -1.5890876004 1.8959916441 1.4743897371                             
 INPUT CARD>O 8.0000000 3.0651474694 3.3356165084 0.4387384907                              
 INPUT CARD>H 1.0000000 3.2623777080 2.9795960794 1.3427053165                              
 INPUT CARD>H 1.0000000 2.2803922810 4.0823603733 0.5286950760                              
 INPUT CARD>O 8.0000000 -0.2723705908 3.2451400314 -0.8202594032                            
 INPUT CARD>H 1.0000000 -0.7437636054 3.5557772316 -1.6347037448                            
 INPUT CARD>H 1.0000000 -1.0168775024 2.3369218303 -0.0533602402                            
 INPUT CARD>O 8.0000000 1.7224562235 1.7565830959 -0.9208043737                             
 INPUT CARD>H 1.0000000 2.4462647335 2.3659471864 -0.3711101115                             
 INPUT CARD>H 1.0000000 0.8646940112 2.3958360109 -1.0623385337                             
 INPUT CARD>O 8.0000000 1.0984729266 4.8685915908 0.4753037733                              
 INPUT CARD>H 1.0000000 0.4009966355 4.2394140035 -0.0806653281                             
 INPUT CARD>H 1.0000000 1.2679241306 5.6909696570 -0.0520375464                             
 INPUT CARD>O 8.0000000 0.6035589468 0.0612393292 0.4974814793                              
 INPUT CARD>H 1.0000000 0.4026775613 -0.7867025504 0.0251759649                             
 INPUT CARD>H 1.0000000 1.3527578001 0.9246614262 -0.3108110950                             
 INPUT CARD> $END                                                                           
   30000000 WORDS OF MEMORY AVAILABLE

     BASIS OPTIONS
     -------------
     GBASIS=N21          IGAUSS=       3      POLAR=NONE    
     NDFUNC=       0     NFFUNC=       0     DIFFSP=       F
     NPFUNC=       0      DIFFS=       F     BASNAM=        


     RUN TITLE
     ---------
                                                                                 

 THE POINT GROUP OF THE MOLECULE IS C1      
 THE ORDER OF THE PRINCIPAL AXIS IS     0

 ATOM      ATOMIC                      COORDINATES (BOHR)
           CHARGE         X                   Y                   Z
 O           8.0    -2.6484506286        2.8859880637        1.0837367240
 H           1.0    -0.6254071020        1.1680718098        1.1571395431
 H           1.0    -3.0029401352        3.5829046824        2.7861926022
 O           8.0     5.7922888291        6.3034012010        0.8290955277
 H           1.0     6.1649999366        5.6306201442        2.5373451304
 H           1.0     4.3093165556        7.7145424887        0.9990888247
 O           8.0    -0.5147057837        6.1324254511       -1.5500655109
 H           1.0    -1.4055094138        6.7194446411       -3.0891421488
 H           1.0    -1.9216198426        4.4161419140       -0.1008362326
 O           8.0     3.2549702883        3.3194607259       -1.7400679546
 H           1.0     4.6227700397        4.4709918837       -0.7012964220
 H           1.0     1.6340347444        4.5274735721       -2.0075287349
 O           8.0     2.0758128362        9.2003040527        0.8981938925
 H           1.0     0.7577737631        8.0113308151       -0.1524353668
 H           1.0     2.3960291801       10.7543732562       -0.0983367038
 O           8.0     1.1405610269        0.1157255519        0.9401036798
 H           1.0     0.7609502523       -1.4866522541        0.0475756751
 H           1.0     2.5563415699        1.7473567269       -0.5873478035

          INTERNUCLEAR DISTANCES (ANGS.)
          ------------------------------

                1 O          2 H          3 H          4 O          5 H     

   1 O       0.0000000    1.4049959 *  0.9913725 *  4.8207332    4.9449878  
   2 H       1.4049959 *  0.0000000    1.9897272 *  4.3529788    4.3614265  
   3 H       0.9913725 *  1.9897272 *  0.0000000    4.9806623    4.9727513  
   4 O       4.8207332    4.3529788    4.9806623    0.0000000    0.9913659 *
   5 H       4.9449878    4.3614265    4.9727513    0.9913659 *  0.0000000  
   6 H       4.4818729    4.3390197    4.5439433    1.0869955 *  1.6861190 *
   7 O       2.4837044 *  2.9928247 *  2.9697407 *  3.5682332    4.1525144  
   8 H       3.0698306    3.7214823    3.6243514    4.3422848    5.0245515  
   9 H       1.0938577 *  1.9667056 *  1.6899301 *  4.2311322    4.5468730  
  10 O       3.4705375    2.8041209 *  4.0893413    2.4788149 *  2.9984321 *
  11 H       4.0498219    3.4256382    4.4621515    1.4068153 *  1.9949358 *
  12 H       2.9267893 *  2.7192597 *  3.5645307    2.8246088 *  3.4458524  
  13 O       4.1742553    4.4864868    4.1300732    2.4938240 *  3.0005289  
  14 H       3.3215990    3.7589606    3.4453243    2.8608268 *  3.4352040  
  15 H       4.9853878    5.3601887    4.9894243    3.0030920    3.6434461  
  16 O       2.4849701 *  1.0938979 *  3.0213184    4.0968787    4.0373911  
  17 H       2.9849363 *  1.6901128 *  3.6420046    4.9247634    4.9090502  
  18 H       2.9548220 *  1.9444893 *  3.5755949    3.0507060    3.2563048  

                6 H          7 O          8 H          9 H         10 O     

   1 O       4.4818729    2.4837044 *  3.0698306    1.0938577 *  3.4705375  
   2 H       4.3390197    2.9928247 *  3.7214823    1.9667056 *  2.8041209 *
   3 H       4.5439433    2.9697407 *  3.6243514    1.6899301 *  4.0893413  
   4 O       1.0869955 *  3.5682332    4.3422848    4.2311322    2.4788149 *
   5 H       1.6861190 *  4.1525144    5.0245515    4.5468730    2.9984321 *
   6 H       0.0000000    3.0061960    3.7554098    3.7758883    2.7967090 *
   7 O       3.0061960    0.0000000    0.9909725 *  1.4025994 *  2.4910329 *
   8 H       3.7554098    0.9909725 *  0.0000000    2.0151543 *  3.1351223  
   9 H       3.7758883    1.4025994 *  2.0151543 *  0.0000000    2.9314163 *
  10 O       2.7967090 *  2.4910329 *  3.1351223    2.9314163 *  0.0000000  
  11 H       1.9450546 *  2.8923508 *  3.6316174    3.4778099    1.0942519 *
  12 H       2.7166071 *  1.4397345 *  2.0640256 *  2.1358416 *  1.0790886 *
  13 O       1.4205434 *  2.4886323 *  3.0934526    3.3411891    3.4674299  
  14 H       1.9819470 *  1.4103204 *  2.0476500 *  2.3728862 *  2.9353941 *
  15 H       1.9874521 *  2.9907784 *  3.3332816    4.0583195    4.0547198  
  16 O       4.3568519    3.5554068    4.3096737    2.8474500 *  2.4774294 *
  17 H       5.2428158    4.1744707    4.7881791    3.4319577    3.0174487  
  18 H       3.3965187    2.8784025 *  3.6153650    2.7705472 *  1.0958387 *

               11 H         12 H         13 O         14 H         15 H     

   1 O       4.0498219    2.9267893 *  4.1742553    3.3215990    4.9853878  
   2 H       3.4256382    2.7192597 *  4.4864868    3.7589606    5.3601887  
   3 H       4.4621515    3.5645307    4.1300732    3.4453243    4.9894243  
   4 O       1.4068153 *  2.8246088 *  2.4938240 *  2.8608268 *  3.0030920  
   5 H       1.9949358 *  3.4458524    3.0005289    3.4352040    3.6434461  
   6 H       1.9450546 *  2.7166071 *  1.4205434 *  1.9819470 *  1.9874521 *
   7 O       2.8923508 *  1.4397345 *  2.4886323 *  1.4103204 *  2.9907784 *
   8 H       3.6316174    2.0640256 *  3.0934526    2.0476500 *  3.3332816  
   9 H       3.4778099    2.1358416 *  3.3411891    2.3728862 *  4.0583195  
  10 O       1.0942519 *  1.0790886 *  3.4674299    2.9353941 *  4.0547198  
  11 H       0.0000000    1.7262839 *  2.9658369 *  2.7887914 *  3.5420430  
  12 H       1.7262839 *  0.0000000    2.9212183 *  2.1395040 *  3.4700444  
  13 O       2.9658369 *  2.9212183 *  0.0000000    1.0915307 *  0.9915182 *
  14 H       2.7887914 *  2.1395040 *  1.0915307 *  0.0000000    1.6909751 *
  15 H       3.5420430    3.4700444    0.9915182 *  1.6909751 *  0.0000000  
  16 O       3.0759867    2.8198531 *  4.8328115    4.2228461    5.6953679  
  17 H       3.7778951    3.3948047    5.7156888    5.0272311    6.5356599  
  18 H       1.8101652 *  1.7226011 *  4.0295437    3.4563566    4.7740816  

               16 O         17 H         18 H     

   1 O       2.4849701 *  2.9849363 *  2.9548220 *
   2 H       1.0938979 *  1.6901128 *  1.9444893 *
   3 H       3.0213184    3.6420046    3.5755949  
   4 O       4.0968787    4.9247634    3.0507060  
   5 H       4.0373911    4.9090502    3.2563048  
   6 H       4.3568519    5.2428158    3.3965187  
   7 O       3.5554068    4.1744707    2.8784025 *
   8 H       4.3096737    4.7881791    3.6153650  
   9 H       2.8474500 *  3.4319577    2.7705472 *
  10 O       2.4774294 *  3.0174487    1.0958387 *
  11 H       3.0759867    3.7778951    1.8101652 *
  12 H       2.8198531 *  3.3948047    1.7226011 *
  13 O       4.8328115    5.7156888    4.0295437  
  14 H       4.2228461    5.0272311    3.4563566  
  15 H       5.6953679    6.5356599    4.7740816  
  16 O       0.0000000    0.9911767 *  1.4000477 *
  17 H       0.9911767 *  0.0000000    1.9860278 *
  18 H       1.4000477 *  1.9860278 *  0.0000000  

  * ... LESS THAN  3.000


     ATOMIC BASIS SET
     ----------------
 THE CONTRACTED PRIMITIVE FUNCTIONS HAVE BEEN UNNORMALIZED
 THE CONTRACTED BASIS FUNCTIONS ARE NOW NORMALIZED TO UNITY

  SHELL TYPE  PRIMITIVE        EXPONENT          CONTRACTION COEFFICIENT(S)

 O         

      1   S       1           322.0370000    0.059239393389
      1   S       2            48.4308000    0.351499960776
      1   S       3            10.4206000    0.707657921031

      2   L       4             7.4029400   -0.404453583190    0.244586106967
      2   L       5             1.5762000    1.221561761397    0.853955373466

      3   L       6             0.3736840    1.000000000000    1.000000000000

 H         

      4   S       7             5.4471780    0.156284978695
      4   S       8             0.8245472    0.904690876670

      5   S       9             0.1831916    1.000000000000

 H         

      6   S      10             5.4471780    0.156284978695
      6   S      11             0.8245472    0.904690876670

      7   S      12             0.1831916    1.000000000000

 O         

      8   S      13           322.0370000    0.059239393389
      8   S      14            48.4308000    0.351499960776
      8   S      15            10.4206000    0.707657921031

      9   L      16             7.4029400   -0.404453583190    0.244586106967
      9   L      17             1.5762000    1.221561761397    0.853955373466

     10   L      18             0.3736840    1.000000000000    1.000000000000

 H         

     11   S      19             5.4471780    0.156284978695
     11   S      20             0.8245472    0.904690876670

     12   S      21             0.1831916    1.000000000000

 H         

     13   S      22             5.4471780    0.156284978695
     13   S      23             0.8245472    0.904690876670

     14   S      24             0.1831916    1.000000000000

 O         

     15   S      25           322.0370000    0.059239393389
     15   S      26            48.4308000    0.351499960776
     15   S      27            10.4206000    0.707657921031

     16   L      28             7.4029400   -0.404453583190    0.244586106967
     16   L      29             1.5762000    1.221561761397    0.853955373466

     17   L      30             0.3736840    1.000000000000    1.000000000000

 H         

     18   S      31             5.4471780    0.156284978695
     18   S      32             0.8245472    0.904690876670

     19   S      33             0.1831916    1.000000000000

 H         

     20   S      34             5.4471780    0.156284978695
     20   S      35             0.8245472    0.904690876670

     21   S      36             0.1831916    1.000000000000

 O         

     22   S      37           322.0370000    0.059239393389
     22   S      38            48.4308000    0.351499960776
     22   S      39            10.4206000    0.707657921031

     23   L      40             7.4029400   -0.404453583190    0.244586106967
     23   L      41             1.5762000    1.221561761397    0.853955373466

     24   L      42             0.3736840    1.000000000000    1.000000000000

 H         

     25   S      43             5.4471780    0.156284978695
     25   S      44             0.8245472    0.904690876670

     26   S      45             0.1831916    1.000000000000

 H         

     27   S      46             5.4471780    0.156284978695
     27   S      47             0.8245472    0.904690876670

     28   S      48             0.1831916    1.000000000000

 O         

     29   S      49           322.0370000    0.059239393389
     29   S      50            48.4308000    0.351499960776
     29   S      51            10.4206000    0.707657921031

     30   L      52             7.4029400   -0.404453583190    0.244586106967
     30   L      53             1.5762000    1.221561761397    0.853955373466

     31   L      54             0.3736840    1.000000000000    1.000000000000

 H         

     32   S      55             5.4471780    0.156284978695
     32   S      56             0.8245472    0.904690876670

     33   S      57             0.1831916    1.000000000000

 H         

     34   S      58             5.4471780    0.156284978695
     34   S      59             0.8245472    0.904690876670

     35   S      60             0.1831916    1.000000000000

 O         

     36   S      61           322.0370000    0.059239393389
     36   S      62            48.4308000    0.351499960776
     36   S      63            10.4206000    0.707657921031

     37   L      64             7.4029400   -0.404453583190    0.244586106967
     37   L      65             1.5762000    1.221561761397    0.853955373466

     38   L      66             0.3736840    1.000000000000    1.000000000000

 H         

     39   S      67             5.4471780    0.156284978695
     39   S      68             0.8245472    0.904690876670

     40   S      69             0.1831916    1.000000000000

 H         

     41   S      70             5.4471780    0.156284978695
     41   S      71             0.8245472    0.904690876670

     42   S      72             0.1831916    1.000000000000

 TOTAL NUMBER OF BASIS SET SHELLS             =   42
 NUMBER OF CARTESIAN GAUSSIAN BASIS FUNCTIONS =   78
 NUMBER OF ELECTRONS                          =   60
 CHARGE OF MOLECULE                           =    0
 SPIN MULTIPLICITY                            =    1
 NUMBER OF OCCUPIED ORBITALS (ALPHA)          =   30
 NUMBER OF OCCUPIED ORBITALS (BETA )          =   30
 TOTAL NUMBER OF ATOMS                        =   18
 THE NUCLEAR REPULSION ENERGY IS      310.9754256313

 SELECTED MURRAY-HANDY-LAMING RADIAL GRID

 LEGACY BECKE'S FUZZY CELL METHOD

 SELECTED ORIGINAL BECKE'S PARTITION FUNCTION

     LEBEDEV GRID-BASED DFT OPTIONS
     ------------------------------
     DFTTYP=B3LYP   
     NRAD  =      96     NLEB  =     302
     NRAD0 =      24     NLEB0 =     110
     SWOFF =    5.00E-03 (PURE SCF -> DFT)
     SWITCH=    3.00E-04 (COARSE -> TIGHT GRID)
     THRESH=    0.00E+00 GTHRE=    1.00E+00

 GRIMME'S EMPIRICAL DISPERSION CORRECTION= F

     $CONTRL OPTIONS
     ---------------
 SCFTYP=RHF          RUNTYP=ENERGY       EXETYP=RUN     
 MPLEVL=       0     CITYP =NONE         CCTYP =NONE         VBTYP =NONE    
 DFTTYP=B3LYP        TDDFT =NONE    
 MULT  =       1     ICHARG=       0     NZVAR =       0     COORD =UNIQUE  
 PP    =NONE         RELWFN=NONE         LOCAL =NONE         NUMGRD=       F
 ISPHER=      -1     NOSYM =       0     MAXIT =      60     UNITS =ANGS    
 PLTORB=       F     MOLPLT=       F     AIMPAC=       F     FRIEND=        
 NPRINT=       7     IREST =       0     GEOM  =INPUT   
 NORMF =       0     NORMP =       0     ITOL  =      20     ICUT  =       9
 INTTYP=BEST         GRDTYP=BEST         QMTTOL= 1.0E-06

     $SYSTEM OPTIONS
     ---------------
  REPLICATED MEMORY=    30000000 WORDS (ON EVERY NODE).
 DISTRIBUTED MEMDDI=        1000 MILLION WORDS IN AGGREGATE,
 MEMDDI DISTRIBUTED OVER   6 PROCESSORS IS   166666666 WORDS/PROCESSOR.
 TOTAL MEMORY REQUESTED ON EACH PROCESSOR=   196666666 WORDS.
 TIMLIM=      525600.00 MINUTES, OR     365.0 DAYS.
 PARALL= T  BALTYP=  DLB     KDIAG=    0  COREFL= F
 MXSEQ2=     300 MXSEQ3=     150  mem10=         0

     INPUT FOR POTENTIAL-DERIVED CHARGES 
     -----------------------------------
     VDWSCL=    1.00   RMAX=    3.00   DELR=    0.80
     VDWINC=    0.20 PTDENS=    0.28
     LAYER =       4  NFREQ=      30 MAXPDC=   10000
     CONSTR=CHARGE    UNITS=ANGS      PTSEL=CHELPG  
     CENTER=  0.0000  0.0000  0.0000
     DPOLE =  0.0000  0.0000  0.0000
     QPOLE =  0.0000  0.0000  0.0000  0.0000  0.0000  0.0000


          ----------------
          PROPERTIES INPUT
          ----------------

     MOMENTS            FIELD           POTENTIAL          DENSITY
 IEMOM =       1   IEFLD =       0   IEPOT =       1   IEDEN =       0
 WHERE =COMASS     WHERE =NUCLEI     WHERE =PDC        WHERE =NUCLEI  
 OUTPUT=BOTH       OUTPUT=BOTH       OUTPUT=BOTH       OUTPUT=BOTH    
 IEMINT=       0   IEFINT=       0                     IEDINT=       0
                                                       MORB  =       0
          EXTRAPOLATION IN EFFECT
          DIIS IN EFFECT
 ORBITAL PRINTING OPTION: NPREO=     1    78     2     1

     -------------------------------
     INTEGRAL TRANSFORMATION OPTIONS
     -------------------------------
     NWORD  =            0
     CUTOFF = 1.0E-09     MPTRAN =       0
     DIRTRF =       T     AOINTS =DUP     

          ----------------------
          INTEGRAL INPUT OPTIONS
          ----------------------
 NOPK  =       1 NORDER=       0 SCHWRZ=       T

     ------------------------------------------
     THE POINT GROUP IS C1 , NAXIS= 0, ORDER= 1
     ------------------------------------------

     DIMENSIONS OF THE SYMMETRY SUBSPACES ARE
 A   =   78

 ..... DONE SETTING UP THE RUN .....
 CPU     0: STEP CPU TIME=     0.02 TOTAL CPU TIME=          0.0 (      0.0 MIN)
 TOTAL WALL CLOCK TIME=          0.0 SECONDS, CPU UTILIZATION IS    66.67%

          ********************
          1 ELECTRON INTEGRALS
          ********************
 ...... END OF ONE-ELECTRON INTEGRALS ......
 CPU     0: STEP CPU TIME=     0.01 TOTAL CPU TIME=          0.0 (      0.0 MIN)
 TOTAL WALL CLOCK TIME=          0.0 SECONDS, CPU UTILIZATION IS    75.00%

          -------------
          GUESS OPTIONS
          -------------
          GUESS =HUCKEL            NORB  =       0          NORDER=       0
          MIX   =       F          PRTMO =       F          PUNMO =       F
          TOLZ  = 1.0E-08          TOLE  = 1.0E-05
          SYMDEN=       F          PURIFY=       F

 INITIAL GUESS ORBITALS GENERATED BY HUCKEL   ROUTINE.
 HUCKEL GUESS REQUIRES     64146 WORDS.

 SYMMETRIES FOR INITIAL GUESS ORBITALS FOLLOW.   BOTH SET(S).
    30 ORBITALS ARE OCCUPIED (    6 CORE ORBITALS).
     7=A        8=A        9=A       10=A       11=A       12=A       13=A   
    14=A       15=A       16=A       17=A       18=A       19=A       20=A   
    21=A       22=A       23=A       24=A       25=A       26=A       27=A   
    28=A       29=A       30=A       31=A       32=A       33=A       34=A   
    35=A       36=A       37=A       38=A       39=A       40=A   
 ...... END OF INITIAL ORBITAL SELECTION ......
 CPU     0: STEP CPU TIME=     0.02 TOTAL CPU TIME=          0.0 (      0.0 MIN)
 TOTAL WALL CLOCK TIME=          0.1 SECONDS, CPU UTILIZATION IS    83.33%

                    ----------------------
                    AO INTEGRAL TECHNOLOGY
                    ----------------------
     S,P,L SHELL ROTATED AXIS INTEGRALS, REPROGRAMMED BY
        KAZUYA ISHIMURA (IMS) AND JOSE SIERRA (SYNSTAR).
     S,P,D,L SHELL ROTATED AXIS INTEGRALS PROGRAMMED BY
        KAZUYA ISHIMURA (INSTITUTE FOR MOLECULAR SCIENCE).
     S,P,D,F,G SHELL TO TOTAL QUARTET ANGULAR MOMENTUM SUM 5,
        ERIC PROGRAM BY GRAHAM FLETCHER (ELORET AND NASA ADVANCED
        SUPERCOMPUTING DIVISION, AMES RESEARCH CENTER).
     S,P,D,F,G,L SHELL GENERAL RYS QUADRATURE PROGRAMMED BY
        MICHEL DUPUIS (PACIFIC NORTHWEST NATIONAL LABORATORY).

          --------------------
          2 ELECTRON INTEGRALS
          --------------------

 DIRECT SCF METHOD SKIPS INTEGRAL STORAGE ON DISK.
 DIRECT TRANSFORMATION SKIPS AO INTEGRAL STORAGE ON DISK.
  ...... END OF TWO-ELECTRON INTEGRALS .....
 CPU     0: STEP CPU TIME=     0.01 TOTAL CPU TIME=          0.1 (      0.0 MIN)
 TOTAL WALL CLOCK TIME=          0.1 SECONDS, CPU UTILIZATION IS    85.71%

          --------------------------
             R-B3LYP SCF CALCULATION
          --------------------------

     NUCLEAR ENERGY =       310.9754256313
     MAXIT =   60     NPUNCH=    2
     EXTRAP=T  DAMP=F  SHIFT=F  RSTRCT=F  DIIS=T  DEM=F  SOSCF=F
         DENSITY MATRIX CONVERGENCE THRESHOLD=  2.00E-05
     COARSE -> FINE DFT GRID SWITCH THRESHOLD=  3.00E-04 (SWITCH IN $DFT)
                   HF -> DFT SWITCH THRESHOLD=  5.00E-03 (SWOFF IN $DFT)
     MEMORY REQUIRED FOR RHF ITERS=    684370 WORDS.

 DIRECT SCF CALCULATION, SCHWRZ=T   FDIFF=T,  DIRTHR=  0.00E+00 NITDIR=10
 SCHWARZ INEQUALITY OVERHEAD:      2881 INTEGRALS, T=        0.00

 DFT CODE IS SWITCHING FROM THE FINE GRID NRAD= 96,  NLEB=  302
                      TO THE COARSE GRID NRAD0= 24, NLEB0=  110

     EXCHANGE FUNCTIONAL   =B88&HFX   
     CORRELATION FUNCTIONAL=LYP88&VWN5
     DFT THRESHOLD         =.766E-08
     GRID CHANGE THRESHOLD =.300E-03
 FOR AN EULER-MACLAURIN QUADRATURE USING  96 RADIAL POINTS:
 SMALLEST GAUSSIAN PRIMITIVE EXPONENT=        0.1831915800 OF TYPE -S-
 ON ATOM NUMBER   2 HAS RADIAL NORMALIZATION=  1.000000
  LARGEST GAUSSIAN PRIMITIVE EXPONENT=      322.0370000000 OF TYPE -S-
 ON ATOM NUMBER   1 HAS RADIAL NORMALIZATION=  1.000000
 DFT IS SWITCHED OFF, PERFORMING PURE SCF UNTIL SWOFF THRESHOLD IS REACHED.

                                                                                   NONZERO     BLOCKS
 ITER EX DEM     TOTAL ENERGY        E CHANGE  DENSITY CHANGE    DIIS ERROR      INTEGRALS    SKIPPED
   1  0  0     -452.3191498523  -452.3191498523   0.582891398   1.057371085        2501383     177957
          * * *   INITIATING DIIS PROCEDURE   * * *
   2  1  0     -453.5951637685    -1.2760139162   0.120828351   0.108312118        2489120     182024
   3  2  0     -453.6477337346    -0.0525699662   0.031223676   0.024357100        2412667     195052
   4  3  0     -453.6521663271    -0.0044325924   0.009585223   0.011444414        2332278     204702
   5  4  0     -453.6531906059    -0.0010242789   0.001402684   0.001473498        2244613     213749
 CONVERGED TO SWOFF, SO DFT CALCULATION IS NOW SWITCHED ON.
          * * *   INITIATING DIIS PROCEDURE   * * *
   6  5  0     -455.8289477602    -2.1757571543   0.079712606   0.096219919        2504004     176769
   7  6  0     -455.8695606110    -0.0406128508   0.014815454   0.014631284        2444079     192595
   8  7  0     -455.8691947395     0.0003658715   0.008629017   0.016903063        2317780     206187
   9  8  0     -455.8707570512    -0.0015623117   0.001806175   0.002027044        2245185     212568
  10  9  0     -455.8707749448    -0.0000178936   0.000489201   0.000730532        2017916     233647
  11 10  0     -455.8707776097    -0.0000026649   0.000054170   0.000072573        1882922     246009
 DFT CODE IS SWITCHING BACK TO THE FINE GRID
          * * *   INITIATING DIIS PROCEDURE   * * *
  12 11  0     -455.8574475914     0.0133300183   0.000894401   0.000710124        2506997     175522
  13 12  0     -455.8574528608    -0.0000052693   0.000480047   0.000603539        1998761     236048
  14 13  0     -455.8574542682    -0.0000014074   0.000213333   0.000304221        1902769     243953
  15 14  0     -455.8574549184    -0.0000006502   0.000049649   0.000090718        1790885     254067
  16 15  0     -455.8574549646    -0.0000000462   0.000010032   0.000013403        1588384     271385
  17 16  0     -455.8574549652    -0.0000000006   0.000003843   0.000007351        1348023     292734

          -----------------
          DENSITY CONVERGED
          -----------------
     TIME TO FORM FOCK OPERATORS=       9.4 SECONDS (       0.6 SEC/ITER)
     FOCK TIME ON FIRST ITERATION=       0.1, LAST ITERATION=       1.4
     TIME TO SOLVE SCF EQUATIONS=       0.2 SECONDS (       0.0 SEC/ITER)

 FINAL R-B3LYP ENERGY IS     -455.8574549652 AFTER  17 ITERATIONS
 DFT EXCHANGE + CORRELATION ENERGY =       -45.0303926501
 TOTAL ELECTRON NUMBER             =        60.0000205412

          ------------
          EIGENVECTORS
          ------------

                      1          2          3          4          5
                  -19.0050   -19.0040   -19.0026   -19.0014   -19.0008
                     A          A          A          A          A   
    1  O  1  S    0.117569  -0.104066   0.943835  -0.121367  -0.168848
    2  O  1  S    0.013807  -0.011741   0.100631  -0.012351  -0.016729
    3  O  1  X    0.000291  -0.000202   0.001612   0.000186   0.000213
    4  O  1  Y    0.000728  -0.000458   0.001581  -0.000680  -0.000930
    5  O  1  Z   -0.000362   0.000138   0.000957  -0.000048  -0.000115
    6  O  1  S   -0.009401   0.006990  -0.045236   0.004708   0.004917
    7  O  1  X   -0.001268   0.000770  -0.004724  -0.000938  -0.001517
    8  O  1  Y   -0.003167   0.001780  -0.002868   0.002446   0.003275
    9  O  1  Z    0.002210  -0.001045  -0.001127  -0.000267  -0.000017
   10  H  2  S    0.000520  -0.000350   0.001779   0.001604   0.001503
   11  H  2  S   -0.000677   0.000037   0.011892   0.003982   0.007750
   12  H  3  S    0.000834  -0.000469   0.003159  -0.000281  -0.000110
   13  H  3  S   -0.000818  -0.000024   0.004528  -0.000914  -0.001985
   14  O  4  S    0.015309   0.098803   0.016717   0.229398  -0.503528
   15  O  4  S    0.001925   0.012047   0.001940   0.025275  -0.054244
   16  O  4  X   -0.000205  -0.000607  -0.000041  -0.000614   0.001089
   17  O  4  Y    0.000155   0.000646   0.000065  -0.000485   0.000410
   18  O  4  Z    0.000036   0.000249   0.000040  -0.000002  -0.000583
   19  O  4  S   -0.001374  -0.009363  -0.001371  -0.012887   0.025627
   20  O  4  X    0.000797   0.002954   0.000265   0.002021  -0.003234
   21  O  4  Y   -0.000843  -0.003253  -0.000307   0.001885  -0.001437
   22  O  4  Z   -0.000189  -0.000654  -0.000067   0.001031   0.000120
   23  H  5  S    0.000079   0.000874   0.000149   0.001080  -0.001753
   24  H  5  S   -0.000037  -0.001090  -0.000177   0.000190  -0.002070
   25  H  6  S    0.000833   0.001281  -0.000024   0.000887  -0.001490
   26  H  6  S    0.001388   0.010349   0.001408   0.001454  -0.004799
   27  O  7  S    0.914949  -0.318294  -0.140099  -0.035023   0.044044
   28  O  7  S    0.098026  -0.032781  -0.013586  -0.003251   0.003935
   29  O  7  X   -0.000233   0.000533  -0.000577   0.000624  -0.000106
   30  O  7  Y    0.000320   0.000779  -0.000559  -0.000314   0.000413
   31  O  7  Z   -0.000529   0.000742   0.000668  -0.000256   0.000003
   32  O  7  S   -0.044450   0.012128   0.003230   0.000713  -0.000129
   33  O  7  X   -0.000516  -0.001891   0.002740  -0.002565   0.000286
   34  O  7  Y   -0.000455  -0.003754   0.002329   0.001167  -0.002004
   35  O  7  Z   -0.000455  -0.002204  -0.002484   0.001195  -0.000065
   36  H  8  S    0.002936  -0.000741  -0.000042  -0.000038  -0.000151
   37  H  8  S    0.003969  -0.002520  -0.001840  -0.000452   0.000888
   38  H  9  S    0.001692  -0.000558   0.002315   0.000251  -0.000021
   39  H  9  S    0.008900  -0.005372   0.009688  -0.004167  -0.003250
   40  O 10  S    0.062878  -0.038986  -0.019735   0.776773  -0.383900
   41  O 10  S    0.007889  -0.004721  -0.002264   0.084879  -0.040956
   42  O 10  X   -0.000610   0.000259   0.000057  -0.000757  -0.000108
   43  O 10  Y    0.000466  -0.000127  -0.000203   0.000343  -0.001133
   44  O 10  Z   -0.000109   0.000114   0.000173   0.001928  -0.000711
   45  O 10  S   -0.006267   0.003861   0.001850  -0.043410   0.018518
   46  O 10  X    0.002988  -0.001277  -0.000514   0.001927   0.001797
   47  O 10  Y   -0.002216   0.000889   0.001002  -0.000016   0.004957
   48  O 10  Z    0.000729  -0.000531  -0.000730  -0.005570   0.001416
   49  H 11  S    0.000764   0.000312  -0.000119   0.002739  -0.001331
   50  H 11  S   -0.001589  -0.000765   0.000390   0.008317  -0.010465
   51  H 12  S    0.001617  -0.000081   0.000371   0.002400  -0.000930
   52  H 12  S    0.007470  -0.004782  -0.003753   0.006077  -0.003893
   53  O 13  S    0.332017   0.917386   0.056146  -0.016403   0.035600
   54  O 13  S    0.036687   0.097338   0.005611  -0.001579   0.003316
   55  O 13  X   -0.000556   0.000236   0.000186   0.000224  -0.000525
   56  O 13  Y   -0.000417  -0.000066   0.000094  -0.000114   0.000207
   57  O 13  Z   -0.001139  -0.002365  -0.000058   0.000054  -0.000198
   58  O 13  S   -0.019785  -0.042684  -0.001514   0.000614  -0.000884
   59  O 13  X    0.002784  -0.000996  -0.000890  -0.000918   0.002258
   60  O 13  Y    0.002550   0.001315  -0.000420   0.000315  -0.000692
   61  O 13  Z    0.003451   0.004878  -0.000154  -0.000224   0.000709
   62  H 14  S    0.002101   0.001898   0.000128   0.000266  -0.000443
   63  H 14  S    0.011669   0.008374  -0.002089  -0.001660   0.003407
   64  H 15  S    0.001516   0.002953   0.000057  -0.000017  -0.000013
   65  H 15  S    0.000316   0.004787   0.000701  -0.000141   0.000453
   66  O 16  S   -0.000801  -0.002076   0.225627   0.541634   0.729647
   67  O 16  S   -0.000107  -0.000241   0.025578   0.058498   0.077018
   68  O 16  X   -0.000049   0.000066  -0.001117  -0.000498  -0.001505
   69  O 16  Y    0.000056  -0.000048   0.000329   0.000315  -0.000197
   70  O 16  Z   -0.000042   0.000011  -0.000148  -0.001360  -0.001266
   71  O 16  S    0.000343   0.000012  -0.015439  -0.027700  -0.033090
   72  O 16  X    0.000219  -0.000304   0.004592   0.000092   0.003541
   73  O 16  Y   -0.000088   0.000109  -0.002188  -0.002223  -0.000216
   74  O 16  Z    0.000051   0.000040  -0.000185   0.003766   0.002494
   75  H 17  S   -0.000044   0.000023   0.001263   0.002055   0.002223
   76  H 17  S    0.000148  -0.000078  -0.000427   0.001985   0.004116
   77  H 18  S    0.000625  -0.000424   0.000628   0.002919  -0.000354
   78  H 18  S   -0.001197   0.001014   0.000307   0.012649   0.004868

                      6          7          8          9         10
                  -19.0002    -0.9991    -0.9794    -0.9693    -0.9534
                     A          A          A          A          A   
    1  O  1  S   -0.080023  -0.071440   0.113114   0.119436   0.024211
    2  O  1  S   -0.007731   0.066685  -0.105151  -0.111752  -0.021636
    3  O  1  X    0.000048   0.012300  -0.016424  -0.012507  -0.004891
    4  O  1  Y   -0.000370   0.019443  -0.028237  -0.038231   0.002234
    5  O  1  Z   -0.000103   0.011744  -0.023514  -0.023822  -0.009650
    6  O  1  S    0.001557   0.215899  -0.348582  -0.368130  -0.079262
    7  O  1  X   -0.000683   0.016414  -0.022988  -0.018001  -0.007725
    8  O  1  Y    0.001195   0.018772  -0.027923  -0.038902   0.003261
    9  O  1  Z    0.000275   0.009818  -0.018917  -0.019100  -0.007624
   10  H  2  S    0.000357   0.038040  -0.055847  -0.009188  -0.047475
   11  H  2  S    0.003915   0.014391  -0.017607  -0.005419  -0.007397
   12  H  3  S    0.000042   0.034620  -0.057622  -0.062746  -0.012773
   13  H  3  S   -0.001203   0.009400  -0.016646  -0.018420  -0.005511
   14  O  4  S    0.805406  -0.084941  -0.107050  -0.042531   0.114362
   15  O  4  S    0.084927   0.078718   0.100129   0.039150  -0.107525
   16  O  4  X   -0.001497  -0.020242  -0.022878  -0.006547   0.018690
   17  O  4  Y    0.000134  -0.004153   0.001287  -0.009721  -0.001240
   18  O  4  Z    0.001712   0.022781   0.035155   0.010170  -0.043198
   19  O  4  S   -0.036324   0.258709   0.327292   0.133296  -0.354347
   20  O  4  X    0.003705  -0.026090  -0.028887  -0.009942   0.024449
   21  O  4  Y   -0.001259  -0.004719   0.002219  -0.010183  -0.003914
   22  O  4  Z   -0.003509   0.019710   0.032030   0.008339  -0.040035
   23  H  5  S    0.002381   0.040539   0.054397   0.021879  -0.062627
   24  H  5  S    0.004719   0.012151   0.014739   0.007115  -0.017598
   25  H  6  S    0.001699   0.038841   0.055950  -0.003090  -0.047390
   26  H  6  S    0.009721   0.014227   0.017414  -0.003980  -0.007174
   27  O  7  S    0.061971  -0.080518  -0.000739   0.074156  -0.129720
   28  O  7  S    0.005374   0.074270   0.000652  -0.068802   0.120840
   29  O  7  X   -0.000371  -0.003824   0.006203   0.015072  -0.013482
   30  O  7  Y    0.000213   0.002157   0.008955  -0.010340   0.008131
   31  O  7  Z    0.000001  -0.014035  -0.000346   0.010237  -0.034399
   32  O  7  S    0.000406   0.244816   0.002322  -0.228534   0.401661
   33  O  7  X    0.001773   0.000552   0.007816   0.014756  -0.006544
   34  O  7  Y   -0.000937  -0.000719   0.011311  -0.010587   0.003276
   35  O  7  Z   -0.000031  -0.010125  -0.000555   0.004184  -0.028728
   36  H  8  S   -0.000348   0.038968   0.000308  -0.038896   0.071753
   37  H  8  S    0.001488   0.011842   0.000246  -0.013090   0.022244
   38  H  9  S   -0.000256   0.035127  -0.038807  -0.054267   0.013116
   39  H  9  S    0.000210   0.016709  -0.009989  -0.012734   0.010958
   40  O 10  S   -0.456899  -0.134979   0.005211  -0.130010  -0.095820
   41  O 10  S   -0.047641   0.123825  -0.004788   0.118963   0.087969
   42  O 10  X    0.001013  -0.020567   0.006659  -0.014396  -0.020819
   43  O 10  Y   -0.000283   0.016540   0.007393   0.012729   0.016689
   44  O 10  Z   -0.000698   0.036698  -0.001529   0.035506   0.017946
   45  O 10  S    0.018836   0.415619  -0.016324   0.411114   0.305194
   46  O 10  X   -0.003649  -0.024557   0.006796  -0.018710  -0.022397
   47  O 10  Y    0.000158   0.019314   0.007223   0.015703   0.018041
   48  O 10  Z    0.000618   0.043717  -0.001360   0.040121   0.022006
   49  H 11  S   -0.000111   0.055369   0.014835   0.051500   0.015523
   50  H 11  S    0.002663   0.017052   0.009843   0.013193  -0.000748
   51  H 12  S   -0.000711   0.057273  -0.001791   0.036896   0.058000
   52  H 12  S   -0.006447   0.020345  -0.000105  -0.000455   0.014067
   53  O 13  S   -0.092670  -0.074142  -0.121449   0.116797   0.025843
   54  O 13  S   -0.008357   0.069233   0.112986  -0.109457  -0.023099
   55  O 13  X    0.000691  -0.000661   0.001546   0.006995  -0.008872
   56  O 13  Y   -0.000395   0.002982   0.010760  -0.013464  -0.003996
   57  O 13  Z    0.000431  -0.027083  -0.042874   0.044153   0.005673
   58  O 13  S    0.000518   0.224131   0.374286  -0.359797  -0.084617
   59  O 13  X   -0.003040   0.000937   0.002395   0.007533  -0.009722
   60  O 13  Y    0.001811  -0.001329   0.002486  -0.007061  -0.000266
   61  O 13  Z   -0.001106  -0.028149  -0.044792   0.045786   0.005739
   62  H 14  S    0.000062   0.036035   0.042431  -0.053597   0.012013
   63  H 14  S   -0.001447   0.017568   0.010417  -0.013265   0.011375
   64  H 15  S    0.000244   0.036252   0.062334  -0.061947  -0.013800
   65  H 15  S   -0.001905   0.009885   0.018736  -0.017771  -0.005904
   66  O 16  S    0.297421  -0.084477   0.111113  -0.028824   0.117253
   67  O 16  S    0.030710   0.078296  -0.103851   0.026361  -0.110122
   68  O 16  X   -0.000889  -0.020259   0.032949   0.001077   0.035562
   69  O 16  Y   -0.000292  -0.003974   0.011320  -0.002678   0.020211
   70  O 16  Z   -0.000297  -0.021691   0.024719  -0.011166   0.024644
   71  O 16  S   -0.011710   0.257316  -0.339954   0.091002  -0.363613
   72  O 16  X    0.002643  -0.020909   0.034784   0.001121   0.038429
   73  O 16  Y    0.000948   0.002253   0.004374   0.000180   0.013490
   74  O 16  Z   -0.000006  -0.023610   0.026063  -0.012057   0.024636
   75  H 17  S    0.000638   0.040473  -0.056532   0.014789  -0.064316
   76  H 17  S    0.002326   0.011655  -0.015648   0.004808  -0.017937
   77  H 18  S   -0.000531   0.055544  -0.019339   0.049390   0.014701
   78  H 18  S   -0.003599   0.017766  -0.011068   0.012505  -0.001140

                     11         12         13         14         15
                   -0.9496    -0.9225    -0.5139    -0.5114    -0.4978
                     A          A          A          A          A   
    1  O  1  S   -0.114904   0.084188  -0.003214  -0.002744   0.004055
    2  O  1  S    0.108160  -0.079605   0.003519   0.004790  -0.001416
    3  O  1  X    0.007178  -0.002640  -0.042992  -0.113108  -0.078128
    4  O  1  Y    0.039414  -0.023232  -0.010436   0.007899   0.013395
    5  O  1  Z    0.026205  -0.026489   0.081799   0.197587   0.146883
    6  O  1  S    0.356847  -0.265092   0.013515   0.009212  -0.021751
    7  O  1  X    0.011047  -0.005161  -0.042346  -0.108640  -0.072079
    8  O  1  Y    0.042059  -0.025037  -0.010206   0.006727   0.012152
    9  O  1  Z    0.021016  -0.022417   0.069861   0.173687   0.132792
   10  H  2  S   -0.024744   0.012710  -0.019074  -0.082113  -0.062363
   11  H  2  S    0.001295  -0.003393  -0.022725  -0.090921  -0.065378
   12  H  3  S    0.064266  -0.051082   0.055466   0.138764   0.101937
   13  H  3  S    0.017374  -0.013575   0.043541   0.117956   0.088745
   14  O  4  S   -0.122109  -0.067364  -0.002080   0.000874   0.004224
   15  O  4  S    0.114276   0.063922   0.003332  -0.002803  -0.001246
   16  O  4  X   -0.017661  -0.006436   0.077920  -0.073295   0.131407
   17  O  4  Y   -0.007332  -0.001202  -0.071121   0.015334  -0.091995
   18  O  4  Z    0.043000   0.028920   0.069639  -0.114895   0.169581
   19  O  4  S    0.381267   0.211375   0.006007  -0.000317  -0.021394
   20  O  4  X   -0.024510  -0.008953   0.075701  -0.068556   0.119018
   21  O  4  Y   -0.005670   0.001338  -0.060480   0.010579  -0.079704
   22  O  4  Z    0.039097   0.027704   0.062398  -0.104277   0.153936
   23  H  5  S    0.067418   0.040637   0.071537  -0.083395   0.142422
   24  H  5  S    0.018943   0.010567   0.061326  -0.070195   0.122965
   25  H  6  S    0.028173   0.013572  -0.068181   0.036016  -0.096012
   26  H  6  S   -0.000506  -0.003258  -0.077964   0.037748  -0.105995
   27  O  7  S   -0.003597  -0.159023   0.005329   0.001226  -0.003977
   28  O  7  S    0.003394   0.150775  -0.000886   0.000581   0.002174
   29  O  7  X   -0.007258  -0.028629  -0.131200  -0.001024   0.085724
   30  O  7  Y   -0.008235   0.019065   0.041962   0.092568   0.064625
   31  O  7  Z   -0.000277  -0.048851  -0.176335  -0.076948   0.052707
   32  O  7  S    0.011101   0.493480  -0.026257  -0.006881   0.018787
   33  O  7  X   -0.010222  -0.024018  -0.123855   0.001935   0.082850
   34  O  7  Y   -0.012365   0.016082   0.038751   0.092120   0.065043
   35  O  7  Z    0.000425  -0.042408  -0.162229  -0.069042   0.049325
   36  H  8  S    0.002087   0.097603   0.139771   0.060181  -0.040033
   37  H  8  S    0.000514   0.027803   0.117807   0.049652  -0.032956
   38  H  9  S    0.044044  -0.004541  -0.051400  -0.101880  -0.069859
   39  H  9  S    0.004989   0.007877  -0.058518  -0.119980  -0.066735
   40  O 10  S    0.005205   0.096390  -0.013472  -0.007221  -0.002590
   41  O 10  S   -0.004804  -0.088979   0.012569   0.006821   0.002400
   42  O 10  X    0.007438   0.008808   0.038772   0.133677  -0.103424
   43  O 10  Y    0.008443  -0.007841  -0.110144   0.111165  -0.104732
   44  O 10  Z   -0.001385  -0.023850   0.041780   0.006881  -0.009217
   45  O 10  S   -0.016578  -0.311850   0.056129   0.030015   0.011007
   46  O 10  X    0.007926   0.009950   0.036117   0.127794  -0.096599
   47  O 10  Y    0.008956  -0.008806  -0.105420   0.106019  -0.100182
   48  O 10  Z   -0.001106  -0.026834   0.032878   0.001713  -0.008810
   49  H 11  S    0.019084  -0.025755  -0.005368   0.102835  -0.090986
   50  H 11  S    0.007551  -0.002333  -0.008851   0.106451  -0.086767
   51  H 12  S   -0.001496  -0.013072  -0.072258  -0.028887   0.019921
   52  H 12  S   -0.000197   0.003335  -0.091172  -0.036975   0.007774
   53  O 13  S    0.110374   0.078979  -0.002270   0.002147  -0.002688
   54  O 13  S   -0.104035  -0.074724   0.004307  -0.002688   0.002322
   55  O 13  X    0.008279  -0.000405   0.074575  -0.003632  -0.150081
   56  O 13  Y   -0.018474  -0.019192   0.240093  -0.061175  -0.107350
   57  O 13  Z    0.042058   0.027316  -0.019646   0.006330  -0.025665
   58  O 13  S   -0.342782  -0.248945   0.006994  -0.008785   0.012362
   59  O 13  X    0.011313   0.002079   0.062207  -0.000670  -0.139910
   60  O 13  Y   -0.012771  -0.015096   0.217160  -0.054823  -0.093669
   61  O 13  Z    0.044178   0.028275  -0.014022   0.001471  -0.023471
   62  H 14  S   -0.041724  -0.003322  -0.125304   0.021717   0.121323
   63  H 14  S   -0.003968   0.008164  -0.141335   0.030657   0.126574
   64  H 15  S   -0.062186  -0.048332   0.151065  -0.038959  -0.069300
   65  H 15  S   -0.017178  -0.012540   0.131296  -0.030187  -0.064118
   66  O 16  S    0.118773  -0.069956   0.000208  -0.003644  -0.000091
   67  O 16  S   -0.111040   0.066309  -0.000363   0.006028  -0.000093
   68  O 16  X    0.027140  -0.019384   0.041381   0.022393   0.075826
   69  O 16  Y    0.020775  -0.018202   0.018081  -0.190596  -0.031894
   70  O 16  Z    0.029438  -0.015058  -0.016823  -0.033268  -0.044214
   71  O 16  S   -0.371145   0.219612  -0.001373   0.010689   0.000140
   72  O 16  X    0.029223  -0.021639   0.038738   0.021413   0.070931
   73  O 16  Y    0.012901  -0.015205   0.014842  -0.174843  -0.027959
   74  O 16  Z    0.030332  -0.014219  -0.014415  -0.020430  -0.040038
   75  H 17  S   -0.065620   0.042250  -0.010071   0.119573   0.023607
   76  H 17  S   -0.018883   0.011029  -0.006798   0.097920   0.022404
   77  H 18  S   -0.022782  -0.025078   0.065203  -0.079760   0.068553
   78  H 18  S   -0.007946  -0.001945   0.067904  -0.088034   0.071905

                     16         17         18         19         20
                   -0.4948    -0.4866    -0.4826    -0.4193    -0.3753
                     A          A          A          A          A   
    1  O  1  S    0.001393   0.002097  -0.003288   0.037725   0.045810
    2  O  1  S   -0.001511  -0.000502   0.002489  -0.030314  -0.038359
    3  O  1  X    0.009356  -0.052141   0.020919  -0.051171  -0.034729
    4  O  1  Y   -0.121987   0.083945   0.085829   0.079548   0.176342
    5  O  1  Z    0.120198   0.012589  -0.137703   0.152931   0.090585
    6  O  1  S   -0.006933  -0.010768   0.014986  -0.175698  -0.209665
    7  O  1  X    0.012764  -0.050564   0.017447  -0.042002  -0.031049
    8  O  1  Y   -0.114256   0.078984   0.082184   0.079603   0.185995
    9  O  1  Z    0.109788   0.009325  -0.123392   0.151822   0.090334
   10  H  2  S    0.121639  -0.109001  -0.058566  -0.024248  -0.011641
   11  H  2  S    0.132189  -0.118560  -0.078117  -0.045026  -0.056235
   12  H  3  S    0.043407   0.034222  -0.067549   0.105201   0.084442
   13  H  3  S    0.043136   0.024636  -0.059353   0.104973   0.091102
   14  O  4  S    0.000065  -0.001661   0.000910  -0.023485   0.047680
   15  O  4  S   -0.000722   0.001724  -0.001588   0.018015  -0.038810
   16  O  4  X   -0.067932  -0.102985  -0.003890  -0.030192   0.002961
   17  O  4  Y    0.074508   0.204229  -0.062600  -0.022742  -0.064583
   18  O  4  Z   -0.055183  -0.022294  -0.048503  -0.132146   0.149789
   19  O  4  S    0.000531   0.006773  -0.003257   0.110223  -0.228657
   20  O  4  X   -0.063358  -0.091886  -0.004939  -0.030067   0.000236
   21  O  4  Y    0.066426   0.188356  -0.061373  -0.022391  -0.076862
   22  O  4  Z   -0.046195  -0.012764  -0.042701  -0.130097   0.148945
   23  H  5  S   -0.063218  -0.080612  -0.016193  -0.070363   0.090238
   24  H  5  S   -0.051267  -0.072964  -0.006181  -0.064168   0.097949
   25  H  6  S    0.067635   0.146392  -0.026040  -0.019632   0.014772
   26  H  6  S    0.067124   0.158897  -0.039220  -0.039078   0.071835
   27  O  7  S    0.003461   0.000833   0.000163  -0.049444   0.000164
   28  O  7  S   -0.000849  -0.000399   0.000670   0.039200   0.000070
   29  O  7  X   -0.010720  -0.028370  -0.109066   0.116420  -0.099692
   30  O  7  Y    0.112403  -0.039306   0.054927  -0.083895  -0.126277
   31  O  7  Z   -0.077156  -0.016880   0.079393   0.194942  -0.002387
   32  O  7  S   -0.017763  -0.003957  -0.002729   0.225267  -0.000245
   33  O  7  X   -0.006465  -0.028216  -0.108186   0.115025  -0.108438
   34  O  7  Y    0.108645  -0.039507   0.053050  -0.081742  -0.141704
   35  O  7  Z   -0.068113  -0.014905   0.077936   0.188871   0.003348
   36  H  8  S    0.068591   0.009922   0.002890  -0.144583   0.008831
   37  H  8  S    0.054493   0.006832   0.001434  -0.143338   0.000854
   38  H  9  S   -0.111759   0.024690   0.097735  -0.003527   0.051825
   39  H  9  S   -0.115714   0.033674   0.110752   0.024658   0.070149
   40  O 10  S    0.003413   0.000478  -0.002704   0.039341  -0.001275
   41  O 10  S   -0.003229  -0.000568   0.003324  -0.032971   0.000427
   42  O 10  X    0.026094  -0.145492   0.205436   0.023648   0.075364
   43  O 10  Y   -0.102716  -0.170071  -0.147231  -0.005857   0.113280
   44  O 10  Z    0.055950  -0.002488   0.140868   0.083881   0.000190
   45  O 10  S   -0.014777  -0.001420   0.006429  -0.186365   0.009136
   46  O 10  X    0.022319  -0.136216   0.191864   0.018314   0.084622
   47  O 10  Y   -0.093479  -0.159499  -0.136112   0.001488   0.128157
   48  O 10  Z    0.054638  -0.004645   0.131003   0.090781   0.005573
   49  H 11  S   -0.005126  -0.120432   0.087290   0.046601   0.037335
   50  H 11  S    0.001689  -0.133180   0.102825   0.075156   0.000717
   51  H 12  S   -0.066714   0.008211  -0.176674   0.003318   0.004120
   52  H 12  S   -0.059873   0.012111  -0.197289   0.013182  -0.004981
   53  O 13  S   -0.002106  -0.002118  -0.005435   0.034983  -0.051683
   54  O 13  S   -0.000080   0.000145   0.004382  -0.027429   0.044153
   55  O 13  X   -0.012471   0.114134  -0.078690   0.024377   0.103629
   56  O 13  Y   -0.127390  -0.043114  -0.087743   0.163972  -0.108887
   57  O 13  Z    0.020730   0.049849  -0.002624  -0.073811   0.174648
   58  O 13  S    0.012290   0.011592   0.024030  -0.165868   0.233502
   59  O 13  X   -0.008275   0.109976  -0.073103   0.027764   0.108406
   60  O 13  Y   -0.115525  -0.041847  -0.078135   0.154941  -0.106174
   61  O 13  Z    0.014830   0.046394  -0.001813  -0.070489   0.190447
   62  H 14  S    0.046235  -0.049728   0.064495  -0.018308  -0.065842
   63  H 14  S    0.047019  -0.060508   0.074439   0.018532  -0.076855
   64  H 15  S   -0.081299  -0.026797  -0.056331   0.111180  -0.087370
   65  H 15  S   -0.066215  -0.019045  -0.052916   0.103597  -0.102983
   66  O 16  S   -0.005363   0.002190  -0.000327  -0.028920  -0.043063
   67  O 16  S    0.002132  -0.002665   0.000079   0.022517   0.035841
   68  O 16  X   -0.051631   0.135262   0.092992   0.085099   0.028976
   69  O 16  Y    0.250732  -0.062180  -0.015543   0.123346   0.099649
   70  O 16  Z    0.074056  -0.086902  -0.049360   0.021147   0.103236
   71  O 16  S    0.026471  -0.008198   0.001442   0.135511   0.203726
   72  O 16  X   -0.045309   0.126780   0.087291   0.085528   0.023667
   73  O 16  Y    0.226068  -0.052144  -0.013095   0.122913   0.098233
   74  O 16  Z    0.064273  -0.083638  -0.043937   0.024209   0.117603
   75  H 17  S   -0.160145   0.046341   0.014427  -0.076152  -0.076918
   76  H 17  S   -0.138089   0.046393   0.014804  -0.076384  -0.088040
   77  H 18  S    0.074764   0.113574   0.084647   0.044980  -0.047182
   78  H 18  S    0.071674   0.120602   0.109032   0.073658  -0.008820

                     21         22         23         24         25
                   -0.3613    -0.3404    -0.3252    -0.2939    -0.2676
                     A          A          A          A          A   
    1  O  1  S    0.014363   0.039191   0.037878   0.035269   0.009360
    2  O  1  S   -0.011837  -0.034037  -0.032949  -0.033472  -0.012593
    3  O  1  X    0.049507   0.003555   0.080890   0.135869   0.125722
    4  O  1  Y   -0.100999   0.203903   0.015259   0.159929   0.119266
    5  O  1  Z    0.095618   0.028170   0.125336   0.059772   0.010018
    6  O  1  S   -0.073741  -0.175955  -0.179083  -0.150370  -0.016886
    7  O  1  X    0.056242   0.004747   0.096983   0.164471   0.156418
    8  O  1  Y   -0.115216   0.223616   0.007904   0.177539   0.141107
    9  O  1  Z    0.104548   0.031890   0.129931   0.060044   0.004121
   10  H  2  S    0.065900   0.019152   0.051485   0.032969   0.005824
   11  H  2  S    0.076857  -0.034200   0.051430   0.010225  -0.014125
   12  H  3  S    0.023273   0.046970   0.059031   0.043128   0.011131
   13  H  3  S    0.031798   0.061515   0.064785   0.045171   0.006550
   14  O  4  S    0.036108  -0.025254  -0.048897   0.029285  -0.004915
   15  O  4  S   -0.029573   0.021702   0.044395  -0.030978   0.007895
   16  O  4  X   -0.025971   0.033484   0.103562  -0.177680   0.144806
   17  O  4  Y    0.089555   0.156473  -0.077612  -0.065453  -0.032142
   18  O  4  Z    0.164113  -0.012320  -0.203580   0.092590  -0.053272
   19  O  4  S   -0.166728   0.125455   0.213987  -0.113788   0.003276
   20  O  4  X   -0.024492   0.041854   0.125048  -0.222493   0.176313
   21  O  4  Y    0.097974   0.184344  -0.089665  -0.077866  -0.027806
   22  O  4  Z    0.174537  -0.009523  -0.211584   0.095557  -0.064100
   23  H  5  S    0.059348  -0.030899  -0.071799   0.032384   0.005575
   24  H  5  S    0.061886  -0.045515  -0.080287   0.042739   0.001127
   25  H  6  S    0.058891   0.013563  -0.061770   0.026549  -0.011204
   26  H  6  S    0.069487  -0.037854  -0.057434   0.003204   0.007905
   27  O  7  S   -0.052728   0.024730  -0.001688   0.032917   0.001137
   28  O  7  S    0.044844  -0.020736   0.002005  -0.029455  -0.003123
   29  O  7  X    0.009250  -0.163152  -0.115370  -0.040377   0.215619
   30  O  7  Y    0.001381   0.110149  -0.158274   0.011507  -0.117816
   31  O  7  Z    0.200464   0.061087   0.004316  -0.075012  -0.173030
   32  O  7  S    0.243534  -0.117549   0.007290  -0.156120   0.002009
   33  O  7  X   -0.000337  -0.187622  -0.136838  -0.033904   0.251227
   34  O  7  Y    0.007953   0.128949  -0.186990   0.006754  -0.127508
   35  O  7  Z    0.208995   0.073294   0.009345  -0.069582  -0.193870
   36  H  8  S   -0.096500   0.031727   0.003770   0.052060  -0.000167
   37  H  8  S   -0.115902   0.048979  -0.005540   0.068611   0.005247
   38  H  9  S   -0.023036   0.066109   0.013274   0.037044   0.022197
   39  H  9  S   -0.002805   0.068143   0.043954   0.034203  -0.042578
   40  O 10  S   -0.040503  -0.052234   0.002319   0.028814  -0.006736
   41  O 10  S    0.032909   0.046746  -0.001592  -0.031651   0.015075
   42  O 10  X    0.148505  -0.005785  -0.089773  -0.106403   0.160548
   43  O 10  Y   -0.123134  -0.006407  -0.115519   0.062321  -0.143731
   44  O 10  Z    0.014385  -0.192963  -0.007820   0.191720  -0.116417
   45  O 10  S    0.197960   0.240631  -0.013031  -0.104780  -0.021331
   46  O 10  X    0.161740  -0.008629  -0.113867  -0.126091   0.195893
   47  O 10  Y   -0.136593  -0.006554  -0.146059   0.072002  -0.181172
   48  O 10  Z    0.021564  -0.222633  -0.014673   0.233096  -0.144957
   49  H 11  S   -0.013804  -0.062466  -0.015911   0.027435  -0.006414
   50  H 11  S   -0.048264  -0.061840   0.029328   0.001577   0.037763
   51  H 12  S   -0.087462  -0.021392   0.002287   0.017331  -0.025178
   52  H 12  S   -0.082745  -0.062456   0.002005   0.028498   0.077101
   53  O 13  S    0.012777   0.032523  -0.045997   0.029011   0.004046
   54  O 13  S   -0.009735  -0.027830   0.040854  -0.027940  -0.008531
   55  O 13  X    0.133424  -0.119740  -0.096223  -0.004456   0.153888
   56  O 13  Y    0.041421   0.037769  -0.022460  -0.039481  -0.135427
   57  O 13  Z    0.020218  -0.136367   0.153553  -0.194725  -0.176525
   58  O 13  S   -0.068368  -0.147198   0.213167  -0.122317   0.008477
   59  O 13  X    0.147797  -0.130838  -0.112915   0.000074   0.177680
   60  O 13  Y    0.040808   0.043553  -0.012861  -0.055374  -0.164706
   61  O 13  Z    0.031926  -0.147811   0.170034  -0.223237  -0.221845
   62  H 14  S   -0.025784   0.057956  -0.028515   0.028139   0.012183
   63  H 14  S    0.000055   0.063449  -0.050913   0.032884  -0.060023
   64  H 15  S    0.032037   0.039269  -0.060844   0.032569  -0.006537
   65  H 15  S    0.029545   0.050748  -0.075798   0.034441  -0.001779
   66  O 16  S    0.042373  -0.023625   0.042445   0.033674  -0.000180
   67  O 16  S   -0.034622   0.019016  -0.038804  -0.033673   0.000189
   68  O 16  X   -0.184352  -0.090078  -0.178561  -0.146825  -0.009486
   69  O 16  Y   -0.105045   0.025508  -0.046571   0.010694  -0.008826
   70  O 16  Z   -0.009834   0.130200  -0.079654  -0.149167   0.022016
   71  O 16  S   -0.196295   0.121655  -0.185612  -0.136241   0.002170
   72  O 16  X   -0.197510  -0.107931  -0.198416  -0.168830  -0.013508
   73  O 16  Y   -0.112072   0.023088  -0.038748   0.034944  -0.011738
   74  O 16  Z   -0.005451   0.145586  -0.091422  -0.170621   0.028115
   75  H 17  S    0.070336  -0.038799   0.057016   0.047525  -0.000925
   76  H 17  S    0.074007  -0.042600   0.067508   0.047573   0.001765
   77  H 18  S   -0.013908  -0.057524   0.025608   0.025297   0.000301
   78  H 18  S   -0.045327  -0.071015  -0.017459   0.004410   0.008044

                     26         27         28         29         30
                   -0.2633    -0.2624    -0.2582    -0.2557    -0.2517
                     A          A          A          A          A   
    1  O  1  S    0.003040   0.006090   0.004100   0.001736  -0.000207
    2  O  1  S   -0.005566  -0.009463  -0.005775  -0.002542   0.002850
    3  O  1  X    0.084043   0.328618  -0.021502   0.256892  -0.026464
    4  O  1  Y    0.075571  -0.070871   0.191905   0.021387  -0.088152
    5  O  1  Z   -0.004620   0.117163  -0.069151   0.038347   0.026639
    6  O  1  S    0.000724  -0.008644  -0.001563   0.004882  -0.015962
    7  O  1  X    0.106731   0.395626  -0.022018   0.294430  -0.036235
    8  O  1  Y    0.085599  -0.076716   0.224463   0.041171  -0.105420
    9  O  1  Z   -0.003680   0.132470  -0.081127   0.058560   0.033546
   10  H  2  S    0.007630  -0.015615   0.013069  -0.016221  -0.005690
   11  H  2  S   -0.037586   0.009904  -0.022024   0.043515   0.020440
   12  H  3  S   -0.000930   0.004176   0.001768  -0.016968   0.001986
   13  H  3  S   -0.000899  -0.001444  -0.000959  -0.017669   0.000482
   14  O  4  S   -0.002290   0.002728  -0.006170  -0.004955  -0.006931
   15  O  4  S    0.005076  -0.003414   0.007212   0.005034   0.009683
   16  O  4  X    0.088280  -0.004216   0.126722   0.015613   0.327447
   17  O  4  Y   -0.098075   0.160803   0.199787  -0.085106   0.164448
   18  O  4  Z   -0.063653   0.072868   0.028421  -0.054075  -0.023759
   19  O  4  S   -0.009149  -0.002784   0.020497   0.015444   0.004623
   20  O  4  X    0.109443  -0.004107   0.155081   0.017182   0.384745
   21  O  4  Y   -0.112021   0.185692   0.223407  -0.103074   0.190729
   22  O  4  Z   -0.076344   0.081961   0.037031  -0.060019  -0.038698
   23  H  5  S    0.004606   0.001818  -0.012327  -0.008472   0.004857
   24  H  5  S    0.000932   0.003665  -0.004444  -0.003959   0.015020
   25  H  6  S   -0.016124   0.013558  -0.002512  -0.011697  -0.017342
   26  H  6  S    0.032334  -0.008089   0.024555   0.012140   0.045766
   27  O  7  S   -0.000384   0.002559   0.001336   0.004627   0.004631
   28  O  7  S    0.001602  -0.002690  -0.001654  -0.006434  -0.006425
   29  O  7  X    0.009747  -0.013191   0.227374   0.013807  -0.152524
   30  O  7  Y    0.280697  -0.065950   0.109558   0.170414  -0.036042
   31  O  7  Z    0.102312  -0.031066  -0.096153   0.032798   0.055301
   32  O  7  S   -0.002466  -0.010070  -0.004615  -0.014300  -0.015263
   33  O  7  X    0.010607  -0.021028   0.268125   0.023669  -0.157977
   34  O  7  Y    0.333217  -0.085831   0.123381   0.181949  -0.043185
   35  O  7  Z    0.120037  -0.027244  -0.110026   0.051655   0.071329
   36  H  8  S    0.000902   0.009139   0.004192   0.016601   0.012020
   37  H  8  S   -0.002684   0.005701   0.003845   0.018621   0.018060
   38  H  9  S    0.002601  -0.000106   0.014577   0.012334  -0.008041
   39  H  9  S   -0.003131  -0.030799  -0.023960  -0.035145   0.035880
   40  O 10  S   -0.000805  -0.000530   0.004973   0.002491   0.007087
   41  O 10  S    0.002786   0.003067  -0.008609  -0.004296  -0.010825
   42  O 10  X   -0.030514   0.117381   0.054333  -0.151472  -0.036272
   43  O 10  Y    0.084628   0.102695   0.022948  -0.044088   0.160580
   44  O 10  Z   -0.155512  -0.054943   0.196077   0.118281   0.205009
   45  O 10  S   -0.010391  -0.012763   0.004128   0.007368   0.002812
   46  O 10  X   -0.038584   0.146493   0.064291  -0.174035  -0.050531
   47  O 10  Y    0.097085   0.127075   0.030054  -0.041737   0.185392
   48  O 10  Z   -0.189690  -0.068409   0.233390   0.142087   0.239987
   49  H 11  S   -0.000669   0.015253   0.011913  -0.017678   0.011835
   50  H 11  S    0.024025  -0.031970  -0.034560   0.001342  -0.016119
   51  H 12  S    0.006103  -0.002680  -0.000865   0.012622   0.012768
   52  H 12  S   -0.007492   0.017026  -0.002283  -0.037331  -0.043316
   53  O 13  S   -0.005210  -0.000260  -0.008488  -0.002647   0.002745
   54  O 13  S    0.007282   0.001530   0.011702   0.004526  -0.002330
   55  O 13  X    0.210007  -0.168822  -0.089113   0.103773   0.123077
   56  O 13  Y    0.001957   0.062668   0.110000   0.007545  -0.117488
   57  O 13  Z    0.103015   0.047657   0.197304   0.061978  -0.146323
   58  O 13  S    0.003481  -0.003136   0.014571  -0.002852  -0.004840
   59  O 13  X    0.243626  -0.196419  -0.106843   0.123352   0.136385
   60  O 13  Y    0.007057   0.077833   0.138768   0.012842  -0.123610
   61  O 13  Z    0.120579   0.060271   0.231606   0.073846  -0.177980
   62  H 14  S   -0.020250   0.005795  -0.008914  -0.013027   0.011355
   63  H 14  S    0.027456   0.008914   0.020996   0.032476  -0.024126
   64  H 15  S   -0.004827  -0.000299  -0.011015  -0.001637  -0.008152
   65  H 15  S   -0.001246   0.002585   0.002682  -0.002945  -0.015403
   66  O 16  S    0.006620  -0.000602   0.005993  -0.005990   0.001728
   67  O 16  S   -0.009570   0.002615  -0.008164   0.009072  -0.001986
   68  O 16  X    0.015439   0.220290  -0.134862   0.093204   0.030407
   69  O 16  Y    0.117306   0.014334   0.010406  -0.177186  -0.001215
   70  O 16  Z   -0.251353  -0.120707  -0.006910   0.297949  -0.028033
   71  O 16  S   -0.011639  -0.013862  -0.009588   0.000452  -0.009194
   72  O 16  X    0.007901   0.253458  -0.156419   0.118311   0.042966
   73  O 16  Y    0.142857   0.018987   0.021741  -0.199039   0.006058
   74  O 16  Z   -0.297968  -0.132884  -0.008079   0.356948  -0.033388
   75  H 17  S    0.001976   0.008301   0.009922   0.010854   0.007801
   76  H 17  S    0.000572   0.003404   0.003867   0.014901   0.004303
   77  H 18  S   -0.006615  -0.016976   0.011609   0.009709   0.002562
   78  H 18  S    0.020889   0.055896  -0.023878  -0.011758  -0.021776

                     31         32         33         34         35
                    0.0817     0.1115     0.1223     0.1395     0.1411
                     A          A          A          A          A   
    1  O  1  S    0.055154   0.062638  -0.007635  -0.039446   0.046174
    2  O  1  S   -0.038641  -0.042216   0.003953   0.019753  -0.022825
    3  O  1  X   -0.035466  -0.018204  -0.014814  -0.040927   0.042836
    4  O  1  Y   -0.069157  -0.035537   0.062993   0.084982  -0.054786
    5  O  1  Z   -0.057286  -0.129370  -0.005418   0.117757  -0.161322
    6  O  1  S   -0.423572  -0.498533   0.070115   0.358080  -0.418592
    7  O  1  X   -0.040215  -0.011584  -0.019030  -0.063315   0.068922
    8  O  1  Y   -0.117060  -0.083414   0.082511   0.134124  -0.109610
    9  O  1  Z   -0.126499  -0.246950   0.004115   0.229433  -0.298847
   10  H  2  S    0.023699   0.043965   0.023302   0.014829   0.007791
   11  H  2  S    0.129148   0.167934   0.056893   0.010942   0.025194
   12  H  3  S    0.046584   0.068644  -0.008508  -0.062629   0.076415
   13  H  3  S    0.437915   0.635734  -0.087563  -0.586343   0.701505
   14  O  4  S    0.043745  -0.043199   0.068289  -0.045049  -0.020125
   15  O  4  S   -0.029801   0.028888  -0.042450   0.025127   0.010000
   16  O  4  X    0.039072  -0.020482  -0.006674   0.031501   0.021563
   17  O  4  Y    0.015185   0.000108   0.068122  -0.065528  -0.058149
   18  O  4  Z   -0.060458   0.094421  -0.157711   0.133918   0.047309
   19  O  4  S   -0.336831   0.347000  -0.565778   0.394103   0.178375
   20  O  4  X    0.051276  -0.020983  -0.024400   0.056500   0.030954
   21  O  4  Y    0.038719  -0.018928   0.130107  -0.113885  -0.091507
   22  O  4  Z   -0.116367   0.175618  -0.303565   0.255178   0.092973
   23  H  5  S    0.036393  -0.046566   0.083235  -0.067932  -0.029833
   24  H  5  S    0.332566  -0.416859   0.780350  -0.629914  -0.276592
   25  H  6  S    0.026731  -0.034266   0.034997  -0.013758   0.005237
   26  H  6  S    0.136959  -0.137537   0.094949  -0.021219   0.024729
   27  O  7  S    0.080933  -0.000421  -0.055090  -0.005214  -0.044747
   28  O  7  S   -0.057458  -0.000096   0.034301   0.003790   0.021534
   29  O  7  X    0.047657   0.036589  -0.086732  -0.031256  -0.055989
   30  O  7  Y   -0.040336   0.060901   0.053884  -0.033234   0.029957
   31  O  7  Z    0.078768  -0.012986  -0.119772  -0.001091  -0.166959
   32  O  7  S   -0.603206   0.008340   0.460875   0.038960   0.411133
   33  O  7  X    0.095745   0.038628  -0.160369  -0.033147  -0.119979
   34  O  7  Y   -0.076337   0.076401   0.101320  -0.028049   0.065837
   35  O  7  Z    0.169500  -0.024907  -0.236160  -0.003491  -0.292459
   36  H  8  S    0.069485  -0.001693  -0.070609  -0.006995  -0.074953
   37  H  8  S    0.642836  -0.042077  -0.695199  -0.036418  -0.686478
   38  H  9  S    0.037354   0.024199  -0.024221  -0.024786   0.012445
   39  H  9  S    0.181728   0.091567  -0.072436  -0.041175   0.006908
   40  O 10  S    0.036015   0.004205   0.020225  -0.000721  -0.025196
   41  O 10  S   -0.029323  -0.003832  -0.015723  -0.000020   0.022442
   42  O 10  X    0.039932   0.033903  -0.045049   0.028349  -0.027049
   43  O 10  Y   -0.032827   0.047376   0.023657   0.044325   0.020114
   44  O 10  Z   -0.040883  -0.007801  -0.056071   0.000738   0.022263
   45  O 10  S   -0.256610  -0.028260  -0.147057   0.008266   0.175352
   46  O 10  X    0.054761   0.044885  -0.051832   0.032541  -0.036161
   47  O 10  Y   -0.042934   0.059607   0.030294   0.049327   0.025983
   48  O 10  Z   -0.064559  -0.010502  -0.084900   0.002470   0.038346
   49  H 11  S    0.017573  -0.005234   0.030518  -0.014841  -0.017114
   50  H 11  S    0.137452  -0.042346   0.129572  -0.039417  -0.094415
   51  H 12  S    0.024588   0.000181  -0.012139  -0.003145  -0.031991
   52  H 12  S    0.158598   0.012766  -0.008686  -0.002429  -0.102507
   53  O 13  S    0.062450  -0.057433   0.001528   0.036012   0.046057
   54  O 13  S   -0.042687   0.037838  -0.003551  -0.017844  -0.022584
   55  O 13  X   -0.005818   0.047235  -0.066104   0.003296  -0.028700
   56  O 13  Y   -0.035800   0.092233   0.004906  -0.125127  -0.149358
   57  O 13  Z    0.106190  -0.088034  -0.026179   0.080401   0.079187
   58  O 13  S   -0.485836   0.462999   0.002811  -0.328625  -0.419072
   59  O 13  X   -0.015236   0.078342  -0.080633  -0.018984  -0.053269
   60  O 13  Y   -0.099103   0.191101   0.006218  -0.230592  -0.265080
   61  O 13  Z    0.184843  -0.162262  -0.034127   0.143579   0.159333
   62  H 14  S    0.039928  -0.027500  -0.021774   0.023193   0.008701
   63  H 14  S    0.214020  -0.062652  -0.064881  -0.000720   0.032714
   64  H 15  S    0.054573  -0.064302  -0.000236   0.060992   0.076198
   65  H 15  S    0.511225  -0.626860  -0.007021   0.577646   0.682479
   66  O 16  S    0.040484   0.061253   0.051448   0.050248  -0.018727
   67  O 16  S   -0.027622  -0.040250  -0.032010  -0.028102   0.009075
   68  O 16  X    0.038171   0.079563   0.022748   0.024374   0.023642
   69  O 16  Y    0.016054   0.086658   0.095496   0.150687  -0.051849
   70  O 16  Z    0.049268   0.071187   0.078773   0.088337  -0.045428
   71  O 16  S   -0.310562  -0.495111  -0.424559  -0.440539   0.166337
   72  O 16  X    0.059486   0.125120   0.045481   0.054830   0.024060
   73  O 16  Y    0.045772   0.181023   0.188631   0.284721  -0.091264
   74  O 16  Z    0.090642   0.135670   0.148701   0.161587  -0.080721
   75  H 17  S    0.033906   0.065643   0.063392   0.077431  -0.028577
   76  H 17  S    0.294672   0.615928   0.577015   0.726799  -0.250838
   77  H 18  S    0.016175   0.014505   0.024210   0.019160  -0.015059
   78  H 18  S    0.142742   0.076421   0.133970   0.024259  -0.102694

                     36         37         38         39         40
                    0.2441     0.3031     0.3121     0.3362     0.3552
                     A          A          A          A          A   
    1  O  1  S   -0.006884   0.031157   0.053389   0.018607   0.005314
    2  O  1  S    0.006991  -0.027356  -0.054662  -0.022922  -0.009705
    3  O  1  X    0.045044  -0.066916  -0.153374  -0.085222  -0.039650
    4  O  1  Y   -0.007637  -0.072713   0.042486   0.145604   0.088007
    5  O  1  Z   -0.050845   0.144785   0.142088  -0.016133  -0.024694
    6  O  1  S    0.041359  -0.236118  -0.355164  -0.096574  -0.009672
    7  O  1  X    0.074685  -0.144346  -0.290232  -0.154713  -0.057140
    8  O  1  Y   -0.012881  -0.134197   0.058204   0.238849   0.141835
    9  O  1  Z   -0.095835   0.285591   0.283788  -0.007976  -0.049260
   10  H  2  S   -0.005808   0.022172   0.138288   0.153915   0.072003
   11  H  2  S   -0.156275   0.121564   0.847363   0.847135   0.417173
   12  H  3  S    0.016409  -0.053944  -0.062598  -0.029751   0.004056
   13  H  3  S    0.163917  -0.309477  -0.403108  -0.109908  -0.016840
   14  O  4  S   -0.016076   0.009428  -0.042403   0.043749   0.010271
   15  O  4  S    0.023490  -0.005488   0.040910  -0.038849  -0.005374
   16  O  4  X   -0.095506   0.054275  -0.135236   0.131067   0.046797
   17  O  4  Y   -0.039536  -0.121702   0.090146  -0.129869  -0.140487
   18  O  4  Z   -0.160039  -0.036326  -0.082356   0.054836  -0.052510
   19  O  4  S    0.054067  -0.093013   0.301617  -0.337181  -0.107564
   20  O  4  X   -0.168182   0.095469  -0.263922   0.276271   0.091542
   21  O  4  Y   -0.034994  -0.203090   0.174217  -0.238161  -0.235019
   22  O  4  Z   -0.279792  -0.050407  -0.159508   0.125900  -0.083281
   23  H  5  S    0.056163  -0.002260   0.044125  -0.056835   0.008860
   24  H  5  S    0.414358  -0.060799   0.319576  -0.299111  -0.033319
   25  H  6  S   -0.006305   0.074767  -0.116997   0.158091   0.094932
   26  H  6  S   -0.161865   0.449828  -0.720899   0.869797   0.546616
   27  O  7  S   -0.023049   0.050033   0.009649  -0.039127   0.003619
   28  O  7  S    0.031018  -0.052695  -0.010720   0.043141  -0.003696
   29  O  7  X    0.146221  -0.012317   0.083130   0.114752  -0.115156
   30  O  7  Y   -0.104821  -0.034068   0.109189  -0.074445   0.156196
   31  O  7  Z    0.070310  -0.217491  -0.049794   0.044965   0.115689
   32  O  7  S    0.086134  -0.301276  -0.057082   0.242339  -0.025776
   33  O  7  X    0.240200  -0.066623   0.120569   0.222244  -0.180111
   34  O  7  Y   -0.171413  -0.018556   0.175709  -0.146168   0.247146
   35  O  7  Z    0.159227  -0.398251  -0.089366   0.128069   0.161850
   36  H  8  S    0.046143  -0.059726  -0.018858   0.068333  -0.017003
   37  H  8  S    0.401328  -0.385202  -0.082882   0.247826  -0.025008
   38  H  9  S   -0.002928   0.112173   0.096868  -0.031801  -0.045932
   39  H  9  S   -0.162326   0.744666   0.603995  -0.218758  -0.236947
   40  O 10  S   -0.116931  -0.050848  -0.010474  -0.023040  -0.005222
   41  O 10  S    0.088365   0.036976   0.008128   0.015878   0.004829
   42  O 10  X   -0.050884   0.025640   0.076224  -0.142150   0.198499
   43  O 10  Y    0.044338  -0.043467   0.090531   0.094523  -0.184028
   44  O 10  Z    0.090112   0.055596   0.004460  -0.090706   0.161261
   45  O 10  S    0.935250   0.418409   0.084114   0.201804   0.037917
   46  O 10  X   -0.108567   0.017355   0.115277  -0.275290   0.358677
   47  O 10  Y    0.095815  -0.048961   0.148434   0.183201  -0.337474
   48  O 10  Z    0.193461   0.133072   0.015894  -0.137238   0.285597
   49  H 11  S   -0.097274  -0.067262  -0.052517   0.035827  -0.083595
   50  H 11  S   -0.593081  -0.327570  -0.339991   0.224978  -0.491348
   51  H 12  S   -0.107445  -0.039727  -0.010210  -0.152099   0.188428
   52  H 12  S   -0.604425  -0.068731  -0.028353  -0.799336   1.078853
   53  O 13  S   -0.008877   0.053138  -0.033245   0.016458  -0.010415
   54  O 13  S    0.008848  -0.050249   0.036339  -0.021437   0.003209
   55  O 13  X    0.000203   0.080921   0.061746  -0.157059  -0.172175
   56  O 13  Y   -0.063328   0.209815  -0.140483   0.058252  -0.020941
   57  O 13  Z   -0.003706   0.032406   0.017144  -0.060868  -0.060820
   58  O 13  S    0.056864  -0.380390   0.207381  -0.075826   0.119122
   59  O 13  X   -0.006153   0.156177   0.089308  -0.255634  -0.279775
   60  O 13  Y   -0.113946   0.420993  -0.263236   0.110341  -0.067077
   61  O 13  Z    0.000698   0.069479   0.026951  -0.092857  -0.113932
   62  H 14  S   -0.004172   0.146190  -0.037674  -0.039555  -0.124346
   63  H 14  S   -0.163262   0.933359  -0.254435  -0.266762  -0.629078
   64  H 15  S    0.014038  -0.063285   0.047441  -0.027000   0.001430
   65  H 15  S    0.139379  -0.417948   0.265456  -0.105902   0.049829
   66  O 16  S   -0.018063  -0.008150   0.041959   0.042294  -0.004147
   67  O 16  S    0.025098   0.010997  -0.039231  -0.037568   0.008538
   68  O 16  X    0.066840   0.080824   0.119689   0.117739   0.147920
   69  O 16  Y    0.165812   0.040043  -0.166560  -0.132462   0.023151
   70  O 16  Z   -0.031110  -0.037091  -0.041336  -0.048668  -0.065718
   71  O 16  S    0.070658   0.035208  -0.307190  -0.325444  -0.004341
   72  O 16  X    0.094298   0.123873   0.217479   0.220451   0.239597
   73  O 16  Y    0.293877   0.075607  -0.325865  -0.282511   0.040518
   74  O 16  Z   -0.029821  -0.059873  -0.075059  -0.074107  -0.114753
   75  H 17  S    0.048076   0.014822  -0.051243  -0.046236   0.007911
   76  H 17  S    0.375328   0.069970  -0.339440  -0.270672   0.022393
   77  H 18  S   -0.099065  -0.079801   0.021544   0.030093  -0.124803
   78  H 18  S   -0.575910  -0.421759   0.206731   0.177119  -0.690570

                     41         42         43         44         45
                    0.3627     0.3779     0.8697     0.8930     0.9127
                     A          A          A          A          A   
    1  O  1  S    0.033197  -0.004089  -0.009048   0.017276   0.013857
    2  O  1  S   -0.026217   0.007163   0.033227  -0.049419  -0.037238
    3  O  1  X    0.001959   0.040952   0.054064  -0.064181   0.005212
    4  O  1  Y   -0.204410  -0.119686   0.055259  -0.050653  -0.020601
    5  O  1  Z    0.152001   0.040082  -0.018422   0.007901  -0.086103
    6  O  1  S   -0.285698   0.006118  -0.066959   0.092403   0.057402
    7  O  1  X   -0.042494   0.074163  -0.032306   0.017008   0.095618
    8  O  1  Y   -0.345135  -0.191559   0.045961  -0.030722  -0.128509
    9  O  1  Z    0.283108   0.055511  -0.018158  -0.019190  -0.122183
   10  H  2  S   -0.088154  -0.115226  -0.233556   0.164488   0.473796
   11  H  2  S   -0.464703  -0.573673   0.255231  -0.015052  -0.631744
   12  H  3  S   -0.018748   0.018308   0.010131   0.101259   0.667486
   13  H  3  S   -0.149763   0.026746  -0.074624   0.034570  -0.455269
   14  O  4  S    0.030539  -0.009008   0.003645   0.019048   0.003986
   15  O  4  S   -0.031851   0.017123  -0.015348  -0.056113  -0.027883
   16  O  4  X    0.053366   0.024952   0.011614   0.027544   0.075531
   17  O  4  Y    0.028884  -0.198393   0.044987   0.039548  -0.000133
   18  O  4  Z    0.082219  -0.113943  -0.019107  -0.031062  -0.005206
   19  O  4  S   -0.208011   0.008664   0.028896   0.048395   0.130716
   20  O  4  X    0.127190   0.044972  -0.072744  -0.041110  -0.026017
   21  O  4  Y    0.032204  -0.325499   0.000056  -0.034249  -0.053363
   22  O  4  Z    0.147936  -0.173256  -0.121913  -0.147560  -0.027441
   23  H  5  S   -0.028622  -0.004523   0.370639   0.446006  -0.056679
   24  H  5  S   -0.152545   0.018019  -0.248271  -0.262194   0.133611
   25  H  6  S    0.041797   0.116375  -0.327412  -0.026905   0.451513
   26  H  6  S    0.218328   0.574673   0.342795   0.202375  -0.452910
   27  O  7  S    0.000927  -0.000254  -0.018257   0.006149  -0.014882
   28  O  7  S   -0.000925   0.000444   0.097696  -0.059893   0.027984
   29  O  7  X    0.182563   0.056283   0.019026  -0.018505  -0.028907
   30  O  7  Y    0.188693   0.075552  -0.014910   0.029078   0.023853
   31  O  7  Z   -0.032980  -0.000851  -0.000687   0.004355  -0.067271
   32  O  7  S   -0.007986   0.000558  -0.258936   0.174512  -0.065446
   33  O  7  X    0.288785   0.085398  -0.179293  -0.017070  -0.023268
   34  O  7  Y    0.304172   0.112976   0.121375   0.011081   0.085763
   35  O  7  Z   -0.051991  -0.001433  -0.163886   0.118707  -0.159559
   36  H  8  S   -0.008042  -0.000716  -0.541731   0.087775  -0.655196
   37  H  8  S   -0.004889   0.002867   0.241896   0.014635   0.425632
   38  H  9  S    0.207461   0.059063  -0.372703   0.599681  -0.266690
[...]
    556    5.36048    0.85441   -2.41915        -9.773128       9.729879      -0.043249
    557    5.36048    0.85441   -0.90737       -10.346838      10.325429      -0.021409
    558    5.36048    0.85441    0.60442       -10.157707      10.144738      -0.012969
    559    5.36048    0.85441    2.11620        -9.436694       9.421973      -0.014721
    560    5.36048    0.85441    3.62798        -8.459377       8.448937      -0.010440
    561    5.36048    0.85441    5.13976        -7.465468       7.460174      -0.005294
    562    5.36048    2.36619   -5.44271        -8.072637       8.035508      -0.037130
    563    5.36048    2.36619    2.11620       -10.447441      10.452950       0.005509
    564    5.36048    2.36619    3.62798        -9.174397       9.182803       0.008406
    565    5.36048    2.36619    5.13976        -7.956122       7.962631       0.006509
    566    5.36048    2.36619    6.65154        -6.914319       6.918053       0.003733
    567    5.36048    3.87797   -6.95449        -7.075923       7.056782      -0.019141
    568    5.36048    3.87797   -5.44271        -8.372367       8.337221      -0.035146
    569    5.36048    3.87797    5.13976        -8.365401       8.389694       0.024293
    570    5.36048    3.87797    6.65154        -7.153044       7.163638       0.010593
    571    5.36048    5.38975   -5.44271        -8.310510       8.287131      -0.023379
    572    5.36048    5.38975   -3.93093        -9.936366       9.902947      -0.033419
    573    5.36048    5.38975    6.65154        -7.251385       7.265223       0.013839
    574    5.36048    6.90153   -5.44271        -7.979259       7.966731      -0.012528
    575    5.36048    6.90153   -3.93093        -9.366062       9.348753      -0.017310
    576    5.36048    6.90153   -2.41915       -11.089120      11.065304      -0.023816
    577    5.36048    6.90153    5.13976        -8.516229       8.541364       0.025135
    578    5.36048    6.90153    6.65154        -7.162456       7.172602       0.010146
    579    5.36048    8.41331   -3.93093        -8.625749       8.619096      -0.006653
    580    5.36048    8.41331   -2.41915        -9.989005       9.977908      -0.011097
    581    5.36048    8.41331    3.62798        -9.685257       9.694377       0.009120
    582    5.36048    8.41331    5.13976        -8.072611       8.078133       0.005521
    583    5.36048    8.41331    6.65154        -6.881679       6.884835       0.003157
    584    5.36048    9.92509   -3.93093        -7.794742       7.797464       0.002722
    585    5.36048    9.92509   -2.41915        -8.801233       8.805985       0.004752
    586    5.36048    9.92509   -0.90737        -9.793230       9.799380       0.006150
    587    5.36048    9.92509    3.62798        -8.578368       8.570123      -0.008245
    588    5.36048    9.92509    5.13976        -7.415133       7.410714      -0.004418
    589    5.36048   11.43687   -3.93093        -6.951085       6.959639       0.008554
    590    5.36048   11.43687   -2.41915        -7.652202       7.666438       0.014237
    591    5.36048   11.43687   -0.90737        -8.261670       8.280532       0.018863
    592    5.36048   11.43687    0.60442        -8.509702       8.520969       0.011267
    593    5.36048   11.43687    2.11620        -8.186414       8.183840      -0.002574
    594    5.36048   11.43687    3.62798        -7.472004       7.464720      -0.007283
    595    5.36048   11.43687    5.13976        -6.675942       6.670280      -0.005662
    596    5.36048   12.94865   -3.93093        -6.162288       6.172095       0.009806
    597    5.36048   12.94865   -2.41915        -6.628168       6.642508       0.014340
    598    5.36048   12.94865   -0.90737        -6.986684       7.003740       0.017056
    599    5.36048   12.94865    0.60442        -7.107087       7.119270       0.012183
    600    5.36048   12.94865    2.11620        -6.914388       6.917253       0.002865
    601    5.36048   12.94865    3.62798        -6.483828       6.481278      -0.002550
    602    5.36048   14.46044   -2.41915        -5.776143       5.786905       0.010762
    603    5.36048   14.46044   -0.90737        -5.989876       6.001343       0.011467
    604    5.36048   14.46044    0.60442        -6.050992       6.059726       0.008734
    605    5.36048   14.46044    2.11620        -5.932027       5.935931       0.003904
    606    6.87226   -0.65737   -2.41915        -7.395154       7.378190      -0.016964
    607    6.87226   -0.65737   -0.90737        -7.694348       7.680030      -0.014318
    608    6.87226   -0.65737    0.60442        -7.692952       7.680795      -0.012157
    609    6.87226   -0.65737    2.11620        -7.402058       7.391545      -0.010513
    610    6.87226    0.85441   -3.93093        -7.597749       7.570651      -0.027099
    611    6.87226    0.85441   -2.41915        -8.304885       8.277958      -0.026927
    612    6.87226    0.85441   -0.90737        -8.694591       8.675605      -0.018985
    613    6.87226    0.85441    0.60442        -8.645061       8.633774      -0.011287
    614    6.87226    0.85441    2.11620        -8.216874       8.210581      -0.006293
    615    6.87226    0.85441    3.62798        -7.559206       7.556622      -0.002584
    616    6.87226    0.85441    5.13976        -6.827735       6.827050      -0.000686
    617    6.87226    2.36619   -5.44271        -7.235984       7.209726      -0.026258
    618    6.87226    2.36619   -3.93093        -8.244907       8.208940      -0.035967
    619    6.87226    2.36619   -2.41915        -9.207225       9.171272      -0.035953
    620    6.87226    2.36619   -0.90737        -9.767822       9.747066      -0.020757
    621    6.87226    2.36619    0.60442        -9.712188       9.704969      -0.007219
    622    6.87226    2.36619    2.11620        -9.116191       9.121944       0.005753
    623    6.87226    2.36619    3.62798        -8.220069       8.232237       0.012168
    624    6.87226    2.36619    5.13976        -7.281859       7.291136       0.009277
    625    6.87226    2.36619    6.65154        -6.437787       6.442976       0.005189
    626    6.87226    3.87797   -5.44271        -7.481476       7.455399      -0.026078
    627    6.87226    3.87797   -3.93093        -8.631690       8.595597      -0.036093
    628    6.87226    3.87797   -2.41915        -9.850902       9.814868      -0.036034
    629    6.87226    3.87797    5.13976        -7.675345       7.701094       0.025749
    630    6.87226    3.87797    6.65154        -6.666736       6.678104       0.011368
    631    6.87226    5.38975   -5.44271        -7.481153       7.459879      -0.021274
    632    6.87226    5.38975   -3.93093        -8.644589       8.614348      -0.030241
    633    6.87226    5.38975   -2.41915       -10.027503       9.984325      -0.043178
    634    6.87226    5.38975    6.65154        -6.766681       6.781110       0.014429
    635    6.87226    6.90153   -3.93093        -8.327132       8.303559      -0.023573
    636    6.87226    6.90153   -2.41915        -9.649312       9.604021      -0.045291
    637    6.87226    6.90153    5.13976        -7.820738       7.846761       0.026023
    638    6.87226    6.90153    6.65154        -6.690749       6.701820       0.011071
    639    6.87226    8.41331   -3.93093        -7.777959       7.763258      -0.014701
    640    6.87226    8.41331   -2.41915        -8.819072       8.791324      -0.027748
    641    6.87226    8.41331    3.62798        -8.650511       8.655230       0.004719
    642    6.87226    8.41331    5.13976        -7.412187       7.419870       0.007683
    643    6.87226    8.41331    6.65154        -6.439308       6.444075       0.004767
    644    6.87226    9.92509   -2.41915        -7.862768       7.852846      -0.009923
    645    6.87226    9.92509   -0.90737        -8.530302       8.513836      -0.016466
    646    6.87226    9.92509    0.60442        -8.825918       8.806612      -0.019306
    647    6.87226    9.92509    2.11620        -8.482740       8.470143      -0.012597
    648    6.87226    9.92509    3.62798        -7.698166       7.693512      -0.004654
    649    6.87226    9.92509    5.13976        -6.835467       6.834611      -0.000856
    650    6.87226   11.43687   -2.41915        -6.952537       6.953041       0.000503
    651    6.87226   11.43687   -0.90737        -7.364545       7.363882      -0.000662
    652    6.87226   11.43687    0.60442        -7.511924       7.508863      -0.003061
    653    6.87226   11.43687    2.11620        -7.300079       7.295345      -0.004734
    654    6.87226   11.43687    3.62798        -6.809761       6.805452      -0.004309
    655    6.87226   12.94865   -2.41915        -6.139564       6.144107       0.004544
    656    6.87226   12.94865   -0.90737        -6.401312       6.405742       0.004430
    657    6.87226   12.94865    0.60442        -6.482084       6.484471       0.002388
    658    6.87226   12.94865    2.11620        -6.342755       6.342332      -0.000423
    659    8.38404    0.85441   -2.41915        -7.143431       7.124911      -0.018521
    660    8.38404    0.85441   -0.90737        -7.416422       7.401245      -0.015177
    661    8.38404    0.85441    0.60442        -7.421418       7.411272      -0.010146
    662    8.38404    0.85441    2.11620        -7.164431       7.159378      -0.005053
    663    8.38404    0.85441    3.62798        -6.720789       6.719384      -0.001405
    664    8.38404    2.36619   -3.93093        -7.116008       7.093065      -0.022943
    665    8.38404    2.36619   -2.41915        -7.718720       7.694964      -0.023756
    666    8.38404    2.36619   -0.90737        -8.105223       8.085348      -0.019875
    667    8.38404    2.36619    0.60442        -8.145823       8.134250      -0.011574
    668    8.38404    2.36619    2.11620        -7.815805       7.815330      -0.000475
    669    8.38404    2.36619    3.62798        -7.231442       7.237642       0.006201
    670    8.38404    2.36619    5.13976        -6.560626       6.566852       0.006226
    671    8.38404    3.87797   -3.93093        -7.402505       7.377213      -0.025292
    672    8.38404    3.87797   -2.41915        -8.153887       8.123939      -0.029948
    673    8.38404    3.87797   -0.90737        -8.743626       8.711191      -0.032435
    674    8.38404    3.87797    0.60442        -8.927930       8.905840      -0.022090
    675    8.38404    3.87797    2.11620        -8.520142       8.526355       0.006213
    676    8.38404    3.87797    3.62798        -7.721050       7.740975       0.019926
    677    8.38404    3.87797    5.13976        -6.865951       6.880484       0.014534
    678    8.38404    3.87797    6.65154        -6.106592       6.114573       0.007981
    679    8.38404    5.38975   -3.93093        -7.465221       7.439691      -0.025530
    680    8.38404    5.38975   -2.41915        -8.328936       8.290977      -0.037959
    681    8.38404    5.38975   -0.90737        -9.179245       9.119836      -0.059409
    682    8.38404    5.38975    5.13976        -7.028710       7.047793       0.019082
    683    8.38404    5.38975    6.65154        -6.187957       6.197635       0.009678
    684    8.38404    6.90153   -3.93093        -7.284604       7.261829      -0.022776
    685    8.38404    6.90153   -2.41915        -8.134204       8.095485      -0.038719
    686    8.38404    6.90153    3.62798        -7.972194       7.984988       0.012794
    687    8.38404    6.90153    5.13976        -6.954104       6.966848       0.012744
    688    8.38404    6.90153    6.65154        -6.124509       6.131934       0.007426
    689    8.38404    8.41331   -2.41915        -7.607645       7.580057      -0.027589
    690    8.38404    8.41331   -0.90737        -8.264461       8.219734      -0.044727
    691    8.38404    8.41331    0.60442        -8.586102       8.535191      -0.050912
    692    8.38404    8.41331    2.11620        -8.242659       8.216682      -0.025977
    693    8.38404    8.41331    3.62798        -7.467756       7.464880      -0.002876
    694    8.38404    8.41331    5.13976        -6.645215       6.648812       0.003598
    695    8.38404    8.41331    6.65154        -5.918359       5.921695       0.003336
    696    8.38404    9.92509   -2.41915        -6.937329       6.922832      -0.014498
    697    8.38404    9.92509   -0.90737        -7.364980       7.344652      -0.020328
    698    8.38404    9.92509    0.60442        -7.529569       7.508084      -0.021485
    699    8.38404    9.92509    2.11620        -7.313317       7.299075      -0.014242
    700    8.38404    9.92509    3.62798        -6.806881       6.801263      -0.005619
    701    8.38404    9.92509    5.13976        -6.198718       6.197601      -0.001118
    702    8.38404   11.43687    0.60442        -6.634726       6.626649      -0.008077
    703    8.38404   11.43687    2.11620        -6.488610       6.481906      -0.006704
    704    9.89582    2.36619    0.60442        -6.892450       6.881368      -0.011082
    705    9.89582    2.36619    2.11620        -6.699713       6.695189      -0.004523
    706    9.89582    2.36619    3.62798        -6.328081       6.328496       0.000416
    707    9.89582    2.36619    5.13976        -5.867179       5.869287       0.002108
    708    9.89582    3.87797   -2.41915        -6.880432       6.858859      -0.021573
    709    9.89582    3.87797   -0.90737        -7.214636       7.192497      -0.022138
    710    9.89582    3.87797    0.60442        -7.301641       7.285162      -0.016479
    711    9.89582    3.87797    2.11620        -7.081425       7.076282      -0.005143
    712    9.89582    3.87797    3.62798        -6.627582       6.630830       0.003248
    713    9.89582    3.87797    5.13976        -6.080552       6.085582       0.005030
    714    9.89582    5.38975   -2.41915        -6.986961       6.961462      -0.025499
    715    9.89582    5.38975   -0.90737        -7.398397       7.367890      -0.030507
    716    9.89582    5.38975    0.60442        -7.544775       7.518696      -0.026079
    717    9.89582    5.38975    2.11620        -7.308727       7.298896      -0.009831
    718    9.89582    5.38975    3.62798        -6.788368       6.791393       0.003025
    719    9.89582    5.38975    5.13976        -6.179202       6.185030       0.005827
    720    9.89582    5.38975    6.65154        -5.597172       5.601586       0.004414
    721    9.89582    6.90153   -2.41915        -6.869679       6.844108      -0.025571
    722    9.89582    6.90153   -0.90737        -7.291287       7.258032      -0.033256
    723    9.89582    6.90153    0.60442        -7.456358       7.424705      -0.031653
    724    9.89582    6.90153    2.11620        -7.232402       7.216379      -0.016022
    725    9.89582    6.90153    3.62798        -6.719653       6.718050      -0.001603
    726    9.89582    6.90153    5.13976        -6.118876       6.122150       0.003274
    727    9.89582    8.41331   -2.41915        -6.546149       6.525840      -0.020310
    728    9.89582    8.41331   -0.90737        -6.899599       6.873529      -0.026070
    729    9.89582    8.41331    0.60442        -7.029998       7.004431      -0.025566
    730    9.89582    8.41331    2.11620        -6.847835       6.831982      -0.015853
    731    9.89582    8.41331    3.62798        -6.422547       6.417214      -0.005333
    732    9.89582    8.41331    5.13976        -5.901969       5.901816      -0.000152
    733    9.89582    9.92509    0.60442        -6.452896       6.437279      -0.015617
    734    9.89582    9.92509    2.11620        -6.315807       6.304662      -0.011145
    735   11.40761    3.87797    2.11620        -6.024807       6.018143      -0.006663
    736   11.40761    3.87797    3.62798        -5.750365       5.748278      -0.002087
    737   11.40761    5.38975    0.60442        -6.260170       6.245313      -0.014857
    738   11.40761    5.38975    2.11620        -6.126481       6.117780      -0.008701
    739   11.40761    5.38975    3.62798        -5.832426       5.829597      -0.002829
    740   11.40761    6.90153    0.60442        -6.191537       6.175232      -0.016305
    741   11.40761    6.90153    2.11620        -6.065049       6.054593      -0.010456
    742   11.40761    6.90153    3.62798        -5.777692       5.773353      -0.004339

 NET CHARGES:
 -------------------------------------
 ATOM                CHARGE    E.S.D.
 -------------------------------------
 O                  -0.9515    0.0268
 H                   0.5345    0.0170
 H                   0.4173    0.0038
 O                  -0.9438    0.0233
 H                   0.4172    0.0041
 H                   0.5276    0.0158
 O                  -1.0228    0.2946
 H                   0.4172    0.0267
 H                   0.5382    0.0507
 O                  -1.0632    0.0393
 H                   0.5577    0.0174
 H                   0.5487    0.0365
 O                  -0.9474    0.0266
 H                   0.5304    0.0502
 H                   0.4162    0.0038
 O                  -0.9550    0.0254
 H                   0.4196    0.0040
 H                   0.5590    0.0189
 -------------------------------------

 RMS DEVIATION IS            0.589 KCAL/MOLE
 RELATIVE RMS DEVIATION IS   5.629 %

 MULTIPOLE MOMENTS:
 ---------------------------------------------------------
 STATUS  ACTUAL VALUE       QUANTITY        FITTED VALUE 
 ---------------------------------------------------------
 FIXED       0.0000       TOTAL CHARGE         0.0000
             2.0574 D    DIPOLE MOMENT         2.0698 D
 FREE       -1.7108 D          DX             -1.7207 D
 FREE        1.1416 D          DY              1.1485 D
 FREE       -0.0535 D          DZ             -0.0662 D
 FREE        0.0000 BU         QXX            -9.1078 BU
 FREE        0.0000 BU         QYY             6.9956 BU
 FREE        0.0000 BU         QZZ             2.1122 BU
 FREE        0.0000 BU         QXY            -2.0013 BU
 FREE        0.0000 BU         QXZ             5.9492 BU
 FREE        0.0000 BU         QYZ            -4.6460 BU
 ---------------------------------------------------------
 ...... END OF PROPERTY EVALUATION ......
 CPU     0: STEP CPU TIME=     0.19 TOTAL CPU TIME=         10.3 (      0.2 MIN)
 TOTAL WALL CLOCK TIME=         14.5 SECONDS, CPU UTILIZATION IS    71.30%
               684604  WORDS OF DYNAMIC MEMORY USED
 EXECUTION OF GAMESS TERMINATED NORMALLY Sun May 24 20:34:39 2020
 DDI: 263640 bytes (0.3 MB / 0 MWords) used by master data server.
Note: The following floating-point exceptions are signalling: IEEE_UNDERFLOW_FLAGNote: The following floating-point exceptions are signalling:Note: The following floating-point exceptions are signalling: IEEE_UNDERFLOW_FLAG IEEE_DENORMAL
Note: The following floating-point exceptions are signalling:
 ----------------------------------------
 CPU timing information for all processes
 ========================================
 0: 10.78 + 0.245 = 10.324
 1: 9.208 + 0.82 = 9.290
 2: 9.03 + 0.56 = 9.60
 3: 9.257 + 0.71 = 9.329
 4: 8.774 + 0.52 = 8.826
 5: 8.802 + 0.32 = 8.834
 ----------------------------------------
 IEEE_UNDERFLOW_FLAG IEEE_DENORMAL
 IEEE_UNDERFLOW_FLAG IEEE_DENORMALNote: The following floating-point exceptions are signalling: IEEE_UNDERFLOW_FLAGNote: The following floating-point exceptions are signalling: IEEE_DENORMAL

 IEEE_DENORMAL
 IEEE_UNDERFLOW_FLAG IEEE_DENORMAL
 ddikick.x: exited gracefully.
unset echo
----- accounting info -----
Files used on the master node pietdev were:
-rwxr-xr-x 1 piet piet     1178 mei 24 20:34 /home/piet/scr/6H2O_charge_chelpg.F05*
-rw-r--r-- 1 piet piet 50790400 mei 24 20:34 /home/piet/scr/6H2O_charge_chelpg.F10
ls: No match.
ls: No match.
ls: No match.
zo 24 mei 2020 20:34:42 CEST
0.123u 0.016s 0:17.61 0.7%	0+0k 0+8io 0pf+0w
