----- GAMESS execution script 'rungms' -----
This job is running on host pietdev
under operating system Linux at zo 24 mei 2020 20:34:55 CEST
Available scratch disk space (Kbyte units) at beginning of the job is
Filesystem     1K-blocks     Used Available Use% Mounted on
/dev/sda2      244568380 31203488 200871836  14% /
GAMESS temporary binary files will be written to /home/piet/scr
GAMESS supplementary output files will be written to /home/piet/gamess/scr
Copying input file 6H2O_fukui_acid.inp to your run's scratch directory...
cp 6H2O_fukui_acid.inp /home/piet/scr/6H2O_fukui_acid.F05
unset echo
 
Assuming a single but multicore node.
 
/home/piet/gamess/ddikick.x /home/piet/gamess/gamess.03.x 6H2O_fukui_acid -ddi 1 6 pietdev:cpus=6 -scr /home/piet/scr

 Distributed Data Interface kickoff program.
 Initiating 6 compute processes on 1 nodes to run the following command:
 /home/piet/gamess/gamess.03.x 6H2O_fukui_acid 

          ******************************************************
          *         GAMESS VERSION = 30 SEP 2019 (R2)          *
          *             FROM IOWA STATE UNIVERSITY             *
          * M.W.SCHMIDT, K.K.BALDRIDGE, J.A.BOATZ, S.T.ELBERT, *
          *   M.S.GORDON, J.H.JENSEN, S.KOSEKI, N.MATSUNAGA,   *
          *          K.A.NGUYEN, S.J.SU, T.L.WINDUS,           *
          *       TOGETHER WITH M.DUPUIS, J.A.MONTGOMERY       *
          *         J.COMPUT.CHEM.  14, 1347-1363(1993)        *
          **************** 64 BIT LINUX VERSION ****************

  SINCE 1993, STUDENTS AND POSTDOCS WORKING AT IOWA STATE UNIVERSITY
  AND ALSO IN THEIR VARIOUS JOBS AFTER LEAVING ISU HAVE MADE IMPORTANT
  CONTRIBUTIONS TO THE CODE:
     IVANA ADAMOVIC, CHRISTINE AIKENS, YURI ALEXEEV, POOJA ARORA,
     ANDREY ASADCHEV, ROB BELL, PRADIPTA BANDYOPADHYAY, JONATHAN BENTZ,
     COLLEEN BERTONI, BRETT BODE, KURT BRORSEN, CALEB CARLIN, GALINA CHABAN,
     WEI CHEN, CHEOL HO CHOI, PAUL DAY, ALBERT DEFUSCO, NUWAN DESILVA,
     TIM DUDLEY, DMITRI FEDOROV, ALEX FINDLATER, GRAHAM FLETCHER, 
     MARK FREITAG, KURT GLAESEMANN, EMILIE B GUIDEZ, ANASTASIA GUNINA, 
     DAN KEMP, SAROM SOK LEANG, GRANT MERRILL,
     NORIYUKI MINEZAWA, JONATHAN MULLIN,
     TAKESHI NAGATA, SEAN NEDD, HEATHER NETZLOFF, BOSILJKA NJEGIC, RYAN OLSON,
     MIKE PAK, BUU PHAM, DAVID POOLE,
     SPENCER PRUITT, LUKE ROSKOP, TOSAPORN SATTASATHUCHANA,
     JIM SHOEMAKER, LYUDMILA SLIPCHENKO,
     TONY SMITH, JIE SONG, TETSUYA TAKETSUGU, SIMON WEBB,
     JORGE LUIS GALVEZ VALLEJO, PENG XU, SOOHAENG YOO,
     FEDERICO ZAHARIEV

  ADDITIONAL CODE HAS BEEN PROVIDED BY COLLABORATORS IN OTHER GROUPS:
     IOWA STATE UNIVERSITY:
          JOE IVANIC, AARON WEST, LAIMUTIS BYTAUTAS, KLAUS RUEDENBERG
     UNIVERSITY OF TOKYO: KIMIHIKO HIRAO, TAKAHITO NAKAJIMA,
          TAKAO TSUNEDA, MUNEAKI KAMIYA, SUSUMU YANAGISAWA,
          KIYOSHI YAGI, MAHITO CHIBA, SEIKEN TOKURA, NAOAKI KAWAKAMI
     UNIVERSITY OF AARHUS: FRANK JENSEN
     UNIVERSITY OF IOWA: VISVALDAS KAIRYS, HUI LI
     NATIONAL INST. OF STANDARDS AND TECHNOLOGY: WALT STEVENS, DAVID GARMER
     UNIVERSITY OF PISA: BENEDETTA MENNUCCI, JACOPO TOMASI
     UNIVERSITY OF MEMPHIS: HENRY KURTZ, PRAKASHAN KORAMBATH
     UNIVERSITY OF ALBERTA: TOBY ZENG, MARIUSZ KLOBUKOWSKI
     UNIVERSITY OF NEW ENGLAND: MARK SPACKMAN
     MIE UNIVERSITY: HIROAKI UMEDA
     NAT. INST. OF ADVANCED INDUSTRIAL SCIENCE AND TECHNOLOGY: KAZUO KITAURA
     MICHIGAN STATE UNIVERSITY:
          KAROL KOWALSKI, MARTA WLOCH, JEFFREY GOUR, JESSE LUTZ,
          WEI LI, JUN SHEN, J. EMILIANO DEUSTUA, PIOTR PIECUCH
     UNIVERSITY OF MINNESOTA:
          ANDREW SAND, PRACHI SHARMA, YINAN SHU
     UNIVERSITY OF SILESIA: MONIKA MUSIAL, STANISLAW KUCHARSKI
     FACULTES UNIVERSITAIRES NOTRE-DAME DE LA PAIX:
          OLIVIER QUINET, BENOIT CHAMPAGNE
     UNIVERSITY OF CALIFORNIA - SANTA BARBARA: BERNARD KIRTMAN
     INSTITUTE FOR MOLECULAR SCIENCE:
          KAZUYA ISHIMURA, MICHIO KATOUDA, AND SHIGERU NAGASE
     UNIVERSITY OF NOTRE DAME: ANNA POMOGAEVA, DAN CHIPMAN
     KYUSHU UNIVERSITY:
          HARUYUKI NAKANO,
          FENG LONG GU, JACEK KORCHOWIEC, MARCIN MAKOWSKI, AND YURIKO AOKI,
          HIROTOSHI MORI AND EISAKU MIYOSHI
     PENNSYLVANIA STATE UNIVERSITY:
          TZVETELIN IORDANOV, CHET SWALINA, JONATHAN SKONE,
          SHARON HAMMES-SCHIFFER
     WASEDA UNIVERSITY:
          MASATO KOBAYASHI, TOMOKO AKAMA, TSUGUKI TOUMA,
          TAKESHI YOSHIKAWA, YASUHIRO IKABATA, JUNJI SEINO,
          YUYA NAKAJIMA, HIROMI NAKAI
     NANJING UNIVERSITY: SHUHUA LI
     UNIVERSITY OF NEBRASKA:
          PEIFENG SU, DEJUN SI, NANDUN THELLAMUREGE, YALI WANG, HUI LI
     UNIVERSITY OF ZURICH: ROBERTO PEVERATI, KIM BALDRIDGE
     N. COPERNICUS UNIVERSITY AND JACKSON STATE UNIVERSITY:
          MARIA BARYSZ
     UNIVERSITY OF COPENHAGEN: Jimmy Kromann, CASPER STEINMANN
     TOKYO INSTITUTE OF TECHNOLOGY: HIROYA NAKATA
     NAGOYA UNIVERSITY: YOSHIO NISHIMOTO, STEPHAN IRLE
     MOSCOW STATE UNIVERSITY: VLADIMIR MIRONOV
     A.N.NESMEYANOV INSTITUTE OF ORGANOELEMENT COMPOUNDS OF RUSSIAN ACADEMY OF SCIENCES:
          IGOR S. GERASIMOV
     JOHANNES KEPLER UNIVERSITY LINZ:
          CHRISTIAN FRIEDL


 PARALLEL VERSION RUNNING ON        6 PROCESSORS IN        1 NODES.

 EXECUTION OF GAMESS BEGUN Sun May 24 20:34:56 2020

            ECHO OF THE FIRST FEW INPUT CARDS -
 INPUT CARD> $BASIS GBASIS=N21 NGAUSS=3 $END                                                
 INPUT CARD> $CONTRL SCFTYP=UHF MAXIT=60 MULT=2 ICHARG=-1 $END                              
 INPUT CARD> $SYSTEM MEMDDI=1000 MWORDS=30 $END                                             
 INPUT CARD> $SCF DIRSCF=.TRUE. $END                                                        
 INPUT CARD> $STATPT OPTTOL=0.0001 NSTEP=999 $END                                           
 INPUT CARD> $DATA                                                                          
 INPUT CARD>                                                                                
 INPUT CARD>C1                                                                              
 INPUT CARD>O 8.0000000 -1.4014998184 1.5271992249 0.5734888185                             
 INPUT CARD>H 1.0000000 -0.3309512099 0.6181170272 0.6123319204                             
 INPUT CARD>H 1.0000000 -1.5890876004 1.8959916441 1.4743897371                             
 INPUT CARD>O 8.0000000 3.0651474694 3.3356165084 0.4387384907                              
 INPUT CARD>H 1.0000000 3.2623777080 2.9795960794 1.3427053165                              
 INPUT CARD>H 1.0000000 2.2803922810 4.0823603733 0.5286950760                              
 INPUT CARD>O 8.0000000 -0.2723705908 3.2451400314 -0.8202594032                            
 INPUT CARD>H 1.0000000 -0.7437636054 3.5557772316 -1.6347037448                            
 INPUT CARD>H 1.0000000 -1.0168775024 2.3369218303 -0.0533602402                            
 INPUT CARD>O 8.0000000 1.7224562235 1.7565830959 -0.9208043737                             
 INPUT CARD>H 1.0000000 2.4462647335 2.3659471864 -0.3711101115                             
 INPUT CARD>H 1.0000000 0.8646940112 2.3958360109 -1.0623385337                             
 INPUT CARD>O 8.0000000 1.0984729266 4.8685915908 0.4753037733                              
 INPUT CARD>H 1.0000000 0.4009966355 4.2394140035 -0.0806653281                             
 INPUT CARD>H 1.0000000 1.2679241306 5.6909696570 -0.0520375464                             
 INPUT CARD>O 8.0000000 0.6035589468 0.0612393292 0.4974814793                              
 INPUT CARD>H 1.0000000 0.4026775613 -0.7867025504 0.0251759649                             
 INPUT CARD>H 1.0000000 1.3527578001 0.9246614262 -0.3108110950                             
 INPUT CARD> $END                                                                           
   30000000 WORDS OF MEMORY AVAILABLE

     BASIS OPTIONS
     -------------
     GBASIS=N21          IGAUSS=       3      POLAR=NONE    
     NDFUNC=       0     NFFUNC=       0     DIFFSP=       F
     NPFUNC=       0      DIFFS=       F     BASNAM=        


     RUN TITLE
     ---------
                                                                                 

 THE POINT GROUP OF THE MOLECULE IS C1      
 THE ORDER OF THE PRINCIPAL AXIS IS     0

 ATOM      ATOMIC                      COORDINATES (BOHR)
           CHARGE         X                   Y                   Z
 O           8.0    -2.6484506286        2.8859880637        1.0837367240
 H           1.0    -0.6254071020        1.1680718098        1.1571395431
 H           1.0    -3.0029401352        3.5829046824        2.7861926022
 O           8.0     5.7922888291        6.3034012010        0.8290955277
 H           1.0     6.1649999366        5.6306201442        2.5373451304
 H           1.0     4.3093165556        7.7145424887        0.9990888247
 O           8.0    -0.5147057837        6.1324254511       -1.5500655109
 H           1.0    -1.4055094138        6.7194446411       -3.0891421488
 H           1.0    -1.9216198426        4.4161419140       -0.1008362326
 O           8.0     3.2549702883        3.3194607259       -1.7400679546
 H           1.0     4.6227700397        4.4709918837       -0.7012964220
 H           1.0     1.6340347444        4.5274735721       -2.0075287349
 O           8.0     2.0758128362        9.2003040527        0.8981938925
 H           1.0     0.7577737631        8.0113308151       -0.1524353668
 H           1.0     2.3960291801       10.7543732562       -0.0983367038
 O           8.0     1.1405610269        0.1157255519        0.9401036798
 H           1.0     0.7609502523       -1.4866522541        0.0475756751
 H           1.0     2.5563415699        1.7473567269       -0.5873478035

          INTERNUCLEAR DISTANCES (ANGS.)
          ------------------------------

                1 O          2 H          3 H          4 O          5 H     

   1 O       0.0000000    1.4049959 *  0.9913725 *  4.8207332    4.9449878  
   2 H       1.4049959 *  0.0000000    1.9897272 *  4.3529788    4.3614265  
   3 H       0.9913725 *  1.9897272 *  0.0000000    4.9806623    4.9727513  
   4 O       4.8207332    4.3529788    4.9806623    0.0000000    0.9913659 *
   5 H       4.9449878    4.3614265    4.9727513    0.9913659 *  0.0000000  
   6 H       4.4818729    4.3390197    4.5439433    1.0869955 *  1.6861190 *
   7 O       2.4837044 *  2.9928247 *  2.9697407 *  3.5682332    4.1525144  
   8 H       3.0698306    3.7214823    3.6243514    4.3422848    5.0245515  
   9 H       1.0938577 *  1.9667056 *  1.6899301 *  4.2311322    4.5468730  
  10 O       3.4705375    2.8041209 *  4.0893413    2.4788149 *  2.9984321 *
  11 H       4.0498219    3.4256382    4.4621515    1.4068153 *  1.9949358 *
  12 H       2.9267893 *  2.7192597 *  3.5645307    2.8246088 *  3.4458524  
  13 O       4.1742553    4.4864868    4.1300732    2.4938240 *  3.0005289  
  14 H       3.3215990    3.7589606    3.4453243    2.8608268 *  3.4352040  
  15 H       4.9853878    5.3601887    4.9894243    3.0030920    3.6434461  
  16 O       2.4849701 *  1.0938979 *  3.0213184    4.0968787    4.0373911  
  17 H       2.9849363 *  1.6901128 *  3.6420046    4.9247634    4.9090502  
  18 H       2.9548220 *  1.9444893 *  3.5755949    3.0507060    3.2563048  

                6 H          7 O          8 H          9 H         10 O     

   1 O       4.4818729    2.4837044 *  3.0698306    1.0938577 *  3.4705375  
   2 H       4.3390197    2.9928247 *  3.7214823    1.9667056 *  2.8041209 *
   3 H       4.5439433    2.9697407 *  3.6243514    1.6899301 *  4.0893413  
   4 O       1.0869955 *  3.5682332    4.3422848    4.2311322    2.4788149 *
   5 H       1.6861190 *  4.1525144    5.0245515    4.5468730    2.9984321 *
   6 H       0.0000000    3.0061960    3.7554098    3.7758883    2.7967090 *
   7 O       3.0061960    0.0000000    0.9909725 *  1.4025994 *  2.4910329 *
   8 H       3.7554098    0.9909725 *  0.0000000    2.0151543 *  3.1351223  
   9 H       3.7758883    1.4025994 *  2.0151543 *  0.0000000    2.9314163 *
  10 O       2.7967090 *  2.4910329 *  3.1351223    2.9314163 *  0.0000000  
  11 H       1.9450546 *  2.8923508 *  3.6316174    3.4778099    1.0942519 *
  12 H       2.7166071 *  1.4397345 *  2.0640256 *  2.1358416 *  1.0790886 *
  13 O       1.4205434 *  2.4886323 *  3.0934526    3.3411891    3.4674299  
  14 H       1.9819470 *  1.4103204 *  2.0476500 *  2.3728862 *  2.9353941 *
  15 H       1.9874521 *  2.9907784 *  3.3332816    4.0583195    4.0547198  
  16 O       4.3568519    3.5554068    4.3096737    2.8474500 *  2.4774294 *
  17 H       5.2428158    4.1744707    4.7881791    3.4319577    3.0174487  
  18 H       3.3965187    2.8784025 *  3.6153650    2.7705472 *  1.0958387 *

               11 H         12 H         13 O         14 H         15 H     

   1 O       4.0498219    2.9267893 *  4.1742553    3.3215990    4.9853878  
   2 H       3.4256382    2.7192597 *  4.4864868    3.7589606    5.3601887  
   3 H       4.4621515    3.5645307    4.1300732    3.4453243    4.9894243  
   4 O       1.4068153 *  2.8246088 *  2.4938240 *  2.8608268 *  3.0030920  
   5 H       1.9949358 *  3.4458524    3.0005289    3.4352040    3.6434461  
   6 H       1.9450546 *  2.7166071 *  1.4205434 *  1.9819470 *  1.9874521 *
   7 O       2.8923508 *  1.4397345 *  2.4886323 *  1.4103204 *  2.9907784 *
   8 H       3.6316174    2.0640256 *  3.0934526    2.0476500 *  3.3332816  
   9 H       3.4778099    2.1358416 *  3.3411891    2.3728862 *  4.0583195  
  10 O       1.0942519 *  1.0790886 *  3.4674299    2.9353941 *  4.0547198  
  11 H       0.0000000    1.7262839 *  2.9658369 *  2.7887914 *  3.5420430  
  12 H       1.7262839 *  0.0000000    2.9212183 *  2.1395040 *  3.4700444  
  13 O       2.9658369 *  2.9212183 *  0.0000000    1.0915307 *  0.9915182 *
  14 H       2.7887914 *  2.1395040 *  1.0915307 *  0.0000000    1.6909751 *
  15 H       3.5420430    3.4700444    0.9915182 *  1.6909751 *  0.0000000  
  16 O       3.0759867    2.8198531 *  4.8328115    4.2228461    5.6953679  
  17 H       3.7778951    3.3948047    5.7156888    5.0272311    6.5356599  
  18 H       1.8101652 *  1.7226011 *  4.0295437    3.4563566    4.7740816  

               16 O         17 H         18 H     

   1 O       2.4849701 *  2.9849363 *  2.9548220 *
   2 H       1.0938979 *  1.6901128 *  1.9444893 *
   3 H       3.0213184    3.6420046    3.5755949  
   4 O       4.0968787    4.9247634    3.0507060  
   5 H       4.0373911    4.9090502    3.2563048  
   6 H       4.3568519    5.2428158    3.3965187  
   7 O       3.5554068    4.1744707    2.8784025 *
   8 H       4.3096737    4.7881791    3.6153650  
   9 H       2.8474500 *  3.4319577    2.7705472 *
  10 O       2.4774294 *  3.0174487    1.0958387 *
  11 H       3.0759867    3.7778951    1.8101652 *
  12 H       2.8198531 *  3.3948047    1.7226011 *
  13 O       4.8328115    5.7156888    4.0295437  
  14 H       4.2228461    5.0272311    3.4563566  
  15 H       5.6953679    6.5356599    4.7740816  
  16 O       0.0000000    0.9911767 *  1.4000477 *
  17 H       0.9911767 *  0.0000000    1.9860278 *
  18 H       1.4000477 *  1.9860278 *  0.0000000  

  * ... LESS THAN  3.000


     ATOMIC BASIS SET
     ----------------
 THE CONTRACTED PRIMITIVE FUNCTIONS HAVE BEEN UNNORMALIZED
 THE CONTRACTED BASIS FUNCTIONS ARE NOW NORMALIZED TO UNITY

  SHELL TYPE  PRIMITIVE        EXPONENT          CONTRACTION COEFFICIENT(S)

 O         

      1   S       1           322.0370000    0.059239393389
      1   S       2            48.4308000    0.351499960776
      1   S       3            10.4206000    0.707657921031

      2   L       4             7.4029400   -0.404453583190    0.244586106967
      2   L       5             1.5762000    1.221561761397    0.853955373466

      3   L       6             0.3736840    1.000000000000    1.000000000000

 H         

      4   S       7             5.4471780    0.156284978695
      4   S       8             0.8245472    0.904690876670

      5   S       9             0.1831916    1.000000000000

 H         

      6   S      10             5.4471780    0.156284978695
      6   S      11             0.8245472    0.904690876670

      7   S      12             0.1831916    1.000000000000

 O         

      8   S      13           322.0370000    0.059239393389
      8   S      14            48.4308000    0.351499960776
      8   S      15            10.4206000    0.707657921031

      9   L      16             7.4029400   -0.404453583190    0.244586106967
      9   L      17             1.5762000    1.221561761397    0.853955373466

     10   L      18             0.3736840    1.000000000000    1.000000000000

 H         

     11   S      19             5.4471780    0.156284978695
     11   S      20             0.8245472    0.904690876670

     12   S      21             0.1831916    1.000000000000

 H         

     13   S      22             5.4471780    0.156284978695
     13   S      23             0.8245472    0.904690876670

     14   S      24             0.1831916    1.000000000000

 O         

     15   S      25           322.0370000    0.059239393389
     15   S      26            48.4308000    0.351499960776
     15   S      27            10.4206000    0.707657921031

     16   L      28             7.4029400   -0.404453583190    0.244586106967
     16   L      29             1.5762000    1.221561761397    0.853955373466

     17   L      30             0.3736840    1.000000000000    1.000000000000

 H         

     18   S      31             5.4471780    0.156284978695
     18   S      32             0.8245472    0.904690876670

     19   S      33             0.1831916    1.000000000000

 H         

     20   S      34             5.4471780    0.156284978695
     20   S      35             0.8245472    0.904690876670

     21   S      36             0.1831916    1.000000000000

 O         

     22   S      37           322.0370000    0.059239393389
     22   S      38            48.4308000    0.351499960776
     22   S      39            10.4206000    0.707657921031

     23   L      40             7.4029400   -0.404453583190    0.244586106967
     23   L      41             1.5762000    1.221561761397    0.853955373466

     24   L      42             0.3736840    1.000000000000    1.000000000000

 H         

     25   S      43             5.4471780    0.156284978695
     25   S      44             0.8245472    0.904690876670

     26   S      45             0.1831916    1.000000000000

 H         

     27   S      46             5.4471780    0.156284978695
     27   S      47             0.8245472    0.904690876670

     28   S      48             0.1831916    1.000000000000

 O         

     29   S      49           322.0370000    0.059239393389
     29   S      50            48.4308000    0.351499960776
     29   S      51            10.4206000    0.707657921031

     30   L      52             7.4029400   -0.404453583190    0.244586106967
     30   L      53             1.5762000    1.221561761397    0.853955373466

     31   L      54             0.3736840    1.000000000000    1.000000000000

 H         

     32   S      55             5.4471780    0.156284978695
     32   S      56             0.8245472    0.904690876670

     33   S      57             0.1831916    1.000000000000

 H         

     34   S      58             5.4471780    0.156284978695
     34   S      59             0.8245472    0.904690876670

     35   S      60             0.1831916    1.000000000000

 O         

     36   S      61           322.0370000    0.059239393389
     36   S      62            48.4308000    0.351499960776
     36   S      63            10.4206000    0.707657921031

     37   L      64             7.4029400   -0.404453583190    0.244586106967
     37   L      65             1.5762000    1.221561761397    0.853955373466

     38   L      66             0.3736840    1.000000000000    1.000000000000

 H         

     39   S      67             5.4471780    0.156284978695
     39   S      68             0.8245472    0.904690876670

     40   S      69             0.1831916    1.000000000000

 H         

     41   S      70             5.4471780    0.156284978695
     41   S      71             0.8245472    0.904690876670

     42   S      72             0.1831916    1.000000000000

 TOTAL NUMBER OF BASIS SET SHELLS             =   42
 NUMBER OF CARTESIAN GAUSSIAN BASIS FUNCTIONS =   78
 NUMBER OF ELECTRONS                          =   61
 CHARGE OF MOLECULE                           =   -1
 SPIN MULTIPLICITY                            =    2
 NUMBER OF OCCUPIED ORBITALS (ALPHA)          =   31
 NUMBER OF OCCUPIED ORBITALS (BETA )          =   30
 TOTAL NUMBER OF ATOMS                        =   18
 THE NUCLEAR REPULSION ENERGY IS      310.9754256313

     $CONTRL OPTIONS
     ---------------
 SCFTYP=UHF          RUNTYP=ENERGY       EXETYP=RUN     
 MPLEVL=       0     CITYP =NONE         CCTYP =NONE         VBTYP =NONE    
 DFTTYP=NONE         TDDFT =NONE    
 MULT  =       2     ICHARG=      -1     NZVAR =       0     COORD =UNIQUE  
 PP    =NONE         RELWFN=NONE         LOCAL =NONE         NUMGRD=       F
 ISPHER=      -1     NOSYM =       0     MAXIT =      60     UNITS =ANGS    
 PLTORB=       F     MOLPLT=       F     AIMPAC=       F     FRIEND=        
 NPRINT=       7     IREST =       0     GEOM  =INPUT   
 NORMF =       0     NORMP =       0     ITOL  =      20     ICUT  =       9
 INTTYP=BEST         GRDTYP=BEST         QMTTOL= 1.0E-06

     $SYSTEM OPTIONS
     ---------------
  REPLICATED MEMORY=    30000000 WORDS (ON EVERY NODE).
 DISTRIBUTED MEMDDI=        1000 MILLION WORDS IN AGGREGATE,
 MEMDDI DISTRIBUTED OVER   6 PROCESSORS IS   166666666 WORDS/PROCESSOR.
 TOTAL MEMORY REQUESTED ON EACH PROCESSOR=   196666666 WORDS.
 TIMLIM=      525600.00 MINUTES, OR     365.0 DAYS.
 PARALL= T  BALTYP=  DLB     KDIAG=    0  COREFL= F
 MXSEQ2=     300 MXSEQ3=     150  mem10=         0

          ----------------
          PROPERTIES INPUT
          ----------------

     MOMENTS            FIELD           POTENTIAL          DENSITY
 IEMOM =       1   IEFLD =       0   IEPOT =       0   IEDEN =       0
 WHERE =COMASS     WHERE =NUCLEI     WHERE =NUCLEI     WHERE =NUCLEI  
 OUTPUT=BOTH       OUTPUT=BOTH       OUTPUT=BOTH       OUTPUT=BOTH    
 IEMINT=       0   IEFINT=       0                     IEDINT=       0
                                                       MORB  =       0
          EXTRAPOLATION IN EFFECT
          SOSCF IN EFFECT
          DIIS or SOSCF will be reset if energy rises
 ORBITAL PRINTING OPTION: NPREO=     1    78     2     1

     -------------------------------
     INTEGRAL TRANSFORMATION OPTIONS
     -------------------------------
     NWORD  =            0
     CUTOFF = 1.0E-09     MPTRAN =       0
     DIRTRF =       T     AOINTS =DUP     

          ----------------------
          INTEGRAL INPUT OPTIONS
          ----------------------
 NOPK  =       1 NORDER=       0 SCHWRZ=       T

     ------------------------------------------
     THE POINT GROUP IS C1 , NAXIS= 0, ORDER= 1
     ------------------------------------------

     DIMENSIONS OF THE SYMMETRY SUBSPACES ARE
 A   =   78

 ..... DONE SETTING UP THE RUN .....
 CPU     0: STEP CPU TIME=     0.02 TOTAL CPU TIME=          0.0 (      0.0 MIN)
 TOTAL WALL CLOCK TIME=          0.0 SECONDS, CPU UTILIZATION IS    50.00%

          ********************
          1 ELECTRON INTEGRALS
          ********************
 ...... END OF ONE-ELECTRON INTEGRALS ......
 CPU     0: STEP CPU TIME=     0.02 TOTAL CPU TIME=          0.0 (      0.0 MIN)
 TOTAL WALL CLOCK TIME=          0.1 SECONDS, CPU UTILIZATION IS    80.00%

          -------------
          GUESS OPTIONS
          -------------
          GUESS =HUCKEL            NORB  =       0          NORDER=       0
          MIX   =       F          PRTMO =       F          PUNMO =       F
          TOLZ  = 1.0E-08          TOLE  = 1.0E-05
          SYMDEN=       F          PURIFY=       F

 INITIAL GUESS ORBITALS GENERATED BY HUCKEL   ROUTINE.
 HUCKEL GUESS REQUIRES     64146 WORDS.

 SYMMETRIES FOR INITIAL GUESS ORBITALS FOLLOW.  ALPHA SET(S).
    31 ORBITALS ARE OCCUPIED (    6 CORE ORBITALS).
     7=A        8=A        9=A       10=A       11=A       12=A       13=A   
    14=A       15=A       16=A       17=A       18=A       19=A       20=A   
    21=A       22=A       23=A       24=A       25=A       26=A       27=A   
    28=A       29=A       30=A       31=A       32=A       33=A       34=A   
    35=A       36=A       37=A       38=A       39=A       40=A       41=A   

 SYMMETRIES FOR INITIAL GUESS ORBITALS FOLLOW.   BETA SET(S).
    30 ORBITALS ARE OCCUPIED (    6 CORE ORBITALS).
     7=A        8=A        9=A       10=A       11=A       12=A       13=A   
    14=A       15=A       16=A       17=A       18=A       19=A       20=A   
    21=A       22=A       23=A       24=A       25=A       26=A       27=A   
    28=A       29=A       30=A       31=A       32=A       33=A       34=A   
    35=A       36=A       37=A       38=A       39=A       40=A   
 ...... END OF INITIAL ORBITAL SELECTION ......
 CPU     0: STEP CPU TIME=     0.03 TOTAL CPU TIME=          0.1 (      0.0 MIN)
 TOTAL WALL CLOCK TIME=          0.1 SECONDS, CPU UTILIZATION IS    87.50%

                    ----------------------
                    AO INTEGRAL TECHNOLOGY
                    ----------------------
     S,P,L SHELL ROTATED AXIS INTEGRALS, REPROGRAMMED BY
        KAZUYA ISHIMURA (IMS) AND JOSE SIERRA (SYNSTAR).
     S,P,D,L SHELL ROTATED AXIS INTEGRALS PROGRAMMED BY
        KAZUYA ISHIMURA (INSTITUTE FOR MOLECULAR SCIENCE).
     S,P,D,F,G SHELL TO TOTAL QUARTET ANGULAR MOMENTUM SUM 5,
        ERIC PROGRAM BY GRAHAM FLETCHER (ELORET AND NASA ADVANCED
        SUPERCOMPUTING DIVISION, AMES RESEARCH CENTER).
     S,P,D,F,G,L SHELL GENERAL RYS QUADRATURE PROGRAMMED BY
        MICHEL DUPUIS (PACIFIC NORTHWEST NATIONAL LABORATORY).

          --------------------
          2 ELECTRON INTEGRALS
          --------------------

 DIRECT SCF METHOD SKIPS INTEGRAL STORAGE ON DISK.
 DIRECT TRANSFORMATION SKIPS AO INTEGRAL STORAGE ON DISK.
  ...... END OF TWO-ELECTRON INTEGRALS .....
 CPU     0: STEP CPU TIME=     0.01 TOTAL CPU TIME=          0.1 (      0.0 MIN)
 TOTAL WALL CLOCK TIME=          0.1 SECONDS, CPU UTILIZATION IS    88.89%

          ---------------------------
                  UHF SCF CALCULATION
          ---------------------------

     NUCLEAR ENERGY =       310.9754256313
     MAXIT = 60     NPUNCH=  2     MULT=  2
     EXTRAP=T  DAMP=F  SHIFT=F  RSTRCT=F  DIIS=F  SOSCF=T
     DENSITY MATRIX CONV=  2.00E-05
     SOSCF WILL OPTIMIZE    1457 ALPHA AND    1440 BETA ROTATION ANGLES.
     SOGTOL= 2.500E-01
     MEMORY REQUIRED FOR UHF/ROHF ITERS=    128529 WORDS.

 DIRECT SCF CALCULATION, SCHWRZ=T   FDIFF=T
 SCHWARZ INEQUALITY OVERHEAD:      2881 INTEGRALS, T=        0.00

                                                                                NONZERO     BLOCKS
 ITER EX      TOTAL ENERGY        E CHANGE  DENSITY CHANGE    ORB. GRAD       INTEGRALS    SKIPPED
   1  0     -451.6479179461  -451.6479179461   1.475060954   0.000000000        2505527     175316
          ---------------START SECOND ORDER SCF---------------
   2  1     -453.2765573770    -1.6286394310   0.812971979   0.079179880        2503704     174783
   3  2     -453.3787380915    -0.1021807145   0.416917430   0.035301883        2472820     183255
   4  3     -453.4063899097    -0.0276518182   0.332904496   0.015959097        2463523     184277
   5  4     -453.4106713002    -0.0042813905   0.038703243   0.012333409        2454594     186054
   6  5     -453.4141565450    -0.0034852448   0.133363883   0.005068735        2382927     196765
   7  6     -453.4159527790    -0.0017962340   0.441307964   0.003258507        2395345     196200
   8  7     -453.4095329713     0.0064198076   0.372148135   0.017795636        2477471     182287
   9  8     -453.4181199458    -0.0085869745   0.124078070   0.004858087        2468077     184118
  10  9     -453.4199878065    -0.0018678606   0.176747427   0.003947446        2419586     192466
  11 10     -453.4211333037    -0.0011454973   0.030250781   0.005673694        2438196     189599
  12 11     -453.4219990993    -0.0008657955   0.130241309   0.002849390        2323009     205069
  13 12     -453.4226918079    -0.0006927086   0.015969300   0.001050884        2393354     196287
  14 13     -453.4227534609    -0.0000616530   0.019829955   0.000876340        2253512     212244
  15 14     -453.4227927258    -0.0000392649   0.039706146   0.000490487        2212851     215473
  16 15     -453.4228262054    -0.0000334796   0.017462737   0.000619088        2288897     208782
  17 16     -453.4228393671    -0.0000131617   0.014461957   0.000360842        2178913     218509
  18 17     -453.4228491627    -0.0000097956   0.002476152   0.000196965        2162629     219922
  19 18     -453.4228517441    -0.0000025814   0.000560788   0.000095476        2002281     232456
  20 19     -453.4228521826    -0.0000004384   0.000306034   0.000056762        1840278     248336
  21 20     -453.4228522743    -0.0000000918   0.000246328   0.000022244        1759126     255516
  22 21     -453.4228522910    -0.0000000167   0.000053872   0.000008390        1705534     261579
  23 22     -453.4228522952    -0.0000000042   0.000028554   0.000005237        1558157     273210
  24 23     -453.4228522961    -0.0000000009   0.000017390   0.000002247        1380080     287331
  25 24     -453.4228522956     0.0000000005   0.000003452   0.000000865        1319769     292171

          -----------------
          DENSITY CONVERGED
          -----------------
     TIME TO FORM FOCK OPERATORS=       1.4 SECONDS (       0.1 SEC/ITER)
     FOCK TIME ON FIRST ITERATION=       0.0, LAST ITERATION=       0.0
     TIME TO SOLVE SCF EQUATIONS=       0.1 SECONDS (       0.0 SEC/ITER)

 FINAL UHF ENERGY IS     -453.4228522956 AFTER  25 ITERATIONS

          --------------------
          SPIN SZ   =    0.500
          S-SQUARED =    0.756
          --------------------

  ----- ALPHA SET ----- 

          ------------
          EIGENVECTORS
          ------------

                      1          2          3          4          5
                  -20.2846   -20.2774   -20.2607   -20.2446   -20.2316
                     A          A          A          A          A   
    1  O  1  S    0.008061   0.000600  -0.003772   0.983357   0.003444
    2  O  1  S    0.002178   0.000148  -0.000657   0.097550   0.000154
    3  O  1  X    0.000590  -0.000009   0.000021   0.001349   0.000007
    4  O  1  Y   -0.000717   0.000003   0.000032   0.001683  -0.000062
    5  O  1  Z    0.000077  -0.000009   0.000000   0.000970   0.000062
    6  O  1  S   -0.003677  -0.000344   0.001190  -0.041876   0.000485
    7  O  1  X   -0.002707  -0.000036   0.000181  -0.003909   0.000026
    8  O  1  Y    0.003136  -0.000024  -0.000138  -0.003881   0.000327
    9  O  1  Z   -0.000313   0.000067  -0.000100  -0.000702  -0.000277
   10  H  2  S    0.002393  -0.000069   0.000448   0.001209  -0.000044
   11  H  2  S    0.010807   0.000368  -0.001969   0.008304   0.000308
   12  H  3  S    0.000478   0.000042  -0.000188   0.003025   0.000030
   13  H  3  S   -0.001137  -0.000106   0.000418   0.004407   0.000028
   14  O  4  S   -0.005844   0.983247  -0.015481  -0.000565  -0.006741
   15  O  4  S   -0.000762   0.097584  -0.000384   0.000033   0.000777
   16  O  4  X    0.000017  -0.001770  -0.000153   0.000011  -0.000389
   17  O  4  Y    0.000076  -0.000126  -0.000560  -0.000013   0.000603
   18  O  4  Z    0.000067   0.001750  -0.000550  -0.000024   0.000044
   19  O  4  S    0.000788  -0.042012  -0.002081  -0.000281  -0.004035
   20  O  4  X   -0.000118   0.004994   0.000898   0.000030   0.002298
   21  O  4  Y   -0.000397  -0.000172   0.002499   0.000083  -0.003018
   22  O  4  Z   -0.000336  -0.002576   0.002253   0.000122  -0.000308
   23  H  5  S    0.000029   0.003009   0.000314   0.000028   0.000477
   24  H  5  S   -0.000078   0.004429  -0.001149  -0.000100  -0.001457
   25  H  6  S   -0.000111   0.002380   0.000413  -0.000048   0.001141
   26  H  6  S    0.000357   0.010776  -0.001872   0.000196   0.008240
   27  O  7  S   -0.000557  -0.000587   0.002642   0.003604   0.004264
   28  O  7  S   -0.000360  -0.000360   0.001363   0.001635   0.001700
   29  O  7  X    0.000020  -0.000046   0.000611  -0.000595   0.000363
   30  O  7  Y    0.000051  -0.000035  -0.000452  -0.000569   0.000716
   31  O  7  Z    0.000013   0.000015  -0.000255   0.000470   0.000497
   32  O  7  S    0.001016   0.000998  -0.002801  -0.003414  -0.003427
   33  O  7  X   -0.000044   0.000448  -0.002709   0.002612  -0.001723
   34  O  7  Y   -0.000486   0.000177   0.002005   0.002614  -0.003180
   35  O  7  Z    0.000026   0.000013   0.000994  -0.002110  -0.002155
   36  H  8  S   -0.000217  -0.000217   0.000377   0.000415   0.000308
   37  H  8  S    0.000372   0.000371  -0.000900  -0.001108  -0.001093
   38  H  9  S    0.000548  -0.000107   0.000359   0.002330   0.000197
   39  H  9  S   -0.002127   0.000525  -0.001379   0.010849  -0.001304
   40  O 10  S    0.011659   0.015838   0.983306   0.003589   0.001833
   41  O 10  S    0.002442   0.002811   0.098844   0.000093  -0.000067
   42  O 10  X   -0.000173   0.000636  -0.000873  -0.000019  -0.000052
   43  O 10  Y   -0.000695   0.000383   0.000711   0.000055   0.000007
   44  O 10  Z    0.000348   0.000262   0.002043   0.000077   0.000079
   45  O 10  S   -0.004192  -0.004256  -0.045476   0.000991   0.001026
   46  O 10  X    0.001115  -0.003179   0.002494  -0.000214   0.000191
   47  O 10  Y    0.003572  -0.002139  -0.001973  -0.000281   0.000274
   48  O 10  Z   -0.001868  -0.001521  -0.004723  -0.000144  -0.000179
   49  H 11  S    0.000439   0.001218   0.002587  -0.000136   0.000415
   50  H 11  S   -0.002015   0.008625   0.008410   0.000785  -0.001867
   51  H 12  S    0.000485   0.000479   0.002517   0.000442   0.000448
   52  H 12  S   -0.002023  -0.001964   0.009125  -0.001503  -0.001554
   53  O 13  S    0.000378   0.007032  -0.002007  -0.003515   0.983365
   54  O 13  S    0.000127   0.002063  -0.000468  -0.000543   0.097490
   55  O 13  X   -0.000017   0.000814  -0.000004   0.000081   0.000059
   56  O 13  Y   -0.000003  -0.000421  -0.000006   0.000051  -0.000030
   57  O 13  Z    0.000003   0.000172  -0.000052   0.000052  -0.002336
   58  O 13  S   -0.000341  -0.003565   0.001072   0.000804  -0.041730
   59  O 13  X    0.000058  -0.003579   0.000104  -0.000389   0.000277
   60  O 13  Y    0.000081   0.001901  -0.000210  -0.000276   0.001642
   61  O 13  Z    0.000022  -0.000667   0.000088  -0.000243   0.005288
   62  H 14  S   -0.000123   0.000535   0.000361   0.000189   0.002316
   63  H 14  S    0.000589  -0.002058  -0.001328  -0.001607   0.010786
   64  H 15  S    0.000050   0.000495  -0.000142  -0.000093   0.003036
   65  H 15  S   -0.000136  -0.001165   0.000380   0.000251   0.004397
   66  O 16  S    0.983298   0.005612  -0.011433  -0.007783  -0.000443
   67  O 16  S    0.097610   0.000375   0.000082   0.000682   0.000068
   68  O 16  X   -0.001853  -0.000080   0.000588  -0.000605   0.000017
   69  O 16  Y   -0.000150  -0.000051   0.000416   0.000314   0.000010
   70  O 16  Z   -0.001686   0.000061  -0.000380   0.000248  -0.000007
   71  O 16  S   -0.042046   0.000281  -0.002429  -0.004003  -0.000350
   72  O 16  X    0.004177   0.000371  -0.002449   0.003283  -0.000062
   73  O 16  Y   -0.001413   0.000268  -0.001887  -0.001725  -0.000113
   74  O 16  Z    0.003564  -0.000314   0.001811  -0.000996   0.000067
   75  H 17  S    0.003076  -0.000078   0.000357   0.000450   0.000060
   76  H 17  S    0.004339   0.000231  -0.001050  -0.001427  -0.000145
   77  H 18  S    0.001256   0.000414   0.002554   0.000425  -0.000140
   78  H 18  S    0.008768  -0.001977   0.008742  -0.001920   0.000798

                      6          7          8          9         10
                  -20.1598    -1.1832    -1.1648    -1.1348    -1.1209
                     A          A          A          A          A   
    1  O  1  S   -0.003302  -0.049443   0.057864   0.093155  -0.186597
    2  O  1  S    0.001036   0.045557  -0.053048  -0.085918   0.174105
    3  O  1  X    0.000093   0.009716  -0.009768  -0.009751   0.012673
    4  O  1  Y    0.000497   0.005419  -0.006458  -0.016351   0.043276
    5  O  1  Z   -0.000482   0.005687  -0.007797  -0.013426   0.025545
    6  O  1  S   -0.003941   0.154113  -0.183064  -0.296693   0.590105
    7  O  1  X   -0.000757   0.013417  -0.013963  -0.014846   0.019423
    8  O  1  Y   -0.002730   0.004388  -0.005748  -0.017190   0.048278
    9  O  1  Z    0.002379   0.005717  -0.007255  -0.012037   0.023592
   10  H  2  S    0.000339   0.049923  -0.050904  -0.032262  -0.009236
   11  H  2  S   -0.001740   0.009396  -0.007855  -0.005823   0.012848
   12  H  3  S    0.000436   0.020200  -0.024469  -0.042395   0.088973
   13  H  3  S   -0.001416   0.006193  -0.007951  -0.013401   0.023384
   14  O  4  S    0.000579  -0.096675  -0.163999   0.091033   0.043532
   15  O  4  S   -0.000275   0.089115   0.151683  -0.084888  -0.040600
   16  O  4  X   -0.000010  -0.015992  -0.023352   0.009666   0.003081
   17  O  4  Y   -0.000028  -0.004851  -0.001822  -0.007522  -0.000692
   18  O  4  Z    0.000028   0.017105   0.035215  -0.026827  -0.012316
   19  O  4  S    0.001150   0.304363   0.518356  -0.288812  -0.139203
   20  O  4  X   -0.000221  -0.022153  -0.032976   0.014030   0.005156
   21  O  4  Y    0.000096  -0.004787  -0.000588  -0.010176  -0.002223
   22  O  4  Z   -0.000196   0.017793   0.037227  -0.029060  -0.013469
   23  H  5  S   -0.000181   0.042743   0.075925  -0.045433  -0.022406
   24  H  5  S    0.000506   0.012563   0.020595  -0.011648  -0.005932
   25  H  6  S    0.000335   0.032882   0.058825  -0.040562  -0.011508
   26  H  6  S   -0.001765   0.005963   0.008929  -0.004638   0.001949
   27  O  7  S    0.983415  -0.023107  -0.003989  -0.002008  -0.054626
   28  O  7  S    0.097272   0.021424   0.003697   0.001662   0.050506
   29  O  7  X   -0.000116   0.002052   0.003233   0.006043  -0.006206
   30  O  7  Y   -0.000053  -0.002563   0.002638  -0.003652  -0.003112
   31  O  7  Z   -0.000412  -0.002099  -0.000932  -0.004785  -0.004009
   32  O  7  S   -0.040855   0.070502   0.012246   0.006761   0.171405
   33  O  7  X   -0.000164   0.004510   0.004398   0.009811  -0.005063
   34  O  7  Y    0.000368  -0.004703   0.002781  -0.005772  -0.008305
   35  O  7  Z    0.000345  -0.000849  -0.000855  -0.007165   0.001895
   36  H  8  S    0.002735   0.007111   0.001324   0.000591   0.018876
   37  H  8  S    0.004328   0.002483   0.000346   0.000144   0.007552
   38  H  9  S    0.001301   0.015407  -0.015298  -0.027201   0.063851
   39  H  9  S    0.007941   0.006978  -0.002122   0.001243   0.006252
   40  O 10  S   -0.002385  -0.134301  -0.034883  -0.174958  -0.057157
   41  O 10  S    0.000963   0.121976   0.031660   0.158639   0.052223
   42  O 10  X   -0.000512  -0.013510   0.003779  -0.019200  -0.007551
   43  O 10  Y    0.000378   0.008595   0.012225   0.013494   0.009317
   44  O 10  Z   -0.000288   0.029952   0.007046   0.030134   0.007078
   45  O 10  S   -0.003400   0.426196   0.111834   0.570430   0.185734
   46  O 10  X    0.002802  -0.016979   0.003337  -0.023255  -0.007671
   47  O 10  Y   -0.002076   0.010674   0.013353   0.016161   0.009967
   48  O 10  Z    0.001167   0.038739   0.009314   0.039739   0.010918
   49  H 11  S    0.000416   0.051716   0.033042   0.043551   0.012976
   50  H 11  S   -0.001736   0.013330   0.012342   0.004608  -0.000516
   51  H 12  S    0.001214   0.040260   0.010660   0.055320   0.025202
   52  H 12  S    0.007578   0.006852   0.001049  -0.001288   0.007864
   53  O 13  S   -0.003944  -0.029027  -0.056033   0.070656  -0.024790
   54  O 13  S    0.000963   0.026835   0.051495  -0.065046   0.023708
   55  O 13  X   -0.000548   0.002574   0.005316  -0.002733  -0.003657
   56  O 13  Y   -0.000351  -0.001491  -0.001045  -0.002546   0.001411
   57  O 13  Z   -0.000231  -0.007108  -0.013207   0.017271  -0.007694
   58  O 13  S   -0.003890   0.089752   0.176179  -0.224932   0.075904
   59  O 13  X    0.002732   0.004421   0.008087  -0.004500  -0.003724
   60  O 13  Y    0.001902  -0.003135  -0.004535   0.001374   0.001565
   61  O 13  Z    0.001475  -0.007585  -0.014301   0.018697  -0.008142
   62  H 14  S    0.001202   0.009873   0.015394  -0.020243   0.014064
   63  H 14  S    0.007822   0.005980   0.004427   0.000321   0.007207
   64  H 15  S    0.000416   0.011508   0.022887  -0.030906   0.011732
   65  H 15  S   -0.001347   0.003500   0.007719  -0.010257   0.001891
   66  O 16  S    0.000544  -0.143539   0.136525   0.054732   0.108595
   67  O 16  S   -0.000280   0.132369  -0.126377  -0.051208  -0.100493
   68  O 16  X   -0.000013  -0.023832   0.028006   0.019506   0.014624
   69  O 16  Y   -0.000018  -0.005988   0.011214   0.008872   0.018245
   70  O 16  Z   -0.000045  -0.025115   0.019874   0.002738   0.016977
   71  O 16  S    0.001167   0.452589  -0.431948  -0.173131  -0.351100
   72  O 16  X   -0.000029  -0.029444   0.034288   0.023248   0.020225
   73  O 16  Y    0.000304  -0.000806   0.007172   0.008449   0.015184
   74  O 16  Z    0.000037  -0.029807   0.023478   0.003070   0.018841
   75  H 17  S   -0.000149   0.064672  -0.064428  -0.028005  -0.056673
   76  H 17  S    0.000453   0.018167  -0.017404  -0.006823  -0.015568
   77  H 18  S    0.000428   0.058601  -0.008467   0.048939   0.002436
   78  H 18  S   -0.001793   0.016447  -0.006663   0.007144  -0.002100

                     11         12         13         14         15
                   -1.1110    -1.0297    -0.5464    -0.5354    -0.5248
                     A          A          A          A          A   
    1  O  1  S    0.056485   0.046094   0.003743   0.005444  -0.000550
    2  O  1  S   -0.052270  -0.042869  -0.003640  -0.005626   0.000795
    3  O  1  X   -0.003610   0.001486   0.047385   0.107885  -0.028184
    4  O  1  Y   -0.010802  -0.001687  -0.026715  -0.116213   0.051005
    5  O  1  Z   -0.009369  -0.015959  -0.035246  -0.046408  -0.003276
    6  O  1  S   -0.181307  -0.153025  -0.014136  -0.018475   0.000574
    7  O  1  X   -0.005950   0.000275   0.051807   0.112949  -0.028511
    8  O  1  Y   -0.012702  -0.002540  -0.026989  -0.118724   0.052745
    9  O  1  Z   -0.008072  -0.015102  -0.033408  -0.042092  -0.004834
   10  H  2  S   -0.003672  -0.003391   0.053089   0.165542  -0.059076
   11  H  2  S   -0.004133  -0.002800   0.054071   0.176135  -0.062297
   12  H  3  S   -0.027411  -0.027020  -0.035901  -0.073226   0.014387
   13  H  3  S   -0.007480  -0.007578  -0.031694  -0.059658   0.010627
   14  O  4  S    0.088197  -0.013620   0.000501  -0.001314  -0.001393
   15  O  4  S   -0.081499   0.012954   0.000458   0.000291  -0.000060
   16  O  4  X    0.003171   0.001572   0.095846  -0.094803  -0.164883
   17  O  4  Y    0.008072  -0.000451   0.011871   0.059204   0.255254
   18  O  4  Z   -0.021738   0.005420   0.149819  -0.098693  -0.065467
   19  O  4  S   -0.286485   0.044581  -0.010202   0.011697   0.013366
   20  O  4  X    0.008140   0.001460   0.099944  -0.099462  -0.171424
   21  O  4  Y    0.006322   0.000301   0.017153   0.057627   0.263436
   22  O  4  Z   -0.022792   0.006214   0.152804  -0.099160  -0.057758
   23  H  5  S   -0.046190   0.008899   0.102833  -0.090107  -0.132364
   24  H  5  S   -0.012991   0.001714   0.090798  -0.079496  -0.120397
   25  H  6  S   -0.000861  -0.003258  -0.030450   0.060862   0.171583
   26  H  6  S    0.014505  -0.003211  -0.031515   0.064421   0.180531
   27  O  7  S   -0.037501  -0.225618   0.000181   0.001664   0.001714
   28  O  7  S    0.034809   0.215893  -0.000224  -0.001978  -0.002000
   29  O  7  X    0.003167  -0.024996  -0.010269   0.022293   0.006228
   30  O  7  Y    0.009649   0.016094  -0.012990  -0.009651  -0.025117
   31  O  7  Z   -0.003233  -0.046519   0.002062   0.004169   0.007366
   32  O  7  S    0.117668   0.710805  -0.000751  -0.007144  -0.006909
   33  O  7  X    0.008207  -0.014797  -0.010757   0.023507   0.006683
   34  O  7  Y    0.012616   0.007406  -0.014916  -0.011051  -0.025318
   35  O  7  Z    0.000917  -0.032652   0.001936   0.005248   0.008243
   36  H  8  S    0.013438   0.099075  -0.000366  -0.008366  -0.008859
   37  H  8  S    0.004927   0.024928  -0.000391  -0.007652  -0.008983
   38  H  9  S   -0.012838   0.019850   0.009006  -0.009870   0.015824
   39  H  9  S    0.004875   0.017689   0.020097  -0.008077   0.020626
   40  O 10  S   -0.014850   0.039639   0.003019   0.006589   0.003214
   41  O 10  S    0.013701  -0.036123  -0.002936  -0.006618  -0.003213
   42  O 10  X   -0.006275  -0.006094  -0.149584   0.023355  -0.112480
   43  O 10  Y   -0.000565   0.004281  -0.205937   0.102017  -0.086279
   44  O 10  Z    0.000869  -0.009441   0.018275  -0.005359  -0.009438
   45  O 10  S    0.047845  -0.135597  -0.012658  -0.025448  -0.012229
   46  O 10  X   -0.006378  -0.006388  -0.157593   0.021431  -0.116440
   47  O 10  Y   -0.001103   0.004543  -0.215458   0.107833  -0.085956
   48  O 10  Z    0.002067  -0.010848   0.020709   0.000087  -0.009655
   49  H 11  S   -0.008667  -0.013741  -0.127495   0.041884  -0.077207
   50  H 11  S   -0.003134  -0.001052  -0.127145   0.041059  -0.089818
   51  H 12  S    0.009686   0.019809  -0.004258   0.019170   0.019140
   52  H 12  S    0.005351   0.014517  -0.003347   0.034637   0.028384
   53  O 13  S   -0.206198   0.050537  -0.003538   0.003692   0.005680
   54  O 13  S    0.192707  -0.047135   0.003299  -0.003684  -0.006146
   55  O 13  X   -0.007858  -0.006209  -0.011150   0.032922   0.111836
   56  O 13  Y    0.016339  -0.012679   0.034624  -0.048983  -0.105158
   57  O 13  Z   -0.054685   0.008427  -0.001130   0.011722   0.046214
   58  O 13  S    0.652662  -0.166888   0.014488  -0.014165  -0.019310
   59  O 13  X   -0.009356  -0.005592  -0.013410   0.035673   0.118471
   60  O 13  Y    0.009381  -0.011189   0.035489  -0.049980  -0.105673
   61  O 13  Z   -0.060462   0.009456   0.001849   0.009486   0.044763
   62  H 14  S    0.068187   0.016910  -0.006388   0.001092  -0.017247
   63  H 14  S    0.004316   0.017290  -0.015399   0.006067  -0.016476
   64  H 15  S    0.096911  -0.028447   0.020040  -0.028903  -0.063564
   65  H 15  S    0.025806  -0.008057   0.017019  -0.023797  -0.052180
   66  O 16  S   -0.014295  -0.012511   0.000199  -0.001675   0.000159
   67  O 16  S    0.013016   0.011930  -0.001430  -0.000074  -0.000244
   68  O 16  X    0.000174  -0.001953   0.031032  -0.184446   0.094080
   69  O 16  Y   -0.002492  -0.004988   0.221418   0.206918  -0.023377
   70  O 16  Z   -0.003268  -0.001170  -0.007827   0.118400  -0.058906
   71  O 16  S    0.047265   0.040884   0.008831   0.015886  -0.000501
   72  O 16  X   -0.000229  -0.002923   0.032114  -0.195004   0.100251
   73  O 16  Y   -0.001628  -0.005475   0.226200   0.208754  -0.020716
   74  O 16  Z   -0.003784  -0.000945  -0.017651   0.117847  -0.063983
   75  H 17  S    0.007531   0.008378  -0.133277  -0.139247   0.021598
   76  H 17  S    0.002445   0.001519  -0.113398  -0.126060   0.022188
   77  H 18  S    0.007725  -0.013970   0.135753  -0.054237   0.061882
   78  H 18  S    0.000242  -0.000969   0.139485  -0.066854   0.064837

                     16         17         18         19         20
                   -0.5080    -0.4911    -0.4814    -0.4293    -0.4031
                     A          A          A          A          A   
    1  O  1  S    0.000852   0.007708   0.001324   0.021122  -0.020091
    2  O  1  S   -0.000783  -0.005457  -0.001173  -0.016405   0.016184
    3  O  1  X   -0.017835  -0.104330  -0.035930  -0.038919   0.014229
    4  O  1  Y    0.013771  -0.109913  -0.054490   0.131228  -0.135944
    5  O  1  Z    0.021484   0.295452   0.102076   0.068943  -0.031432
    6  O  1  S   -0.004023  -0.046169  -0.006508  -0.103907   0.094825
    7  O  1  X   -0.017909  -0.108930  -0.040058  -0.037725   0.015406
    8  O  1  Y    0.014845  -0.120179  -0.059931   0.151357  -0.160789
    9  O  1  Z    0.021878   0.300099   0.101941   0.073209  -0.034536
   10  H  2  S   -0.011975   0.018264   0.016430  -0.051130   0.019003
   11  H  2  S   -0.025843   0.025417   0.020692  -0.063030   0.041851
   12  H  3  S    0.017879   0.172144   0.056722   0.071177  -0.043663
   13  H  3  S    0.017259   0.168646   0.050294   0.069037  -0.047205
   14  O  4  S   -0.005469   0.002455  -0.004154  -0.025745  -0.055866
   15  O  4  S    0.004473  -0.002211   0.004012   0.020671   0.047979
   16  O  4  X   -0.060318   0.003080  -0.006337   0.014081   0.107101
   17  O  4  Y   -0.041665   0.014482   0.055186  -0.067240   0.036341
   18  O  4  Z   -0.127354   0.029377  -0.010890  -0.151011  -0.236266
   19  O  4  S    0.028714  -0.011090   0.018575   0.124679   0.265058
   20  O  4  X   -0.061979   0.000911  -0.000067   0.014364   0.132326
   21  O  4  Y   -0.048539   0.016925   0.062186  -0.080497   0.045412
   22  O  4  Z   -0.129041   0.031677  -0.010192  -0.172981  -0.264348
   23  H  5  S   -0.076818   0.013815  -0.019852  -0.063484  -0.115935
   24  H  5  S   -0.063003   0.012356  -0.022417  -0.059833  -0.119973
   25  H  6  S    0.007572   0.004569   0.022460  -0.040920  -0.041080
   26  H  6  S   -0.005544   0.001908   0.025823  -0.044304  -0.070579
   27  O  7  S   -0.012099  -0.006699  -0.009995  -0.002271   0.000316
   28  O  7  S    0.013764   0.007228   0.013264  -0.003842  -0.000810
   29  O  7  X   -0.094942   0.074255  -0.069292   0.085884   0.054820
   30  O  7  Y    0.073969   0.111858  -0.020994  -0.082369   0.036664
   31  O  7  Z   -0.022690  -0.057893  -0.158437   0.060625   0.004264
   32  O  7  S    0.044591   0.026966   0.035277   0.023522  -0.000779
   33  O  7  X   -0.094268   0.078404  -0.070292   0.094308   0.062000
   34  O  7  Y    0.073966   0.116730  -0.021546  -0.089822   0.044161
   35  O  7  Z   -0.019348  -0.055448  -0.158526   0.059927   0.001029
   36  H  8  S    0.053017   0.028912   0.090024  -0.067610  -0.011570
   37  H  8  S    0.045705   0.023005   0.086455  -0.067976  -0.007529
   38  H  9  S   -0.005347  -0.165046  -0.059010   0.019023  -0.038043
   39  H  9  S   -0.004902  -0.177008  -0.073077   0.029654  -0.031706
   40  O 10  S    0.012641  -0.002400  -0.010219   0.044240   0.011001
   41  O 10  S   -0.010243   0.001885   0.008766  -0.035790  -0.008235
   42  O 10  X    0.228663  -0.034206  -0.010072  -0.131654  -0.102079
   43  O 10  Y   -0.155500  -0.009066   0.007571   0.139899  -0.086965
   44  O 10  Z    0.167629  -0.015185  -0.037110   0.063589   0.013040
   45  O 10  S   -0.064157   0.012527   0.048765  -0.210010  -0.055054
   46  O 10  X    0.242551  -0.035562  -0.009387  -0.154289  -0.129974
   47  O 10  Y   -0.161709  -0.008635   0.005286   0.168820  -0.114992
   48  O 10  Z    0.175908  -0.016179  -0.044088   0.075768   0.008762
   49  H 11  S    0.098606  -0.024597  -0.010783   0.023509  -0.031859
   50  H 11  S    0.118308  -0.021304  -0.021775   0.043320   0.018876
   51  H 12  S   -0.162804   0.013483   0.009806   0.089309   0.012592
   52  H 12  S   -0.165714   0.010272   0.003942   0.084017   0.020409
   53  O 13  S    0.000789   0.001037   0.007171   0.013207   0.022593
   54  O 13  S   -0.000889  -0.001427  -0.005222  -0.009491  -0.018187
   55  O 13  X    0.002600  -0.066006   0.181423  -0.020912  -0.101936
   56  O 13  Y    0.002458  -0.113350   0.261437   0.089997   0.064695
   57  O 13  Z   -0.002392  -0.012620   0.015899  -0.054166  -0.123825
   58  O 13  S   -0.002848  -0.000005  -0.040905  -0.069050  -0.106065
   59  O 13  X    0.003976  -0.066925   0.187199  -0.023930  -0.119617
   60  O 13  Y    0.002333  -0.113844   0.265837   0.093083   0.069255
   61  O 13  Z   -0.003402  -0.018048   0.021654  -0.059971  -0.147028
   62  H 14  S   -0.001299   0.070634  -0.158546  -0.008996   0.043824
   63  H 14  S    0.002048   0.077345  -0.183065   0.007586   0.035802
   64  H 15  S    0.001321  -0.070796   0.164389   0.064186   0.054965
   65  H 15  S    0.002561  -0.067118   0.166986   0.061387   0.060296
   66  O 16  S   -0.009890  -0.005370   0.000970  -0.044772   0.042035
   67  O 16  S    0.008812   0.004842  -0.000573   0.036899  -0.037559
   68  O 16  X    0.096136  -0.010795  -0.035603   0.180486  -0.081096
   69  O 16  Y    0.106425   0.043252  -0.003121   0.126455  -0.044351
   70  O 16  Z   -0.018181   0.031752   0.020374   0.070286  -0.193343
   71  O 16  S    0.047209   0.024366  -0.005087   0.215455  -0.195407
   72  O 16  X    0.105063  -0.009335  -0.038832   0.209175  -0.090580
   73  O 16  Y    0.108532   0.041342  -0.006232   0.143085  -0.039954
   74  O 16  Z   -0.017631   0.036664   0.022828   0.080002  -0.235083
   75  H 17  S   -0.064197  -0.032586  -0.001486  -0.100020   0.079315
   76  H 17  S   -0.058282  -0.031106  -0.002000  -0.102224   0.085852
   77  H 18  S    0.093889   0.008621  -0.014211   0.006300   0.052442
   78  H 18  S    0.118120  -0.002547  -0.025274   0.036662   0.008075

                     21         22         23         24         25
                   -0.3788    -0.3635    -0.3519    -0.3123    -0.3019
                     A          A          A          A          A   
    1  O  1  S   -0.017995  -0.060913   0.016873  -0.006656   0.008532
    2  O  1  S    0.015139   0.053441  -0.015141   0.009783  -0.008660
    3  O  1  X   -0.014936  -0.151558   0.035596  -0.003307   0.109932
    4  O  1  Y   -0.124928  -0.189226   0.069144  -0.159313   0.100338
    5  O  1  Z   -0.014215  -0.193178   0.048430   0.030691   0.002421
    6  O  1  S    0.082236   0.283420  -0.076782   0.011050  -0.030732
    7  O  1  X   -0.016832  -0.195802   0.046319  -0.011081   0.127740
    8  O  1  Y   -0.150470  -0.214461   0.079478  -0.194675   0.132022
    9  O  1  Z   -0.018130  -0.216506   0.050150   0.048246   0.003587
   10  H  2  S   -0.002961  -0.050628   0.010305  -0.003697   0.006100
   11  H  2  S    0.022384   0.003597  -0.007830   0.062505   0.028866
   12  H  3  S   -0.025645  -0.119323   0.035741  -0.013766   0.001857
   13  H  3  S   -0.031880  -0.127323   0.034978  -0.007237  -0.003054
   14  O  4  S    0.033027  -0.007611  -0.023446  -0.000416  -0.010561
   15  O  4  S   -0.031880   0.007809   0.026652   0.004125   0.004356
   16  O  4  X   -0.171148   0.044814   0.168373   0.129033  -0.124354
   17  O  4  Y   -0.168081  -0.005625  -0.059015   0.082965  -0.079569
   18  O  4  Z    0.083530  -0.035765  -0.144644  -0.007734  -0.034255
   19  O  4  S   -0.147805   0.031445   0.085447  -0.014367   0.068806
   20  O  4  X   -0.216827   0.055503   0.217025   0.165815  -0.164773
   21  O  4  Y   -0.211267  -0.008061  -0.084810   0.095618  -0.102166
   22  O  4  Z    0.090453  -0.042930  -0.167762  -0.005232  -0.039108
   23  H  5  S    0.051182  -0.009722  -0.037353  -0.005148  -0.021939
   24  H  5  S    0.059075  -0.011564  -0.036776   0.007196  -0.025361
   25  H  6  S    0.006730  -0.013212  -0.047293  -0.005065  -0.002571
   26  H  6  S    0.027518  -0.002781   0.017192   0.035493  -0.039143
   27  O  7  S   -0.002749   0.020541   0.009996  -0.042960   0.036808
   28  O  7  S    0.002046  -0.011756  -0.004963   0.028110  -0.026827
   29  O  7  X    0.057113  -0.003226  -0.075274   0.088482  -0.104041
   30  O  7  Y   -0.039274   0.061243  -0.065621  -0.074003   0.052033
   31  O  7  Z   -0.048181  -0.147672  -0.084745   0.150213  -0.127653
   32  O  7  S    0.012965  -0.108054  -0.054306   0.223727  -0.183002
   33  O  7  X    0.072939   0.005998  -0.087888   0.100961  -0.112476
   34  O  7  Y   -0.050846   0.067779  -0.087454  -0.090714   0.045375
   35  O  7  Z   -0.055193  -0.165660  -0.088950   0.161411  -0.130927
   36  H  8  S    0.002840   0.079024   0.051046  -0.105839   0.098208
   37  H  8  S   -0.005045   0.104783   0.054188  -0.157215   0.141989
   38  H  9  S   -0.041231  -0.040493   0.012160  -0.024938   0.025119
   39  H  9  S   -0.027710  -0.059394   0.014714   0.006997  -0.011097
   40  O 10  S    0.045890   0.000758   0.004140   0.005089   0.001898
   41  O 10  S   -0.045812   0.001890  -0.002294  -0.009189  -0.008539
   42  O 10  X   -0.095842  -0.037859  -0.053074   0.012268  -0.210789
   43  O 10  Y    0.095911   0.058608   0.004274  -0.077402  -0.075074
   44  O 10  Z    0.227890  -0.050964  -0.024108   0.221051   0.160446
   45  O 10  S   -0.189690  -0.009783  -0.021762  -0.007519   0.022114
   46  O 10  X   -0.114373  -0.040450  -0.070864   0.017201  -0.266938
   47  O 10  Y    0.116003   0.075509  -0.002795  -0.094853  -0.090332
   48  O 10  Z    0.283765  -0.068032  -0.036586   0.280150   0.201928
   49  H 11  S    0.052834  -0.007080  -0.002780   0.006924  -0.030488
   50  H 11  S    0.022855   0.000087   0.015577  -0.002358  -0.023238
   51  H 12  S    0.039130   0.029320   0.019146  -0.014806   0.009512
   52  H 12  S    0.047168   0.006578   0.004486  -0.022178  -0.038552
   53  O 13  S   -0.011427  -0.013755  -0.065226  -0.006989   0.000766
   54  O 13  S    0.008828   0.010411   0.056616   0.009928  -0.002552
   55  O 13  X    0.074848  -0.035531  -0.023880   0.061357  -0.100614
   56  O 13  Y   -0.012942  -0.044677  -0.065482   0.048472  -0.020286
   57  O 13  Z    0.069254   0.037185   0.332994   0.126697  -0.065946
   58  O 13  S    0.053618   0.071585   0.302476   0.013741   0.008073
   59  O 13  X    0.089755  -0.045630  -0.034025   0.076181  -0.123794
   60  O 13  Y   -0.019600  -0.047317  -0.054748   0.064970  -0.026149
   61  O 13  Z    0.082161   0.036360   0.390733   0.160564  -0.084730
   62  H 14  S   -0.037354   0.007717  -0.052901  -0.028466   0.018103
   63  H 14  S   -0.025837  -0.019381  -0.063867   0.007872   0.002510
   64  H 15  S   -0.014385  -0.040729  -0.127551   0.000722  -0.005595
   65  H 15  S   -0.019933  -0.037557  -0.135867  -0.001553  -0.009499
   66  O 16  S    0.026496  -0.029984   0.005931   0.010925   0.011892
   67  O 16  S   -0.024117   0.031767  -0.007813  -0.003302  -0.008683
   68  O 16  X    0.002390   0.213156  -0.048933   0.007345  -0.084564
   69  O 16  Y    0.013437  -0.008565   0.026889  -0.156346  -0.148759
   70  O 16  Z   -0.212352   0.130191  -0.066002   0.217859   0.228807
   71  O 16  S   -0.123622   0.119201  -0.018300  -0.077272  -0.063516
   72  O 16  X    0.009200   0.266941  -0.062476   0.020441  -0.102953
   73  O 16  Y    0.027643  -0.025931   0.038361  -0.195689  -0.175154
   74  O 16  Z   -0.257485   0.151024  -0.081567   0.276257   0.288403
   75  H 17  S    0.049933  -0.049376   0.007298   0.025061   0.026052
   76  H 17  S    0.047302  -0.047175   0.007144   0.032906   0.033660
   77  H 18  S    0.040622  -0.011862   0.003637   0.034039   0.038913
   78  H 18  S    0.034111   0.005339  -0.003934   0.004089  -0.013077

                     26         27         28         29         30
                   -0.2977    -0.2860    -0.2761    -0.2114    -0.2051
                     A          A          A          A          A   
    1  O  1  S    0.002830  -0.005563   0.002526  -0.004482  -0.016098
    2  O  1  S   -0.003117  -0.002818  -0.001214  -0.000670   0.008406
    3  O  1  X   -0.014721   0.411428  -0.062135   0.000315   0.056073
    4  O  1  Y    0.092721  -0.076901   0.029984   0.106699   0.154981
    5  O  1  Z   -0.028539   0.099924  -0.015749  -0.038226  -0.085439
    6  O  1  S   -0.007288   0.054862  -0.014528   0.046948   0.111650
    7  O  1  X   -0.018875   0.517312  -0.078858   0.008113   0.074588
    8  O  1  Y    0.115599  -0.086158   0.036437   0.142921   0.213992
    9  O  1  Z   -0.037369   0.124009  -0.020805  -0.062111  -0.106039
   10  H  2  S    0.001533  -0.019901   0.004921   0.002173   0.001126
   11  H  2  S   -0.018837   0.036743  -0.001973  -0.013921  -0.028299
   12  H  3  S    0.004297  -0.021150   0.006697   0.002209  -0.029292
   13  H  3  S   -0.002131  -0.035372   0.006317  -0.010959  -0.043808
   14  O  4  S    0.011024   0.004212   0.005315   0.001162   0.001574
   15  O  4  S   -0.006874  -0.002149   0.001816  -0.001463   0.000835
   16  O  4  X    0.232413   0.057941   0.150999  -0.013515   0.014116
   17  O  4  Y    0.239236   0.007582  -0.167512   0.051775  -0.038636
   18  O  4  Z    0.075399   0.003670  -0.081763   0.023869  -0.019264
   19  O  4  S   -0.064560  -0.026690  -0.054363  -0.002459  -0.018372
   20  O  4  X    0.286033   0.073442   0.195148  -0.015633   0.024523
   21  O  4  Y    0.295892   0.010208  -0.212205   0.068294  -0.053106
   22  O  4  Z    0.085913  -0.000126  -0.110903   0.033954  -0.022991
   23  H  5  S    0.022255   0.010466   0.020986  -0.001975   0.000292
   24  H  5  S    0.036542   0.013262   0.022404   0.000186   0.002466
   25  H  6  S    0.003694  -0.001960  -0.019455   0.002805  -0.001691
   26  H  6  S    0.041057   0.013210   0.046793  -0.014122   0.031084
   27  O  7  S    0.024313   0.007008   0.000045   0.002289  -0.002494
   28  O  7  S   -0.018623  -0.006832  -0.001854  -0.003427   0.002768
   29  O  7  X   -0.056199   0.027845   0.017570   0.297028   0.230780
   30  O  7  Y    0.063753   0.011336  -0.046464  -0.196520   0.347149
   31  O  7  Z   -0.081545  -0.065562  -0.032297  -0.249876   0.004280
   32  O  7  S   -0.117942  -0.028221   0.005712  -0.007898   0.012791
   33  O  7  X   -0.047539   0.036732   0.030653   0.366303   0.289160
   34  O  7  Y    0.071919   0.004974  -0.048009  -0.242346   0.435438
   35  O  7  Z   -0.082920  -0.064048  -0.035852  -0.309269   0.005876
   36  H  8  S    0.065532   0.027119   0.001424  -0.000272  -0.003216
   37  H  8  S    0.095148   0.032763   0.003266   0.006144  -0.008829
   38  H  9  S    0.012286  -0.007024   0.005272   0.000584  -0.007757
   39  H  9  S    0.003589  -0.064609   0.006111  -0.072585  -0.092757
   40  O 10  S    0.003758   0.003954   0.004061   0.015206  -0.000899
   41  O 10  S   -0.012568   0.001199   0.000203  -0.006552   0.000416
   42  O 10  X    0.009492   0.041723  -0.024083   0.153513  -0.029264
   43  O 10  Y    0.200468   0.044101  -0.075159  -0.115439  -0.020749
   44  O 10  Z    0.252262  -0.041535  -0.017889   0.024496  -0.000911
   45  O 10  S    0.023993  -0.038269  -0.036283  -0.111916   0.006598
   46  O 10  X    0.008759   0.062111  -0.032013   0.216785  -0.034666
   47  O 10  Y    0.252859   0.058023  -0.107310  -0.161957  -0.020676
   48  O 10  Z    0.314120  -0.056538  -0.024814   0.036886  -0.001561
   49  H 11  S    0.041167   0.008974  -0.011247   0.014483  -0.009847
   50  H 11  S   -0.019975   0.005756   0.038735   0.015179   0.002405
   51  H 12  S    0.002631   0.004652   0.000184   0.005107   0.000107
   52  H 12  S   -0.045638   0.026574   0.029090   0.138903  -0.008194
   53  O 13  S    0.005146  -0.000603  -0.006159  -0.004824   0.013021
   54  O 13  S   -0.004157  -0.000737  -0.001432   0.000449  -0.005249
   55  O 13  X    0.007082   0.054316   0.325931  -0.099055   0.125467
   56  O 13  Y   -0.055847  -0.047026  -0.210077  -0.003005   0.084255
   57  O 13  Z   -0.086532  -0.045623  -0.188486  -0.020237   0.147844
   58  O 13  S   -0.021910   0.008185   0.055079   0.042698  -0.102028
   59  O 13  X    0.001913   0.066826   0.402282  -0.129908   0.170075
   60  O 13  Y   -0.057253  -0.056497  -0.263170  -0.013111   0.110228
   61  O 13  Z   -0.111022  -0.060018  -0.244935  -0.037376   0.194653
   62  H 14  S    0.019552   0.000570  -0.009473   0.002884   0.000047
   63  H 14  S   -0.004106  -0.011605  -0.062919  -0.059322   0.092361
   64  H 15  S   -0.008551  -0.007284  -0.022648  -0.009506   0.016890
   65  H 15  S   -0.007002  -0.008591  -0.037980  -0.005222   0.050241
   66  O 16  S   -0.001956   0.004320   0.001913   0.001632  -0.001992
   67  O 16  S   -0.002219   0.002028  -0.002600  -0.001819  -0.000389
   68  O 16  X   -0.042195   0.231539  -0.058305  -0.051107  -0.036008
   69  O 16  Y    0.041255  -0.059477  -0.012676  -0.003616   0.001934
   70  O 16  Z   -0.068105  -0.023871   0.042646   0.022180   0.012230
   71  O 16  S    0.024492  -0.045767  -0.005514  -0.005102   0.019746
   72  O 16  X   -0.051007   0.299279  -0.074036  -0.067642  -0.050429
   73  O 16  Y    0.062805  -0.070539  -0.015716  -0.006510   0.007887
   74  O 16  Z   -0.085184  -0.025445   0.052265   0.031018   0.014840
   75  H 17  S    0.003339   0.020628  -0.000936   0.000400  -0.000914
   76  H 17  S   -0.007058   0.020861   0.004101   0.001011  -0.003566
   77  H 18  S   -0.009309  -0.011327   0.014636   0.014661   0.008314
   78  H 18  S   -0.032097   0.033082  -0.007064   0.017370  -0.004455

                     31         32         33         34         35
                    0.2137     0.4006     0.4068     0.4419     0.4520
                     A          A          A          A          A   
    1  O  1  S    0.043984   0.048021  -0.016251   0.062072   0.039053
    2  O  1  S   -0.025636  -0.026541   0.007620  -0.021197  -0.011793
    3  O  1  X   -0.028424  -0.025081  -0.006716   0.038110   0.026453
    4  O  1  Y   -0.060488   0.007782   0.036646  -0.078195  -0.030118
    5  O  1  Z   -0.017842  -0.087087   0.018609  -0.153952  -0.115949
    6  O  1  S   -0.350329  -0.393610   0.144277  -0.583693  -0.372511
    7  O  1  X   -0.038419  -0.024993  -0.011946   0.075241   0.054748
    8  O  1  Y   -0.112783  -0.023578   0.064807  -0.164022  -0.083195
    9  O  1  Z   -0.066317  -0.200208   0.053676  -0.369881  -0.268779
   10  H  2  S    0.009488   0.045108   0.004761  -0.001163   0.010764
   11  H  2  S    0.100348   0.181833  -0.003374   0.075549   0.050002
   12  H  3  S    0.018836   0.023138  -0.008742   0.039700   0.026892
   13  H  3  S    0.318182   0.488876  -0.183643   0.919348   0.624431
   14  O  4  S    0.027743  -0.011925   0.088524   0.026094  -0.020538
   15  O  4  S   -0.015200   0.006462  -0.038892  -0.007515   0.003964
   16  O  4  X    0.029081  -0.008447  -0.003036  -0.027697   0.034028
   17  O  4  Y    0.003827   0.014886   0.058131   0.042597  -0.062434
   18  O  4  Z   -0.023031   0.027091  -0.177074  -0.079599   0.057857
   19  O  4  S   -0.220333   0.101740  -0.780455  -0.253192   0.205830
   20  O  4  X    0.046959  -0.011786  -0.026925  -0.059658   0.063974
   21  O  4  Y    0.017481   0.020543   0.152750   0.090512  -0.123210
   22  O  4  Z   -0.055074   0.059413  -0.421149  -0.190764   0.142030
   23  H  5  S    0.011536  -0.007578   0.049037   0.020128  -0.017355
   24  H  5  S    0.181010  -0.116828   1.071904   0.466249  -0.393033
   25  H  6  S    0.012057  -0.011543   0.043823   0.004963   0.006820
   26  H  6  S    0.109169  -0.072860   0.160266  -0.027397   0.081520
   27  O  7  S    0.095113  -0.011787  -0.027730  -0.001226  -0.028581
   28  O  7  S   -0.055092   0.005065   0.012306  -0.001837   0.006117
   29  O  7  X    0.063591   0.001919  -0.067264   0.028522  -0.046589
   30  O  7  Y   -0.049591   0.057484   0.009500   0.048224   0.003945
   31  O  7  Z    0.112531  -0.040838  -0.069321  -0.030581  -0.126011
   32  O  7  S   -0.778296   0.118928   0.264984   0.029527   0.308822
   33  O  7  X    0.152170  -0.019904  -0.133282   0.022236  -0.111153
   34  O  7  Y   -0.112856   0.094540   0.037570   0.058592   0.032907
   35  O  7  Z    0.273680  -0.092721  -0.158941  -0.059111  -0.253626
   36  H  8  S    0.065388  -0.008310  -0.020737  -0.000466  -0.029175
   37  H  8  S    0.932116  -0.230308  -0.443827  -0.093371  -0.558360
   38  H  9  S    0.031966   0.009543  -0.017350   0.031022   0.011293
   39  H  9  S    0.200305   0.051841  -0.065163   0.050704  -0.008419
   40  O 10  S    0.032037   0.014828   0.021006  -0.002506  -0.019443
   41  O 10  S   -0.022378  -0.010526  -0.013400   0.002862   0.015144
   42  O 10  X    0.044029   0.015985  -0.044394  -0.018250  -0.011945
   43  O 10  Y   -0.035287   0.048450  -0.006114  -0.021890   0.016605
   44  O 10  Z   -0.021459  -0.029259  -0.045260   0.001247   0.014480
   45  O 10  S   -0.240275  -0.109195  -0.160786   0.014463   0.144145
   46  O 10  X    0.068251   0.026336  -0.061714  -0.022093  -0.020636
   47  O 10  Y   -0.053428   0.070382  -0.005586  -0.023078   0.022260
   48  O 10  Z   -0.040537  -0.050873  -0.083071   0.001349   0.031344
   49  H 11  S    0.007246   0.006103   0.023689   0.007427  -0.013213
   50  H 11  S    0.115437   0.028093   0.157741   0.000079  -0.081298
   51  H 12  S    0.023999  -0.003191  -0.006251  -0.002188  -0.024515
   52  H 12  S    0.179932   0.019005   0.005089  -0.012707  -0.079517
   53  O 13  S    0.052339  -0.033123   0.032897  -0.033906   0.062564
   54  O 13  S   -0.029026   0.015855  -0.019726   0.012033  -0.020692
   55  O 13  X    0.015287   0.013270  -0.070153   0.004753  -0.032353
   56  O 13  Y   -0.010033   0.047140  -0.029147   0.087395  -0.157206
   57  O 13  Z    0.079938  -0.046215   0.019597  -0.058892   0.088437
   58  O 13  S   -0.425393   0.287165  -0.261985   0.318462  -0.593641
   59  O 13  X    0.017781   0.033590  -0.109513   0.034118  -0.081407
   60  O 13  Y   -0.059712   0.120633  -0.087668   0.205542  -0.353932
   61  O 13  Z    0.161116  -0.102642   0.060048  -0.128906   0.220042
   62  H 14  S    0.036113  -0.021601  -0.000005  -0.025511   0.021786
   63  H 14  S    0.240044  -0.054420   0.002622   0.005388   0.047898
   64  H 15  S    0.024617  -0.015794   0.014789  -0.021186   0.043183
   65  H 15  S    0.405485  -0.389487   0.329713  -0.537811   0.943032
   66  O 16  S    0.024918   0.087004   0.020995  -0.034746  -0.004368
   67  O 16  S   -0.013539  -0.038760  -0.008770   0.008828  -0.000661
   68  O 16  X    0.020124   0.073716  -0.006449   0.003185   0.025865
   69  O 16  Y   -0.003407   0.132984   0.032099  -0.121921  -0.017819
   70  O 16  Z    0.024129   0.096385   0.031158  -0.065468  -0.018869
   71  O 16  S   -0.197668  -0.764384  -0.184194   0.342624   0.048560
   72  O 16  X    0.036257   0.148830  -0.005791  -0.014214   0.040280
   73  O 16  Y    0.005177   0.333233   0.077073  -0.281871  -0.033257
   74  O 16  Z    0.053042   0.231675   0.075695  -0.149459  -0.040996
   75  H 17  S    0.010969   0.047576   0.013067  -0.029654  -0.004924
   76  H 17  S    0.152731   1.034613   0.245935  -0.663490  -0.083979
   77  H 18  S    0.006535   0.018964   0.010143  -0.014562  -0.005450
   78  H 18  S    0.116973   0.137916   0.115520  -0.008395  -0.090538

                     36         37         38         39         40
                    0.5777     0.6623     0.6728     0.7085     0.7351
                     A          A          A          A          A   
    1  O  1  S   -0.004988   0.041176   0.040347  -0.004574  -0.019431
    2  O  1  S    0.005070  -0.039654  -0.035494  -0.000248   0.017145
    3  O  1  X    0.036110  -0.122659  -0.099728  -0.027835   0.035192
    4  O  1  Y   -0.020413   0.093939   0.029392   0.148156  -0.030120
    5  O  1  Z   -0.029312   0.071813   0.104574  -0.086867  -0.021551
    6  O  1  S    0.027382  -0.273832  -0.296584   0.078361   0.145286
    7  O  1  X    0.074506  -0.291709  -0.256466  -0.054689   0.106967
    8  O  1  Y   -0.045107   0.192021   0.050086   0.315414  -0.055778
    9  O  1  Z   -0.072436   0.194949   0.278352  -0.191042  -0.069463
   10  H  2  S   -0.003926   0.112566   0.079567   0.096202  -0.050860
   11  H  2  S   -0.209515   1.073858   0.740615   0.739580  -0.436798
   12  H  3  S    0.004452  -0.030791  -0.042129  -0.000982   0.015939
   13  H  3  S    0.151487  -0.375059  -0.408952   0.092268   0.106021
   14  O  4  S   -0.019715  -0.045955   0.025246   0.040075  -0.017417
   15  O  4  S    0.025771   0.038803  -0.016017  -0.031572   0.022542
   16  O  4  X   -0.080867  -0.114253   0.084850   0.082160   0.009169
   17  O  4  Y   -0.040031   0.078711  -0.151870  -0.075594  -0.147752
   18  O  4  Z   -0.141233  -0.068971  -0.020276   0.044132  -0.099322
   19  O  4  S    0.089589   0.356794  -0.234583  -0.331457   0.083834
   20  O  4  X   -0.187793  -0.293269   0.208417   0.244477  -0.000270
   21  O  4  Y   -0.048656   0.190973  -0.329212  -0.176372  -0.305281
   22  O  4  Z   -0.317098  -0.175280  -0.018377   0.128571  -0.197902
   23  H  5  S    0.035851   0.026908  -0.010365  -0.038774  -0.004889
   24  H  5  S    0.456972   0.348980  -0.180564  -0.256514   0.053634
   25  H  6  S   -0.001320  -0.084836   0.094466   0.097377   0.060504
   26  H  6  S   -0.183077  -0.838944   0.899184   0.767542   0.462225
   27  O  7  S   -0.012515  -0.001571   0.032443  -0.059401  -0.003419
   28  O  7  S    0.017857   0.001093  -0.027032   0.051633   0.002911
   29  O  7  X    0.109772   0.050431  -0.006141   0.081674   0.007282
   30  O  7  Y   -0.080855   0.057364  -0.000545  -0.067005  -0.063938
   31  O  7  Z    0.045254  -0.005647  -0.132371   0.136231  -0.018778
   32  O  7  S    0.019023   0.011937  -0.204909   0.386644   0.023166
   33  O  7  X    0.210959   0.100145  -0.046628   0.238189   0.013197
   34  O  7  Y   -0.154490   0.108226   0.024872  -0.185294  -0.141994
   35  O  7  Z    0.128401  -0.007846  -0.308392   0.371189  -0.028367
   36  H  8  S    0.007724  -0.002860  -0.011534   0.051466   0.009471
   37  H  8  S    0.361826   0.000643  -0.331829   0.518396   0.028875
   38  H  9  S    0.011381   0.022912   0.049922  -0.062556  -0.023097
   39  H  9  S   -0.085552   0.269174   0.589010  -0.741591  -0.142521
   40  O 10  S   -0.116609  -0.006980  -0.046260  -0.014092  -0.005680
   41  O 10  S    0.068897   0.004661   0.024766   0.009391   0.004455
   42  O 10  X   -0.003570   0.069856   0.034084  -0.118013   0.137637
   43  O 10  Y    0.003990   0.098352  -0.045968   0.051312   0.268390
   44  O 10  Z    0.098118  -0.003997   0.042501  -0.065230  -0.040856
   45  O 10  S    1.006560   0.060309   0.420777   0.134880   0.049311
   46  O 10  X   -0.031187   0.139031   0.035202  -0.273818   0.332402
   47  O 10  Y    0.032214   0.207052  -0.070636   0.118430   0.647010
   48  O 10  Z    0.263526  -0.002040   0.145097  -0.131033  -0.083792
   49  H 11  S   -0.074553  -0.038296  -0.046915   0.040076  -0.148849
   50  H 11  S   -0.753822  -0.402405  -0.363404   0.327946  -1.089332
   51  H 12  S   -0.062631  -0.008489  -0.035348  -0.077839  -0.036812
   52  H 12  S   -0.441746  -0.055906  -0.005253  -0.718031  -0.317502
   53  O 13  S   -0.005445  -0.031622   0.047005  -0.003787   0.025766
   54  O 13  S    0.005076   0.031044  -0.042435  -0.001213  -0.021727
   55  O 13  X    0.013926   0.061090  -0.025796  -0.157965  -0.008663
   56  O 13  Y   -0.038736  -0.125559   0.161309  -0.011443   0.062414
   57  O 13  Z    0.002829   0.022753  -0.012403  -0.060236  -0.009219
   58  O 13  S    0.033381   0.206291  -0.335527   0.075646  -0.198549
   59  O 13  X    0.024804   0.115133  -0.037017  -0.336407  -0.013683
   60  O 13  Y   -0.086716  -0.305797   0.414720  -0.037510   0.185513
   61  O 13  Z    0.013350   0.046094  -0.011490  -0.125762   0.004991
   62  H 14  S    0.011135  -0.015670   0.051695  -0.056601   0.041476
   63  H 14  S   -0.073032  -0.257295   0.593868  -0.682766   0.313434
   64  H 15  S    0.002005   0.028435  -0.035493  -0.009531  -0.021368
   65  H 15  S    0.112611   0.337426  -0.435168   0.041908  -0.168099
   66  O 16  S   -0.024458   0.051719   0.014692   0.033111   0.021806
   67  O 16  S    0.029098  -0.042006  -0.007148  -0.024838  -0.026510
   68  O 16  X    0.061221   0.105080   0.141530   0.078149  -0.165812
   69  O 16  Y    0.146889  -0.155487  -0.032663  -0.070486  -0.072132
   70  O 16  Z   -0.028980  -0.037230  -0.061042  -0.037610   0.087719
   71  O 16  S    0.129841  -0.412875  -0.151564  -0.282728  -0.120976
   72  O 16  X    0.106083   0.247855   0.299795   0.189827  -0.332871
   73  O 16  Y    0.338985  -0.403341  -0.092599  -0.214302  -0.179047
   74  O 16  Z   -0.039639  -0.079486  -0.128537  -0.062630   0.179744
   75  H 17  S    0.028952  -0.041314  -0.005552  -0.027847  -0.033599
   76  H 17  S    0.415031  -0.408690  -0.107492  -0.192710  -0.125058
   77  H 18  S   -0.079001   0.026491  -0.058964   0.019003   0.167798
   78  H 18  S   -0.753758   0.339773  -0.488712   0.109793   1.316834

                     41         42         43         44         45
                    0.7420     0.7681     1.2857     1.3312     1.3455
                     A          A          A          A          A   
    1  O  1  S   -0.018377  -0.035007   0.000065  -0.017947   0.009247
    2  O  1  S    0.012061   0.027601  -0.012992   0.054163  -0.059439
    3  O  1  X    0.002504   0.002498  -0.023023   0.035652  -0.114350
    4  O  1  Y    0.086744   0.168293  -0.006291   0.038164  -0.005800
    5  O  1  Z   -0.075652  -0.131274  -0.005360   0.030970   0.016279
    6  O  1  S    0.175256   0.314094   0.045415  -0.092843   0.151840
    7  O  1  X    0.044653   0.051403   0.053358  -0.101252   0.071709
    8  O  1  Y    0.186757   0.356871  -0.059075   0.145297  -0.087292
    9  O  1  Z   -0.197855  -0.303635  -0.001652   0.112334   0.063795
   10  H  2  S    0.016069   0.072018   0.336825  -0.553495   0.760969
   11  H  2  S    0.213105   0.488673  -0.443304   0.679967  -0.616403
   12  H  3  S    0.027072   0.003383   0.042463  -0.468086  -0.141008
   13  H  3  S    0.141891   0.180528  -0.005491   0.208596   0.192382
   14  O  4  S   -0.006697  -0.017619  -0.014579  -0.012402   0.012913
   15  O  4  S    0.009878   0.012545   0.042189   0.048260  -0.010772
   16  O  4  X    0.010654  -0.035252  -0.014106  -0.053169  -0.029334
   17  O  4  Y   -0.103141   0.070685  -0.062974  -0.035249  -0.005553
   18  O  4  Z   -0.065681   0.006041   0.022344   0.018804  -0.014579
   19  O  4  S    0.021725   0.162420  -0.006081  -0.088764  -0.073442
   20  O  4  X    0.008093  -0.116303   0.091441   0.044842   0.037053
   21  O  4  Y   -0.212015   0.156067  -0.009849   0.062260   0.072746
   22  O  4  Z   -0.146065  -0.005755   0.199771   0.120285  -0.001748
   23  H  5  S    0.022186   0.019206  -0.558582  -0.246719   0.181060
   24  H  5  S    0.045906   0.086008   0.333225   0.097878  -0.126711
   25  H  6  S    0.033945  -0.071695   0.402752  -0.105356   0.101068
   26  H  6  S    0.373056  -0.511041  -0.502341  -0.034326  -0.136810
   27  O  7  S    0.001675   0.001484   0.004974  -0.004241   0.006796
   28  O  7  S   -0.000795  -0.002169  -0.034302   0.032655  -0.049338
   29  O  7  X   -0.161223  -0.159218  -0.025520   0.007359  -0.008122
   30  O  7  Y    0.107802  -0.213702   0.016110  -0.021017   0.033564
   31  O  7  Z    0.135259   0.000344  -0.017005   0.012950  -0.016040
   32  O  7  S   -0.013139  -0.006369   0.084288  -0.043327   0.102149
   33  O  7  X   -0.329903  -0.334349   0.117342   0.002309   0.011225
   34  O  7  Y    0.218579  -0.443197  -0.084292  -0.045894  -0.056851
   35  O  7  Z    0.254199  -0.000491  -0.002428   0.020052   0.027238
   36  H  8  S   -0.013669   0.007765   0.109409   0.105770   0.030453
   37  H  8  S   -0.006260  -0.015788  -0.022385  -0.062642   0.023255
   38  H  9  S   -0.082804  -0.147124  -0.049568  -0.123340   0.467928
   39  H  9  S   -0.672904  -1.149763   0.157243  -0.047098  -0.329545
   40  O 10  S    0.018686  -0.000141  -0.011410  -0.017627   0.023951
   41  O 10  S   -0.014730   0.000088   0.040369   0.036502  -0.051289
   42  O 10  X    0.228196  -0.016342  -0.004620   0.032174   0.044189
   43  O 10  Y   -0.095975  -0.025731   0.005093   0.045075   0.028314
   44  O 10  Z    0.130820   0.001768   0.089420  -0.002391  -0.035330
   45  O 10  S   -0.167200   0.000731  -0.121675  -0.030315  -0.009518
   46  O 10  X    0.539322  -0.029795   0.034910  -0.024030   0.059920
   47  O 10  Y   -0.224345  -0.046139  -0.031805   0.030310   0.010399
   48  O 10  Z    0.272927   0.004474   0.017228   0.038317  -0.026240
[...]
    2             0.000187   0.000164   0.017419   0.149917   0.016484
    3             0.002135   0.003024   0.004974   0.019412   0.000906
    4             0.095983   0.001637   0.139422   0.096478   0.414078
    5             0.008952   0.000210   0.041429   0.032626   0.074023
    6             0.002766   0.000199   0.005700   0.019446   0.159029
    7             0.021988   0.830138   0.001301   0.001768   0.002041
    8             0.001039   0.054844   0.000001   0.000175   0.000157
    9             0.000152   0.009458   0.001143   0.000429   0.001067
   10             0.002209   0.019529   0.280602   0.049017   0.080719
   11             0.000531   0.000766   0.087834   0.012687   0.030124
   12             0.000897   0.008425   0.000070   0.002576   0.001620
   13             0.750098   0.031436   0.006110   0.014585   0.112536
   14             0.027844   0.008198   0.000673   0.000030   0.001536
   15             0.057468   0.003419   0.001444   0.002617   0.014616
   16             0.001195   0.001384   0.220835   0.384186   0.053618
   17             0.000116   0.000183   0.068851   0.078664   0.001256
   18             0.000126   0.000776   0.102674   0.016319   0.023037

                     16         17         18         19         20

                  1.000000   1.000000   1.000000   1.000000   1.000000

    1             0.004499   0.438294   0.113879   0.097270   0.083407
    2             0.003165   0.001176   0.000688   0.016678   0.004981
    3             0.000189   0.112599   0.027824   0.013134   0.007558
    4             0.094258   0.002290   0.012405   0.121337   0.327588
    5             0.016362   0.000673   0.003308   0.013760   0.054764
    6             0.000478  -0.000014   0.001159   0.008750   0.015770
    7             0.056938   0.094884   0.117362   0.086311   0.019449
    8             0.006792   0.001554   0.033615   0.021799   0.000540
    9             0.000749   0.133071   0.028760   0.004825   0.006735
   10             0.450916   0.002242   0.001685   0.221009   0.081147
   11             0.063429   0.000905   0.000139   0.005862   0.001964
   12             0.136412   0.000132  -0.000109   0.045411   0.001622
   13             0.001712   0.117675   0.423713   0.034454   0.125072
   14             0.000979   0.044799   0.118379   0.000275   0.008903
   15             0.000085   0.029199   0.110837   0.008320   0.011891
   16             0.095227   0.014718   0.005039   0.257743   0.214270
   17             0.013812   0.005374   0.001092   0.040577   0.026653
   18             0.053995   0.000430   0.000225   0.002486   0.007686

                     21         22         23         24         25

                  1.000000   1.000000   1.000000   1.000000   1.000000

    1             0.060974   0.471772   0.023886   0.064939   0.036649
    2             0.000980   0.005825   0.000146   0.004493   0.000780
    3             0.002577   0.061267   0.003469   0.000456   0.000052
    4             0.288287   0.006550   0.199053   0.074821   0.361889
    5             0.012836   0.000131   0.003781   0.000108   0.003608
    6             0.002201   0.000250   0.004531   0.000702   0.003919
    7             0.030935   0.124074   0.094448   0.113300   0.077308
    8             0.000036   0.027574   0.013231   0.028792   0.020548
    9             0.006084   0.016627   0.000960   0.000881   0.000828
   10             0.310154   0.022305   0.014021   0.299769   0.223634
   11             0.010593   0.000050   0.000235   0.000204   0.004677
   12             0.010410   0.001824   0.001047   0.001492   0.000186
   13             0.043934   0.011022   0.526083   0.054543   0.037902
   14             0.005162   0.000219   0.021531   0.001467   0.000339
   15             0.000918   0.003169   0.070836   0.000230   0.000003
   16             0.195316   0.240458   0.022679   0.346575   0.223875
   17             0.009797   0.006637   0.000072   0.003865   0.001438
   18             0.008806   0.000245  -0.000010   0.003360   0.002366

                     26         27         28         29         30

                  1.000000   1.000000   1.000000   1.000000   1.000000

    1             0.094326   0.714933   0.008290   0.037877   0.120946
    2             0.000497   0.002926   0.000027   0.000199   0.001016
    3             0.000237   0.001546   0.000043   0.000079   0.002721
    4             0.159347   0.007952   0.204127   0.008639   0.004350
    5             0.000579   0.000261   0.001927   0.000003  -0.000001
    6             0.000115   0.000078   0.004611   0.000256   0.001048
    7             0.215233   0.030300   0.009706   0.749145   0.689859
    8             0.060966   0.007620   0.000186   0.000003  -0.000001
    9             0.001876   0.002863   0.000053   0.004488   0.011629
   10             0.349502   0.015994   0.017630   0.129945   0.002449
   11             0.002129   0.000135   0.001771   0.000931   0.000116
   12             0.002372   0.000558   0.000804   0.022091   0.000022
   13             0.076436   0.015751   0.735769   0.034557   0.150593
   14             0.002370   0.000069   0.002778   0.003358   0.009840
   15             0.000016   0.000065   0.001457   0.000124   0.001598
   16             0.032023   0.195981   0.010614   0.007277   0.003698
   17             0.000105   0.001748   0.000007   0.000000   0.000008
   18             0.001872   0.001222   0.000200   0.001027   0.000109

     ATOMIC SPIN POPULATION (ALPHA MINUS BETA)
       ATOM         MULL.POP.                    LOW.POP.
    1 O             0.002464                     0.034123
    2 H             0.014807                     0.009596
    3 H             0.072584                     0.054212
    4 O            -0.000273                     0.011906
    5 H             0.025000                     0.018542
    6 H             0.018668                     0.012408
    7 O            -0.015689                     0.133634
    8 H             0.527077                     0.407056
    9 H             0.059985                     0.039700
   10 O             0.005612                     0.021659
   11 H             0.015775                     0.009553
   12 H             0.045713                     0.030271
   13 O             0.002940                     0.048671
   14 H             0.077931                     0.050510
   15 H             0.114006                     0.086012
   16 O            -0.000551                     0.009157
   17 H             0.018526                     0.013731
   18 H             0.015424                     0.009259


          ********* ALL ELECTRONS ********

               ----- POPULATIONS IN EACH AO -----
                             MULLIKEN      LOWDIN
              1  O  1  S      1.98586     1.98021
              2  O  1  S      0.40883     0.57974
              3  O  1  X      0.79377     0.80826
              4  O  1  Y      0.71230     0.71603
              5  O  1  Z      0.58836     0.57139
              6  O  1  S      1.49133     1.08266
              7  O  1  X      1.07754     1.05593
              8  O  1  Y      0.98247     0.97384
              9  O  1  Z      0.79581     0.81523
             10  H  2  S      0.29316     0.31672
             11  H  2  S      0.25798     0.39373
             12  H  3  S      0.41182     0.43158
             13  H  3  S      0.31859     0.39647
             14  O  4  S      1.98567     1.97996
             15  O  4  S      0.40821     0.57278
             16  O  4  X      0.77129     0.78221
             17  O  4  Y      0.71318     0.71463
             18  O  4  Z      0.61351     0.59984
             19  O  4  S      1.49354     1.07344
             20  O  4  X      1.04211     1.01415
             21  O  4  Y      0.96516     0.95912
             22  O  4  Z      0.83794     0.85826
             23  H  5  S      0.41438     0.43203
             24  H  5  S      0.26993     0.36116
             25  H  6  S      0.29536     0.31913
             26  H  6  S      0.26120     0.39587
             27  O  7  S      1.98692     1.98179
             28  O  7  S      0.41713     0.62247
             29  O  7  X      0.69555     0.69969
             30  O  7  Y      0.71030     0.71718
             31  O  7  Z      0.64582     0.64191
             32  O  7  S      1.46970     1.13706
             33  O  7  X      0.98137     0.98754
             34  O  7  Y      1.00717     1.00938
             35  O  7  Z      0.88910     0.90853
             36  H  8  S      0.37379     0.41148
             37  H  8  S      0.71696     0.70639
             38  H  9  S      0.28592     0.31180
             39  H  9  S      0.30369     0.42539
             40  O 10  S      1.98574     1.97937
             41  O 10  S      0.40063     0.56749
             42  O 10  X      0.68401     0.68396
             43  O 10  Y      0.67050     0.66883
             44  O 10  Z      0.76702     0.77765
             45  O 10  S      1.49583     1.04083
             46  O 10  X      0.93857     0.91522
             47  O 10  Y      0.92469     0.90384
             48  O 10  Z      1.05603     1.03361
             49  H 11  S      0.29667     0.31866
             50  H 11  S      0.25130     0.38576
             51  H 12  S      0.28846     0.31467
             52  H 12  S      0.29576     0.41163
             53  O 13  S      1.98597     1.98037
             54  O 13  S      0.40971     0.58428
             55  O 13  X      0.72522     0.72975
             56  O 13  Y      0.60538     0.59220
             57  O 13  Z      0.76057     0.77086
             58  O 13  S      1.48948     1.08862
             59  O 13  X      0.99591     0.99060
             60  O 13  Y      0.81943     0.83168
             61  O 13  Z      1.04126     1.02656
             62  H 14  S      0.28793     0.31407
             63  H 14  S      0.32014     0.43519
             64  H 15  S      0.40877     0.43011
             65  H 15  S      0.35794     0.42609
             66  O 16  S      1.98566     1.97994
             67  O 16  S      0.40783     0.57205
             68  O 16  X      0.71308     0.71592
             69  O 16  Y      0.60699     0.59318
             70  O 16  Z      0.77787     0.78792
             71  O 16  S      1.49422     1.07378
             72  O 16  X      0.98402     0.97110
             73  O 16  Y      0.81297     0.82461
             74  O 16  Z      1.05050     1.03841
             75  H 17  S      0.41462     0.43225
             76  H 17  S      0.26320     0.35609
             77  H 18  S      0.29797     0.32006
             78  H 18  S      0.25545     0.38779

          ----- MULLIKEN ATOMIC OVERLAP POPULATIONS -----
          (OFF-DIAGONAL ELEMENTS NEED TO BE MULTIPLIED BY 2)

             1           2           3           4           5

    1    8.5565862
    2    0.1088081   0.3152299
    3    0.1612064  -0.0026182   0.5566280
    4    0.0000001  -0.0000084  -0.0000023   8.4467674
    5   -0.0000022   0.0000347   0.0000176   0.2184796   0.4772199
    6   -0.0000094   0.0000211   0.0000393   0.1426200  -0.0124007
    7   -0.0368114   0.0004285   0.0002154  -0.0001105   0.0000164
    8   -0.0039832   0.0009853   0.0039411  -0.0000535   0.0000432
    9    0.0865771  -0.0021729   0.0066909  -0.0000275   0.0000415
   10   -0.0000787   0.0013918  -0.0000960  -0.0349021   0.0011991
   11   -0.0000463   0.0002461   0.0000541   0.0922165  -0.0045204
   12   -0.0002123   0.0022669   0.0008737   0.0000989   0.0006534
   13   -0.0000022  -0.0000019  -0.0000252  -0.0351831   0.0009198
   14   -0.0006018   0.0002210   0.0015995   0.0001747   0.0009271
   15   -0.0000045   0.0000033   0.0000365   0.0002402   0.0009043
   16   -0.0364855   0.1462101   0.0006927  -0.0000041  -0.0000016
   17    0.0011487  -0.0145135   0.0005843  -0.0000008   0.0000096
   18    0.0001680  -0.0053916   0.0005689   0.0002967   0.0007646

             6           7           8           9          10

    6    0.3194807
    7    0.0003263   9.0434016
    8    0.0009757  -0.3868759   1.3476468
    9    0.0001994   0.0878260   0.0408069   0.3574904
   10    0.0012978  -0.0351614  -0.0033282  -0.0003303   8.5975844
   11   -0.0051033   0.0004460   0.0013826   0.0004184   0.1650621
   12    0.0024386   0.0931407   0.0352851   0.0024255   0.0998538
   13    0.1064206  -0.0341411  -0.0063146  -0.0002036  -0.0000800
   14   -0.0005044   0.0722815   0.0488867   0.0059112  -0.0006474
   15    0.0004893  -0.0023833   0.0098969   0.0003443  -0.0001263
   16   -0.0000012  -0.0001147  -0.0000720   0.0004875  -0.0355805
   17    0.0000020  -0.0000064   0.0000779   0.0006542   0.0012775
   18    0.0002752   0.0005868   0.0014455   0.0024777   0.1656883

            11          12          13          14          15

   11    0.3056920
   12   -0.0060917   0.3540502
   13    0.0000643  -0.0004323   8.6165894
   14    0.0026798   0.0040535   0.0745971   0.3780400
   15    0.0007785   0.0014562   0.1107475   0.0198990   0.6244088
   16    0.0001268   0.0003393  -0.0000000  -0.0000185  -0.0000000
   17    0.0001479   0.0006569  -0.0000000   0.0000092   0.0000001
   18   -0.0055881  -0.0066305  -0.0000345   0.0005608   0.0000268

            16          17          18

   16    8.4405020
   17    0.2264290   0.4663658
   18    0.0906250  -0.0050281   0.3126119

          TOTAL MULLIKEN AND LOWDIN ATOMIC POPULATIONS
       ATOM         MULL.POP.    CHARGE          LOW.POP.     CHARGE
    1 O             8.836257   -0.836257         8.583294   -0.583294
    2 H             0.551140    0.448860         0.710457    0.289543
    3 H             0.730407    0.269593         0.828049    0.171951
    4 O             8.830602   -0.830602         8.554396   -0.554396
    5 H             0.684306    0.315694         0.793191    0.206809
    6 H             0.556567    0.443433         0.715005    0.284995
    7 O             8.803065   -0.803065         8.705568   -0.705568
    8 H             1.090746   -0.090746         1.117870   -0.117870
    9 H             0.589617    0.410383         0.737190    0.262810
   10 O             8.923024   -0.923024         8.570804   -0.570804
   11 H             0.547965    0.452035         0.704416    0.295584
   12 H             0.584226    0.415774         0.726292    0.273708
   13 O             8.832920   -0.832920         8.594917   -0.594917
   14 H             0.608069    0.391931         0.749259    0.250741
   15 H             0.766717    0.233283         0.856204    0.143796
   16 O             8.833134   -0.833134         8.556904   -0.556904
   17 H             0.677814    0.322186         0.788338    0.211662
   18 H             0.553423    0.446577         0.707847    0.292153

          -------------------------------
          BOND ORDER AND VALENCE ANALYSIS     BOND ORDER THRESHOLD=0.050
          -------------------------------

                   BOND                       BOND                       BOND
  ATOM PAIR DIST  ORDER      ATOM PAIR DIST  ORDER      ATOM PAIR DIST  ORDER
    1   2  1.405  0.291        1   3  0.991  0.815        1   9  1.094  0.428
    2  16  1.094  0.485        3   8  3.624  0.055        4   5  0.991  0.837
    4   6  1.087  0.488        4  11  1.407  0.242        6  13  1.421  0.291
    7   8  0.991  0.508        7   9  1.403  0.345        7  12  1.440  0.335
    7  14  1.410  0.330        8  15  3.333  0.093       10  11  1.094  0.532
   10  12  1.079  0.447       10  18  1.096  0.536       13  14  1.092  0.441
   13  15  0.992  0.790       16  17  0.991  0.840       16  18  1.400  0.241

                       TOTAL       BONDED        FREE
      ATOM            VALENCE     VALENCE     VALENCE
    1 O                 1.625       1.623       0.001
    2 H                 0.802       0.801       0.000
    3 H                 0.932       0.926       0.005
    4 O                 1.648       1.648       0.000
    5 H                 0.884       0.883       0.001
    6 H                 0.809       0.809       0.000
    7 O                 1.686       1.670       0.015
    8 H                 1.152       0.873       0.279
    9 H                 0.845       0.841       0.004
   10 O                 1.640       1.640       0.000
   11 H                 0.799       0.799       0.000
   12 H                 0.846       0.844       0.002
   13 O                 1.618       1.615       0.003
   14 H                 0.865       0.858       0.006
   15 H                 0.968       0.955       0.013
   16 O                 1.648       1.647       0.000
   17 H                 0.877       0.876       0.000
   18 H                 0.803       0.803       0.000

          -----------------------------------------
          ATOMIC SPIN DENSITY AT THE NUCLEUS (A.U.)
          -----------------------------------------
                            SPIN DENS    ALPHA DENS     BETA DENS
    1  O            8.0     0.2131463     116.83554     116.62240
    2  H            1.0     0.0002981       0.11441       0.11411
    3  H            1.0     0.0018310       0.16802       0.16619
    4  O            8.0     0.0826007     116.72221     116.63961
    5  H            1.0     0.0007078       0.16826       0.16755
    6  H            1.0     0.0004101       0.11558       0.11517
    7  O            8.0     0.9687429     117.49831     116.52957
    8  H            1.0     0.0151543       0.16071       0.14556
    9  H            1.0     0.0031081       0.11328       0.11017
   10  O            8.0     0.1156785     116.70315     116.58747
   11  H            1.0     0.0002847       0.11597       0.11568
   12  H            1.0     0.0012113       0.11389       0.11268
   13  O            8.0     0.2990300     116.90895     116.60992
   14  H            1.0     0.0042024       0.11490       0.11070
   15  H            1.0     0.0025621       0.16727       0.16471
   16  O            8.0     0.0666100     116.70987     116.64326
   17  H            1.0     0.0006109       0.16831       0.16770
   18  H            1.0     0.0002282       0.11651       0.11628

          ---------------------
          ELECTROSTATIC MOMENTS
          ---------------------

 POINT   1           X           Y           Z (BOHR)    CHARGE
                 1.498521    4.672067    0.075606       -1.00 (A.U.)
         DX          DY          DZ         /D/  (DEBYE)
     2.383642   -2.956531    3.304073    5.033858
 ...... END OF PROPERTY EVALUATION ......
 CPU     0: STEP CPU TIME=     0.04 TOTAL CPU TIME=          1.7 (      0.0 MIN)
 TOTAL WALL CLOCK TIME=          2.9 SECONDS, CPU UTILIZATION IS    59.17%
               580000  WORDS OF DYNAMIC MEMORY USED
 EXECUTION OF GAMESS TERMINATED NORMALLY Sun May 24 20:34:58 2020
 DDI: 263640 bytes (0.3 MB / 0 MWords) used by master data server.
Note: The following floating-point exceptions are signalling:Note: The following floating-point exceptions are signalling:Note: The following floating-point exceptions are signalling: IEEE_DENORMAL
Note: The following floating-point exceptions are signalling:
 ----------------------------------------
 CPU timing information for all processes
 ========================================
 0: 1.539 + 0.180 = 1.720
 1: 1.545 + 0.20 = 1.565
 2: 1.434 + 0.15 = 1.450
 3: 1.492 + 0.20 = 1.512
 4: 1.494 + 0.23 = 1.518
 5: 1.479 + 0.40 = 1.519
 ----------------------------------------
 IEEE_DENORMAL
 IEEE_DENORMAL
 IEEE_DENORMALNote: The following floating-point exceptions are signalling: IEEE_DENORMALNote: The following floating-point exceptions are signalling: IEEE_DENORMAL


 ddikick.x: exited gracefully.
unset echo
----- accounting info -----
Files used on the master node pietdev were:
-rwxr-xr-x 1 piet piet     1134 mei 24 20:34 /home/piet/scr/6H2O_fukui_acid.F05*
-rw-r--r-- 1 piet piet 68812800 mei 24 20:35 /home/piet/scr/6H2O_fukui_acid.F10
ls: No match.
ls: No match.
ls: No match.
zo 24 mei 2020 20:35:01 CEST
0.103u 0.027s 0:06.03 1.9%	0+0k 0+8io 0pf+0w
