----- GAMESS execution script 'rungms' -----
This job is running on host pietdev
under operating system Linux at ma 25 mei 2020 19:21:27 CEST
Available scratch disk space (Kbyte units) at beginning of the job is
Filesystem     1K-blocks     Used Available Use% Mounted on
/dev/sda2      244568380 31071524 201003800  14% /
GAMESS temporary binary files will be written to /home/piet/scr
GAMESS supplementary output files will be written to /home/piet/gamess/scr
Copying input file methyl_eugenol_fukui_acid.inp to your run's scratch directory...
cp methyl_eugenol_fukui_acid.inp /home/piet/scr/methyl_eugenol_fukui_acid.F05
unset echo
 
Assuming a single but multicore node.
 
/home/piet/gamess/ddikick.x /home/piet/gamess/gamess.03.x methyl_eugenol_fukui_acid -ddi 1 6 pietdev:cpus=6 -scr /home/piet/scr

 Distributed Data Interface kickoff program.
 Initiating 6 compute processes on 1 nodes to run the following command:
 /home/piet/gamess/gamess.03.x methyl_eugenol_fukui_acid 

          ******************************************************
          *         GAMESS VERSION = 30 SEP 2019 (R2)          *
          *             FROM IOWA STATE UNIVERSITY             *
          * M.W.SCHMIDT, K.K.BALDRIDGE, J.A.BOATZ, S.T.ELBERT, *
          *   M.S.GORDON, J.H.JENSEN, S.KOSEKI, N.MATSUNAGA,   *
          *          K.A.NGUYEN, S.J.SU, T.L.WINDUS,           *
          *       TOGETHER WITH M.DUPUIS, J.A.MONTGOMERY       *
          *         J.COMPUT.CHEM.  14, 1347-1363(1993)        *
          **************** 64 BIT LINUX VERSION ****************

  SINCE 1993, STUDENTS AND POSTDOCS WORKING AT IOWA STATE UNIVERSITY
  AND ALSO IN THEIR VARIOUS JOBS AFTER LEAVING ISU HAVE MADE IMPORTANT
  CONTRIBUTIONS TO THE CODE:
     IVANA ADAMOVIC, CHRISTINE AIKENS, YURI ALEXEEV, POOJA ARORA,
     ANDREY ASADCHEV, ROB BELL, PRADIPTA BANDYOPADHYAY, JONATHAN BENTZ,
     COLLEEN BERTONI, BRETT BODE, KURT BRORSEN, CALEB CARLIN, GALINA CHABAN,
     WEI CHEN, CHEOL HO CHOI, PAUL DAY, ALBERT DEFUSCO, NUWAN DESILVA,
     TIM DUDLEY, DMITRI FEDOROV, ALEX FINDLATER, GRAHAM FLETCHER, 
     MARK FREITAG, KURT GLAESEMANN, EMILIE B GUIDEZ, ANASTASIA GUNINA, 
     DAN KEMP, SAROM SOK LEANG, GRANT MERRILL,
     NORIYUKI MINEZAWA, JONATHAN MULLIN,
     TAKESHI NAGATA, SEAN NEDD, HEATHER NETZLOFF, BOSILJKA NJEGIC, RYAN OLSON,
     MIKE PAK, BUU PHAM, DAVID POOLE,
     SPENCER PRUITT, LUKE ROSKOP, TOSAPORN SATTASATHUCHANA,
     JIM SHOEMAKER, LYUDMILA SLIPCHENKO,
     TONY SMITH, JIE SONG, TETSUYA TAKETSUGU, SIMON WEBB,
     JORGE LUIS GALVEZ VALLEJO, PENG XU, SOOHAENG YOO,
     FEDERICO ZAHARIEV

  ADDITIONAL CODE HAS BEEN PROVIDED BY COLLABORATORS IN OTHER GROUPS:
     IOWA STATE UNIVERSITY:
          JOE IVANIC, AARON WEST, LAIMUTIS BYTAUTAS, KLAUS RUEDENBERG
     UNIVERSITY OF TOKYO: KIMIHIKO HIRAO, TAKAHITO NAKAJIMA,
          TAKAO TSUNEDA, MUNEAKI KAMIYA, SUSUMU YANAGISAWA,
          KIYOSHI YAGI, MAHITO CHIBA, SEIKEN TOKURA, NAOAKI KAWAKAMI
     UNIVERSITY OF AARHUS: FRANK JENSEN
     UNIVERSITY OF IOWA: VISVALDAS KAIRYS, HUI LI
     NATIONAL INST. OF STANDARDS AND TECHNOLOGY: WALT STEVENS, DAVID GARMER
     UNIVERSITY OF PISA: BENEDETTA MENNUCCI, JACOPO TOMASI
     UNIVERSITY OF MEMPHIS: HENRY KURTZ, PRAKASHAN KORAMBATH
     UNIVERSITY OF ALBERTA: TOBY ZENG, MARIUSZ KLOBUKOWSKI
     UNIVERSITY OF NEW ENGLAND: MARK SPACKMAN
     MIE UNIVERSITY: HIROAKI UMEDA
     NAT. INST. OF ADVANCED INDUSTRIAL SCIENCE AND TECHNOLOGY: KAZUO KITAURA
     MICHIGAN STATE UNIVERSITY:
          KAROL KOWALSKI, MARTA WLOCH, JEFFREY GOUR, JESSE LUTZ,
          WEI LI, JUN SHEN, J. EMILIANO DEUSTUA, PIOTR PIECUCH
     UNIVERSITY OF MINNESOTA:
          ANDREW SAND, PRACHI SHARMA, YINAN SHU
     UNIVERSITY OF SILESIA: MONIKA MUSIAL, STANISLAW KUCHARSKI
     FACULTES UNIVERSITAIRES NOTRE-DAME DE LA PAIX:
          OLIVIER QUINET, BENOIT CHAMPAGNE
     UNIVERSITY OF CALIFORNIA - SANTA BARBARA: BERNARD KIRTMAN
     INSTITUTE FOR MOLECULAR SCIENCE:
          KAZUYA ISHIMURA, MICHIO KATOUDA, AND SHIGERU NAGASE
     UNIVERSITY OF NOTRE DAME: ANNA POMOGAEVA, DAN CHIPMAN
     KYUSHU UNIVERSITY:
          HARUYUKI NAKANO,
          FENG LONG GU, JACEK KORCHOWIEC, MARCIN MAKOWSKI, AND YURIKO AOKI,
          HIROTOSHI MORI AND EISAKU MIYOSHI
     PENNSYLVANIA STATE UNIVERSITY:
          TZVETELIN IORDANOV, CHET SWALINA, JONATHAN SKONE,
          SHARON HAMMES-SCHIFFER
     WASEDA UNIVERSITY:
          MASATO KOBAYASHI, TOMOKO AKAMA, TSUGUKI TOUMA,
          TAKESHI YOSHIKAWA, YASUHIRO IKABATA, JUNJI SEINO,
          YUYA NAKAJIMA, HIROMI NAKAI
     NANJING UNIVERSITY: SHUHUA LI
     UNIVERSITY OF NEBRASKA:
          PEIFENG SU, DEJUN SI, NANDUN THELLAMUREGE, YALI WANG, HUI LI
     UNIVERSITY OF ZURICH: ROBERTO PEVERATI, KIM BALDRIDGE
     N. COPERNICUS UNIVERSITY AND JACKSON STATE UNIVERSITY:
          MARIA BARYSZ
     UNIVERSITY OF COPENHAGEN: Jimmy Kromann, CASPER STEINMANN
     TOKYO INSTITUTE OF TECHNOLOGY: HIROYA NAKATA
     NAGOYA UNIVERSITY: YOSHIO NISHIMOTO, STEPHAN IRLE
     MOSCOW STATE UNIVERSITY: VLADIMIR MIRONOV
     A.N.NESMEYANOV INSTITUTE OF ORGANOELEMENT COMPOUNDS OF RUSSIAN ACADEMY OF SCIENCES:
          IGOR S. GERASIMOV
     JOHANNES KEPLER UNIVERSITY LINZ:
          CHRISTIAN FRIEDL


 PARALLEL VERSION RUNNING ON        6 PROCESSORS IN        1 NODES.

 EXECUTION OF GAMESS BEGUN Mon May 25 19:21:27 2020

            ECHO OF THE FIRST FEW INPUT CARDS -
 INPUT CARD> $BASIS GBASIS=N21 NGAUSS=3 $END                                                
 INPUT CARD> $CONTRL SCFTYP=UHF MAXIT=60 MULT=2 ICHARG=-1 $END                              
 INPUT CARD> $SYSTEM MEMDDI=1000 MWORDS=30 $END                                             
 INPUT CARD> $SCF DIRSCF=.TRUE. $END                                                        
 INPUT CARD> $STATPT OPTTOL=0.0001 NSTEP=999 $END                                           
 INPUT CARD> $DATA                                                                          
 INPUT CARD>                                                                                
 INPUT CARD>C1                                                                              
 INPUT CARD>C 6.0000000 3.29336 2.00983 0.29195                                             
 INPUT CARD>O 8.0000000 2.78561 0.68900 0.16544                                             
 INPUT CARD>C 6.0000000 1.43765 0.53055 0.01424                                             
 INPUT CARD>C 6.0000000 0.98049 -0.80562 -0.10716                                           
 INPUT CARD>C 6.0000000 -0.38369 -1.05403 -0.26645                                          
 INPUT CARD>C 6.0000000 -1.32150 -0.00621 -0.30987                                          
 INPUT CARD>C 6.0000000 -0.85991 1.30265 -0.18318                                           
 INPUT CARD>C 6.0000000 0.50773 1.56949 -0.02516                                            
 INPUT CARD>C 6.0000000 -2.80260 -0.30459 -0.49960                                          
 INPUT CARD>C 6.0000000 -3.67457 0.24338 0.60328                                            
 INPUT CARD>C 6.0000000 -4.70749 1.07311 0.42616                                            
 INPUT CARD>O 8.0000000 1.94581 -1.76934 -0.05561                                           
 INPUT CARD>C 6.0000000 1.54866 -3.12944 -0.15487                                           
 INPUT CARD>H 1.0000000 4.37438 1.90328 0.39511                                             
 INPUT CARD>H 1.0000000 3.06975 2.61214 -0.59840                                            
 INPUT CARD>H 1.0000000 2.88987 2.51075 1.18178                                             
 INPUT CARD>H 1.0000000 -0.73551 -2.07549 -0.36316                                          
 INPUT CARD>H 1.0000000 -1.56328 2.13044 -0.20230                                           
 INPUT CARD>H 1.0000000 0.83701 2.59780 0.06961                                             
 INPUT CARD>H 1.0000000 -3.14780 0.09594 -1.46218                                           
 INPUT CARD>H 1.0000000 -2.93573 -1.39401 -0.55101                                          
 INPUT CARD>H 1.0000000 -3.41583 -0.07767 1.61314                                           
 INPUT CARD>H 1.0000000 -5.30275 1.42772 1.26293                                            
 INPUT CARD>H 1.0000000 -4.99346 1.42358 -0.56373                                           
 INPUT CARD>H 1.0000000 0.87143 -3.41129 0.66227                                            
 INPUT CARD>H 1.0000000 1.06456 -3.33872 -1.11782                                           
 INPUT CARD>H 1.0000000 2.46857 -3.71127 -0.07839                                           
 INPUT CARD> $END                                                                           
   30000000 WORDS OF MEMORY AVAILABLE

     BASIS OPTIONS
     -------------
     GBASIS=N21          IGAUSS=       3      POLAR=NONE    
     NDFUNC=       0     NFFUNC=       0     DIFFSP=       F
     NPFUNC=       0      DIFFS=       F     BASNAM=        


     RUN TITLE
     ---------
                                                                                 

 THE POINT GROUP OF THE MOLECULE IS C1      
 THE ORDER OF THE PRINCIPAL AXIS IS     0

 ATOM      ATOMIC                      COORDINATES (BOHR)
           CHARGE         X                   Y                   Z
 C           6.0     6.2235479789        3.7980279819        0.5517055021
 O           8.0     5.2640396087        1.3020212055        0.3126362674
 C           6.0     2.7167645662        1.0025941228        0.0269096981
 C           6.0     1.8528574337       -1.5224010502       -0.2025030368
 C           6.0    -0.7250689642       -1.9918278828       -0.5035174894
 C           6.0    -2.4972728928       -0.0117351984       -0.5855693918
 C           6.0    -1.6249942741        2.4616515579       -0.3461600064
 C           6.0     0.9594705757        2.9659060405       -0.0475455059
 C           6.0    -5.2961460532       -0.5755916386       -0.9441071035
 C           6.0    -6.9439304227        0.4599215109        1.1400338939
 C           6.0    -8.8958661899        2.0278838547        0.8053256269
 O           8.0     3.6770477242       -3.3435677791       -0.1050876622
 C           6.0     2.9265430481       -5.9137840950       -0.2926618637
 H           1.0     8.2663795662        3.5966776779        0.7466496350
 H           1.0     5.8009863508        4.9362288416       -1.1308120311
 H           1.0     5.4610624401        4.7446295237        2.2332403778
 H           1.0    -1.3899123612       -3.9221073903       -0.6862728897
 H           1.0    -2.9541708421        4.0259478333       -0.3822915673
 H           1.0     1.5817195490        4.9091301709        0.1315438260
 H           1.0    -5.9484794642        0.1813003113       -2.7631195447
 H           1.0    -5.5477252739       -2.6342969241       -1.0412579165
 H           1.0    -6.4549827206       -0.1467750175        3.0483925798
 H           1.0   -10.0207444814        2.6979995872        2.3865916417
 H           1.0    -9.4362711306        2.6901761216       -1.0652952311
 H           1.0     1.6467639175       -6.4464033647        1.2515088299
 H           1.0     2.0117266975       -6.3092659497       -2.1123735036
 H           1.0     4.6649208815       -7.0132833665       -0.1481356202

          INTERNUCLEAR DISTANCES (ANGS.)
          ------------------------------

                1 C          2 O          3 C          4 C          5 C     

   1 C       0.0000000    1.4207064 *  2.3893622 *  3.6654352    4.8186871  
   2 O       1.4207064 *  0.0000000    1.3656368 *  2.3593766 *  3.6426838  
   3 C       2.3893622 *  1.3656368 *  0.0000000    1.4174214 *  2.4304238 *
   4 C       3.6654352    2.3593766 *  1.4174214 *  0.0000000    1.3957320 *
   5 C       4.8186871    3.6426838    2.4304238 *  1.3957320 *  0.0000000  
   6 C       5.0718377    4.1925635    2.8294995 *  2.4452619 *  1.4068758 *
   7 C       4.2397528    3.7132086    2.4318501 *  2.7995810 *  2.4057556 *
   8 C       2.8379909 *  2.4495568 *  1.3948835 *  2.4230917 *  2.7813140 *
   9 C       6.5683955    5.7146820    4.3521501    3.8362495    2.5430582 *
  10 C       7.1950900    6.4903164    5.1540497    4.8243870    3.6427454  
  11 C       8.0566158    7.5074672    6.1827821    6.0139150    4.8682317  
  12 O       4.0272590    2.6072136 *  2.3563955 *  1.3650115 *  2.4459542 *
  13 C       5.4457068    4.0265528    3.6655761    2.3927459 *  2.8379135 *
  14 H       1.0911458 *  2.0128125 *  3.2640209    4.3713732    5.6411501  
  15 H       1.0979535 *  2.0886969 *  2.7151602 *  4.0357660    5.0474985  
  16 H       1.0979629 *  2.0886815 *  2.7190595 *  4.0379956    5.0518533  
  17 H       5.7750153    4.5077832    3.4141616    2.1500609 *  1.0846708 *
  18 H       4.8832143    4.5962840    3.4076559    3.8859060    3.3965272  
  19 H       2.5355077 *  2.7294217 *  2.1534523 *  3.4110265    3.8650882  
  20 H       6.9446734    6.1811181    4.8368433    4.4375295    3.2237409  
  21 H       7.1483054    6.1307392    4.8114334    3.9849698    2.5902643 *
  22 H       7.1495755    6.4141622    5.1461326    4.7767115    3.6986498  
  23 H       8.6703380    8.1958379    6.9135471    6.8076471    5.7179750  
  24 H       8.3514827    7.8476255    6.5184912    6.3926417    5.2418419  
  25 H       5.9490692    4.5522855    4.0346810    2.7190868 *  2.8274585 *
  26 H       5.9633873    4.5641317    4.0487043    2.7285705 *  2.8358539 *
  27 H       5.7920994    4.4184096    4.3662814    3.2646610    3.9027783  

                6 C          7 C          8 C          9 C         10 C     

   1 C       5.0718377    4.2397528    2.8379909 *  6.5683955    7.1950900  
   2 O       4.1925635    3.7132086    2.4495568 *  5.7146820    6.4903164  
   3 C       2.8294995 *  2.4318501 *  1.3948835 *  4.3521501    5.1540497  
   4 C       2.4452619 *  2.7995810 *  2.4230917 *  3.8362495    4.8243870  
   5 C       1.4068758 *  2.4057556 *  2.7813140 *  2.5430582 *  3.6427454  
   6 C       0.0000000    1.3936392 *  2.4310435 *  1.5227230 *  2.5363510 *
   7 C       1.3936392 *  0.0000000    1.4023598 *  2.5411388 *  3.1085178  
   8 C       2.4310435 *  1.4023598 *  0.0000000    3.8334780    4.4322836  
   9 C       1.5227230 *  2.5411388 *  3.8334780    0.0000000    1.5089556 *
  10 C       2.5363510 *  3.1085178    4.4322836    1.5089556 *  0.0000000  
  11 C       3.6292699    3.9022885    5.2581938    2.5265975 *  1.3366926 *
  12 O       3.7213694    4.1623865    3.6354899    4.9889896    6.0061509  
  13 C       4.2445741    5.0443466    4.8145927    5.1992384    6.2636122  
  14 H       6.0486526    5.3002799    3.9037194    7.5620260    8.2209609  
  15 H       5.1207502    4.1628595    2.8248309 *  6.5575582    7.2485110  
  16 H       5.1279377    4.1693490    2.8314776 *  6.5694286    6.9690388  
  17 H       2.1513121 *  3.3852176    3.8659758    2.7253557 *  3.8664245  
  18 H       2.1529752 *  1.0864305 *  2.1529343 *  2.7483945 *  2.9440618 *
  19 H       3.4035332    2.1496171 *  1.0838949 *  4.6898431    5.1168791  
  20 H       2.1618568 *  2.8855555 *  4.1951491    1.0982475 *  2.1366680 *
  21 H       2.1423996 *  3.4229085    4.5734306    1.0987277 *  2.1352555 *
  22 H       2.8441681 *  3.4153735    4.5597682    2.2116089 *  1.0907964 *
  23 H       4.5144442    4.6739388    5.9532304    3.5154175    2.1186716 *
  24 H       3.9486750    4.1527916    5.5294158    2.7911560 *  2.1199659 *
  25 H       4.1651612    5.0924998    5.0411315    4.9497498    5.8331988  
  26 H       4.1775218    5.1107193    5.0590998    4.9540960    6.1848993  
  27 H       5.3052505    6.0190659    5.6333075    6.2903195    7.3377176  

               11 C         12 O         13 C         14 H         15 H     

   1 C       8.0566158    4.0272590    5.4457068    1.0911458 *  1.0979535 *
   2 O       7.5074672    2.6072136 *  4.0265528    2.0128125 *  2.0886969 *
   3 C       6.1827821    2.3563955 *  3.6655761    3.2640209    2.7151602 *
   4 C       6.0139150    1.3650115 *  2.3927459 *  4.3713732    4.0357660  
   5 C       4.8682317    2.4459542 *  2.8379135 *  5.6411501    5.0474985  
   6 C       3.6292699    3.7213694    4.2445741    6.0486526    5.1207502  
   7 C       3.9022885    4.1623865    5.0443466    5.3002799    4.1628595  
   8 C       5.2581938    3.6354899    4.8145927    3.9037194    2.8248309 *
   9 C       2.5265975 *  4.9889896    5.1992384    7.5620260    6.5575582  
  10 C       1.3366926 *  6.0061509    6.2636122    8.2209609    7.2485110  
  11 C       0.0000000    7.2510706    7.5589970    9.1197867    7.9939851  
  12 O       7.2510706    0.0000000    1.4203706 *  4.4259732    4.5557907  
  13 C       7.5589970    1.4203706 *  0.0000000    5.7978826    5.9561879  
  14 H       9.1197867    4.4259732    5.7978826    0.0000000    1.7865061 *
  15 H       7.9939851    4.5557907    5.9561879    1.7865061 *  0.0000000  
  16 H       7.7690186    4.5542896    5.9495563    1.7865160 *  1.7921154 *
  17 H       5.1296523    2.7162091 *  2.5242084 *  6.5204724    6.0422857  
  18 H       3.3762354    5.2481916    6.1116903    5.9719600    4.6748152  
  19 H       5.7613616    4.5074415    5.7756484    3.6195711    2.3305731 *
  20 H       2.6369153 *  5.6037997    5.8454146    7.9560792    6.7627884  
  21 H       3.1907171    4.9209477    4.8247692    8.0749596    7.2192294  
  22 H       2.0979994 *  5.8646106    6.0897718    8.1298913    7.3612998  
  23 H       1.0864008 *  8.0312740    8.3498313    9.7275955    8.6582999  
  24 H       1.0883429 *  7.6554812    7.9810082    9.4289932    8.1504130  
  25 H       7.1616995    2.0894123 *  1.0980882 *  6.3707682    6.5347998  
  26 H       7.4272929    2.0899390 *  1.0979179 *  6.3814128    6.3010570  
  27 H       8.6394849    2.0111910 *  1.0911507 *  5.9480657    6.3731736  

               16 H         17 H         18 H         19 H         20 H     

   1 C       1.0979629 *  5.7750153    4.8832143    2.5355077 *  6.9446734  
   2 O       2.0886815 *  4.5077832    4.5962840    2.7294217 *  6.1811181  
   3 C       2.7190595 *  3.4141616    3.4076559    2.1534523 *  4.8368433  
   4 C       4.0379956    2.1500609 *  3.8859060    3.4110265    4.4375295  
   5 C       5.0518533    1.0846708 *  3.3965272    3.8650882    3.2237409  
   6 C       5.1279377    2.1513121 *  2.1529752 *  3.4035332    2.1618568 *
   7 C       4.1693490    3.3852176    1.0864305 *  2.1496171 *  2.8855555 *
   8 C       2.8314776 *  3.8659758    2.1529343 *  1.0838949 *  4.1951491  
   9 C       6.5694286    2.7253557 *  2.7483945 *  4.6898431    1.0982475 *
  10 C       6.9690388    3.8664245    2.9440618 *  5.1168791    2.1366680 *
  11 C       7.7690186    5.1296523    3.3762354    5.7613616    2.6369153 *
  12 O       4.5542896    2.7162091 *  5.2481916    4.5074415    5.6037997  
  13 C       5.9495563    2.5242084 *  6.1116903    5.7756484    5.8454146  
  14 H       1.7865160 *  6.5204724    5.9719600    3.6195711    7.9560792  
  15 H       1.7921154 *  6.0422857    4.6748152    2.3305731 *  6.7627884  
  16 H       0.0000000    6.0468022    4.6787667    2.3363934 *  7.0196361  
  17 H       6.0468022    0.0000000    4.2896301    4.9497221    3.4266742  
  18 H       4.6787667    4.2896301    0.0000000    2.4604375 *  2.8700508 *
  19 H       2.3363934 *  4.9497221    2.4604375 *  0.0000000    4.9481709  
  20 H       7.0196361    3.4266742    2.8700508 *  4.9481709    0.0000000  
  21 H       7.2240797    2.3109891 *  3.7982845    5.5275025    1.7593054 *
  22 H       6.8299225    3.8834471    3.4063931    5.2561652    3.0918560  
  23 H       8.2642944    5.9813318    4.0772969    6.3631559    3.7207085  
  24 H       8.1471244    5.5148760    3.5208547    5.9811615    2.4446475 *
  25 H       6.2781007    2.3276865 *  6.1144146    6.0383436    5.7417906  
  26 H       6.5449382    2.3249761 *  6.1364021    6.0583858    5.4460490  
  27 H       6.3623152    3.6087392    7.0990664    6.5183016    6.9248346  

               21 H         22 H         23 H         24 H         25 H     

   1 C       7.1483054    7.1495755    8.6703380    8.3514827    5.9490692  
   2 O       6.1307392    6.4141622    8.1958379    7.8476255    4.5522855  
   3 C       4.8114334    5.1461326    6.9135471    6.5184912    4.0346810  
   4 C       3.9849698    4.7767115    6.8076471    6.3926417    2.7190868 *
   5 C       2.5902643 *  3.6986498    5.7179750    5.2418419    2.8274585 *
   6 C       2.1423996 *  2.8441681 *  4.5144442    3.9486750    4.1651612  
   7 C       3.4229085    3.4153735    4.6739388    4.1527916    5.0924998  
   8 C       4.5734306    4.5597682    5.9532304    5.5294158    5.0411315  
   9 C       1.0987277 *  2.2116089 *  3.5154175    2.7911560 *  4.9497498  
  10 C       2.1352555 *  1.0907964 *  2.1186716 *  2.1199659 *  5.8331988  
  11 C       3.1907171    2.0979994 *  1.0864008 *  1.0883429 *  7.1616995  
  12 O       4.9209477    5.8646106    8.0312740    7.6554812    2.0894123 *
  13 C       4.8247692    6.0897718    8.3498313    7.9810082    1.0980882 *
  14 H       8.0749596    8.1298913    9.7275955    9.4289932    6.3707682  
  15 H       7.2192294    7.3612998    8.6582999    8.1504130    6.5347998  
  16 H       7.2240797    6.8299225    8.2642944    8.1471244    6.2781007  
  17 H       2.3109891 *  3.8834471    5.9813318    5.5148760    2.3276865 *
  18 H       3.7982845    3.4063931    4.0772969    3.5208547    6.1144146  
  19 H       5.5275025    5.2561652    6.3631559    5.9811615    6.0383436  
  20 H       1.7593054 *  3.0918560    3.7207085    2.4446475 *  5.7417906  
  21 H       0.0000000    2.5781374 *  4.1055234    3.4890153    4.4761517  
  22 H       2.5781374 *  0.0000000    2.4391214 *  3.0791932    5.5134177  
  23 H       4.1055234    2.4391214 *  0.0000000    1.8526641 *  7.8674843  
  24 H       3.4890153    3.0791932    1.8526641 *  0.0000000    7.6990895  
  25 H       4.4761517    5.5134177    7.8674843    7.6990895    0.0000000  
  26 H       4.4839147    6.1779029    8.3023826    7.7256795    1.7920061 *
  27 H       5.8991120    7.1197251    9.4128514    9.0710601    1.7858951 *

               26 H         27 H     

   1 C       5.9633873    5.7920994  
   2 O       4.5641317    4.4184096  
   3 C       4.0487043    4.3662814  
   4 C       2.7285705 *  3.2646610  
   5 C       2.8358539 *  3.9027783  
   6 C       4.1775218    5.3052505  
   7 C       5.1107193    6.0190659  
   8 C       5.0590998    5.6333075  
   9 C       4.9540960    6.2903195  
  10 C       6.1848993    7.3377176  
  11 C       7.4272929    8.6394849  
  12 O       2.0899390 *  2.0111910 *
  13 C       1.0979179 *  1.0911507 *
  14 H       6.3814128    5.9480657  
  15 H       6.3010570    6.3731736  
  16 H       6.5449382    6.3623152  
  17 H       2.3249761 *  3.6087392  
  18 H       6.1364021    7.0990664  
  19 H       6.0583858    6.5183016  
  20 H       5.4460490    6.9248346  
  21 H       4.4839147    5.8991120  
  22 H       6.1779029    7.1197251  
  23 H       8.3023826    9.4128514  
  24 H       7.7256795    9.0710601  
  25 H       1.7920061 *  1.7858951 *
  26 H       0.0000000    1.7861837 *
  27 H       1.7861837 *  0.0000000  

  * ... LESS THAN  3.000


     ATOMIC BASIS SET
     ----------------
 THE CONTRACTED PRIMITIVE FUNCTIONS HAVE BEEN UNNORMALIZED
 THE CONTRACTED BASIS FUNCTIONS ARE NOW NORMALIZED TO UNITY

  SHELL TYPE  PRIMITIVE        EXPONENT          CONTRACTION COEFFICIENT(S)

 C         

      1   S       1           172.2560000    0.061766907377
      1   S       2            25.9109000    0.358794042852
      1   S       3             5.5333500    0.700713083689

      2   L       4             3.6649800   -0.395895162119    0.236459946619
      2   L       5             0.7705450    1.215834355681    0.860618805716

      3   L       6             0.1958570    1.000000000000    1.000000000000

 O         

      4   S       7           322.0370000    0.059239393389
      4   S       8            48.4308000    0.351499960776
      4   S       9            10.4206000    0.707657921031

      5   L      10             7.4029400   -0.404453583190    0.244586106967
      5   L      11             1.5762000    1.221561761397    0.853955373466

      6   L      12             0.3736840    1.000000000000    1.000000000000

 C         

      7   S      13           172.2560000    0.061766907377
      7   S      14            25.9109000    0.358794042852
      7   S      15             5.5333500    0.700713083689

      8   L      16             3.6649800   -0.395895162119    0.236459946619
      8   L      17             0.7705450    1.215834355681    0.860618805716

      9   L      18             0.1958570    1.000000000000    1.000000000000

 C         

     10   S      19           172.2560000    0.061766907377
     10   S      20            25.9109000    0.358794042852
     10   S      21             5.5333500    0.700713083689

     11   L      22             3.6649800   -0.395895162119    0.236459946619
     11   L      23             0.7705450    1.215834355681    0.860618805716

     12   L      24             0.1958570    1.000000000000    1.000000000000

 C         

     13   S      25           172.2560000    0.061766907377
     13   S      26            25.9109000    0.358794042852
     13   S      27             5.5333500    0.700713083689

     14   L      28             3.6649800   -0.395895162119    0.236459946619
     14   L      29             0.7705450    1.215834355681    0.860618805716

     15   L      30             0.1958570    1.000000000000    1.000000000000

 C         

     16   S      31           172.2560000    0.061766907377
     16   S      32            25.9109000    0.358794042852
     16   S      33             5.5333500    0.700713083689

     17   L      34             3.6649800   -0.395895162119    0.236459946619
     17   L      35             0.7705450    1.215834355681    0.860618805716

     18   L      36             0.1958570    1.000000000000    1.000000000000

 C         

     19   S      37           172.2560000    0.061766907377
     19   S      38            25.9109000    0.358794042852
     19   S      39             5.5333500    0.700713083689

     20   L      40             3.6649800   -0.395895162119    0.236459946619
     20   L      41             0.7705450    1.215834355681    0.860618805716

     21   L      42             0.1958570    1.000000000000    1.000000000000

 C         

     22   S      43           172.2560000    0.061766907377
     22   S      44            25.9109000    0.358794042852
     22   S      45             5.5333500    0.700713083689

     23   L      46             3.6649800   -0.395895162119    0.236459946619
     23   L      47             0.7705450    1.215834355681    0.860618805716

     24   L      48             0.1958570    1.000000000000    1.000000000000

 C         

     25   S      49           172.2560000    0.061766907377
     25   S      50            25.9109000    0.358794042852
     25   S      51             5.5333500    0.700713083689

     26   L      52             3.6649800   -0.395895162119    0.236459946619
     26   L      53             0.7705450    1.215834355681    0.860618805716

     27   L      54             0.1958570    1.000000000000    1.000000000000

 C         

     28   S      55           172.2560000    0.061766907377
     28   S      56            25.9109000    0.358794042852
     28   S      57             5.5333500    0.700713083689

     29   L      58             3.6649800   -0.395895162119    0.236459946619
     29   L      59             0.7705450    1.215834355681    0.860618805716

     30   L      60             0.1958570    1.000000000000    1.000000000000

 C         

     31   S      61           172.2560000    0.061766907377
     31   S      62            25.9109000    0.358794042852
     31   S      63             5.5333500    0.700713083689

     32   L      64             3.6649800   -0.395895162119    0.236459946619
     32   L      65             0.7705450    1.215834355681    0.860618805716

     33   L      66             0.1958570    1.000000000000    1.000000000000

 O         

     34   S      67           322.0370000    0.059239393389
     34   S      68            48.4308000    0.351499960776
     34   S      69            10.4206000    0.707657921031

     35   L      70             7.4029400   -0.404453583190    0.244586106967
     35   L      71             1.5762000    1.221561761397    0.853955373466

     36   L      72             0.3736840    1.000000000000    1.000000000000

 C         

     37   S      73           172.2560000    0.061766907377
     37   S      74            25.9109000    0.358794042852
     37   S      75             5.5333500    0.700713083689

     38   L      76             3.6649800   -0.395895162119    0.236459946619
     38   L      77             0.7705450    1.215834355681    0.860618805716

     39   L      78             0.1958570    1.000000000000    1.000000000000

 H         

     40   S      79             5.4471780    0.156284978695
     40   S      80             0.8245472    0.904690876670

     41   S      81             0.1831916    1.000000000000

 H         

     42   S      82             5.4471780    0.156284978695
     42   S      83             0.8245472    0.904690876670

     43   S      84             0.1831916    1.000000000000

 H         

     44   S      85             5.4471780    0.156284978695
     44   S      86             0.8245472    0.904690876670

     45   S      87             0.1831916    1.000000000000

 H         

     46   S      88             5.4471780    0.156284978695
     46   S      89             0.8245472    0.904690876670

     47   S      90             0.1831916    1.000000000000

 H         

     48   S      91             5.4471780    0.156284978695
     48   S      92             0.8245472    0.904690876670

     49   S      93             0.1831916    1.000000000000

 H         

     50   S      94             5.4471780    0.156284978695
     50   S      95             0.8245472    0.904690876670

     51   S      96             0.1831916    1.000000000000

 H         

     52   S      97             5.4471780    0.156284978695
     52   S      98             0.8245472    0.904690876670

     53   S      99             0.1831916    1.000000000000

 H         

     54   S     100             5.4471780    0.156284978695
     54   S     101             0.8245472    0.904690876670

     55   S     102             0.1831916    1.000000000000

 H         

     56   S     103             5.4471780    0.156284978695
     56   S     104             0.8245472    0.904690876670

     57   S     105             0.1831916    1.000000000000

 H         

     58   S     106             5.4471780    0.156284978695
     58   S     107             0.8245472    0.904690876670

     59   S     108             0.1831916    1.000000000000

 H         

     60   S     109             5.4471780    0.156284978695
     60   S     110             0.8245472    0.904690876670

     61   S     111             0.1831916    1.000000000000

 H         

     62   S     112             5.4471780    0.156284978695
     62   S     113             0.8245472    0.904690876670

     63   S     114             0.1831916    1.000000000000

 H         

     64   S     115             5.4471780    0.156284978695
     64   S     116             0.8245472    0.904690876670

     65   S     117             0.1831916    1.000000000000

 H         

     66   S     118             5.4471780    0.156284978695
     66   S     119             0.8245472    0.904690876670

     67   S     120             0.1831916    1.000000000000

 TOTAL NUMBER OF BASIS SET SHELLS             =   67
 NUMBER OF CARTESIAN GAUSSIAN BASIS FUNCTIONS =  145
 NUMBER OF ELECTRONS                          =   97
 CHARGE OF MOLECULE                           =   -1
 SPIN MULTIPLICITY                            =    2
 NUMBER OF OCCUPIED ORBITALS (ALPHA)          =   49
 NUMBER OF OCCUPIED ORBITALS (BETA )          =   48
 TOTAL NUMBER OF ATOMS                        =   27
 THE NUCLEAR REPULSION ENERGY IS      764.1560776709

     $CONTRL OPTIONS
     ---------------
 SCFTYP=UHF          RUNTYP=ENERGY       EXETYP=RUN     
 MPLEVL=       0     CITYP =NONE         CCTYP =NONE         VBTYP =NONE    
 DFTTYP=NONE         TDDFT =NONE    
 MULT  =       2     ICHARG=      -1     NZVAR =       0     COORD =UNIQUE  
 PP    =NONE         RELWFN=NONE         LOCAL =NONE         NUMGRD=       F
 ISPHER=      -1     NOSYM =       0     MAXIT =      60     UNITS =ANGS    
 PLTORB=       F     MOLPLT=       F     AIMPAC=       F     FRIEND=        
 NPRINT=       7     IREST =       0     GEOM  =INPUT   
 NORMF =       0     NORMP =       0     ITOL  =      20     ICUT  =       9
 INTTYP=BEST         GRDTYP=BEST         QMTTOL= 1.0E-06

     $SYSTEM OPTIONS
     ---------------
  REPLICATED MEMORY=    30000000 WORDS (ON EVERY NODE).
 DISTRIBUTED MEMDDI=        1000 MILLION WORDS IN AGGREGATE,
 MEMDDI DISTRIBUTED OVER   6 PROCESSORS IS   166666666 WORDS/PROCESSOR.
 TOTAL MEMORY REQUESTED ON EACH PROCESSOR=   196666666 WORDS.
 TIMLIM=      525600.00 MINUTES, OR     365.0 DAYS.
 PARALL= T  BALTYP=  DLB     KDIAG=    0  COREFL= F
 MXSEQ2=     300 MXSEQ3=     150  mem10=         0

          ----------------
          PROPERTIES INPUT
          ----------------

     MOMENTS            FIELD           POTENTIAL          DENSITY
 IEMOM =       1   IEFLD =       0   IEPOT =       0   IEDEN =       0
 WHERE =COMASS     WHERE =NUCLEI     WHERE =NUCLEI     WHERE =NUCLEI  
 OUTPUT=BOTH       OUTPUT=BOTH       OUTPUT=BOTH       OUTPUT=BOTH    
 IEMINT=       0   IEFINT=       0                     IEDINT=       0
                                                       MORB  =       0
          EXTRAPOLATION IN EFFECT
          SOSCF IN EFFECT
          DIIS or SOSCF will be reset if energy rises
 ORBITAL PRINTING OPTION: NPREO=     1   145     2     1

     -------------------------------
     INTEGRAL TRANSFORMATION OPTIONS
     -------------------------------
     NWORD  =            0
     CUTOFF = 1.0E-09     MPTRAN =       0
     DIRTRF =       T     AOINTS =DUP     

          ----------------------
          INTEGRAL INPUT OPTIONS
          ----------------------
 NOPK  =       1 NORDER=       0 SCHWRZ=       T

     ------------------------------------------
     THE POINT GROUP IS C1 , NAXIS= 0, ORDER= 1
     ------------------------------------------

     DIMENSIONS OF THE SYMMETRY SUBSPACES ARE
 A   =  145

 ..... DONE SETTING UP THE RUN .....
 CPU     0: STEP CPU TIME=     0.04 TOTAL CPU TIME=          0.0 (      0.0 MIN)
 TOTAL WALL CLOCK TIME=          0.1 SECONDS, CPU UTILIZATION IS    44.44%

          ********************
          1 ELECTRON INTEGRALS
          ********************
 ...... END OF ONE-ELECTRON INTEGRALS ......
 CPU     0: STEP CPU TIME=     0.01 TOTAL CPU TIME=          0.1 (      0.0 MIN)
 TOTAL WALL CLOCK TIME=          0.1 SECONDS, CPU UTILIZATION IS    50.00%

          -------------
          GUESS OPTIONS
          -------------
          GUESS =HUCKEL            NORB  =       0          NORDER=       0
          MIX   =       F          PRTMO =       F          PUNMO =       F
          TOLZ  = 1.0E-08          TOLE  = 1.0E-05
          SYMDEN=       F          PURIFY=       F

 INITIAL GUESS ORBITALS GENERATED BY HUCKEL   ROUTINE.
 HUCKEL GUESS REQUIRES    197422 WORDS.

 SYMMETRIES FOR INITIAL GUESS ORBITALS FOLLOW.  ALPHA SET(S).
    49 ORBITALS ARE OCCUPIED (   13 CORE ORBITALS).
    14=A       15=A       16=A       17=A       18=A       19=A       20=A   
    21=A       22=A       23=A       24=A       25=A       26=A       27=A   
    28=A       29=A       30=A       31=A       32=A       33=A       34=A   
    35=A       36=A       37=A       38=A       39=A       40=A       41=A   
    42=A       43=A       44=A       45=A       46=A       47=A       48=A   
    49=A       50=A       51=A       52=A       53=A       54=A       55=A   
    56=A       57=A       58=A       59=A   

 SYMMETRIES FOR INITIAL GUESS ORBITALS FOLLOW.   BETA SET(S).
    48 ORBITALS ARE OCCUPIED (   13 CORE ORBITALS).
    14=A       15=A       16=A       17=A       18=A       19=A       20=A   
    21=A       22=A       23=A       24=A       25=A       26=A       27=A   
    28=A       29=A       30=A       31=A       32=A       33=A       34=A   
    35=A       36=A       37=A       38=A       39=A       40=A       41=A   
    42=A       43=A       44=A       45=A       46=A       47=A       48=A   
    49=A       50=A       51=A       52=A       53=A       54=A       55=A   
    56=A       57=A       58=A   
 ...... END OF INITIAL ORBITAL SELECTION ......
 CPU     0: STEP CPU TIME=     0.07 TOTAL CPU TIME=          0.1 (      0.0 MIN)
 TOTAL WALL CLOCK TIME=          0.2 SECONDS, CPU UTILIZATION IS    75.00%

                    ----------------------
                    AO INTEGRAL TECHNOLOGY
                    ----------------------
     S,P,L SHELL ROTATED AXIS INTEGRALS, REPROGRAMMED BY
        KAZUYA ISHIMURA (IMS) AND JOSE SIERRA (SYNSTAR).
     S,P,D,L SHELL ROTATED AXIS INTEGRALS PROGRAMMED BY
        KAZUYA ISHIMURA (INSTITUTE FOR MOLECULAR SCIENCE).
     S,P,D,F,G SHELL TO TOTAL QUARTET ANGULAR MOMENTUM SUM 5,
        ERIC PROGRAM BY GRAHAM FLETCHER (ELORET AND NASA ADVANCED
        SUPERCOMPUTING DIVISION, AMES RESEARCH CENTER).
     S,P,D,F,G,L SHELL GENERAL RYS QUADRATURE PROGRAMMED BY
        MICHEL DUPUIS (PACIFIC NORTHWEST NATIONAL LABORATORY).

          --------------------
          2 ELECTRON INTEGRALS
          --------------------

 DIRECT SCF METHOD SKIPS INTEGRAL STORAGE ON DISK.
 DIRECT TRANSFORMATION SKIPS AO INTEGRAL STORAGE ON DISK.
  ...... END OF TWO-ELECTRON INTEGRALS .....
 CPU     0: STEP CPU TIME=     0.01 TOTAL CPU TIME=          0.1 (      0.0 MIN)
 TOTAL WALL CLOCK TIME=          0.2 SECONDS, CPU UTILIZATION IS    72.22%

          ---------------------------
                  UHF SCF CALCULATION
          ---------------------------

     NUCLEAR ENERGY =       764.1560776709
     MAXIT = 60     NPUNCH=  2     MULT=  2
     EXTRAP=T  DAMP=F  SHIFT=F  RSTRCT=F  DIIS=F  SOSCF=T
     DENSITY MATRIX CONV=  2.00E-05
     SOSCF WILL OPTIMIZE    4704 ALPHA AND    4656 BETA ROTATION ANGLES.
     SOGTOL= 2.500E-01
     MEMORY REQUIRED FOR UHF/ROHF ITERS=    327002 WORDS.

 DIRECT SCF CALCULATION, SCHWRZ=T   FDIFF=T
 SCHWARZ INEQUALITY OVERHEAD:      9439 INTEGRALS, T=        0.00

                                                                                NONZERO     BLOCKS
 ITER EX      TOTAL ENERGY        E CHANGE  DENSITY CHANGE    ORB. GRAD       INTEGRALS    SKIPPED
   1  0     -569.7769719723  -569.7769719723   0.661572122   0.000000000       24967446    1737436
          ---------------START SECOND ORDER SCF---------------
   2  1     -570.9833272464    -1.2063552742   0.155742298   0.048546108       24867484    1766975
   3  2     -571.0425106548    -0.0591834084   0.088088265   0.016074192       24495949    1821762
   4  3     -571.0541297882    -0.0116191334   0.042547554   0.008033409       24238880    1851061
   5  4     -571.0584438645    -0.0043140763   0.303093617   0.009849062       23952653    1876114
   6  5     -571.0310779198     0.0273659448   0.261114872   0.043393612       24665040    1801339
   7  6     -571.0630547351    -0.0319768153   0.042182250   0.010203086       24608384    1809201
   8  7     -571.0658453718    -0.0027906367   0.066019039   0.005003154       23835508    1886039
   9  8     -571.0667133579    -0.0008679861   0.026527939   0.005646310       24122709    1861347
  10  9     -571.0673440270    -0.0006306691   0.008431053   0.001314964       23407138    1911610
  11 10     -571.0675069797    -0.0001629526   0.041650386   0.001487945       22721404    1949746
  12 11     -571.0679378648    -0.0004308851   0.025372280   0.001803945       23914982    1881872
  13 12     -571.0681596754    -0.0002218106   0.046791861   0.002266706       23539566    1910914
  14 13     -571.0684803035    -0.0003206281   0.012821062   0.001602727       23935256    1883950
  15 14     -571.0686778660    -0.0001975625   0.008578877   0.000961469       23023223    1930417
  16 15     -571.0687455573    -0.0000676914   0.007192522   0.000985064       22714941    1947080
  17 16     -571.0687773023    -0.0000317450   0.013827174   0.000717286       22258477    1973650
  18 17     -571.0688147250    -0.0000374226   0.005406552   0.000403725       22733049    1953299
  19 18     -571.0688231548    -0.0000084299   0.003059333   0.000307147       21971174    1986432
  20 19     -571.0688278693    -0.0000047145   0.001526869   0.000273142       21419810    2005432
  21 20     -571.0688303673    -0.0000024980   0.001163037   0.000233006       20732842    2029734
  22 21     -571.0688322243    -0.0000018570   0.001408169   0.000140075       20527825    2040612
  23 22     -571.0688337681    -0.0000015438   0.001155852   0.000099343       20568101    2042841
  24 23     -571.0688348541    -0.0000010860   0.000612675   0.000091364       20454646    2046121
  25 24     -571.0688353587    -0.0000005046   0.000425834   0.000082470       19803781    2065786
  26 25     -571.0688356088    -0.0000002501   0.000516904   0.000070108       19073470    2089965
  27 26     -571.0688358621    -0.0000002533   0.000932822   0.000059621       19070903    2091209
  28 27     -571.0688362459    -0.0000003838   0.001476286   0.000064868       19547188    2075381
  29 28     -571.0688367623    -0.0000005164   0.001716108   0.000058869       19749037    2067939
  30 29     -571.0688372651    -0.0000005028   0.001133246   0.000047623       19591604    2071195
  31 30     -571.0688375498    -0.0000002847   0.000301961   0.000032102       19226853    2084120
  32 31     -571.0688376410    -0.0000000912   0.000143924   0.000014806       18674543    2105222
  33 32     -571.0688376640    -0.0000000231   0.000058015   0.000007635       17792664    2134925
  34 33     -571.0688376700    -0.0000000060   0.000025542   0.000004152       16919888    2161106
  35 34     -571.0688376720    -0.0000000020   0.000021835   0.000001712       15778600    2196328
  36 35     -571.0688376725    -0.0000000005   0.000007883   0.000000774       14873999    2224345
  37 36     -571.0688376722     0.0000000003   0.000003195   0.000000313       13888694    2257596

          -----------------
          DENSITY CONVERGED
          -----------------
     TIME TO FORM FOCK OPERATORS=      15.9 SECONDS (       0.4 SEC/ITER)
     FOCK TIME ON FIRST ITERATION=       0.5, LAST ITERATION=       0.2
     TIME TO SOLVE SCF EQUATIONS=       0.7 SECONDS (       0.0 SEC/ITER)

 FINAL UHF ENERGY IS     -571.0688376722 AFTER  37 ITERATIONS

          --------------------
          SPIN SZ   =    0.500
          S-SQUARED =    0.849
          --------------------

  ----- ALPHA SET ----- 

          ------------
          EIGENVECTORS
          ------------

                      1          2          3          4          5
                  -20.3118   -20.2867   -11.0913   -11.0802   -11.0477
                     A          A          A          A          A   
    1  C  1  S   -0.000066  -0.000498  -0.003620   0.987223   0.000101
    2  C  1  S   -0.000528  -0.001236  -0.000787   0.099244  -0.000032
    3  C  1  X    0.000181  -0.001007   0.000175  -0.000855   0.000050
    4  C  1  Y    0.000194  -0.002210   0.000080  -0.000431  -0.000021
    5  C  1  Z    0.000030  -0.000229   0.000022  -0.000113   0.000003
    6  C  1  S    0.001422   0.011664   0.001324  -0.067275   0.000081
    7  C  1  X   -0.000961  -0.001996  -0.001240   0.002197  -0.000239
    8  C  1  Y   -0.001142  -0.003924  -0.000399  -0.002540   0.000002
    9  C  1  Z   -0.000164  -0.000424  -0.000151   0.000087  -0.000037
   10  O  2  S   -0.010625   0.983834  -0.000037  -0.000013   0.000003
   11  O  2  S   -0.002431   0.101915  -0.000369   0.000875   0.000027
   12  O  2  X    0.000230  -0.002807   0.000119  -0.000113  -0.000003
   13  O  2  Y    0.000039   0.002699  -0.000015   0.001183   0.000014
   14  O  2  Z    0.000026  -0.000147   0.000011   0.000053   0.000007
   15  O  2  S    0.008279  -0.061644   0.001605   0.002326  -0.000074
   16  O  2  X   -0.003215   0.011773  -0.000809   0.002969   0.000045
   17  O  2  Y   -0.001068  -0.005218   0.000106  -0.001436  -0.000144
   18  O  2  Z   -0.000398   0.000955  -0.000074   0.000236  -0.000034
   19  C  3  S   -0.000226  -0.000030  -0.001205  -0.000796  -0.000088
   20  C  3  S   -0.001613   0.001896  -0.001568  -0.000463  -0.000082
   21  C  3  X    0.000455   0.000346   0.000296  -0.000858   0.000036
   22  C  3  Y   -0.000544   0.000341  -0.000152  -0.001622  -0.000060
   23  C  3  Z    0.000018   0.000052   0.000028  -0.000181  -0.000005
   24  C  3  S    0.020011  -0.003398   0.017041  -0.005578   0.001429
   25  C  3  X   -0.024212   0.039587  -0.007875   0.008856  -0.000695
   26  C  3  Y    0.003291   0.004186  -0.008614   0.017918   0.001094
   27  C  3  Z   -0.002382   0.004426  -0.001334   0.001927   0.000082
   28  C  4  S   -0.000029  -0.000234  -0.001458  -0.002793  -0.001439
   29  C  4  S    0.001923  -0.001602  -0.000564  -0.001759  -0.000126
   30  C  4  X    0.000076   0.000695   0.000299   0.000326   0.000142
   31  C  4  Y   -0.000447   0.000145   0.001822  -0.000066  -0.000002
   32  C  4  Z   -0.000012   0.000084   0.000120   0.000033  -0.000030
   33  C  4  S   -0.003287   0.020586  -0.005119   0.017298  -0.001721
   34  C  4  X    0.028203  -0.021575  -0.004171  -0.000997   0.001447
   35  C  4  Y   -0.028980   0.011447  -0.019394   0.011982  -0.000160
   36  C  4  Z    0.001445  -0.001678  -0.001442   0.000538   0.000449
   37  C  5  S   -0.000275   0.000220  -0.000035   0.000162  -0.000482
   38  C  5  S   -0.001473   0.000840   0.000231   0.000339  -0.000545
   39  C  5  X    0.000713  -0.000680  -0.000423  -0.000265  -0.000055
   40  C  5  Y   -0.001156  -0.000290   0.000289   0.000128  -0.000127
   41  C  5  Z    0.000014  -0.000084  -0.000029  -0.000020   0.000217
   42  C  5  S    0.025906  -0.021648  -0.005870  -0.004820   0.004450
   43  C  5  X   -0.001207  -0.007551  -0.002555  -0.000043   0.001388
   44  C  5  Y    0.026121  -0.009161   0.003310  -0.005441   0.003602
   45  C  5  Z    0.001299  -0.001330  -0.000110  -0.000308  -0.000390
   46  C  6  S    0.000289  -0.000163  -0.000351  -0.000089  -0.001809
   47  C  6  S    0.001247  -0.000760  -0.000340  -0.000187  -0.001277
   48  C  6  X   -0.000388  -0.000471  -0.000437  -0.000024   0.001297
   49  C  6  Y    0.000187  -0.000083   0.000062  -0.000152  -0.000195
   50  C  6  Z   -0.000044  -0.000063  -0.000043  -0.000009  -0.000175
   51  C  6  S   -0.023290   0.010844  -0.001870   0.002965   0.000035
   52  C  6  X   -0.013260   0.011403   0.001576   0.002264  -0.009278
   53  C  6  Y    0.005511   0.002647  -0.000079  -0.001527  -0.002495
   54  C  6  Z   -0.001146   0.001417   0.000177   0.000172  -0.001075
   55  C  7  S   -0.000156   0.000273  -0.000132  -0.000608  -0.000538
   56  C  7  S   -0.000778   0.001181  -0.000220  -0.000506  -0.000233
   57  C  7  X   -0.000189  -0.000685   0.000154  -0.000302   0.000475
   58  C  7  Y    0.000195  -0.000011   0.000177   0.000198   0.000348
   59  C  7  Z   -0.000005  -0.000080   0.000025  -0.000020  -0.000358
   60  C  7  S    0.009793  -0.023284   0.003036  -0.000942   0.000861
   61  C  7  X    0.007422  -0.011093   0.001250  -0.000094  -0.000338
   62  C  7  Y   -0.006385   0.006221  -0.000745  -0.000990  -0.005070
   63  C  7  Z    0.000390  -0.000765   0.000082  -0.000076   0.000779
   64  C  8  S    0.000206  -0.000254   0.000129  -0.000058  -0.000375
   65  C  8  S    0.000742  -0.001356   0.000281   0.000184  -0.000319
   66  C  8  X   -0.000418   0.001265  -0.000297  -0.000516   0.000207
   67  C  8  Y    0.000711   0.000438   0.000066   0.000025   0.000069
   68  C  8  Z   -0.000005   0.000163  -0.000028  -0.000055   0.000138
   69  C  8  S   -0.021167   0.024373  -0.003811  -0.004865   0.000280
   70  C  8  X    0.000420  -0.014705   0.002543  -0.004320  -0.002049
   71  C  8  Y    0.010913  -0.020275   0.004221  -0.001354   0.001102
   72  C  8  Z    0.000673  -0.002719   0.000517  -0.000521  -0.000736
   73  C  9  S   -0.000028  -0.000039  -0.000329  -0.000094  -0.002222
   74  C  9  S   -0.000209  -0.000121  -0.000302  -0.000067  -0.001228
   75  C  9  X   -0.000178   0.000306   0.000077   0.000032   0.000161
   76  C  9  Y    0.000108   0.000134  -0.000042  -0.000078  -0.000229
   77  C  9  Z   -0.000062   0.000045   0.000006   0.000012   0.000076
   78  C  9  S   -0.001637   0.004659   0.001822   0.000596   0.011754
   79  C  9  X    0.000028   0.001678   0.000501   0.000040  -0.012548
   80  C  9  Y   -0.002471  -0.000027   0.000546   0.000843   0.005795
   81  C  9  Z    0.000176   0.000245   0.000075  -0.000047   0.004879
   82  C 10  S    0.000005   0.000006  -0.000199  -0.000113   0.987190
   83  C 10  S    0.000036   0.000032  -0.000064  -0.000029   0.098437
   84  C 10  X    0.000063  -0.000003  -0.000060  -0.000045  -0.000108
   85  C 10  Y   -0.000038   0.000073   0.000023   0.000015   0.000436
   86  C 10  Z    0.000034  -0.000007   0.000007  -0.000009  -0.000752
   87  C 10  S    0.000447  -0.000396  -0.000201  -0.000180  -0.078373
   88  C 10  X   -0.000514  -0.000016   0.000047   0.000158   0.004818
   89  C 10  Y    0.000518  -0.000188  -0.000112  -0.000181  -0.005279
   90  C 10  Z   -0.000837   0.000259   0.000288   0.000304   0.010636
   91  C 11  S    0.000001  -0.000007   0.000017   0.000051  -0.000844
   92  C 11  S   -0.000013  -0.000040   0.000006   0.000019  -0.004138
   93  C 11  X   -0.000061   0.000010   0.000020   0.000030  -0.001635
   94  C 11  Y    0.000047   0.000007  -0.000004  -0.000009   0.001263
   95  C 11  Z    0.000033   0.000015  -0.000005  -0.000013   0.000011
   96  C 11  S   -0.000669   0.000278   0.000150   0.000213   0.028652
   97  C 11  X   -0.000113   0.000159   0.000026   0.000020   0.012727
   98  C 11  Y    0.000106  -0.000103  -0.000039  -0.000049  -0.009468
   99  C 11  Z   -0.000021  -0.000163  -0.000056   0.000002  -0.002907
  100  O 12  S    0.983865   0.010274  -0.000013  -0.000041   0.000005
  101  O 12  S    0.101885  -0.000272   0.000872  -0.000389   0.000030
  102  O 12  X   -0.003900   0.000063  -0.000803   0.000103   0.000019
  103  O 12  Y   -0.000367  -0.000194  -0.000878  -0.000069   0.000003
  104  O 12  Z   -0.000405   0.000001  -0.000124   0.000008   0.000022
  105  O 12  S   -0.061919   0.007068   0.002370   0.001744  -0.000283
  106  O 12  X    0.012577  -0.001553   0.003208  -0.000734  -0.000045
  107  O 12  Y   -0.003198   0.002872  -0.000624   0.000422  -0.000059
  108  O 12  Z    0.001108  -0.000032   0.000317  -0.000062  -0.000094
  109  C 13  S   -0.000499  -0.000075   0.987215   0.003501   0.000186
  110  C 13  S   -0.001241  -0.000533   0.099249  -0.000066  -0.000060
  111  C 13  X    0.000565   0.000040  -0.000400   0.000076   0.000039
  112  C 13  Y    0.002376  -0.000194   0.000943  -0.000167  -0.000045
  113  C 13  Z    0.000167  -0.000006  -0.000000   0.000001   0.000004
  114  C 13  S    0.011670   0.001655  -0.067159   0.000825   0.000124
  115  C 13  X    0.000704  -0.000018   0.003246  -0.000670  -0.000194
  116  C 13  Y    0.004370   0.001562   0.000702   0.001070   0.000155
  117  C 13  Z    0.000237   0.000079   0.000347  -0.000022  -0.000027
  118  H 14  S   -0.000054  -0.000971   0.000038  -0.000875   0.000013
  119  H 14  S    0.000236  -0.001073   0.000422   0.012668   0.000122
  120  H 15  S   -0.000212  -0.000993  -0.000171  -0.000147  -0.000019
  121  H 15  S    0.000295  -0.001706  -0.000092   0.014366  -0.000060
  122  H 16  S   -0.000212  -0.000988  -0.000172  -0.000151  -0.000061
  123  H 16  S    0.000296  -0.001713  -0.000089   0.014369   0.000059
  124  H 17  S    0.001928  -0.000223   0.000439  -0.000307   0.000237
  125  H 17  S    0.007207  -0.002233   0.001736  -0.001670   0.001102
  126  H 18  S    0.000625  -0.000241  -0.000014   0.000089  -0.000376
  127  H 18  S    0.002653  -0.002194   0.000276   0.000497   0.003259
  128  H 19  S   -0.000154   0.001969  -0.000319   0.000461  -0.000060
  129  H 19  S   -0.002078   0.007185  -0.001617   0.001724  -0.000140
  130  H 20  S    0.000134  -0.000093  -0.000130  -0.000079  -0.001010
  131  H 20  S    0.000455  -0.000039  -0.000119  -0.000162  -0.001623
  132  H 21  S   -0.000170  -0.000111   0.000025   0.000052  -0.000899
  133  H 21  S   -0.001275  -0.000542  -0.000133   0.000362   0.002642
  134  H 22  S    0.000091  -0.000016  -0.000028  -0.000033  -0.001511
  135  H 22  S    0.000500  -0.000077  -0.000136  -0.000171   0.009410
  136  H 23  S    0.000014   0.000014   0.000005  -0.000003  -0.000569
  137  H 23  S    0.000080   0.000077   0.000001  -0.000026   0.002596
  138  H 24  S    0.000001  -0.000039  -0.000006   0.000004  -0.001662
  139  H 24  S    0.000058  -0.000035  -0.000035  -0.000025  -0.001065
  140  H 25  S   -0.000999  -0.000233  -0.000142  -0.000166  -0.000048
  141  H 25  S   -0.001713   0.000267   0.014341   0.000017   0.000004
  142  H 26  S   -0.000996  -0.000231  -0.000154  -0.000167  -0.000002
  143  H 26  S   -0.001732   0.000282   0.014337   0.000026  -0.000119
  144  H 27  S   -0.000967  -0.000079  -0.000872   0.000027   0.000008
  145  H 27  S   -0.001021   0.000188   0.012665   0.000489   0.000132

                      6          7          8          9         10
                  -11.0440   -11.0343   -11.0193   -11.0010   -10.9808
                     A          A          A          A          A   
    1  C  1  S    0.002363  -0.000049   0.000076   0.000731   0.000500
    2  C  1  S   -0.000848   0.000014  -0.000074  -0.000448  -0.000490
    3  C  1  X    0.000335  -0.000011   0.000071   0.000467   0.000470
    4  C  1  Y    0.000144  -0.000011  -0.000050   0.000247   0.000014
    5  C  1  Z    0.000043  -0.000002   0.000004   0.000063   0.000049
    6  C  1  S    0.002954  -0.000015   0.000259  -0.000389   0.000728
    7  C  1  X   -0.002868   0.000038  -0.000353  -0.002465  -0.002040
    8  C  1  Y   -0.001268  -0.000016   0.000004   0.000847   0.000158
    9  C  1  Z   -0.000369   0.000004  -0.000031  -0.000218  -0.000194
   10  O  2  S   -0.000088  -0.000004   0.000012   0.000306   0.000042
   11  O  2  S   -0.000978  -0.000028   0.000077   0.003127   0.000283
   12  O  2  X    0.000342  -0.000001   0.000024  -0.001123   0.000070
   13  O  2  Y    0.000147   0.000015   0.000050  -0.000214  -0.000085
   14  O  2  Z    0.000045  -0.000001  -0.000001  -0.000133   0.000004
   15  O  2  S    0.004963   0.000205  -0.000538  -0.009130  -0.002439
   16  O  2  X   -0.002301  -0.000045   0.000077   0.006361   0.000198
   17  O  2  Y   -0.000198  -0.000101  -0.000275   0.001089   0.000333
   18  O  2  Z   -0.000256  -0.000000   0.000019   0.000743   0.000035
   19  C  3  S   -0.007977  -0.000078  -0.000993   0.987048   0.001922
   20  C  3  S   -0.005690  -0.000057  -0.000222   0.100504   0.000672
   21  C  3  X    0.000869  -0.000014   0.000154  -0.000660   0.000762
   22  C  3  Y    0.001229   0.000016   0.000007   0.000019  -0.000331
   23  C  3  Z    0.000161   0.000006   0.000032  -0.000061   0.000058
   24  C  3  S    0.044234   0.000887  -0.000301  -0.093280  -0.014745
   25  C  3  X   -0.025885  -0.000855   0.000940   0.040458   0.010328
   26  C  3  Y   -0.016025   0.000705   0.001123   0.004870  -0.001581
   27  C  3  Z   -0.003620  -0.000094   0.000074   0.004506   0.001009
   28  C  4  S    0.987468   0.000065   0.002711   0.006911   0.001070
   29  C  4  S    0.099519   0.000041  -0.000370  -0.004191  -0.000863
   30  C  4  X   -0.000492  -0.000016   0.000423  -0.000138   0.000198
   31  C  4  Y    0.000243  -0.000029  -0.000110  -0.001587  -0.000134
   32  C  4  Z   -0.000036  -0.000006   0.000070  -0.000100   0.000009
   33  C  4  S   -0.095008  -0.001158   0.000972   0.043331   0.012873
   34  C  4  X    0.028273   0.001046  -0.001486  -0.011300  -0.008388
   35  C  4  Y   -0.029762   0.000434   0.001569   0.027553   0.004139
   36  C  4  Z    0.001407   0.000185  -0.000161   0.000316  -0.000653
   37  C  5  S   -0.003597   0.000107  -0.001909  -0.001643  -0.002118
   38  C  5  S   -0.005640   0.000109  -0.001098   0.000054  -0.000100
   39  C  5  X   -0.001050  -0.000060   0.000677  -0.001002   0.000514
   40  C  5  Y   -0.001259   0.000017  -0.000063  -0.000506  -0.000843
   41  C  5  Z   -0.000173  -0.000002  -0.000025  -0.000125   0.000007
   42  C  5  S    0.051110  -0.000373   0.003055  -0.018284  -0.013572
   43  C  5  X    0.016729   0.002098   0.000249  -0.004682  -0.007607
   44  C  5  Y    0.026645  -0.000060   0.003154  -0.012294  -0.008425
   45  C  5  Z    0.003217   0.000102   0.000258  -0.001225  -0.001297
   46  C  6  S   -0.000143  -0.000402  -0.000739  -0.001509  -0.008312
   47  C  6  S    0.000966  -0.000312  -0.001353  -0.001240  -0.004919
   48  C  6  X   -0.000705   0.000135   0.000564  -0.000634  -0.001347
   49  C  6  Y    0.000484   0.000289   0.000362  -0.000138  -0.001715
   50  C  6  Z   -0.000086  -0.000060   0.000131  -0.000095  -0.000269
   51  C  6  S   -0.023820   0.000272   0.016574   0.015992   0.036866
   52  C  6  X   -0.014051  -0.001463  -0.021973   0.013949   0.023402
   53  C  6  Y    0.002034  -0.003076  -0.006343   0.004355   0.021377
   54  C  6  Z   -0.001390  -0.000034  -0.001767   0.001825   0.003812
   55  C  7  S   -0.001435   0.000179  -0.002500  -0.001543   0.987459
   56  C  7  S   -0.001241   0.000001  -0.000900   0.000722   0.099800
   57  C  7  X   -0.000318  -0.000190   0.000678  -0.001190   0.000812
   58  C  7  Y    0.000285   0.000160   0.000424  -0.000104  -0.000757
   59  C  7  Z   -0.000017   0.000004   0.000256  -0.000139   0.000044
   60  C  7  S    0.014467   0.001916   0.002280  -0.023823  -0.099727
   61  C  7  X    0.008261   0.001106  -0.001004  -0.009715  -0.016720
   62  C  7  Y   -0.007644  -0.002533  -0.005734   0.011305   0.022710
   63  C  7  Z    0.000394  -0.000169  -0.001132  -0.000337  -0.000411
   64  C  8  S   -0.000720   0.000126  -0.001127  -0.007003  -0.007930
   65  C  8  S    0.000131   0.000154  -0.000891  -0.005805  -0.005378
   66  C  8  X   -0.000533   0.000031   0.000455  -0.000069   0.001291
   67  C  8  Y    0.001060  -0.000063   0.000221   0.001673   0.000804
   68  C  8  Z    0.000000  -0.000004   0.000028   0.000091   0.000181
   69  C  8  S   -0.018384  -0.001683   0.002593   0.048659   0.041990
   70  C  8  X    0.004578  -0.000055  -0.003359  -0.001253  -0.015699
   71  C  8  Y    0.011421   0.001609  -0.001006  -0.031902  -0.018634
   72  C  8  Z    0.001141   0.000139  -0.000138  -0.001943  -0.002707
   73  C  9  S   -0.002891  -0.008467   0.988111   0.000879   0.002317
   74  C  9  S   -0.000973  -0.001499   0.105497  -0.000280  -0.000680
   75  C  9  X   -0.000548   0.000470  -0.000301   0.000196  -0.000055
   76  C  9  Y    0.000212  -0.000463  -0.000094   0.000125  -0.000112
   77  C  9  Z   -0.000146  -0.000295   0.000315   0.000007  -0.000102
   78  C  9  S   -0.001324   0.000583  -0.102005   0.005680   0.008789
   79  C  9  X    0.001501  -0.001026  -0.004407   0.002672   0.005683
   80  C  9  Y   -0.002671   0.000669  -0.003429  -0.000172  -0.001934
   81  C  9  Z    0.000699   0.001482  -0.007626   0.000515   0.001019
   82  C 10  S    0.001435   0.000353   0.001849   0.000077   0.000504
   83  C 10  S    0.000097  -0.003748  -0.001500  -0.000027  -0.000150
   84  C 10  X    0.000129   0.001943   0.000129   0.000013  -0.000156
   85  C 10  Y   -0.000141  -0.001560   0.000049   0.000029  -0.000099
   86  C 10  Z    0.000121   0.000463   0.000241   0.000042   0.000113
   87  C 10  S    0.001122   0.024305   0.019553  -0.000032   0.000931
   88  C 10  X   -0.001431  -0.012023   0.011746  -0.000417  -0.000714
   89  C 10  Y    0.001302   0.009561  -0.006905   0.000154   0.000915
   90  C 10  Z   -0.001645  -0.001694  -0.012676  -0.000104  -0.001231
   91  C 11  S   -0.000067   0.986721   0.008376   0.000074  -0.000162
   92  C 11  S    0.000034   0.096490  -0.000093  -0.000014   0.000075
   93  C 11  X   -0.000106   0.000094  -0.000588  -0.000014   0.000032
   94  C 11  Y    0.000097  -0.000085   0.000339   0.000028   0.000158
   95  C 11  Z    0.000047   0.000070   0.000177   0.000024   0.000031
   96  C 11  S   -0.001823  -0.069662   0.003424  -0.000242  -0.001241
   97  C 11  X   -0.000535  -0.006498   0.001676  -0.000018  -0.000608
   98  C 11  Y    0.000392   0.005247  -0.001652   0.000023  -0.000039
   99  C 11  Z    0.000005  -0.001319   0.003552  -0.000167  -0.000025
  100  O 12  S    0.000279  -0.000002  -0.000015  -0.000084  -0.000035
  101  O 12  S    0.003007  -0.000020  -0.000138  -0.000933  -0.000294
  102  O 12  X   -0.000740   0.000012   0.000002   0.000150  -0.000001
  103  O 12  Y    0.000851   0.000007  -0.000088  -0.000335  -0.000082
  104  O 12  Z   -0.000033   0.000004  -0.000012   0.000003  -0.000002
  105  O 12  S   -0.008659   0.000045   0.000673   0.004867   0.001904
  106  O 12  X    0.004182  -0.000105  -0.000090  -0.001521  -0.000141
  107  O 12  Y   -0.004548  -0.000067   0.000617   0.001649   0.000810
  108  O 12  Z    0.000204  -0.000025   0.000054  -0.000101   0.000017
  109  C 13  S    0.001373  -0.000016   0.000256   0.000807   0.000074
  110  C 13  S   -0.000411   0.000016  -0.000203  -0.000974  -0.000123
  111  C 13  X    0.000249  -0.000034   0.000175   0.000189   0.000014
  112  C 13  Y   -0.000518   0.000002  -0.000097  -0.000298  -0.000007
  113  C 13  Z   -0.000002  -0.000003   0.000014   0.000009   0.000001
  114  C 13  S   -0.000424  -0.000038   0.000483   0.003000   0.000545
  115  C 13  X   -0.002508   0.000121  -0.000668  -0.001495  -0.000039
  116  C 13  Y    0.000934  -0.000080   0.000773   0.002732   0.000424
  117  C 13  Z   -0.000204   0.000007  -0.000047  -0.000037   0.000020
  118  H 14  S    0.000033  -0.000002   0.000005   0.000508   0.000107
  119  H 14  S    0.000983  -0.000025   0.000168   0.001040   0.001087
  120  H 15  S   -0.000439  -0.000003  -0.000057  -0.000337  -0.000249
  121  H 15  S   -0.000051   0.000033  -0.000062  -0.000542  -0.000276
  122  H 16  S   -0.000438  -0.000002  -0.000040  -0.000331  -0.000246
  123  H 16  S   -0.000052   0.000029  -0.000110  -0.000530  -0.000291
  124  H 17  S    0.000720   0.000101   0.000421  -0.000538  -0.000571
  125  H 17  S    0.007295   0.000289  -0.000310  -0.003064  -0.002086
  126  H 18  S    0.000487  -0.000073   0.000037  -0.000665  -0.002360
  127  H 18  S    0.003051   0.001686   0.001832  -0.002486   0.005201
  128  H 19  S   -0.000440  -0.000079   0.000018   0.000779   0.000219
  129  H 19  S   -0.002694  -0.000499   0.000865   0.007743   0.004668
  130  H 20  S    0.000205  -0.000159   0.001209  -0.000093  -0.000142
  131  H 20  S    0.000739   0.000323   0.014027   0.000114   0.000773
  132  H 21  S   -0.000561   0.000045   0.001501  -0.000250  -0.000593
  133  H 21  S   -0.000335   0.000394   0.014971  -0.000333  -0.000387
  134  H 22  S    0.000201  -0.000957  -0.000895   0.000030   0.000063
  135  H 22  S    0.000977   0.001370   0.001947   0.000124   0.000774
  136  H 23  S    0.000032  -0.001357  -0.000621   0.000024   0.000027
  137  H 23  S    0.000066   0.012241   0.000264   0.000081   0.000058
  138  H 24  S    0.000027  -0.001347   0.000356  -0.000030   0.000041
  139  H 24  S    0.000118   0.012015   0.000935  -0.000011   0.000081
  140  H 25  S   -0.000367   0.000022  -0.000174  -0.000442  -0.000064
  141  H 25  S   -0.000475   0.000003   0.000065  -0.000059   0.000043
  142  H 26  S   -0.000335   0.000029  -0.000178  -0.000444  -0.000064
  143  H 26  S   -0.000510  -0.000018   0.000063  -0.000045   0.000053
  144  H 27  S    0.000504  -0.000010   0.000039   0.000038  -0.000016
  145  H 27  S    0.001106  -0.000073   0.000466   0.000944   0.000033

                     11         12         13         14         15
                  -10.9548   -10.9506   -10.9480    -1.2392    -1.2119
                     A          A          A          A          A   
    1  C  1  S    0.000046  -0.000102   0.000093  -0.023610  -0.065676
    2  C  1  S   -0.000095  -0.000044  -0.000195   0.026597   0.068238
    3  C  1  X   -0.000008  -0.000007   0.000083  -0.011199  -0.027445
    4  C  1  Y    0.000004  -0.000198  -0.000102  -0.022636  -0.059159
    5  C  1  Z    0.000000  -0.000012   0.000003  -0.002432  -0.006171
    6  C  1  S    0.000442   0.000645   0.001440   0.036044   0.116760
    7  C  1  X   -0.000146  -0.000141  -0.000450   0.005421  -0.001183
    8  C  1  Y   -0.000204  -0.000054  -0.001014   0.001631  -0.006906
    9  C  1  Z   -0.000028  -0.000017  -0.000103   0.000652  -0.000501
   10  O  2  S   -0.000021   0.000013  -0.000029  -0.081673  -0.202416
   11  O  2  S   -0.000179   0.000027  -0.000424   0.074939   0.177629
   12  O  2  X    0.000034   0.000144   0.000226  -0.020896  -0.039715
   13  O  2  Y    0.000038   0.000277   0.000324   0.014172   0.048881
   14  O  2  Z    0.000005   0.000030   0.000042  -0.001423  -0.001512
   15  O  2  S    0.001169  -0.001406   0.002576   0.249890   0.679852
   16  O  2  X   -0.000364  -0.000226  -0.000694  -0.025062  -0.078623
   17  O  2  Y   -0.000305  -0.001021  -0.002528   0.024154   0.068209
   18  O  2  Z   -0.000055  -0.000078  -0.000217  -0.001308  -0.004535
   19  C  3  S    0.000991   0.001827   0.006099  -0.039407  -0.065965
   20  C  3  S   -0.000601   0.000225  -0.003967   0.046259   0.064831
   21  C  3  X    0.000156   0.000363   0.001269   0.025980   0.075225
   22  C  3  Y   -0.000046   0.000784  -0.001176  -0.009150   0.020567
   23  C  3  Z    0.000016   0.000082   0.000068   0.002267   0.009102
   24  C  3  S    0.009498  -0.011286   0.037013  -0.003940   0.158942
   25  C  3  X   -0.006073   0.008442  -0.021530   0.026799  -0.137584
   26  C  3  Y    0.000596  -0.000597   0.011487  -0.017741  -0.037470
   27  C  3  Z   -0.000594   0.000859  -0.001617   0.001917  -0.016629
   28  C  4  S    0.000367   0.002550   0.001111  -0.071242   0.017591
   29  C  4  S    0.000484  -0.004469  -0.000187   0.077062  -0.011655
   30  C  4  X    0.000511   0.001744  -0.000103   0.052789  -0.015352
   31  C  4  Y   -0.000163   0.000171  -0.000864  -0.052531   0.041449
   32  C  4  Z    0.000070   0.000198  -0.000058   0.002910   0.000550
   33  C  4  S   -0.009370   0.038923  -0.008893   0.078345  -0.115844
   34  C  4  X    0.005351  -0.024430   0.005936  -0.033439   0.085480
   35  C  4  Y   -0.005014   0.005417  -0.003254   0.074871  -0.087026
   36  C  4  Z    0.000169  -0.002320   0.000447   0.000395   0.004429
   37  C  5  S   -0.073000   0.984121   0.026157  -0.013695   0.003377
   38  C  5  S   -0.011284   0.099997   0.001788   0.017010  -0.007241
   39  C  5  X    0.000986   0.000693  -0.000150   0.015815  -0.002823
   40  C  5  Y   -0.001399   0.000896  -0.000365   0.002181   0.002062
   41  C  5  Z   -0.000035   0.000117  -0.000039   0.001818  -0.000209
   42  C  5  S    0.038669  -0.095356   0.007232  -0.013880   0.081525
   43  C  5  X   -0.007203  -0.010546   0.003338   0.026017   0.013311
   44  C  5  Y    0.018878  -0.022583   0.005440  -0.065637   0.062458
   45  C  5  Z    0.000463  -0.002356   0.000665  -0.000680   0.004870
   46  C  6  S    0.984570   0.072017   0.010862  -0.002901   0.000333
   47  C  6  S    0.101162   0.003464   0.001349   0.001134   0.002965
   48  C  6  X    0.000115  -0.001839  -0.000585   0.005052   0.001038
   49  C  6  Y   -0.000018   0.000921  -0.000614  -0.000779   0.001160
   50  C  6  Z    0.000182  -0.000144  -0.000087   0.000551   0.000180
   51  C  6  S   -0.095221   0.027089  -0.014127   0.056275  -0.051640
   52  C  6  X   -0.014358   0.026711  -0.006481   0.013554  -0.046627
   53  C  6  Y   -0.001387  -0.007360  -0.004479  -0.025953   0.006533
   54  C  6  Z   -0.001570   0.002551  -0.000958  -0.000084  -0.004783
   55  C  7  S    0.007314   0.002694   0.007108  -0.001743  -0.002596
   56  C  7  S   -0.003172   0.000107  -0.003756   0.002706  -0.000672
   57  C  7  X    0.000234   0.000233  -0.001590   0.003151   0.004132
   58  C  7  Y    0.001512   0.001102   0.000333  -0.002323  -0.000381
   59  C  7  Z    0.000180   0.000085  -0.000142   0.000200   0.000429
   60  C  7  S    0.030676  -0.011648   0.036652   0.012985   0.075418
   61  C  7  X    0.000314  -0.008531   0.019188  -0.006236   0.042487
   62  C  7  Y   -0.019390   0.004802  -0.010598   0.008905  -0.016646
   63  C  7  Z   -0.001311  -0.000618   0.001361  -0.000123   0.003391
   64  C  8  S   -0.008686  -0.027211   0.986736  -0.007231  -0.012562
   65  C  8  S   -0.000726  -0.003713   0.100056   0.007694   0.017980
   66  C  8  X    0.000763   0.000134  -0.000257   0.005688   0.010387
   67  C  8  Y    0.000220   0.000385  -0.001098  -0.008272  -0.008846
   68  C  8  Z    0.000084   0.000036  -0.000082   0.000140   0.000591
   69  C  8  S   -0.008592   0.014700  -0.093384   0.038241  -0.068789
   70  C  8  X   -0.000618  -0.002990   0.004427   0.021919   0.054820
   71  C  8  Y    0.007251  -0.007425   0.023616  -0.004399   0.070530
   72  C  8  Z    0.000414  -0.000732   0.001782   0.002029   0.009818
   73  C  9  S    0.000353   0.001687   0.001001  -0.000011   0.000090
   74  C  9  S   -0.000336  -0.001051  -0.000667   0.001641   0.000350
   75  C  9  X   -0.000121   0.000024  -0.000172   0.000297  -0.000814
   76  C  9  Y    0.000059   0.000155  -0.000335  -0.000516  -0.000026
   77  C  9  Z    0.000026  -0.000020  -0.000044   0.000139  -0.000157
   78  C  9  S    0.005029   0.010053   0.000204  -0.008334  -0.015148
   79  C  9  X    0.008236   0.004420   0.000092  -0.006514  -0.004835
   80  C  9  Y   -0.000599   0.002342   0.002279   0.007396  -0.004636
   81  C  9  Z   -0.002411   0.000478  -0.000049  -0.001431  -0.000504
   82  C 10  S    0.001570   0.000486   0.000369  -0.000052  -0.000023
   83  C 10  S   -0.001064  -0.000388  -0.000201   0.000064  -0.000025
   84  C 10  X   -0.001290  -0.000216  -0.000221  -0.000090   0.000172
   85  C 10  Y    0.000458   0.000062  -0.000021  -0.000006  -0.000230
   86  C 10  Z    0.000181   0.000179   0.000055  -0.000181   0.000057
   87  C 10  S    0.001162   0.000310  -0.000039  -0.001181   0.002133
   88  C 10  X    0.007043   0.000232   0.000248   0.002101  -0.000747
   89  C 10  Y   -0.004119  -0.000140  -0.000159  -0.001389   0.001585
   90  C 10  Z   -0.002350  -0.000055   0.000444   0.002572  -0.002221
   91  C 11  S    0.000315  -0.000041  -0.000082  -0.000006   0.000019
   92  C 11  S   -0.000377   0.000039   0.000065   0.000055   0.000091
   93  C 11  X    0.000189   0.000054   0.000062   0.000153  -0.000102
   94  C 11  Y    0.000124   0.000018  -0.000005  -0.000144   0.000031
   95  C 11  Z   -0.000145  -0.000047  -0.000044  -0.000097  -0.000005
   96  C 11  S    0.005437   0.000031   0.000128   0.002124  -0.001996
   97  C 11  X    0.001427  -0.000249  -0.000176   0.000339  -0.000783
   98  C 11  Y   -0.002382  -0.000040  -0.000021  -0.000351   0.000567
   99  C 11  Z    0.002066   0.000242   0.000116   0.000275   0.000473
  100  O 12  S    0.000035  -0.000034   0.000003  -0.200955   0.088559
  101  O 12  S    0.000254  -0.000470  -0.000063   0.177973  -0.075165
  102  O 12  X    0.000048  -0.000002  -0.000039  -0.063247   0.027484
  103  O 12  Y   -0.000004  -0.000386  -0.000322  -0.007029   0.011643
  104  O 12  Z   -0.000004  -0.000019  -0.000021  -0.006465   0.003241
  105  O 12  S   -0.002012   0.002806  -0.000934   0.661583  -0.316563
  106  O 12  X    0.000178   0.000878   0.000324  -0.101934   0.052162
  107  O 12  Y   -0.000149   0.002400   0.001076  -0.002660   0.000655
  108  O 12  Z    0.000049   0.000215   0.000092  -0.010153   0.005268
  109  C 13  S    0.000264   0.000101  -0.000078  -0.061885   0.030646
  110  C 13  S   -0.000430  -0.000200  -0.000057   0.065943  -0.030407
  111  C 13  X    0.000367   0.000104   0.000095   0.013035  -0.006717
  112  C 13  Y   -0.000223   0.000020   0.000148   0.062174  -0.028578
  113  C 13  Z    0.000030   0.000014   0.000017   0.004047  -0.001926
  114  C 13  S    0.000640   0.001448   0.000720   0.104350  -0.058421
  115  C 13  X   -0.001660   0.000314   0.000008   0.005958  -0.000291
  116  C 13  Y    0.001050   0.001075   0.000197   0.000341  -0.007697
  117  C 13  Z   -0.000139   0.000051  -0.000002   0.000635  -0.000411
  118  H 14  S   -0.000018  -0.000049  -0.000115   0.006543   0.018898
  119  H 14  S   -0.000014  -0.000001  -0.000017  -0.002795  -0.001607
  120  H 15  S   -0.000028  -0.000032  -0.000173   0.007776   0.019889
  121  H 15  S   -0.000015  -0.000205  -0.000128  -0.001021  -0.000903
  122  H 16  S   -0.000022  -0.000031  -0.000169   0.007764   0.019860
  123  H 16  S   -0.000028  -0.000208  -0.000134  -0.001027  -0.000922
  124  H 17  S   -0.000201  -0.002435   0.000169   0.000732   0.000569
  125  H 17  S    0.001574   0.006256   0.002053  -0.019523   0.016626
  126  H 18  S   -0.000338  -0.000608   0.000044  -0.000961   0.001226
  127  H 18  S    0.002999  -0.001624   0.004868  -0.006305   0.007673
  128  H 19  S   -0.000425   0.000210  -0.002334   0.000529   0.000325
  129  H 19  S   -0.000998   0.001813   0.006438  -0.005088  -0.026422
  130  H 20  S   -0.001098  -0.000509  -0.000338   0.000047   0.000472
  131  H 20  S    0.001765   0.000022  -0.000276  -0.001656   0.000967
  132  H 21  S   -0.000330  -0.000167   0.000114   0.000835  -0.000052
  133  H 21  S   -0.000820  -0.000291   0.000952   0.005487  -0.000765
  134  H 22  S   -0.000812  -0.000107  -0.000083  -0.000166   0.000154
  135  H 22  S    0.000416  -0.000009  -0.000274  -0.001693   0.001132
  136  H 23  S   -0.000355  -0.000023  -0.000011  -0.000047  -0.000017
  137  H 23  S   -0.000389  -0.000176  -0.000132  -0.000343  -0.000161
  138  H 24  S    0.000107   0.000047   0.000046   0.000038   0.000083
  139  H 24  S    0.000777   0.000048  -0.000041  -0.000147   0.000226
  140  H 25  S   -0.000251  -0.000170  -0.000033   0.019097  -0.008796
  141  H 25  S   -0.000184  -0.000083  -0.000185  -0.001235  -0.000093
  142  H 26  S   -0.000266  -0.000149  -0.000033   0.019030  -0.008778
  143  H 26  S   -0.000158  -0.000172  -0.000203  -0.001271  -0.000136
  144  H 27  S    0.000115  -0.000119  -0.000060   0.017195  -0.008897
  145  H 27  S    0.001024  -0.000048  -0.000034  -0.003875  -0.000613

                     16         17         18         19         20
                   -0.9545    -0.9211    -0.8523    -0.8233    -0.7972
                     A          A          A          A          A   
    1  C  1  S    0.018151  -0.028081  -0.078667   0.012006  -0.152212
    2  C  1  S   -0.017252   0.027471   0.078981  -0.011525   0.153025
    3  C  1  X    0.000303   0.000354   0.006201  -0.008231   0.025962
    4  C  1  Y    0.011085  -0.013993  -0.011708   0.008654   0.033288
    5  C  1  Z    0.000647  -0.000734  -0.000006  -0.000393   0.004546
    6  C  1  S   -0.047092   0.073406   0.215948  -0.034061   0.443501
    7  C  1  X    0.003707  -0.002316   0.000824  -0.004075   0.007683
    8  C  1  Y    0.001845  -0.001182   0.009758   0.002397   0.045862
    9  C  1  Z    0.000489  -0.000321   0.000611  -0.000281   0.003342
   10  O  2  S    0.018585  -0.020533  -0.006930   0.013701   0.047708
   11  O  2  S   -0.017386   0.019231   0.006861  -0.014415  -0.041515
   12  O  2  X   -0.018544   0.030036   0.071588  -0.025245   0.091675
   13  O  2  Y   -0.014637   0.022409   0.059732   0.004508   0.084922
   14  O  2  Z   -0.002753   0.004403   0.010845  -0.002398   0.014380
   15  O  2  S   -0.064528   0.072096   0.021335  -0.044050  -0.198811
   16  O  2  X   -0.012926   0.022934   0.061266  -0.025139   0.087267
   17  O  2  Y   -0.012638   0.020995   0.055283   0.000006   0.072065
   18  O  2  Z   -0.002105   0.003531   0.009522  -0.002644   0.013221
   19  C  3  S   -0.051630   0.067547   0.087922  -0.044056   0.039383
   20  C  3  S    0.058900  -0.074982  -0.092693   0.051075  -0.037354
   21  C  3  X   -0.044129   0.046591   0.005337  -0.043941  -0.077743
   22  C  3  Y   -0.008460   0.012688   0.040887   0.080799   0.008932
   23  C  3  Z   -0.005078   0.005589   0.002750  -0.000084  -0.007689
   24  C  3  S    0.105062  -0.151726  -0.225801   0.070577  -0.108738
   25  C  3  X   -0.017322   0.025905   0.027118  -0.026174   0.015193
   26  C  3  Y   -0.002319  -0.003254  -0.003295   0.044321  -0.042939
   27  C  3  Z   -0.001731   0.002833   0.002599  -0.000280  -0.000894
   28  C  4  S   -0.054511   0.063999   0.069896   0.066553  -0.032509
   29  C  4  S    0.064157  -0.073359  -0.075178  -0.072147   0.036134
   30  C  4  X   -0.037201   0.024989  -0.052647   0.007683  -0.032554
   31  C  4  Y    0.031436  -0.038434  -0.040831   0.044842  -0.033925
   32  C  4  Z   -0.002220   0.000672  -0.007868   0.003380  -0.005322
   33  C  4  S    0.089375  -0.110438  -0.165946  -0.135275   0.061272
   34  C  4  X   -0.015918   0.017283   0.022903   0.045522  -0.053438
   35  C  4  Y    0.004996  -0.005998  -0.006316   0.021634  -0.020800
   36  C  4  Z   -0.001668   0.000871   0.002271   0.005916  -0.006707
   37  C  5  S   -0.079307   0.057616  -0.029165   0.074839  -0.036776
   38  C  5  S    0.088802  -0.062105   0.027999  -0.079536   0.037721
   39  C  5  X   -0.003330  -0.023354  -0.055966  -0.012315   0.033303
   40  C  5  Y    0.043512  -0.028662   0.015765  -0.003903   0.004647
   41  C  5  Z    0.002070  -0.003866  -0.005171  -0.001395   0.003782
   42  C  5  S    0.139725  -0.124561   0.096219  -0.144231   0.073839
   43  C  5  X    0.003702  -0.005773   0.012984   0.011280  -0.003027
   44  C  5  Y   -0.004040  -0.014905   0.016021   0.009294   0.006240
   45  C  5  Z    0.001203   0.000214   0.001819   0.001742  -0.000275
   46  C  6  S   -0.109785   0.032338  -0.092047   0.031354   0.013009
   47  C  6  S    0.117978  -0.033257   0.094067  -0.031723  -0.012862
   48  C  6  X    0.012026  -0.058501  -0.009900   0.016338   0.056129
   49  C  6  Y    0.006193  -0.007029   0.005299   0.065023   0.007006
   50  C  6  Z    0.003770  -0.002817  -0.003003   0.006221   0.006952
   51  C  6  S    0.216245  -0.070741   0.211851  -0.074996  -0.026444
   52  C  6  X    0.015999   0.034014  -0.008813  -0.006412   0.002789
   53  C  6  Y    0.007173   0.007222   0.011028   0.004906   0.005555
   54  C  6  Z    0.000143   0.002499  -0.001338   0.000699   0.002182
   55  C  7  S   -0.079142   0.051385  -0.045762  -0.077362  -0.023828
   56  C  7  S    0.088073  -0.056025   0.050329   0.082388   0.026202
   57  C  7  X    0.010485  -0.033996  -0.030896   0.064040   0.027953
   58  C  7  Y   -0.043486   0.016049  -0.037594   0.024835   0.005282
   59  C  7  Z   -0.001019  -0.001787  -0.005958   0.008388   0.003395
   60  C  7  S    0.144752  -0.108531   0.085431   0.167901   0.043873
   61  C  7  X    0.012238  -0.017257   0.004193   0.004613   0.001135
   62  C  7  Y    0.002934   0.021502   0.006737  -0.005219   0.005501
   63  C  7  Z    0.002369   0.000285   0.001013  -0.000169   0.000047
   64  C  8  S   -0.060965   0.066299   0.021095  -0.122434  -0.029072
   65  C  8  S    0.069141  -0.072976  -0.025495   0.126420   0.026426
   66  C  8  X   -0.019533   0.007466  -0.037859  -0.018781  -0.022781
   67  C  8  Y   -0.033720   0.036014   0.025178  -0.022486   0.003658
   68  C  8  Z   -0.003912   0.002776  -0.002589  -0.003134  -0.002147
   69  C  8  S    0.099157  -0.112153  -0.020427   0.280328   0.125095
   70  C  8  X    0.005334   0.006860   0.007522  -0.018249   0.002221
[...]
             31  C  4  Y      0.54249     0.53146
             32  C  4  Z      0.42817     0.41253
             33  C  4  S      0.75721     0.50280
             34  C  4  X      0.19376     0.44842
             35  C  4  Y      0.15318     0.42546
             36  C  4  Z      0.56316     0.58760
             37  C  5  S      1.98788     1.97588
             38  C  5  S      0.37816     0.40095
             39  C  5  X      0.57701     0.55860
             40  C  5  Y      0.54680     0.52006
             41  C  5  Z      0.52010     0.52963
             42  C  5  S      0.83613     0.52803
             43  C  5  X      0.24761     0.49090
             44  C  5  Y      0.46918     0.53879
             45  C  5  Z      0.77805     0.76588
             46  C  6  S      1.98796     1.97550
             47  C  6  S      0.37354     0.39288
             48  C  6  X      0.52196     0.50932
             49  C  6  Y      0.58772     0.56978
             50  C  6  Z      0.52742     0.53523
             51  C  6  S      0.80863     0.50848
             52  C  6  X      0.30025     0.49242
             53  C  6  Y      0.30029     0.50148
             54  C  6  Z      0.71987     0.71431
             55  C  7  S      1.98837     1.97678
             56  C  7  S      0.39418     0.41150
             57  C  7  X      0.59109     0.56421
             58  C  7  Y      0.58915     0.56183
             59  C  7  Z      0.39846     0.38834
             60  C  7  S      0.88811     0.53087
             61  C  7  X      0.36883     0.51289
             62  C  7  Y      0.39085     0.51650
             63  C  7  Z      0.58792     0.61060
             64  C  8  S      1.98776     1.97592
             65  C  8  S      0.37818     0.39890
             66  C  8  X      0.58322     0.56256
             67  C  8  Y      0.54669     0.51953
             68  C  8  Z      0.51107     0.51804
             69  C  8  S      0.83216     0.53022
             70  C  8  X      0.31782     0.50199
             71  C  8  Y      0.40355     0.53511
             72  C  8  Z      0.78189     0.76522
             73  C  9  S      1.98958     1.97601
             74  C  9  S      0.34662     0.40853
             75  C  9  X      0.55170     0.53738
             76  C  9  Y      0.53277     0.50275
             77  C  9  Z      0.52000     0.49178
             78  C  9  S      1.15972     0.55048
             79  C  9  X      0.37908     0.53655
             80  C  9  Y      0.52622     0.56959
             81  C  9  Z      0.45251     0.55810
             82  C 10  S      1.98813     1.97756
             83  C 10  S      0.39741     0.42802
             84  C 10  X      0.52403     0.50174
             85  C 10  Y      0.47278     0.45458
             86  C 10  Z      0.56316     0.53661
             87  C 10  S      0.92319     0.55724
             88  C 10  X      0.35003     0.50765
             89  C 10  Y      0.44862     0.54094
             90  C 10  Z      0.49391     0.55560
             91  C 11  S      1.98700     1.97722
             92  C 11  S      0.38818     0.41743
             93  C 11  X      0.54166     0.52018
             94  C 11  Y      0.50725     0.49391
             95  C 11  Z      0.53923     0.50146
             96  C 11  S      0.94385     0.57668
             97  C 11  X      0.46434     0.58377
             98  C 11  Y      0.55952     0.63109
             99  C 11  Z      0.52907     0.57537
            100  O 12  S      1.98671     1.97988
            101  O 12  S      0.40554     0.56141
            102  O 12  X      0.71978     0.72323
            103  O 12  Y      0.54709     0.53470
            104  O 12  Z      0.84184     0.85427
            105  O 12  S      1.55147     0.96239
            106  O 12  X      0.94192     0.93420
            107  O 12  Y      0.72349     0.73038
            108  O 12  Z      1.01856     1.00891
            109  C 13  S      1.98735     1.97590
            110  C 13  S      0.36810     0.42058
            111  C 13  X      0.56036     0.52110
            112  C 13  Y      0.43546     0.42796
            113  C 13  Z      0.56167     0.52030
            114  C 13  S      1.01617     0.58494
            115  C 13  X      0.50279     0.57415
            116  C 13  Y      0.27118     0.41040
            117  C 13  Z      0.52350     0.59492
            118  H 14  S      0.48600     0.48723
            119  H 14  S      0.34814     0.45176
            120  H 15  S      0.48196     0.48545
            121  H 15  S      0.35871     0.46079
            122  H 16  S      0.48200     0.48546
            123  H 16  S      0.35882     0.46090
            124  H 17  S      0.47490     0.47828
            125  H 17  S      0.38529     0.46786
            126  H 18  S      0.47924     0.48119
            127  H 18  S      0.35704     0.45563
            128  H 19  S      0.47527     0.47834
            129  H 19  S      0.38196     0.46559
            130  H 20  S      0.47033     0.48515
            131  H 20  S      0.35288     0.45236
            132  H 21  S      0.46784     0.48020
            133  H 21  S      0.34661     0.44586
            134  H 22  S      0.47317     0.47460
            135  H 22  S      0.31945     0.43826
            136  H 23  S      0.47428     0.47106
            137  H 23  S      0.36215     0.45911
            138  H 24  S      0.47114     0.46752
            139  H 24  S      0.35580     0.45738
            140  H 25  S      0.48030     0.48314
            141  H 25  S      0.34967     0.45623
            142  H 26  S      0.48058     0.48335
            143  H 26  S      0.34997     0.45642
            144  H 27  S      0.48497     0.48592
            145  H 27  S      0.34006     0.44812

          ----- MULLIKEN ATOMIC OVERLAP POPULATIONS -----
          (OFF-DIAGONAL ELEMENTS NEED TO BE MULTIPLIED BY 2)

             1           2           3           4           5

    1    4.9769604
    2    0.2659470   8.4914165
    3   -0.0842504   0.1937558   5.2266099
    4    0.0034747  -0.0481862   0.4658669   4.9295870
    5   -0.0001027   0.0027855  -0.1138334   0.3280061   5.6467387
    6    0.0000081  -0.0002602  -0.0000433  -0.0495657   0.2475847
    7    0.0001218   0.0028082  -0.0586856  -0.0146254  -0.0725665
    8   -0.0074816  -0.0596535   0.1915728  -0.0968033   0.0017548
    9   -0.0000000  -0.0000000   0.0001228   0.0016878  -0.0535260
   10   -0.0000000   0.0000000  -0.0000041  -0.0000089   0.0015882
   11    0.0000000   0.0000000  -0.0000001   0.0000004  -0.0000093
   12    0.0000001   0.0007246  -0.0483771   0.2237190  -0.0619939
   13    0.0000003  -0.0000062   0.0033804  -0.0793400  -0.0099945
   14    0.3784660  -0.0302934   0.0031693   0.0000532   0.0000013
   15    0.3446961  -0.0379123  -0.0004647  -0.0002116  -0.0000058
   16    0.3446332  -0.0379440  -0.0003967  -0.0002109  -0.0000056
   17    0.0000007  -0.0000063   0.0023317  -0.0512680   0.4116807
   18   -0.0000063  -0.0000035   0.0021882  -0.0000614   0.0029080
   19   -0.0025264  -0.0051574  -0.0527568   0.0024835  -0.0000811
   20   -0.0000000  -0.0000000  -0.0000044  -0.0000621   0.0019140
   21    0.0000000  -0.0000000  -0.0000011   0.0002102   0.0001793
   22    0.0000000  -0.0000000   0.0000008  -0.0000083   0.0000160
   23    0.0000000  -0.0000000  -0.0000000  -0.0000000   0.0000005
   24    0.0000000  -0.0000000   0.0000000  -0.0000000  -0.0000007
   25    0.0000001  -0.0000014  -0.0002380  -0.0021680   0.0040904
   26    0.0000001  -0.0000013  -0.0002452  -0.0022475   0.0037085
   27   -0.0000001  -0.0000010   0.0000506   0.0029963   0.0000936

             6           7           8           9          10

    6    5.5750563
    7    0.4588318   5.1381115
    8   -0.1185723   0.4448021   5.6015393
    9    0.2934894  -0.0679808   0.0019546   5.3430143
   10   -0.0981169  -0.0009137   0.0001631   0.2756162   5.2939912
   11    0.0020775   0.0000614   0.0000095  -0.0755894   0.5215119
   12    0.0029647  -0.0002164   0.0025791  -0.0000059   0.0000000
   13    0.0001249   0.0000089  -0.0001181  -0.0000057   0.0000000
   14   -0.0000000   0.0000037   0.0000501  -0.0000000   0.0000000
   15    0.0000016  -0.0001659   0.0016535   0.0000000  -0.0000000
   16    0.0000022  -0.0001720   0.0016086   0.0000000   0.0000000
   17   -0.0409610   0.0032062  -0.0000740  -0.0027050  -0.0000401
   18   -0.0415043   0.3998890  -0.0345305  -0.0029120   0.0014862
   19    0.0031370  -0.0390507   0.4118143  -0.0000627   0.0000003
   20   -0.0564280  -0.0003850   0.0001599   0.3903691  -0.0706612
   21   -0.0521310   0.0029432  -0.0000534   0.3883809  -0.0497747
   22    0.0024544   0.0009105  -0.0000344  -0.0351348   0.3910772
   23   -0.0000981   0.0000044   0.0000000   0.0025979  -0.0512060
   24    0.0000444   0.0000179   0.0000001  -0.0011082  -0.0534424
   25   -0.0002236  -0.0000020   0.0000007   0.0000039  -0.0000000
   26   -0.0002325  -0.0000013   0.0000009   0.0000022  -0.0000000
   27    0.0000044  -0.0000000   0.0000012  -0.0000000   0.0000000

            11          12          13          14          15

   11    5.2623255
   12    0.0000000   8.4731894
   13   -0.0000000   0.2500765   4.9901889
   14    0.0000000  -0.0000013  -0.0000001   0.5524238
   15    0.0000000  -0.0000017   0.0000001  -0.0348713   0.6176168
   16   -0.0000000  -0.0000018   0.0000001  -0.0349805  -0.0500348
   17   -0.0000001  -0.0053650  -0.0025535  -0.0000000   0.0000000
   18    0.0012106  -0.0000001  -0.0000000  -0.0000000   0.0000001
   19    0.0000001  -0.0000068   0.0000008   0.0001119   0.0003747
   20    0.0026588   0.0000000   0.0000000  -0.0000000   0.0000000
   21    0.0005857   0.0000001  -0.0000026   0.0000000  -0.0000000
   22   -0.0448110  -0.0000000   0.0000000  -0.0000000   0.0000000
   23    0.3928756   0.0000000   0.0000000  -0.0000000   0.0000000
   24    0.3971987  -0.0000000   0.0000000   0.0000000  -0.0000000
   25   -0.0000000  -0.0356774   0.3481572   0.0000000  -0.0000000
   26    0.0000000  -0.0356303   0.3484984   0.0000000   0.0000000
   27    0.0000000  -0.0295599   0.3781678   0.0000000   0.0000000

            16          17          18          19          20

   16    0.6179121
   17    0.0000000   0.5422004
   18    0.0000002  -0.0000605   0.5088444
   19    0.0004115   0.0000007  -0.0018776   0.5404119
   20   -0.0000000   0.0001112   0.0004879   0.0000004   0.5753492
   21    0.0000000   0.0028998   0.0000658   0.0000005  -0.0266478
   22   -0.0000000   0.0000255   0.0000756   0.0000001   0.0027485
   23    0.0000000  -0.0000000   0.0000116   0.0000000   0.0000583
   24    0.0000000   0.0000001   0.0000679  -0.0000000   0.0035356
   25    0.0000000   0.0002018   0.0000000   0.0000000  -0.0000001
   26   -0.0000000   0.0004294   0.0000000   0.0000000   0.0000002
   27    0.0000000   0.0001377  -0.0000000  -0.0000000   0.0000000

            21          22          23          24          25

   21    0.5480873
   22   -0.0002924   0.4752571
   23   -0.0000729  -0.0020549   0.5206968
   24    0.0000713   0.0023959  -0.0263796   0.5045365
   25   -0.0000013  -0.0000000   0.0000000  -0.0000000   0.5957889
   26   -0.0000032   0.0000000  -0.0000000   0.0000000  -0.0462220
   27    0.0000000  -0.0000000   0.0000000  -0.0000000  -0.0337366

            26          27

   26    0.5965704
   27   -0.0340714   0.5409432

          TOTAL MULLIKEN AND LOWDIN ATOMIC POPULATIONS
       ATOM         MULL.POP.    CHARGE          LOW.POP.     CHARGE
    1 C             6.219941   -0.219941         6.028581   -0.028581
    2 O             8.738011   -0.738011         8.302687   -0.302687
    3 C             5.729748    0.270252         6.031833   -0.031833
    4 C             5.613318    0.386682         5.856766    0.143234
    5 C             6.340931   -0.340931         6.308717   -0.308717
    6 C             6.127645   -0.127645         6.199410   -0.199410
    7 C             6.196955   -0.196955         6.073513   -0.073513
    8 C             6.342344   -0.342344         6.307484   -0.307484
    9 C             6.458208   -0.458208         6.131176   -0.131176
   10 C             6.161266   -0.161266         6.059929   -0.059929
   11 C             6.460106   -0.460106         6.277119   -0.277119
   12 O             8.736416   -0.736416         8.289356   -0.289356
   13 C             6.226584   -0.226584         6.030254   -0.030254
   14 H             0.834133    0.165867         0.938991    0.061009
   15 H             0.840675    0.159325         0.946241    0.053759
   16 H             0.840822    0.159178         0.946363    0.053637
   17 H             0.860192    0.139808         0.946144    0.053856
   18 H             0.836279    0.163721         0.936822    0.063178
   19 H             0.857228    0.142772         0.943936    0.056064
   20 H             0.823205    0.176795         0.937504    0.062496
   21 H             0.814444    0.185556         0.926057    0.073943
   22 H             0.792626    0.207374         0.912860    0.087140
   23 H             0.836434    0.163566         0.930169    0.069831
   24 H             0.826938    0.173062         0.924906    0.075094
   25 H             0.829973    0.170027         0.939372    0.060628
   26 H             0.830555    0.169445         0.939776    0.060224
   27 H             0.825026    0.174974         0.934034    0.065966

          -------------------------------
          BOND ORDER AND VALENCE ANALYSIS     BOND ORDER THRESHOLD=0.050
          -------------------------------

                   BOND                       BOND                       BOND
  ATOM PAIR DIST  ORDER      ATOM PAIR DIST  ORDER      ATOM PAIR DIST  ORDER
    1   2  1.421  0.901        1  14  1.091  0.937        1  15  1.098  0.902
    1  16  1.098  0.902        2   3  1.366  0.682        3   4  1.417  1.331
    3   6  2.829  0.053        3   8  1.395  1.116        4   5  1.396  1.320
    4   7  2.800  0.069        4  12  1.365  0.719        5   6  1.407  1.125
    5   8  2.781  0.057        5  17  1.085  0.958        6   7  1.394  1.368
    6   9  1.523  0.931        7   8  1.402  1.421        7  18  1.086  0.962
    8  19  1.084  0.961        9  10  1.509  0.920        9  20  1.098  0.927
    9  21  1.099  0.928       10  11  1.337  1.843       10  22  1.091  0.939
   11  23  1.086  0.954       11  24  1.088  0.952       12  13  1.420  0.878
   13  25  1.098  0.902       13  26  1.098  0.902       13  27  1.091  0.935

                       TOTAL       BONDED        FREE
      ATOM            VALENCE     VALENCE     VALENCE
    1 C                 3.638       3.638       0.000
    2 O                 1.686       1.684       0.002
    3 C                 3.358       3.180       0.179
    4 C                 3.456       3.387       0.068
    5 C                 3.649       3.483       0.166
    6 C                 3.566       3.438       0.128
    7 C                 3.790       3.750       0.040
    8 C                 3.647       3.574       0.073
    9 C                 3.637       3.635       0.002
   10 C                 3.667       3.659       0.009
   11 C                 3.769       3.756       0.013
   12 O                 1.711       1.711       0.000
   13 C                 3.615       3.615       0.000
   14 H                 0.929       0.929       0.000
   15 H                 0.922       0.922       0.000
   16 H                 0.922       0.922       0.000
   17 H                 0.948       0.946       0.002
   18 H                 0.945       0.944       0.000
   19 H                 0.946       0.945       0.001
   20 H                 0.917       0.917       0.000
   21 H                 0.919       0.919       0.000
   22 H                 0.926       0.926       0.000
   23 H                 0.939       0.939       0.000
   24 H                 0.940       0.940       0.000
   25 H                 0.922       0.922       0.000
   26 H                 0.922       0.922       0.000
   27 H                 0.926       0.926       0.000

          -----------------------------------------
          ATOMIC SPIN DENSITY AT THE NUCLEUS (A.U.)
          -----------------------------------------
                            SPIN DENS    ALPHA DENS     BETA DENS
    1  C            6.0    -0.0018651      46.94264      46.94451
    2  O            8.0     0.0190591     116.74421     116.72515
    3  C            6.0     0.1028578      46.98688      46.88403
    4  C            6.0    -0.0952325      46.93637      47.03160
    5  C            6.0     0.0896332      47.00868      46.91904
    6  C            6.0     0.0763715      46.99979      46.92342
    7  C            6.0    -0.0665675      46.97134      47.03791
    8  C            6.0     0.0527791      46.98333      46.93055
    9  C            6.0    -0.0218982      47.02611      47.04801
   10  C            6.0    -0.0041622      47.02463      47.02879
   11  C            6.0     0.0265020      46.97186      46.94535
   12  O            8.0    -0.0109716     116.74721     116.75818
   13  C            6.0    -0.0002069      46.94383      46.94404
   14  H            1.0    -0.0003737       0.19001       0.19038
   15  H            1.0     0.0009240       0.18890       0.18798
   16  H            1.0     0.0009347       0.18892       0.18798
   17  H            1.0    -0.0119780       0.18038       0.19236
   18  H            1.0     0.0043415       0.18977       0.18543
   19  H            1.0    -0.0079176       0.18250       0.19042
   20  H            1.0     0.0068151       0.18897       0.18216
   21  H            1.0    -0.0009404       0.18381       0.18475
   22  H            1.0     0.0020253       0.18577       0.18374
   23  H            1.0    -0.0029793       0.18361       0.18659
   24  H            1.0    -0.0030948       0.18217       0.18527
   25  H            1.0    -0.0001708       0.18759       0.18777
   26  H            1.0    -0.0001775       0.18770       0.18788
   27  H            1.0     0.0001181       0.18979       0.18967

          ---------------------
          ELECTROSTATIC MOMENTS
          ---------------------

 POINT   1           X           Y           Z (BOHR)    CHARGE
                -0.028368    0.006028   -0.005532       -1.00 (A.U.)
         DX          DY          DZ         /D/  (DEBYE)
    -0.469651   -1.119846    0.346698    1.262864
 ...... END OF PROPERTY EVALUATION ......
 CPU     0: STEP CPU TIME=     0.06 TOTAL CPU TIME=         16.9 (      0.3 MIN)
 TOTAL WALL CLOCK TIME=         27.5 SECONDS, CPU UTILIZATION IS    61.46%
               580000  WORDS OF DYNAMIC MEMORY USED
 EXECUTION OF GAMESS TERMINATED NORMALLY Mon May 25 19:21:55 2020
 DDI: 263640 bytes (0.3 MB / 0 MWords) used by master data server.
Note: The following floating-point exceptions are signalling: IEEE_DENORMALNote: The following floating-point exceptions are signalling: IEEE_DENORMALNote: The following floating-point exceptions are signalling:
 ----------------------------------------
 CPU timing information for all processes
 ========================================
 0: 16.622 + 0.308 = 16.931
 1: 16.281 + 0.135 = 16.416
 2: 16.145 + 0.72 = 16.218
 3: 16.275 + 0.72 = 16.347
 4: 16.61 + 0.115 = 16.177
 5: 16.115 + 0.64 = 16.179
 ----------------------------------------


 IEEE_DENORMAL
Note: The following floating-point exceptions are signalling: IEEE_DENORMALNote: The following floating-point exceptions are signalling: IEEE_DENORMALNote: The following floating-point exceptions are signalling: IEEE_DENORMAL


 ddikick.x: exited gracefully.
unset echo
----- accounting info -----
Files used on the master node pietdev were:
-rwxr-xr-x 1 piet piet     1213 mei 25 19:21 /home/piet/scr/methyl_eugenol_fukui_acid.F05*
-rw-r--r-- 1 piet piet 68812800 mei 25 19:21 /home/piet/scr/methyl_eugenol_fukui_acid.F10
ls: No match.
ls: No match.
ls: No match.
ma 25 mei 2020 19:21:58 CEST
0.139u 0.040s 0:30.74 0.5%	0+0k 0+8io 0pf+0w
