----- GAMESS execution script 'rungms' -----
This job is running on host pietdev
under operating system Linux at ma 25 mei 2020 19:19:54 CEST
Available scratch disk space (Kbyte units) at beginning of the job is
Filesystem     1K-blocks     Used Available Use% Mounted on
/dev/sda2      244568380 31071508 201003816  14% /
GAMESS temporary binary files will be written to /home/piet/scr
GAMESS supplementary output files will be written to /home/piet/gamess/scr
Copying input file methyl_eugenol_charge_geodisk.inp to your run's scratch directory...
cp methyl_eugenol_charge_geodisk.inp /home/piet/scr/methyl_eugenol_charge_geodisk.F05
unset echo
 
Assuming a single but multicore node.
 
/home/piet/gamess/ddikick.x /home/piet/gamess/gamess.03.x methyl_eugenol_charge_geodisk -ddi 1 6 pietdev:cpus=6 -scr /home/piet/scr

 Distributed Data Interface kickoff program.
 Initiating 6 compute processes on 1 nodes to run the following command:
 /home/piet/gamess/gamess.03.x methyl_eugenol_charge_geodisk 

          ******************************************************
          *         GAMESS VERSION = 30 SEP 2019 (R2)          *
          *             FROM IOWA STATE UNIVERSITY             *
          * M.W.SCHMIDT, K.K.BALDRIDGE, J.A.BOATZ, S.T.ELBERT, *
          *   M.S.GORDON, J.H.JENSEN, S.KOSEKI, N.MATSUNAGA,   *
          *          K.A.NGUYEN, S.J.SU, T.L.WINDUS,           *
          *       TOGETHER WITH M.DUPUIS, J.A.MONTGOMERY       *
          *         J.COMPUT.CHEM.  14, 1347-1363(1993)        *
          **************** 64 BIT LINUX VERSION ****************

  SINCE 1993, STUDENTS AND POSTDOCS WORKING AT IOWA STATE UNIVERSITY
  AND ALSO IN THEIR VARIOUS JOBS AFTER LEAVING ISU HAVE MADE IMPORTANT
  CONTRIBUTIONS TO THE CODE:
     IVANA ADAMOVIC, CHRISTINE AIKENS, YURI ALEXEEV, POOJA ARORA,
     ANDREY ASADCHEV, ROB BELL, PRADIPTA BANDYOPADHYAY, JONATHAN BENTZ,
     COLLEEN BERTONI, BRETT BODE, KURT BRORSEN, CALEB CARLIN, GALINA CHABAN,
     WEI CHEN, CHEOL HO CHOI, PAUL DAY, ALBERT DEFUSCO, NUWAN DESILVA,
     TIM DUDLEY, DMITRI FEDOROV, ALEX FINDLATER, GRAHAM FLETCHER, 
     MARK FREITAG, KURT GLAESEMANN, EMILIE B GUIDEZ, ANASTASIA GUNINA, 
     DAN KEMP, SAROM SOK LEANG, GRANT MERRILL,
     NORIYUKI MINEZAWA, JONATHAN MULLIN,
     TAKESHI NAGATA, SEAN NEDD, HEATHER NETZLOFF, BOSILJKA NJEGIC, RYAN OLSON,
     MIKE PAK, BUU PHAM, DAVID POOLE,
     SPENCER PRUITT, LUKE ROSKOP, TOSAPORN SATTASATHUCHANA,
     JIM SHOEMAKER, LYUDMILA SLIPCHENKO,
     TONY SMITH, JIE SONG, TETSUYA TAKETSUGU, SIMON WEBB,
     JORGE LUIS GALVEZ VALLEJO, PENG XU, SOOHAENG YOO,
     FEDERICO ZAHARIEV

  ADDITIONAL CODE HAS BEEN PROVIDED BY COLLABORATORS IN OTHER GROUPS:
     IOWA STATE UNIVERSITY:
          JOE IVANIC, AARON WEST, LAIMUTIS BYTAUTAS, KLAUS RUEDENBERG
     UNIVERSITY OF TOKYO: KIMIHIKO HIRAO, TAKAHITO NAKAJIMA,
          TAKAO TSUNEDA, MUNEAKI KAMIYA, SUSUMU YANAGISAWA,
          KIYOSHI YAGI, MAHITO CHIBA, SEIKEN TOKURA, NAOAKI KAWAKAMI
     UNIVERSITY OF AARHUS: FRANK JENSEN
     UNIVERSITY OF IOWA: VISVALDAS KAIRYS, HUI LI
     NATIONAL INST. OF STANDARDS AND TECHNOLOGY: WALT STEVENS, DAVID GARMER
     UNIVERSITY OF PISA: BENEDETTA MENNUCCI, JACOPO TOMASI
     UNIVERSITY OF MEMPHIS: HENRY KURTZ, PRAKASHAN KORAMBATH
     UNIVERSITY OF ALBERTA: TOBY ZENG, MARIUSZ KLOBUKOWSKI
     UNIVERSITY OF NEW ENGLAND: MARK SPACKMAN
     MIE UNIVERSITY: HIROAKI UMEDA
     NAT. INST. OF ADVANCED INDUSTRIAL SCIENCE AND TECHNOLOGY: KAZUO KITAURA
     MICHIGAN STATE UNIVERSITY:
          KAROL KOWALSKI, MARTA WLOCH, JEFFREY GOUR, JESSE LUTZ,
          WEI LI, JUN SHEN, J. EMILIANO DEUSTUA, PIOTR PIECUCH
     UNIVERSITY OF MINNESOTA:
          ANDREW SAND, PRACHI SHARMA, YINAN SHU
     UNIVERSITY OF SILESIA: MONIKA MUSIAL, STANISLAW KUCHARSKI
     FACULTES UNIVERSITAIRES NOTRE-DAME DE LA PAIX:
          OLIVIER QUINET, BENOIT CHAMPAGNE
     UNIVERSITY OF CALIFORNIA - SANTA BARBARA: BERNARD KIRTMAN
     INSTITUTE FOR MOLECULAR SCIENCE:
          KAZUYA ISHIMURA, MICHIO KATOUDA, AND SHIGERU NAGASE
     UNIVERSITY OF NOTRE DAME: ANNA POMOGAEVA, DAN CHIPMAN
     KYUSHU UNIVERSITY:
          HARUYUKI NAKANO,
          FENG LONG GU, JACEK KORCHOWIEC, MARCIN MAKOWSKI, AND YURIKO AOKI,
          HIROTOSHI MORI AND EISAKU MIYOSHI
     PENNSYLVANIA STATE UNIVERSITY:
          TZVETELIN IORDANOV, CHET SWALINA, JONATHAN SKONE,
          SHARON HAMMES-SCHIFFER
     WASEDA UNIVERSITY:
          MASATO KOBAYASHI, TOMOKO AKAMA, TSUGUKI TOUMA,
          TAKESHI YOSHIKAWA, YASUHIRO IKABATA, JUNJI SEINO,
          YUYA NAKAJIMA, HIROMI NAKAI
     NANJING UNIVERSITY: SHUHUA LI
     UNIVERSITY OF NEBRASKA:
          PEIFENG SU, DEJUN SI, NANDUN THELLAMUREGE, YALI WANG, HUI LI
     UNIVERSITY OF ZURICH: ROBERTO PEVERATI, KIM BALDRIDGE
     N. COPERNICUS UNIVERSITY AND JACKSON STATE UNIVERSITY:
          MARIA BARYSZ
     UNIVERSITY OF COPENHAGEN: Jimmy Kromann, CASPER STEINMANN
     TOKYO INSTITUTE OF TECHNOLOGY: HIROYA NAKATA
     NAGOYA UNIVERSITY: YOSHIO NISHIMOTO, STEPHAN IRLE
     MOSCOW STATE UNIVERSITY: VLADIMIR MIRONOV
     A.N.NESMEYANOV INSTITUTE OF ORGANOELEMENT COMPOUNDS OF RUSSIAN ACADEMY OF SCIENCES:
          IGOR S. GERASIMOV
     JOHANNES KEPLER UNIVERSITY LINZ:
          CHRISTIAN FRIEDL


 PARALLEL VERSION RUNNING ON        6 PROCESSORS IN        1 NODES.

 EXECUTION OF GAMESS BEGUN Mon May 25 19:19:54 2020

            ECHO OF THE FIRST FEW INPUT CARDS -
 INPUT CARD> $BASIS GBASIS=N21 NGAUSS=3 $END                                                
 INPUT CARD> $CONTRL SCFTYP=RHF DFTTYP=B3LYP MAXIT=60 MULT=1 ICHARG=0 $END                  
 INPUT CARD> $SYSTEM MEMDDI=1000 MWORDS=30 $END                                             
 INPUT CARD> $SCF DIRSCF=.TRUE. $END                                                        
 INPUT CARD> $ELPOT  IEPOT=1 WHERE=PDC $END                                                 
 INPUT CARD> $PDC PTSEL=GEODESIC CONSTR=CHARGE $END                                         
 INPUT CARD> $DATA                                                                          
 INPUT CARD>                                                                                
 INPUT CARD>C1                                                                              
 INPUT CARD>C 6.0000000 3.29336 2.00983 0.29195                                             
 INPUT CARD>O 8.0000000 2.78561 0.68900 0.16544                                             
 INPUT CARD>C 6.0000000 1.43765 0.53055 0.01424                                             
 INPUT CARD>C 6.0000000 0.98049 -0.80562 -0.10716                                           
 INPUT CARD>C 6.0000000 -0.38369 -1.05403 -0.26645                                          
 INPUT CARD>C 6.0000000 -1.32150 -0.00621 -0.30987                                          
 INPUT CARD>C 6.0000000 -0.85991 1.30265 -0.18318                                           
 INPUT CARD>C 6.0000000 0.50773 1.56949 -0.02516                                            
 INPUT CARD>C 6.0000000 -2.80260 -0.30459 -0.49960                                          
 INPUT CARD>C 6.0000000 -3.67457 0.24338 0.60328                                            
 INPUT CARD>C 6.0000000 -4.70749 1.07311 0.42616                                            
 INPUT CARD>O 8.0000000 1.94581 -1.76934 -0.05561                                           
 INPUT CARD>C 6.0000000 1.54866 -3.12944 -0.15487                                           
 INPUT CARD>H 1.0000000 4.37438 1.90328 0.39511                                             
 INPUT CARD>H 1.0000000 3.06975 2.61214 -0.59840                                            
 INPUT CARD>H 1.0000000 2.88987 2.51075 1.18178                                             
 INPUT CARD>H 1.0000000 -0.73551 -2.07549 -0.36316                                          
 INPUT CARD>H 1.0000000 -1.56328 2.13044 -0.20230                                           
 INPUT CARD>H 1.0000000 0.83701 2.59780 0.06961                                             
 INPUT CARD>H 1.0000000 -3.14780 0.09594 -1.46218                                           
 INPUT CARD>H 1.0000000 -2.93573 -1.39401 -0.55101                                          
 INPUT CARD>H 1.0000000 -3.41583 -0.07767 1.61314                                           
 INPUT CARD>H 1.0000000 -5.30275 1.42772 1.26293                                            
 INPUT CARD>H 1.0000000 -4.99346 1.42358 -0.56373                                           
 INPUT CARD>H 1.0000000 0.87143 -3.41129 0.66227                                            
 INPUT CARD>H 1.0000000 1.06456 -3.33872 -1.11782                                           
 INPUT CARD>H 1.0000000 2.46857 -3.71127 -0.07839                                           
 INPUT CARD> $END                                                                           
   30000000 WORDS OF MEMORY AVAILABLE

     BASIS OPTIONS
     -------------
     GBASIS=N21          IGAUSS=       3      POLAR=NONE    
     NDFUNC=       0     NFFUNC=       0     DIFFSP=       F
     NPFUNC=       0      DIFFS=       F     BASNAM=        


     RUN TITLE
     ---------
                                                                                 

 THE POINT GROUP OF THE MOLECULE IS C1      
 THE ORDER OF THE PRINCIPAL AXIS IS     0

 ATOM      ATOMIC                      COORDINATES (BOHR)
           CHARGE         X                   Y                   Z
 C           6.0     6.2235479789        3.7980279819        0.5517055021
 O           8.0     5.2640396087        1.3020212055        0.3126362674
 C           6.0     2.7167645662        1.0025941228        0.0269096981
 C           6.0     1.8528574337       -1.5224010502       -0.2025030368
 C           6.0    -0.7250689642       -1.9918278828       -0.5035174894
 C           6.0    -2.4972728928       -0.0117351984       -0.5855693918
 C           6.0    -1.6249942741        2.4616515579       -0.3461600064
 C           6.0     0.9594705757        2.9659060405       -0.0475455059
 C           6.0    -5.2961460532       -0.5755916386       -0.9441071035
 C           6.0    -6.9439304227        0.4599215109        1.1400338939
 C           6.0    -8.8958661899        2.0278838547        0.8053256269
 O           8.0     3.6770477242       -3.3435677791       -0.1050876622
 C           6.0     2.9265430481       -5.9137840950       -0.2926618637
 H           1.0     8.2663795662        3.5966776779        0.7466496350
 H           1.0     5.8009863508        4.9362288416       -1.1308120311
 H           1.0     5.4610624401        4.7446295237        2.2332403778
 H           1.0    -1.3899123612       -3.9221073903       -0.6862728897
 H           1.0    -2.9541708421        4.0259478333       -0.3822915673
 H           1.0     1.5817195490        4.9091301709        0.1315438260
 H           1.0    -5.9484794642        0.1813003113       -2.7631195447
 H           1.0    -5.5477252739       -2.6342969241       -1.0412579165
 H           1.0    -6.4549827206       -0.1467750175        3.0483925798
 H           1.0   -10.0207444814        2.6979995872        2.3865916417
 H           1.0    -9.4362711306        2.6901761216       -1.0652952311
 H           1.0     1.6467639175       -6.4464033647        1.2515088299
 H           1.0     2.0117266975       -6.3092659497       -2.1123735036
 H           1.0     4.6649208815       -7.0132833665       -0.1481356202

          INTERNUCLEAR DISTANCES (ANGS.)
          ------------------------------

                1 C          2 O          3 C          4 C          5 C     

   1 C       0.0000000    1.4207064 *  2.3893622 *  3.6654352    4.8186871  
   2 O       1.4207064 *  0.0000000    1.3656368 *  2.3593766 *  3.6426838  
   3 C       2.3893622 *  1.3656368 *  0.0000000    1.4174214 *  2.4304238 *
   4 C       3.6654352    2.3593766 *  1.4174214 *  0.0000000    1.3957320 *
   5 C       4.8186871    3.6426838    2.4304238 *  1.3957320 *  0.0000000  
   6 C       5.0718377    4.1925635    2.8294995 *  2.4452619 *  1.4068758 *
   7 C       4.2397528    3.7132086    2.4318501 *  2.7995810 *  2.4057556 *
   8 C       2.8379909 *  2.4495568 *  1.3948835 *  2.4230917 *  2.7813140 *
   9 C       6.5683955    5.7146820    4.3521501    3.8362495    2.5430582 *
  10 C       7.1950900    6.4903164    5.1540497    4.8243870    3.6427454  
  11 C       8.0566158    7.5074672    6.1827821    6.0139150    4.8682317  
  12 O       4.0272590    2.6072136 *  2.3563955 *  1.3650115 *  2.4459542 *
  13 C       5.4457068    4.0265528    3.6655761    2.3927459 *  2.8379135 *
  14 H       1.0911458 *  2.0128125 *  3.2640209    4.3713732    5.6411501  
  15 H       1.0979535 *  2.0886969 *  2.7151602 *  4.0357660    5.0474985  
  16 H       1.0979629 *  2.0886815 *  2.7190595 *  4.0379956    5.0518533  
  17 H       5.7750153    4.5077832    3.4141616    2.1500609 *  1.0846708 *
  18 H       4.8832143    4.5962840    3.4076559    3.8859060    3.3965272  
  19 H       2.5355077 *  2.7294217 *  2.1534523 *  3.4110265    3.8650882  
  20 H       6.9446734    6.1811181    4.8368433    4.4375295    3.2237409  
  21 H       7.1483054    6.1307392    4.8114334    3.9849698    2.5902643 *
  22 H       7.1495755    6.4141622    5.1461326    4.7767115    3.6986498  
  23 H       8.6703380    8.1958379    6.9135471    6.8076471    5.7179750  
  24 H       8.3514827    7.8476255    6.5184912    6.3926417    5.2418419  
  25 H       5.9490692    4.5522855    4.0346810    2.7190868 *  2.8274585 *
  26 H       5.9633873    4.5641317    4.0487043    2.7285705 *  2.8358539 *
  27 H       5.7920994    4.4184096    4.3662814    3.2646610    3.9027783  

                6 C          7 C          8 C          9 C         10 C     

   1 C       5.0718377    4.2397528    2.8379909 *  6.5683955    7.1950900  
   2 O       4.1925635    3.7132086    2.4495568 *  5.7146820    6.4903164  
   3 C       2.8294995 *  2.4318501 *  1.3948835 *  4.3521501    5.1540497  
   4 C       2.4452619 *  2.7995810 *  2.4230917 *  3.8362495    4.8243870  
   5 C       1.4068758 *  2.4057556 *  2.7813140 *  2.5430582 *  3.6427454  
   6 C       0.0000000    1.3936392 *  2.4310435 *  1.5227230 *  2.5363510 *
   7 C       1.3936392 *  0.0000000    1.4023598 *  2.5411388 *  3.1085178  
   8 C       2.4310435 *  1.4023598 *  0.0000000    3.8334780    4.4322836  
   9 C       1.5227230 *  2.5411388 *  3.8334780    0.0000000    1.5089556 *
  10 C       2.5363510 *  3.1085178    4.4322836    1.5089556 *  0.0000000  
  11 C       3.6292699    3.9022885    5.2581938    2.5265975 *  1.3366926 *
  12 O       3.7213694    4.1623865    3.6354899    4.9889896    6.0061509  
  13 C       4.2445741    5.0443466    4.8145927    5.1992384    6.2636122  
  14 H       6.0486526    5.3002799    3.9037194    7.5620260    8.2209609  
  15 H       5.1207502    4.1628595    2.8248309 *  6.5575582    7.2485110  
  16 H       5.1279377    4.1693490    2.8314776 *  6.5694286    6.9690388  
  17 H       2.1513121 *  3.3852176    3.8659758    2.7253557 *  3.8664245  
  18 H       2.1529752 *  1.0864305 *  2.1529343 *  2.7483945 *  2.9440618 *
  19 H       3.4035332    2.1496171 *  1.0838949 *  4.6898431    5.1168791  
  20 H       2.1618568 *  2.8855555 *  4.1951491    1.0982475 *  2.1366680 *
  21 H       2.1423996 *  3.4229085    4.5734306    1.0987277 *  2.1352555 *
  22 H       2.8441681 *  3.4153735    4.5597682    2.2116089 *  1.0907964 *
  23 H       4.5144442    4.6739388    5.9532304    3.5154175    2.1186716 *
  24 H       3.9486750    4.1527916    5.5294158    2.7911560 *  2.1199659 *
  25 H       4.1651612    5.0924998    5.0411315    4.9497498    5.8331988  
  26 H       4.1775218    5.1107193    5.0590998    4.9540960    6.1848993  
  27 H       5.3052505    6.0190659    5.6333075    6.2903195    7.3377176  

               11 C         12 O         13 C         14 H         15 H     

   1 C       8.0566158    4.0272590    5.4457068    1.0911458 *  1.0979535 *
   2 O       7.5074672    2.6072136 *  4.0265528    2.0128125 *  2.0886969 *
   3 C       6.1827821    2.3563955 *  3.6655761    3.2640209    2.7151602 *
   4 C       6.0139150    1.3650115 *  2.3927459 *  4.3713732    4.0357660  
   5 C       4.8682317    2.4459542 *  2.8379135 *  5.6411501    5.0474985  
   6 C       3.6292699    3.7213694    4.2445741    6.0486526    5.1207502  
   7 C       3.9022885    4.1623865    5.0443466    5.3002799    4.1628595  
   8 C       5.2581938    3.6354899    4.8145927    3.9037194    2.8248309 *
   9 C       2.5265975 *  4.9889896    5.1992384    7.5620260    6.5575582  
  10 C       1.3366926 *  6.0061509    6.2636122    8.2209609    7.2485110  
  11 C       0.0000000    7.2510706    7.5589970    9.1197867    7.9939851  
  12 O       7.2510706    0.0000000    1.4203706 *  4.4259732    4.5557907  
  13 C       7.5589970    1.4203706 *  0.0000000    5.7978826    5.9561879  
  14 H       9.1197867    4.4259732    5.7978826    0.0000000    1.7865061 *
  15 H       7.9939851    4.5557907    5.9561879    1.7865061 *  0.0000000  
  16 H       7.7690186    4.5542896    5.9495563    1.7865160 *  1.7921154 *
  17 H       5.1296523    2.7162091 *  2.5242084 *  6.5204724    6.0422857  
  18 H       3.3762354    5.2481916    6.1116903    5.9719600    4.6748152  
  19 H       5.7613616    4.5074415    5.7756484    3.6195711    2.3305731 *
  20 H       2.6369153 *  5.6037997    5.8454146    7.9560792    6.7627884  
  21 H       3.1907171    4.9209477    4.8247692    8.0749596    7.2192294  
  22 H       2.0979994 *  5.8646106    6.0897718    8.1298913    7.3612998  
  23 H       1.0864008 *  8.0312740    8.3498313    9.7275955    8.6582999  
  24 H       1.0883429 *  7.6554812    7.9810082    9.4289932    8.1504130  
  25 H       7.1616995    2.0894123 *  1.0980882 *  6.3707682    6.5347998  
  26 H       7.4272929    2.0899390 *  1.0979179 *  6.3814128    6.3010570  
  27 H       8.6394849    2.0111910 *  1.0911507 *  5.9480657    6.3731736  

               16 H         17 H         18 H         19 H         20 H     

   1 C       1.0979629 *  5.7750153    4.8832143    2.5355077 *  6.9446734  
   2 O       2.0886815 *  4.5077832    4.5962840    2.7294217 *  6.1811181  
   3 C       2.7190595 *  3.4141616    3.4076559    2.1534523 *  4.8368433  
   4 C       4.0379956    2.1500609 *  3.8859060    3.4110265    4.4375295  
   5 C       5.0518533    1.0846708 *  3.3965272    3.8650882    3.2237409  
   6 C       5.1279377    2.1513121 *  2.1529752 *  3.4035332    2.1618568 *
   7 C       4.1693490    3.3852176    1.0864305 *  2.1496171 *  2.8855555 *
   8 C       2.8314776 *  3.8659758    2.1529343 *  1.0838949 *  4.1951491  
   9 C       6.5694286    2.7253557 *  2.7483945 *  4.6898431    1.0982475 *
  10 C       6.9690388    3.8664245    2.9440618 *  5.1168791    2.1366680 *
  11 C       7.7690186    5.1296523    3.3762354    5.7613616    2.6369153 *
  12 O       4.5542896    2.7162091 *  5.2481916    4.5074415    5.6037997  
  13 C       5.9495563    2.5242084 *  6.1116903    5.7756484    5.8454146  
  14 H       1.7865160 *  6.5204724    5.9719600    3.6195711    7.9560792  
  15 H       1.7921154 *  6.0422857    4.6748152    2.3305731 *  6.7627884  
  16 H       0.0000000    6.0468022    4.6787667    2.3363934 *  7.0196361  
  17 H       6.0468022    0.0000000    4.2896301    4.9497221    3.4266742  
  18 H       4.6787667    4.2896301    0.0000000    2.4604375 *  2.8700508 *
  19 H       2.3363934 *  4.9497221    2.4604375 *  0.0000000    4.9481709  
  20 H       7.0196361    3.4266742    2.8700508 *  4.9481709    0.0000000  
  21 H       7.2240797    2.3109891 *  3.7982845    5.5275025    1.7593054 *
  22 H       6.8299225    3.8834471    3.4063931    5.2561652    3.0918560  
  23 H       8.2642944    5.9813318    4.0772969    6.3631559    3.7207085  
  24 H       8.1471244    5.5148760    3.5208547    5.9811615    2.4446475 *
  25 H       6.2781007    2.3276865 *  6.1144146    6.0383436    5.7417906  
  26 H       6.5449382    2.3249761 *  6.1364021    6.0583858    5.4460490  
  27 H       6.3623152    3.6087392    7.0990664    6.5183016    6.9248346  

               21 H         22 H         23 H         24 H         25 H     

   1 C       7.1483054    7.1495755    8.6703380    8.3514827    5.9490692  
   2 O       6.1307392    6.4141622    8.1958379    7.8476255    4.5522855  
   3 C       4.8114334    5.1461326    6.9135471    6.5184912    4.0346810  
   4 C       3.9849698    4.7767115    6.8076471    6.3926417    2.7190868 *
   5 C       2.5902643 *  3.6986498    5.7179750    5.2418419    2.8274585 *
   6 C       2.1423996 *  2.8441681 *  4.5144442    3.9486750    4.1651612  
   7 C       3.4229085    3.4153735    4.6739388    4.1527916    5.0924998  
   8 C       4.5734306    4.5597682    5.9532304    5.5294158    5.0411315  
   9 C       1.0987277 *  2.2116089 *  3.5154175    2.7911560 *  4.9497498  
  10 C       2.1352555 *  1.0907964 *  2.1186716 *  2.1199659 *  5.8331988  
  11 C       3.1907171    2.0979994 *  1.0864008 *  1.0883429 *  7.1616995  
  12 O       4.9209477    5.8646106    8.0312740    7.6554812    2.0894123 *
  13 C       4.8247692    6.0897718    8.3498313    7.9810082    1.0980882 *
  14 H       8.0749596    8.1298913    9.7275955    9.4289932    6.3707682  
  15 H       7.2192294    7.3612998    8.6582999    8.1504130    6.5347998  
  16 H       7.2240797    6.8299225    8.2642944    8.1471244    6.2781007  
  17 H       2.3109891 *  3.8834471    5.9813318    5.5148760    2.3276865 *
  18 H       3.7982845    3.4063931    4.0772969    3.5208547    6.1144146  
  19 H       5.5275025    5.2561652    6.3631559    5.9811615    6.0383436  
  20 H       1.7593054 *  3.0918560    3.7207085    2.4446475 *  5.7417906  
  21 H       0.0000000    2.5781374 *  4.1055234    3.4890153    4.4761517  
  22 H       2.5781374 *  0.0000000    2.4391214 *  3.0791932    5.5134177  
  23 H       4.1055234    2.4391214 *  0.0000000    1.8526641 *  7.8674843  
  24 H       3.4890153    3.0791932    1.8526641 *  0.0000000    7.6990895  
  25 H       4.4761517    5.5134177    7.8674843    7.6990895    0.0000000  
  26 H       4.4839147    6.1779029    8.3023826    7.7256795    1.7920061 *
  27 H       5.8991120    7.1197251    9.4128514    9.0710601    1.7858951 *

               26 H         27 H     

   1 C       5.9633873    5.7920994  
   2 O       4.5641317    4.4184096  
   3 C       4.0487043    4.3662814  
   4 C       2.7285705 *  3.2646610  
   5 C       2.8358539 *  3.9027783  
   6 C       4.1775218    5.3052505  
   7 C       5.1107193    6.0190659  
   8 C       5.0590998    5.6333075  
   9 C       4.9540960    6.2903195  
  10 C       6.1848993    7.3377176  
  11 C       7.4272929    8.6394849  
  12 O       2.0899390 *  2.0111910 *
  13 C       1.0979179 *  1.0911507 *
  14 H       6.3814128    5.9480657  
  15 H       6.3010570    6.3731736  
  16 H       6.5449382    6.3623152  
  17 H       2.3249761 *  3.6087392  
  18 H       6.1364021    7.0990664  
  19 H       6.0583858    6.5183016  
  20 H       5.4460490    6.9248346  
  21 H       4.4839147    5.8991120  
  22 H       6.1779029    7.1197251  
  23 H       8.3023826    9.4128514  
  24 H       7.7256795    9.0710601  
  25 H       1.7920061 *  1.7858951 *
  26 H       0.0000000    1.7861837 *
  27 H       1.7861837 *  0.0000000  

  * ... LESS THAN  3.000


     ATOMIC BASIS SET
     ----------------
 THE CONTRACTED PRIMITIVE FUNCTIONS HAVE BEEN UNNORMALIZED
 THE CONTRACTED BASIS FUNCTIONS ARE NOW NORMALIZED TO UNITY

  SHELL TYPE  PRIMITIVE        EXPONENT          CONTRACTION COEFFICIENT(S)

 C         

      1   S       1           172.2560000    0.061766907377
      1   S       2            25.9109000    0.358794042852
      1   S       3             5.5333500    0.700713083689

      2   L       4             3.6649800   -0.395895162119    0.236459946619
      2   L       5             0.7705450    1.215834355681    0.860618805716

      3   L       6             0.1958570    1.000000000000    1.000000000000

 O         

      4   S       7           322.0370000    0.059239393389
      4   S       8            48.4308000    0.351499960776
      4   S       9            10.4206000    0.707657921031

      5   L      10             7.4029400   -0.404453583190    0.244586106967
      5   L      11             1.5762000    1.221561761397    0.853955373466

      6   L      12             0.3736840    1.000000000000    1.000000000000

 C         

      7   S      13           172.2560000    0.061766907377
      7   S      14            25.9109000    0.358794042852
      7   S      15             5.5333500    0.700713083689

      8   L      16             3.6649800   -0.395895162119    0.236459946619
      8   L      17             0.7705450    1.215834355681    0.860618805716

      9   L      18             0.1958570    1.000000000000    1.000000000000

 C         

     10   S      19           172.2560000    0.061766907377
     10   S      20            25.9109000    0.358794042852
     10   S      21             5.5333500    0.700713083689

     11   L      22             3.6649800   -0.395895162119    0.236459946619
     11   L      23             0.7705450    1.215834355681    0.860618805716

     12   L      24             0.1958570    1.000000000000    1.000000000000

 C         

     13   S      25           172.2560000    0.061766907377
     13   S      26            25.9109000    0.358794042852
     13   S      27             5.5333500    0.700713083689

     14   L      28             3.6649800   -0.395895162119    0.236459946619
     14   L      29             0.7705450    1.215834355681    0.860618805716

     15   L      30             0.1958570    1.000000000000    1.000000000000

 C         

     16   S      31           172.2560000    0.061766907377
     16   S      32            25.9109000    0.358794042852
     16   S      33             5.5333500    0.700713083689

     17   L      34             3.6649800   -0.395895162119    0.236459946619
     17   L      35             0.7705450    1.215834355681    0.860618805716

     18   L      36             0.1958570    1.000000000000    1.000000000000

 C         

     19   S      37           172.2560000    0.061766907377
     19   S      38            25.9109000    0.358794042852
     19   S      39             5.5333500    0.700713083689

     20   L      40             3.6649800   -0.395895162119    0.236459946619
     20   L      41             0.7705450    1.215834355681    0.860618805716

     21   L      42             0.1958570    1.000000000000    1.000000000000

 C         

     22   S      43           172.2560000    0.061766907377
     22   S      44            25.9109000    0.358794042852
     22   S      45             5.5333500    0.700713083689

     23   L      46             3.6649800   -0.395895162119    0.236459946619
     23   L      47             0.7705450    1.215834355681    0.860618805716

     24   L      48             0.1958570    1.000000000000    1.000000000000

 C         

     25   S      49           172.2560000    0.061766907377
     25   S      50            25.9109000    0.358794042852
     25   S      51             5.5333500    0.700713083689

     26   L      52             3.6649800   -0.395895162119    0.236459946619
     26   L      53             0.7705450    1.215834355681    0.860618805716

     27   L      54             0.1958570    1.000000000000    1.000000000000

 C         

     28   S      55           172.2560000    0.061766907377
     28   S      56            25.9109000    0.358794042852
     28   S      57             5.5333500    0.700713083689

     29   L      58             3.6649800   -0.395895162119    0.236459946619
     29   L      59             0.7705450    1.215834355681    0.860618805716

     30   L      60             0.1958570    1.000000000000    1.000000000000

 C         

     31   S      61           172.2560000    0.061766907377
     31   S      62            25.9109000    0.358794042852
     31   S      63             5.5333500    0.700713083689

     32   L      64             3.6649800   -0.395895162119    0.236459946619
     32   L      65             0.7705450    1.215834355681    0.860618805716

     33   L      66             0.1958570    1.000000000000    1.000000000000

 O         

     34   S      67           322.0370000    0.059239393389
     34   S      68            48.4308000    0.351499960776
     34   S      69            10.4206000    0.707657921031

     35   L      70             7.4029400   -0.404453583190    0.244586106967
     35   L      71             1.5762000    1.221561761397    0.853955373466

     36   L      72             0.3736840    1.000000000000    1.000000000000

 C         

     37   S      73           172.2560000    0.061766907377
     37   S      74            25.9109000    0.358794042852
     37   S      75             5.5333500    0.700713083689

     38   L      76             3.6649800   -0.395895162119    0.236459946619
     38   L      77             0.7705450    1.215834355681    0.860618805716

     39   L      78             0.1958570    1.000000000000    1.000000000000

 H         

     40   S      79             5.4471780    0.156284978695
     40   S      80             0.8245472    0.904690876670

     41   S      81             0.1831916    1.000000000000

 H         

     42   S      82             5.4471780    0.156284978695
     42   S      83             0.8245472    0.904690876670

     43   S      84             0.1831916    1.000000000000

 H         

     44   S      85             5.4471780    0.156284978695
     44   S      86             0.8245472    0.904690876670

     45   S      87             0.1831916    1.000000000000

 H         

     46   S      88             5.4471780    0.156284978695
     46   S      89             0.8245472    0.904690876670

     47   S      90             0.1831916    1.000000000000

 H         

     48   S      91             5.4471780    0.156284978695
     48   S      92             0.8245472    0.904690876670

     49   S      93             0.1831916    1.000000000000

 H         

     50   S      94             5.4471780    0.156284978695
     50   S      95             0.8245472    0.904690876670

     51   S      96             0.1831916    1.000000000000

 H         

     52   S      97             5.4471780    0.156284978695
     52   S      98             0.8245472    0.904690876670

     53   S      99             0.1831916    1.000000000000

 H         

     54   S     100             5.4471780    0.156284978695
     54   S     101             0.8245472    0.904690876670

     55   S     102             0.1831916    1.000000000000

 H         

     56   S     103             5.4471780    0.156284978695
     56   S     104             0.8245472    0.904690876670

     57   S     105             0.1831916    1.000000000000

 H         

     58   S     106             5.4471780    0.156284978695
     58   S     107             0.8245472    0.904690876670

     59   S     108             0.1831916    1.000000000000

 H         

     60   S     109             5.4471780    0.156284978695
     60   S     110             0.8245472    0.904690876670

     61   S     111             0.1831916    1.000000000000

 H         

     62   S     112             5.4471780    0.156284978695
     62   S     113             0.8245472    0.904690876670

     63   S     114             0.1831916    1.000000000000

 H         

     64   S     115             5.4471780    0.156284978695
     64   S     116             0.8245472    0.904690876670

     65   S     117             0.1831916    1.000000000000

 H         

     66   S     118             5.4471780    0.156284978695
     66   S     119             0.8245472    0.904690876670

     67   S     120             0.1831916    1.000000000000

 TOTAL NUMBER OF BASIS SET SHELLS             =   67
 NUMBER OF CARTESIAN GAUSSIAN BASIS FUNCTIONS =  145
 NUMBER OF ELECTRONS                          =   96
 CHARGE OF MOLECULE                           =    0
 SPIN MULTIPLICITY                            =    1
 NUMBER OF OCCUPIED ORBITALS (ALPHA)          =   48
 NUMBER OF OCCUPIED ORBITALS (BETA )          =   48
 TOTAL NUMBER OF ATOMS                        =   27
 THE NUCLEAR REPULSION ENERGY IS      764.1560776709

 SELECTED MURRAY-HANDY-LAMING RADIAL GRID

 LEGACY BECKE'S FUZZY CELL METHOD

 SELECTED ORIGINAL BECKE'S PARTITION FUNCTION

     LEBEDEV GRID-BASED DFT OPTIONS
     ------------------------------
     DFTTYP=B3LYP   
     NRAD  =      96     NLEB  =     302
     NRAD0 =      24     NLEB0 =     110
     SWOFF =    5.00E-03 (PURE SCF -> DFT)
     SWITCH=    3.00E-04 (COARSE -> TIGHT GRID)
     THRESH=    0.00E+00 GTHRE=    1.00E+00

 GRIMME'S EMPIRICAL DISPERSION CORRECTION= F

     $CONTRL OPTIONS
     ---------------
 SCFTYP=RHF          RUNTYP=ENERGY       EXETYP=RUN     
 MPLEVL=       0     CITYP =NONE         CCTYP =NONE         VBTYP =NONE    
 DFTTYP=B3LYP        TDDFT =NONE    
 MULT  =       1     ICHARG=       0     NZVAR =       0     COORD =UNIQUE  
 PP    =NONE         RELWFN=NONE         LOCAL =NONE         NUMGRD=       F
 ISPHER=      -1     NOSYM =       0     MAXIT =      60     UNITS =ANGS    
 PLTORB=       F     MOLPLT=       F     AIMPAC=       F     FRIEND=        
 NPRINT=       7     IREST =       0     GEOM  =INPUT   
 NORMF =       0     NORMP =       0     ITOL  =      20     ICUT  =       9
 INTTYP=BEST         GRDTYP=BEST         QMTTOL= 1.0E-06

     $SYSTEM OPTIONS
     ---------------
  REPLICATED MEMORY=    30000000 WORDS (ON EVERY NODE).
 DISTRIBUTED MEMDDI=        1000 MILLION WORDS IN AGGREGATE,
 MEMDDI DISTRIBUTED OVER   6 PROCESSORS IS   166666666 WORDS/PROCESSOR.
 TOTAL MEMORY REQUESTED ON EACH PROCESSOR=   196666666 WORDS.
 TIMLIM=      525600.00 MINUTES, OR     365.0 DAYS.
 PARALL= T  BALTYP=  DLB     KDIAG=    0  COREFL= F
 MXSEQ2=     300 MXSEQ3=     150  mem10=         0

     INPUT FOR POTENTIAL-DERIVED CHARGES 
     -----------------------------------
     VDWSCL=    1.40   RMAX=    3.00   DELR=    0.80
     VDWINC=    0.20 PTDENS=    0.28
     LAYER =       4  NFREQ=      30 MAXPDC=   10000
     CONSTR=CHARGE    UNITS=ANGS      PTSEL=GEODESIC
     CENTER=  0.0000  0.0000  0.0000
     DPOLE =  0.0000  0.0000  0.0000
     QPOLE =  0.0000  0.0000  0.0000  0.0000  0.0000  0.0000


          ----------------
          PROPERTIES INPUT
          ----------------

     MOMENTS            FIELD           POTENTIAL          DENSITY
 IEMOM =       1   IEFLD =       0   IEPOT =       1   IEDEN =       0
 WHERE =COMASS     WHERE =NUCLEI     WHERE =PDC        WHERE =NUCLEI  
 OUTPUT=BOTH       OUTPUT=BOTH       OUTPUT=BOTH       OUTPUT=BOTH    
 IEMINT=       0   IEFINT=       0                     IEDINT=       0
                                                       MORB  =       0
          EXTRAPOLATION IN EFFECT
          DIIS IN EFFECT
 ORBITAL PRINTING OPTION: NPREO=     1   145     2     1

     -------------------------------
     INTEGRAL TRANSFORMATION OPTIONS
     -------------------------------
     NWORD  =            0
     CUTOFF = 1.0E-09     MPTRAN =       0
     DIRTRF =       T     AOINTS =DUP     

          ----------------------
          INTEGRAL INPUT OPTIONS
          ----------------------
 NOPK  =       1 NORDER=       0 SCHWRZ=       T

     ------------------------------------------
     THE POINT GROUP IS C1 , NAXIS= 0, ORDER= 1
     ------------------------------------------

     DIMENSIONS OF THE SYMMETRY SUBSPACES ARE
 A   =  145

 ..... DONE SETTING UP THE RUN .....
 CPU     0: STEP CPU TIME=     0.02 TOTAL CPU TIME=          0.0 (      0.0 MIN)
 TOTAL WALL CLOCK TIME=          0.0 SECONDS, CPU UTILIZATION IS    66.67%

          ********************
          1 ELECTRON INTEGRALS
          ********************
 ...... END OF ONE-ELECTRON INTEGRALS ......
 CPU     0: STEP CPU TIME=     0.02 TOTAL CPU TIME=          0.0 (      0.0 MIN)
 TOTAL WALL CLOCK TIME=          0.0 SECONDS, CPU UTILIZATION IS   100.00%

          -------------
          GUESS OPTIONS
          -------------
          GUESS =HUCKEL            NORB  =       0          NORDER=       0
          MIX   =       F          PRTMO =       F          PUNMO =       F
          TOLZ  = 1.0E-08          TOLE  = 1.0E-05
          SYMDEN=       F          PURIFY=       F

 INITIAL GUESS ORBITALS GENERATED BY HUCKEL   ROUTINE.
 HUCKEL GUESS REQUIRES    197422 WORDS.

 SYMMETRIES FOR INITIAL GUESS ORBITALS FOLLOW.   BOTH SET(S).
    48 ORBITALS ARE OCCUPIED (   13 CORE ORBITALS).
    14=A       15=A       16=A       17=A       18=A       19=A       20=A   
    21=A       22=A       23=A       24=A       25=A       26=A       27=A   
    28=A       29=A       30=A       31=A       32=A       33=A       34=A   
    35=A       36=A       37=A       38=A       39=A       40=A       41=A   
    42=A       43=A       44=A       45=A       46=A       47=A       48=A   
    49=A       50=A       51=A       52=A       53=A       54=A       55=A   
    56=A       57=A       58=A   
 ...... END OF INITIAL ORBITAL SELECTION ......
 CPU     0: STEP CPU TIME=     0.03 TOTAL CPU TIME=          0.1 (      0.0 MIN)
 TOTAL WALL CLOCK TIME=          0.1 SECONDS, CPU UTILIZATION IS    77.78%

                    ----------------------
                    AO INTEGRAL TECHNOLOGY
                    ----------------------
     S,P,L SHELL ROTATED AXIS INTEGRALS, REPROGRAMMED BY
        KAZUYA ISHIMURA (IMS) AND JOSE SIERRA (SYNSTAR).
     S,P,D,L SHELL ROTATED AXIS INTEGRALS PROGRAMMED BY
        KAZUYA ISHIMURA (INSTITUTE FOR MOLECULAR SCIENCE).
     S,P,D,F,G SHELL TO TOTAL QUARTET ANGULAR MOMENTUM SUM 5,
        ERIC PROGRAM BY GRAHAM FLETCHER (ELORET AND NASA ADVANCED
        SUPERCOMPUTING DIVISION, AMES RESEARCH CENTER).
     S,P,D,F,G,L SHELL GENERAL RYS QUADRATURE PROGRAMMED BY
        MICHEL DUPUIS (PACIFIC NORTHWEST NATIONAL LABORATORY).

          --------------------
          2 ELECTRON INTEGRALS
          --------------------

 DIRECT SCF METHOD SKIPS INTEGRAL STORAGE ON DISK.
 DIRECT TRANSFORMATION SKIPS AO INTEGRAL STORAGE ON DISK.
  ...... END OF TWO-ELECTRON INTEGRALS .....
 CPU     0: STEP CPU TIME=     0.02 TOTAL CPU TIME=          0.1 (      0.0 MIN)
 TOTAL WALL CLOCK TIME=          0.1 SECONDS, CPU UTILIZATION IS    90.00%

          --------------------------
             R-B3LYP SCF CALCULATION
          --------------------------

     NUCLEAR ENERGY =       764.1560776709
     MAXIT =   60     NPUNCH=    2
     EXTRAP=T  DAMP=F  SHIFT=F  RSTRCT=F  DIIS=T  DEM=F  SOSCF=F
         DENSITY MATRIX CONVERGENCE THRESHOLD=  2.00E-05
     COARSE -> FINE DFT GRID SWITCH THRESHOLD=  3.00E-04 (SWITCH IN $DFT)
                   HF -> DFT SWITCH THRESHOLD=  5.00E-03 (SWOFF IN $DFT)
     MEMORY REQUIRED FOR RHF ITERS=   1075524 WORDS.

 DIRECT SCF CALCULATION, SCHWRZ=T   FDIFF=T,  DIRTHR=  0.00E+00 NITDIR=10
 SCHWARZ INEQUALITY OVERHEAD:      9439 INTEGRALS, T=        0.01

 DFT CODE IS SWITCHING FROM THE FINE GRID NRAD= 96,  NLEB=  302
                      TO THE COARSE GRID NRAD0= 24, NLEB0=  110

     EXCHANGE FUNCTIONAL   =B88&HFX   
     CORRELATION FUNCTIONAL=LYP88&VWN5
     DFT THRESHOLD         =.511E-08
     GRID CHANGE THRESHOLD =.300E-03
 FOR AN EULER-MACLAURIN QUADRATURE USING  96 RADIAL POINTS:
 SMALLEST GAUSSIAN PRIMITIVE EXPONENT=        0.1831915800 OF TYPE -S-
 ON ATOM NUMBER  14 HAS RADIAL NORMALIZATION=  1.000000
  LARGEST GAUSSIAN PRIMITIVE EXPONENT=      322.0370000000 OF TYPE -S-
 ON ATOM NUMBER   2 HAS RADIAL NORMALIZATION=  1.000000
 DFT IS SWITCHED OFF, PERFORMING PURE SCF UNTIL SWOFF THRESHOLD IS REACHED.

                                                                                   NONZERO     BLOCKS
 ITER EX DEM     TOTAL ENERGY        E CHANGE  DENSITY CHANGE    DIIS ERROR      INTEGRALS    SKIPPED
   1  0  0     -569.9281081546  -569.9281081546   0.660990551   0.831489999       25023436    1711715
          * * *   INITIATING DIIS PROCEDURE   * * *
   2  1  0     -571.1209100864    -1.1928019318   0.142403463   0.062704639       24961266    1740865
   3  2  0     -571.1734261512    -0.0525160649   0.047658688   0.020110700       24679010    1798459
   4  3  0     -571.1795253670    -0.0060992157   0.019276641   0.012660425       24119914    1858421
   5  4  0     -571.1808267337    -0.0013013668   0.004910408   0.002698023       23627786    1890001
 CONVERGED TO SWOFF, SO DFT CALCULATION IS NOW SWITCHED ON.
          * * *   INITIATING DIIS PROCEDURE   * * *
   6  5  0     -574.4108330934    -3.2300063597   0.147673232   0.074580934       25040867    1701717
   7  6  0     -574.4539659704    -0.0431328770   0.059251832   0.036731850       24844722    1776483
   8  7  0     -574.4551848394    -0.0012188689   0.034236193   0.045728300       24550656    1814457
   9  8  0     -574.4655249454    -0.0103401060   0.006569398   0.010854767       24262972    1845627
  10  9  0     -574.4663449868    -0.0008200414   0.002917126   0.002640805       23495598    1899918
  11 10  0     -574.4663969443    -0.0000519575   0.000908171   0.000807681       22298871    1965747
  12 11  0     -574.4664019850    -0.0000050407   0.000260874   0.000109968       20951025    2015999
 DFT CODE IS SWITCHING BACK TO THE FINE GRID
          * * *   INITIATING DIIS PROCEDURE   * * *
  13 12  0     -574.4744681558    -0.0080661708   0.002178143   0.002253443       25054031    1694657
  14 13  0     -574.4744979392    -0.0000297834   0.001362250   0.001170381       22517915    1950860
  15 14  0     -574.4745002340    -0.0000022948   0.000835564   0.001230685       21424518    2000882
  16 15  0     -574.4745055222    -0.0000052882   0.000172336   0.000169392       20780090    2027756
  17 16  0     -574.4745057083    -0.0000001861   0.000057921   0.000053981       19234849    2086209
  18 17  0     -574.4745057321    -0.0000000238   0.000022815   0.000013897       17712067    2139775
  19 18  0     -574.4745057346    -0.0000000025   0.000003699   0.000002300       15779985    2194665
  20 19  0     -574.4745057347    -0.0000000001   0.000001716   0.000001371       13533976    2260774

          -----------------
          DENSITY CONVERGED
          -----------------
     TIME TO FORM FOCK OPERATORS=      50.1 SECONDS (       2.5 SEC/ITER)
     FOCK TIME ON FIRST ITERATION=       0.3, LAST ITERATION=       5.4
     TIME TO SOLVE SCF EQUATIONS=       0.6 SECONDS (       0.0 SEC/ITER)

 FINAL R-B3LYP ENERGY IS     -574.4745057347 AFTER  20 ITERATIONS
 DFT EXCHANGE + CORRELATION ENERGY =       -65.8548042285
 TOTAL ELECTRON NUMBER             =        96.0000132417

          ------------
          EIGENVECTORS
          ------------

                      1          2          3          4          5
                  -19.0599   -19.0589   -10.1784   -10.1764   -10.1717
                     A          A          A          A          A   
    1  C  1  S    0.000087  -0.000537  -0.009781  -0.016930  -0.054132
    2  C  1  S   -0.000138  -0.001533  -0.001949  -0.002905  -0.006528
    3  C  1  X    0.000499  -0.000960   0.000140   0.000638   0.000274
    4  C  1  Y    0.000881  -0.002170   0.000039   0.000308   0.000134
    5  C  1  Z    0.000101  -0.000222   0.000016   0.000084   0.000035
    6  C  1  S   -0.002222   0.012677   0.004089   0.002453   0.005420
    7  C  1  X   -0.000375  -0.002378  -0.001798  -0.003845  -0.001646
    8  C  1  Y    0.000054  -0.004493  -0.001664   0.000297  -0.000308
    9  C  1  Z   -0.000037  -0.000495  -0.000275  -0.000392  -0.000189
   10  O  2  S   -0.295841   0.937382  -0.000278   0.000353  -0.000039
   11  O  2  S   -0.034266   0.103751  -0.002368   0.002542  -0.000404
   12  O  2  X    0.001108  -0.002788   0.000741  -0.000703   0.000130
   13  O  2  Y   -0.000721   0.002537   0.000242  -0.000152  -0.000075
   14  O  2  Z    0.000077  -0.000154   0.000093  -0.000085   0.000008
   15  O  2  S    0.028608  -0.062897   0.009303  -0.006993   0.001548
   16  O  2  X   -0.007120   0.011306  -0.005383   0.005290  -0.000962
   17  O  2  Y    0.000472  -0.005610  -0.000774   0.000938   0.000239
   18  O  2  Z   -0.000726   0.000884  -0.000618   0.000620  -0.000082
   19  C  3  S   -0.000232  -0.000091  -0.412744   0.895164   0.021110
   20  C  3  S   -0.002271   0.001424  -0.051213   0.097840   0.000675
   21  C  3  X    0.000392   0.000415   0.001390  -0.000430   0.000381
   22  C  3  Y   -0.000679   0.000189   0.001618   0.000732  -0.000061
   23  C  3  Z    0.000005   0.000051   0.000236  -0.000002   0.000043
   24  C  3  S    0.021933   0.002759   0.088143  -0.077097   0.017946
   25  C  3  X   -0.038099   0.034010  -0.045275   0.029780  -0.008812
   26  C  3  Y    0.002349   0.005141  -0.018403  -0.002241  -0.010943
   27  C  3  Z   -0.003905   0.003888  -0.005785   0.002988  -0.001566
   28  C  4  S    0.000060  -0.000249   0.895858   0.411509   0.011023
   29  C  4  S    0.002480  -0.001069   0.102600   0.040984   0.000733
   30  C  4  X   -0.000222   0.000722  -0.000589  -0.000578   0.000320
   31  C  4  Y   -0.000456   0.000030   0.001432  -0.001635   0.002020
   32  C  4  Z   -0.000044   0.000082   0.000017  -0.000149   0.000132
   33  C  4  S   -0.010064   0.020344  -0.116879   0.000459  -0.006984
   34  C  4  X    0.036871  -0.013617   0.034545   0.001864  -0.004662
   35  C  4  Y   -0.033873   0.002704  -0.043479   0.014860  -0.022537
   36  C  4  Z    0.002103  -0.001301   0.001321   0.001032  -0.001655
   37  C  5  S   -0.000365   0.000140  -0.010207  -0.006275  -0.000358
   38  C  5  S   -0.001831   0.000393  -0.006729  -0.003017   0.000149
   39  C  5  X    0.000978  -0.000488  -0.000958  -0.001669  -0.000508
   40  C  5  Y   -0.001124  -0.000683  -0.001126  -0.001162   0.000287
   41  C  5  Z    0.000043  -0.000085  -0.000160  -0.000228  -0.000037
   42  C  5  S    0.034396  -0.014343   0.060847   0.005452  -0.006202
   43  C  5  X    0.001370  -0.008271   0.018975   0.002981  -0.002887
   44  C  5  Y    0.030355  -0.001198   0.032912  -0.000121   0.004163
   45  C  5  Z    0.001813  -0.000972   0.003822   0.000246  -0.000103
   46  C  6  S    0.000356  -0.000079   0.000255  -0.001508  -0.001147
   47  C  6  S    0.001551  -0.000399   0.001503  -0.000803  -0.000473
   48  C  6  X   -0.000256  -0.000620  -0.000458  -0.000977  -0.000526
   49  C  6  Y    0.000230  -0.000024   0.000540   0.000080   0.000079
   50  C  6  Z   -0.000026  -0.000080  -0.000049  -0.000138  -0.000053
   51  C  6  S   -0.027916   0.003947  -0.031537   0.005338  -0.002194
   52  C  6  X   -0.017607   0.007712  -0.020371   0.007825   0.001831
   53  C  6  Y    0.004855   0.004580   0.000450   0.005646   0.000213
   54  C  6  Z   -0.001665   0.001121  -0.002191   0.001244   0.000224
   55  C  7  S   -0.000251   0.000238  -0.001126  -0.000751  -0.000181
   56  C  7  S   -0.001195   0.000992  -0.001582   0.000349  -0.000215
   57  C  7  X    0.000018  -0.000787   0.000229  -0.001378   0.000158
   58  C  7  Y    0.000207   0.000046   0.000338   0.000013   0.000190
   59  C  7  Z    0.000020  -0.000087   0.000047  -0.000152   0.000026
   60  C  7  S    0.017731  -0.021332   0.025106  -0.018337   0.003046
   61  C  7  X    0.011301  -0.009264   0.012663  -0.006326   0.001313
   62  C  7  Y   -0.008739   0.004559  -0.012676   0.008252  -0.000573
   63  C  7  Z    0.000647  -0.000674   0.000550  -0.000171   0.000099
   64  C  8  S    0.000298  -0.000207   0.003621  -0.011655  -0.000012
   65  C  8  S    0.001206  -0.001205   0.002975  -0.006629   0.000162
   66  C  8  X   -0.000845   0.001207  -0.000421  -0.000471  -0.000323
   67  C  8  Y    0.000617   0.000686   0.000248   0.002430   0.000136
   68  C  8  Z   -0.000057   0.000171  -0.000035   0.000090  -0.000027
   69  C  8  S   -0.030074   0.019083  -0.041055   0.042308  -0.003077
   70  C  8  X    0.005040  -0.015178   0.004981   0.000693   0.003180
   71  C  8  Y    0.017929  -0.017950   0.026077  -0.027983   0.004220
   72  C  8  Z    0.001564  -0.002635   0.002017  -0.001511   0.000584
   73  C  9  S   -0.000017  -0.000050  -0.001195  -0.001025  -0.000528
   74  C  9  S   -0.000179  -0.000195  -0.000666  -0.000808  -0.000378
   75  C  9  X   -0.000290   0.000263  -0.000636  -0.000055   0.000086
   76  C  9  Y    0.000072   0.000177   0.000165   0.000235  -0.000037
   77  C  9  Z   -0.000080   0.000027  -0.000152  -0.000062   0.000004
   78  C  9  S   -0.003242   0.004361  -0.003893   0.005300   0.002193
   79  C  9  X   -0.000511   0.001779   0.000450   0.003495   0.000655
   80  C  9  Y   -0.002585  -0.000835  -0.002704  -0.001496   0.000519
   81  C  9  Z    0.000107   0.000317   0.000482   0.000865   0.000114
   82  C 10  S    0.000003   0.000007  -0.000068  -0.000114  -0.000196
   83  C 10  S    0.000027   0.000045  -0.000043  -0.000065  -0.000070
   84  C 10  X    0.000068   0.000018   0.000127   0.000078  -0.000063
   85  C 10  Y   -0.000064   0.000063  -0.000158  -0.000037   0.000024
   86  C 10  Z    0.000038   0.000004   0.000108   0.000101   0.000011
   87  C 10  S    0.000603  -0.000264   0.001314   0.000558  -0.000208
   88  C 10  X   -0.000539  -0.000188  -0.001277  -0.001122   0.000007
   89  C 10  Y    0.000608  -0.000024   0.001263   0.000786  -0.000091
   90  C 10  Z   -0.000966  -0.000006  -0.001677  -0.000900   0.000287
   91  C 11  S    0.000003  -0.000007   0.000005  -0.000045   0.000016
   92  C 11  S    0.000000  -0.000046   0.000052  -0.000005   0.000006
   93  C 11  X   -0.000068  -0.000010  -0.000103  -0.000064   0.000019
   94  C 11  Y    0.000048   0.000022   0.000087   0.000075  -0.000002
   95  C 11  Z    0.000030   0.000027   0.000040   0.000049  -0.000003
   96  C 11  S   -0.000798   0.000067  -0.001802  -0.001137   0.000123
   97  C 11  X   -0.000173   0.000128  -0.000549  -0.000281   0.000020
   98  C 11  Y    0.000146  -0.000072   0.000401   0.000218  -0.000034
   99  C 11  Z    0.000031  -0.000177   0.000078  -0.000172  -0.000071
  100  O 12  S    0.937500   0.295475   0.000443   0.000088   0.000092
  101  O 12  S    0.104665   0.031460   0.003465   0.000392   0.000963
  102  O 12  X   -0.003814  -0.001085  -0.000631  -0.000077  -0.000836
  103  O 12  Y   -0.000160  -0.000268   0.000874  -0.000005  -0.000750
  104  O 12  Z   -0.000388  -0.000117  -0.000023  -0.000004  -0.000122
  105  O 12  S   -0.068070  -0.012586  -0.011656   0.000724   0.002299
  106  O 12  X    0.013529   0.002332   0.005234   0.000373   0.003809
  107  O 12  Y   -0.004412   0.001954  -0.005712  -0.000442  -0.000511
  108  O 12  Z    0.001150   0.000313   0.000267  -0.000011   0.000385
  109  C 13  S   -0.000494  -0.000236  -0.001618  -0.025208   0.984156
  110  C 13  S   -0.001206  -0.000976  -0.000218  -0.004126   0.109448
  111  C 13  X    0.000555   0.000214   0.000170   0.000326  -0.000474
  112  C 13  Y    0.002457   0.000522  -0.000362  -0.000564   0.001217
  113  C 13  Z    0.000170   0.000045  -0.000004   0.000010   0.000005
  114  C 13  S    0.011714   0.005452  -0.001700   0.004920  -0.075545
  115  C 13  X    0.000774   0.000220  -0.001938  -0.002803   0.003683
  116  C 13  Y    0.004091   0.003031  -0.000368   0.003208   0.000733
  117  C 13  Z    0.000227   0.000159  -0.000200  -0.000145   0.000391
  118  H 14  S    0.000253  -0.001039  -0.000186   0.000542   0.000129
  119  H 14  S    0.000587  -0.001049   0.000345   0.001217  -0.000202
  120  H 15  S    0.000090  -0.001096  -0.000290  -0.000534  -0.000180
  121  H 15  S    0.000852  -0.001691   0.000016  -0.000889  -0.000943
  122  H 16  S    0.000088  -0.001092  -0.000291  -0.000526  -0.000179
  123  H 16  S    0.000856  -0.001698   0.000009  -0.000878  -0.000939
  124  H 17  S    0.002091   0.000385   0.001030  -0.000205   0.000521
  125  H 17  S    0.008296  -0.000010   0.008794   0.000247   0.002101
  126  H 18  S    0.000735  -0.000059   0.000793  -0.000466  -0.000030
  127  H 18  S    0.003489  -0.001466   0.004139  -0.001175   0.000262
  128  H 19  S   -0.000784   0.002018  -0.000786   0.000643  -0.000376
  129  H 19  S   -0.004456   0.006911  -0.006188   0.006843  -0.001779
  130  H 20  S    0.000173  -0.000053   0.000251   0.000007  -0.000142
  131  H 20  S    0.000492   0.000109   0.000742   0.000469  -0.000115
  132  H 21  S   -0.000144  -0.000174  -0.000468  -0.000527   0.000011
  133  H 21  S   -0.001155  -0.000979  -0.000202  -0.000538  -0.000198
  134  H 22  S    0.000102   0.000014   0.000194   0.000130  -0.000026
  135  H 22  S    0.000552   0.000084   0.000937   0.000588  -0.000128
  136  H 23  S    0.000010   0.000020   0.000024   0.000041   0.000007
  137  H 23  S    0.000059   0.000106   0.000036   0.000114   0.000007
  138  H 24  S    0.000014  -0.000040   0.000041  -0.000017  -0.000008
  139  H 24  S    0.000073  -0.000018   0.000128   0.000045  -0.000037
  140  H 25  S   -0.000962  -0.000559  -0.000165  -0.000610  -0.000574
  141  H 25  S   -0.001877  -0.000263  -0.000514  -0.000720   0.016043
  142  H 26  S   -0.000959  -0.000556  -0.000131  -0.000597  -0.000587
  143  H 26  S   -0.001902  -0.000255  -0.000555  -0.000722   0.016037
  144  H 27  S   -0.000993  -0.000393   0.000511   0.000309  -0.001385
  145  H 27  S   -0.001130  -0.000131   0.000664   0.001099   0.014108

                      6          7          8          9         10
                  -10.1708   -10.1233   -10.1212   -10.1205   -10.1166
                     A          A          A          A          A   
    1  C  1  S    0.984258   0.000088   0.000044   0.000129   0.000162
    2  C  1  S    0.109434  -0.000057  -0.000040  -0.000077  -0.000144
    3  C  1  X   -0.001094  -0.000047   0.000031   0.000086   0.000044
    4  C  1  Y   -0.000662   0.000012  -0.000030  -0.000043  -0.000089
    5  C  1  Z   -0.000151  -0.000003   0.000002   0.000005  -0.000000
    6  C  1  S   -0.075528   0.000409   0.000165   0.000229   0.001425
    7  C  1  X    0.002420   0.000012  -0.000164  -0.000434  -0.000280
    8  C  1  Y   -0.002854  -0.000237   0.000013   0.000007  -0.001125
    9  C  1  Z    0.000092  -0.000014  -0.000003  -0.000053  -0.000092
   10  O  2  S    0.000090  -0.000026   0.000009   0.000009  -0.000038
   11  O  2  S    0.000941  -0.000219   0.000061   0.000066  -0.000479
   12  O  2  X   -0.000203   0.000032   0.000018   0.000005   0.000208
   13  O  2  Y    0.001105   0.000039   0.000031   0.000033   0.000344
   14  O  2  Z    0.000039   0.000005  -0.000006   0.000005   0.000042
   15  O  2  S    0.002393   0.001484  -0.000450  -0.000305   0.003225
   16  O  2  X    0.003295  -0.000417   0.000065   0.000086  -0.000724
   17  O  2  Y   -0.001906  -0.000321  -0.000134  -0.000253  -0.002707
   18  O  2  Z    0.000245  -0.000061   0.000043  -0.000015  -0.000230
   19  C  3  S    0.012351   0.000890   0.000166   0.000062   0.010883
   20  C  3  S    0.000768  -0.000687  -0.000015  -0.000114  -0.004092
   21  C  3  X   -0.000930   0.000117   0.000095   0.000097   0.001463
   22  C  3  Y   -0.001820  -0.000050   0.000043  -0.000050  -0.001611
   23  C  3  Z   -0.000200   0.000011   0.000030   0.000013   0.000065
   24  C  3  S   -0.005789   0.011428  -0.001091   0.001792   0.043326
   25  C  3  X    0.009653  -0.007431   0.001264  -0.000515  -0.025703
   26  C  3  Y    0.019772   0.000680   0.000305   0.001545   0.013143
   27  C  3  Z    0.002112  -0.000731   0.000013   0.000061  -0.001966
   28  C  4  S    0.016113  -0.000227   0.000804   0.000462   0.000859
   29  C  4  S    0.000028   0.000625  -0.000420  -0.000128   0.000378
   30  C  4  X    0.000378   0.000482   0.000285   0.000397  -0.000376
   31  C  4  Y    0.000015  -0.000178  -0.000102  -0.000075  -0.000991
   32  C  4  Z    0.000043   0.000068   0.000083   0.000019  -0.000094
   33  C  4  S    0.018089  -0.011431   0.001512  -0.003028  -0.015358
   34  C  4  X   -0.000950   0.006697  -0.001927   0.001605   0.010193
   35  C  4  Y    0.012306  -0.005928   0.001315   0.000105  -0.004297
   36  C  4  Z    0.000563   0.000242  -0.000421   0.000392   0.000847
   37  C  5  S    0.000064  -0.080050  -0.021265  -0.037882  -0.079816
   38  C  5  S    0.000279  -0.013317  -0.003056  -0.005712  -0.009819
   39  C  5  X   -0.000372   0.001186   0.000732   0.000498  -0.000314
   40  C  5  Y    0.000128  -0.001739  -0.000060  -0.000351  -0.000407
   41  C  5  Z   -0.000031  -0.000040  -0.000164   0.000182  -0.000056
   42  C  5  S   -0.005053   0.044438   0.003254   0.013635   0.020376
   43  C  5  X    0.000076  -0.007622  -0.001269   0.000680   0.005836
   44  C  5  Y   -0.005629   0.021370   0.001632   0.008202   0.009253
   45  C  5  Z   -0.000309   0.000607   0.000506  -0.000110   0.001133
   46  C  6  S   -0.000280   0.975901   0.046726   0.094681  -0.007155
   47  C  6  S   -0.000242   0.110782   0.004835   0.009012   0.000367
   48  C  6  X   -0.000079   0.000332  -0.000064   0.001842  -0.000238
   49  C  6  Y   -0.000162   0.000041   0.000504   0.000058  -0.000561
   50  C  6  Z   -0.000016   0.000198   0.000279  -0.000027  -0.000047
   51  C  6  S    0.002977  -0.111450   0.009313  -0.001411  -0.021430
   52  C  6  X    0.002591  -0.015037  -0.014852  -0.025119  -0.012962
   53  C  6  Y   -0.001658  -0.001939  -0.004209  -0.006118  -0.006577
   54  C  6  Z    0.000204  -0.001754  -0.001048  -0.002345  -0.001777
   55  C  7  S   -0.001175  -0.045755  -0.007578  -0.013148  -0.103430
   56  C  7  S   -0.000652  -0.009560  -0.001479  -0.002385  -0.016578
   57  C  7  X   -0.000361   0.000183   0.000361   0.000946  -0.002203
   58  C  7  Y    0.000244   0.001944   0.000242   0.000753   0.000277
   59  C  7  Z   -0.000023   0.000218   0.000480  -0.000142  -0.000211
   60  C  7  S   -0.000957   0.040052   0.003386   0.006327   0.053365
   61  C  7  X   -0.000039   0.001662  -0.001070  -0.001020   0.024138
   62  C  7  Y   -0.001208  -0.022146  -0.003033  -0.010565  -0.014693
   63  C  7  Z   -0.000084  -0.001358  -0.001641  -0.000170   0.001637
   64  C  8  S   -0.000388  -0.001824  -0.009523  -0.019642   0.977272
   65  C  8  S    0.000125   0.000305  -0.001564  -0.002868   0.109766
   66  C  8  X   -0.000616   0.000702   0.000311   0.000550  -0.000490
   67  C  8  Y    0.000085   0.000171   0.000162   0.000239  -0.001433
   68  C  8  Z   -0.000063   0.000071  -0.000062   0.000154  -0.000128
   69  C  8  S   -0.005481  -0.012822   0.002655   0.002238  -0.110600
   70  C  8  X   -0.004794   0.000700  -0.001856  -0.003976   0.007074
   71  C  8  Y   -0.001498   0.009164  -0.001415   0.000971   0.029020
   72  C  8  Z   -0.000577   0.000678   0.000353  -0.000718   0.002365
   73  C  9  S   -0.000192  -0.095971   0.809422   0.555207   0.014897
   74  C  9  S   -0.000122  -0.011770   0.096277   0.064697   0.001140
   75  C  9  X    0.000034  -0.000391  -0.000123   0.000300  -0.000173
   76  C  9  Y   -0.000084   0.000047   0.000164  -0.000318  -0.000380
   77  C  9  Z    0.000011  -0.000018   0.000311   0.000048  -0.000032
   78  C  9  S    0.000852   0.015394  -0.100870  -0.054227  -0.003424
   79  C  9  X    0.000145   0.010052   0.004260  -0.013684  -0.001299
   80  C  9  Y    0.000935  -0.000532  -0.006878   0.002878   0.002482
   81  C  9  Z   -0.000027  -0.002195  -0.010202  -0.000735  -0.000257
   82  C 10  S   -0.000099  -0.053271  -0.561709   0.807167   0.008868
   83  C 10  S   -0.000034  -0.007007  -0.063758   0.088080   0.000773
   84  C 10  X   -0.000052  -0.001414  -0.000091  -0.000237  -0.000186
   85  C 10  Y    0.000017   0.000464  -0.000068   0.000548  -0.000019
   86  C 10  Z   -0.000007   0.000196   0.000942  -0.000528   0.000026
   87  C 10  S   -0.000198   0.004012   0.068179  -0.060904  -0.000654
   88  C 10  X    0.000146   0.006240   0.008176   0.013162   0.000463
   89  C 10  Y   -0.000185  -0.003537  -0.003237  -0.010074  -0.000368
   90  C 10  Z    0.000330  -0.001836  -0.018470   0.001687   0.000567
   91  C 11  S    0.000046   0.000330   0.013748  -0.041069   0.000117
   92  C 11  S    0.000021  -0.000058   0.003331  -0.008951   0.000025
   93  C 11  X    0.000033   0.000394   0.000728  -0.002146   0.000026
   94  C 11  Y   -0.000008   0.000004  -0.000666   0.001621  -0.000007
   95  C 11  Z   -0.000013  -0.000181   0.000173   0.000068  -0.000042
   96  C 11  S    0.000213   0.003887  -0.014940   0.032345   0.000532
   97  C 11  X    0.000015   0.000638  -0.006455   0.013219   0.000039
   98  C 11  Y   -0.000050  -0.001856   0.004352  -0.010231  -0.000101
   99  C 11  Z   -0.000005   0.002097   0.005234  -0.000260   0.000098
  100  O 12  S   -0.000034   0.000043  -0.000015   0.000001   0.000011
  101  O 12  S   -0.000343   0.000305  -0.000131  -0.000009  -0.000005
  102  O 12  X    0.000065   0.000059  -0.000009   0.000024  -0.000041
  103  O 12  Y   -0.000107   0.000008  -0.000079  -0.000035  -0.000314
  104  O 12  Z    0.000003  -0.000003  -0.000025   0.000013  -0.000021
  105  O 12  S    0.001985  -0.002396   0.000690  -0.000158  -0.001468
  106  O 12  X   -0.000571   0.000200  -0.000055  -0.000094   0.000250
  107  O 12  Y    0.000383  -0.000274   0.000574   0.000223   0.000867
  108  O 12  Z   -0.000048   0.000051   0.000111  -0.000055   0.000074
  109  C 13  S    0.053546   0.000940   0.000284   0.000483  -0.000247
  110  C 13  S    0.005455  -0.000375  -0.000145  -0.000209  -0.000050
  111  C 13  X    0.000071   0.000392   0.000156   0.000190   0.000092
  112  C 13  Y   -0.000142  -0.000240  -0.000070  -0.000134   0.000165
  113  C 13  Z    0.000002   0.000032   0.000012   0.000016   0.000017
  114  C 13  S   -0.002864   0.000575   0.000356   0.000419   0.000613
  115  C 13  X   -0.000651  -0.001781  -0.000586  -0.000824  -0.000025
  116  C 13  Y    0.001316   0.001075   0.000653   0.000729   0.000073
  117  C 13  Z   -0.000010  -0.000150  -0.000033  -0.000074  -0.000009
  118  H 14  S   -0.001385  -0.000028  -0.000001   0.000017  -0.000131
  119  H 14  S    0.014144  -0.000104   0.000074   0.000211  -0.000125
  120  H 15  S   -0.000593  -0.000008  -0.000039  -0.000050  -0.000161
  121  H 15  S    0.016054   0.000006  -0.000015  -0.000087  -0.000093
  122  H 16  S   -0.000597  -0.000001   0.000004  -0.000077  -0.000157
  123  H 16  S    0.016058  -0.000009  -0.000136  -0.000010  -0.000097
  124  H 17  S   -0.000316  -0.000196   0.000246   0.000546   0.000563
  125  H 17  S   -0.001693   0.001864  -0.001185   0.000727   0.001639
  126  H 18  S    0.000107  -0.000171   0.000254  -0.000307   0.000463
  127  H 18  S    0.000609   0.002724  -0.000442   0.004277   0.004926
  128  H 19  S    0.000518  -0.000492   0.000056  -0.000039  -0.002906
  129  H 19  S    0.001939  -0.001338   0.000743   0.000114   0.006409
  130  H 20  S   -0.000095  -0.001226   0.001359  -0.000429  -0.000285
  131  H 20  S   -0.000176   0.000504   0.013938   0.007624  -0.000205
  132  H 21  S    0.000046  -0.000393   0.001614  -0.000093   0.000221
  133  H 21  S    0.000389  -0.002657   0.011905   0.011817   0.001409
  134  H 22  S   -0.000035  -0.000684   0.000343  -0.002343  -0.000109
  135  H 22  S   -0.000181  -0.000375  -0.004219   0.009815  -0.000270
  136  H 23  S   -0.000002  -0.000296  -0.000266  -0.000836  -0.000023
  137  H 23  S   -0.000027  -0.000621  -0.001390   0.001983  -0.000092
  138  H 24  S    0.000004   0.000179   0.001367  -0.001195   0.000028
  139  H 24  S   -0.000029   0.000834   0.001623  -0.000920  -0.000066
  140  H 25  S   -0.000234  -0.000260  -0.000142  -0.000183  -0.000015
  141  H 25  S    0.000824  -0.000200   0.000059   0.000037  -0.000196
  142  H 26  S   -0.000236  -0.000279  -0.000177  -0.000145  -0.000016
  143  H 26  S    0.000834  -0.000166   0.000142  -0.000074  -0.000207
  144  H 27  S   -0.000030   0.000126   0.000040   0.000052  -0.000051
  145  H 27  S    0.001310   0.001107   0.000405   0.000554  -0.000037

                     11         12         13         14         15
                  -10.1157   -10.1102   -10.1080    -1.0705    -1.0530
                     A          A          A          A          A   
    1  C  1  S   -0.000237   0.001035  -0.000042  -0.043183  -0.052061
    2  C  1  S   -0.000089  -0.000532   0.000015   0.046321   0.052791
    3  C  1  X   -0.000008   0.000534  -0.000010  -0.022485  -0.024814
    4  C  1  Y   -0.000236   0.000002  -0.000015  -0.043844  -0.050654
    5  C  1  Z   -0.000014   0.000055  -0.000003  -0.004796  -0.005422
    6  C  1  S    0.000945   0.001057  -0.000009   0.070003   0.093278
    7  C  1  X   -0.000202  -0.002360   0.000031   0.004081  -0.004852
    8  C  1  Y   -0.000213  -0.000015  -0.000018  -0.001448  -0.008196
    9  C  1  Z   -0.000032  -0.000237   0.000002   0.000344  -0.000952
   10  O  2  S    0.000009   0.000037  -0.000004  -0.145104  -0.159852
   11  O  2  S   -0.000050   0.000200  -0.000028   0.132326   0.141491
   12  O  2  X    0.000195   0.000127  -0.000001  -0.050614  -0.047559
   13  O  2  Y    0.000360  -0.000038   0.000020   0.042164   0.056298
   14  O  2  Z    0.000040   0.000012  -0.000001  -0.003006  -0.001911
   15  O  2  S   -0.001082  -0.002102   0.000222   0.455123   0.538724
   16  O  2  X   -0.000387   0.000003  -0.000046  -0.064338  -0.079959
   17  O  2  Y   -0.001480  -0.000039  -0.000131   0.050282   0.061461
   18  O  2  Z   -0.000120  -0.000007  -0.000002  -0.004011  -0.005056
   19  C  3  S    0.002672   0.002002   0.000024  -0.065410  -0.051546
   20  C  3  S   -0.000336  -0.000009  -0.000058   0.072580   0.048478
   21  C  3  X    0.000565   0.001073  -0.000015   0.059754   0.072252
   22  C  3  Y    0.000753  -0.000517   0.000019  -0.001517   0.027187
   23  C  3  Z    0.000102   0.000080   0.000007   0.006271   0.009142
   24  C  3  S   -0.006857  -0.010396   0.001095   0.051545   0.165908
   25  C  3  X    0.005986   0.007743  -0.001002  -0.020563  -0.152772
   26  C  3  Y    0.000570  -0.000335   0.000890  -0.026781  -0.021622
   27  C  3  Z    0.000664   0.000810  -0.000101  -0.003611  -0.017381
   28  C  4  S    0.011082   0.001459   0.000053  -0.068295   0.047714
   29  C  4  S   -0.004181  -0.001005   0.000030   0.075473  -0.044231
   30  C  4  X    0.002223   0.000300   0.000000   0.050379  -0.037542
   31  C  4  Y    0.000163  -0.000276  -0.000036  -0.040119   0.064449
   32  C  4  Z    0.000250   0.000014  -0.000007   0.003310  -0.000630
   33  C  4  S    0.040679   0.012727  -0.001405   0.057219  -0.162585
   34  C  4  X   -0.025982  -0.008460   0.001242  -0.000615   0.107528
   35  C  4  Y    0.005157   0.003630   0.000521   0.043319  -0.111009
   36  C  4  Z   -0.002501  -0.000697   0.000229   0.002221   0.005492
   37  C  5  S    0.978382   0.021480  -0.000315  -0.013091   0.009089
   38  C  5  S    0.109040   0.002080   0.000022   0.015058  -0.015020
   39  C  5  X    0.000716   0.000638  -0.000047   0.015834  -0.009761
   40  C  5  Y    0.001023  -0.001078   0.000008   0.003089   0.001510
   41  C  5  Z    0.000123   0.000003   0.000008   0.001850  -0.000970
   42  C  5  S   -0.104942  -0.013697  -0.000060   0.010220   0.100508
   43  C  5  X   -0.010970  -0.008382   0.002471   0.031105   0.008465
   44  C  5  Y   -0.023763  -0.007473   0.000229  -0.046744   0.092997
   45  C  5  Z   -0.002473  -0.001318   0.000108   0.000885   0.005994
   46  C  6  S    0.082255   0.048788   0.002819  -0.003137   0.001792
   47  C  6  S    0.004881   0.000775  -0.000056   0.002009   0.002639
   48  C  6  X   -0.002202  -0.001720   0.000238   0.005896  -0.001002
   49  C  6  Y    0.001282  -0.002323   0.000349  -0.000444   0.001615
   50  C  6  Z   -0.000168  -0.000337  -0.000068   0.000661  -0.000032
   51  C  6  S    0.026306   0.033194   0.000242   0.042294  -0.079469
   52  C  6  X    0.027082   0.024294  -0.002731   0.000693  -0.058652
   53  C  6  Y   -0.009994   0.022368  -0.004002  -0.024877   0.015937
   54  C  6  Z    0.002489   0.003989  -0.000162  -0.001444  -0.005533
   55  C  7  S   -0.034134   0.978936  -0.002978  -0.002971  -0.001869
   56  C  7  S   -0.004653   0.108862  -0.000395   0.002475  -0.002217
   57  C  7  X    0.000051   0.000903  -0.000179   0.005002   0.002858
   58  C  7  Y    0.001384  -0.000864   0.000217  -0.002756   0.000626
   59  C  7  Z    0.000082   0.000045  -0.000007   0.000373   0.000352
   60  C  7  S   -0.003825  -0.103815   0.002795   0.041147   0.076625
   61  C  7  X   -0.006518  -0.016214   0.001207   0.009246   0.048952
   62  C  7  Y    0.002491   0.022439  -0.003447   0.003977  -0.023568
   63  C  7  Z   -0.000557  -0.000388  -0.000187   0.001178   0.003649
   64  C  8  S    0.075937   0.104663  -0.000959  -0.012487  -0.009886
   65  C  8  S    0.007600   0.006489   0.000038   0.014252   0.015342
   66  C  8  X    0.000069   0.001842   0.000055   0.010201   0.009077
   67  C  8  Y    0.000288   0.000839  -0.000066  -0.012114  -0.005308
   68  C  8  Z    0.000025   0.000241   0.000002   0.000398   0.000647
   69  C  8  S    0.003351   0.033289  -0.001888   0.014737  -0.093968
   70  C  8  X   -0.002263  -0.016761  -0.000210   0.043506   0.047445
   71  C  8  Y   -0.004449  -0.016821   0.001931   0.019664   0.077929
   72  C  8  Z   -0.000487  -0.002716   0.000123   0.005683   0.009471
   73  C  9  S    0.031918   0.011763   0.011786   0.000011   0.000150
   74  C  9  S    0.002292   0.000182   0.000652   0.001557  -0.000150
   75  C  9  X   -0.000003  -0.000089   0.000546   0.000068  -0.001109
   76  C  9  Y    0.000132  -0.000167  -0.000548  -0.000601   0.000217
   77  C  9  Z   -0.000022  -0.000116  -0.000320   0.000085  -0.000228
   78  C  9  S    0.007727   0.009314  -0.001021  -0.012325  -0.014897
   79  C  9  X    0.004551   0.006796  -0.002018  -0.007968  -0.003250
   80  C  9  Y    0.002919  -0.001706   0.001122   0.006646  -0.008160
   81  C  9  Z    0.000301   0.000915   0.001706  -0.001534  -0.000132
   82  C 10  S    0.015167   0.005566   0.041297  -0.000058   0.000002
   83  C 10  S    0.001090   0.000248   0.000110   0.000032  -0.000046
   84  C 10  X   -0.000280  -0.000292   0.002501  -0.000076   0.000251
   85  C 10  Y    0.000088  -0.000079  -0.001997  -0.000072  -0.000255
   86  C 10  Z    0.000211   0.000146   0.000537  -0.000162   0.000130
   87  C 10  S   -0.000323   0.000890   0.023576  -0.000716   0.002995
   88  C 10  X    0.000865  -0.000144  -0.012907   0.001917  -0.001621
   89  C 10  Y   -0.000567   0.000605   0.010243  -0.000923   0.002295
   90  C 10  Z   -0.000274  -0.001479  -0.001550   0.002140  -0.003563
   91  C 11  S   -0.000963   0.002539   0.984531   0.000002   0.000031
   92  C 11  S   -0.000156   0.000323   0.106099   0.000083   0.000084
   93  C 11  X    0.000014   0.000045   0.000055   0.000134  -0.000169
   94  C 11  Y    0.000054   0.000195  -0.000048  -0.000133   0.000094
   95  C 11  Z   -0.000055   0.000018   0.000042  -0.000101   0.000023
   96  C 11  S    0.000802  -0.000956  -0.077158   0.001603  -0.003107
   97  C 11  X    0.000003  -0.000523  -0.006616   0.000103  -0.001078
   98  C 11  Y   -0.000285  -0.000271   0.005364  -0.000218   0.000804
   99  C 11  Z    0.000382   0.000140  -0.001520   0.000366   0.000486
  100  O 12  S   -0.000036  -0.000034  -0.000003  -0.154158   0.151208
  101  O 12  S   -0.000501  -0.000313  -0.000025   0.140343  -0.133567
  102  O 12  X   -0.000022  -0.000003   0.000015  -0.069474   0.067737
  103  O 12  Y   -0.000465  -0.000147   0.000006  -0.002581   0.014801
  104  O 12  Z   -0.000026  -0.000006   0.000005  -0.006900   0.007335
  105  O 12  S    0.002911   0.001826   0.000051   0.485531  -0.512021
  106  O 12  X    0.001031  -0.000060  -0.000125  -0.087274   0.095565
  107  O 12  Y    0.002773   0.001078  -0.000064   0.000005  -0.001218
  108  O 12  Z    0.000251   0.000041  -0.000032  -0.008555   0.009445
  109  C 13  S    0.000296   0.000191  -0.000001  -0.046048   0.049420
  110  C 13  S   -0.000233  -0.000160   0.000010   0.049235  -0.050062
  111  C 13  X    0.000145   0.000056  -0.000033   0.009323  -0.010453
  112  C 13  Y    0.000023   0.000000  -0.000003   0.051701  -0.052603
  113  C 13  Z    0.000019   0.000006  -0.000003   0.003217  -0.003360
  114  C 13  S    0.001726   0.000762  -0.000023   0.075082  -0.088886
  115  C 13  X    0.000257  -0.000135   0.000110   0.004333  -0.001296
  116  C 13  Y    0.001284   0.000578  -0.000063  -0.000970  -0.009240
  117  C 13  Z    0.000049   0.000014   0.000005   0.000389  -0.000589
  118  H 14  S   -0.000072   0.000098  -0.000002   0.010480   0.013156
  119  H 14  S   -0.000023   0.001212  -0.000022  -0.004010  -0.001028
  120  H 15  S   -0.000058  -0.000308  -0.000005   0.012623   0.014244
  121  H 15  S   -0.000239  -0.000314   0.000034  -0.001712  -0.000949
  122  H 16  S   -0.000056  -0.000304  -0.000005   0.012598   0.014219
  123  H 16  S   -0.000243  -0.000332   0.000034  -0.001729  -0.000974
  124  H 17  S   -0.002900  -0.000656   0.000137   0.001259  -0.000137
  125  H 17  S    0.007336  -0.001554   0.000385  -0.014714   0.025847
  126  H 18  S   -0.000563  -0.003066  -0.000093  -0.000600   0.001712
  127  H 18  S   -0.001245   0.006550   0.002090  -0.003952   0.011672
  128  H 19  S   -0.000088  -0.000114  -0.000093   0.000846   0.000241
  129  H 19  S    0.002541   0.005912  -0.000582  -0.014626  -0.025936
  130  H 20  S   -0.000607  -0.000294  -0.000231   0.000124   0.000539
  131  H 20  S    0.000451   0.001053   0.000558  -0.001489   0.001754
  132  H 21  S   -0.000137  -0.000653   0.000046   0.000811  -0.000392
  133  H 21  S    0.000359  -0.000152   0.000961   0.005589  -0.002794
  134  H 22  S   -0.000200  -0.000025  -0.001169  -0.000133   0.000235
  135  H 22  S    0.000171   0.000895   0.002043  -0.001463   0.001935
  136  H 23  S   -0.000060  -0.000010  -0.001909  -0.000048  -0.000007
  137  H 23  S   -0.000181   0.000070   0.013851  -0.000391  -0.000088
  138  H 24  S    0.000045   0.000049  -0.001939   0.000059   0.000084
  139  H 24  S    0.000054   0.000170   0.013461  -0.000110   0.000324
  140  H 25  S   -0.000206  -0.000093   0.000019   0.013415  -0.013493
  141  H 25  S   -0.000131   0.000002   0.000004  -0.001785   0.000822
  142  H 26  S   -0.000182  -0.000093   0.000028   0.013347  -0.013444
  143  H 26  S   -0.000234   0.000008  -0.000025  -0.001833   0.000782
  144  H 27  S   -0.000134  -0.000023  -0.000010   0.011211  -0.012509
  145  H 27  S    0.000002   0.000095  -0.000064  -0.004154   0.001075

                     16         17         18         19         20
                   -0.8495    -0.7941    -0.7550    -0.7419    -0.7061
                     A          A          A          A          A   
    1  C  1  S    0.025768  -0.036800  -0.076456   0.030829  -0.144613
    2  C  1  S   -0.025406   0.037160   0.077325  -0.031608   0.146481
    3  C  1  X    0.002606  -0.001179  -0.000386  -0.008268   0.017864
    4  C  1  Y    0.019783  -0.020031  -0.020491   0.016465   0.010366
    5  C  1  Z    0.001369  -0.001231  -0.001188   0.000040   0.002430
    6  C  1  S   -0.062291   0.093983   0.205894  -0.083358   0.415903
    7  C  1  X    0.005019  -0.002535  -0.006042  -0.006305  -0.001441
    8  C  1  Y    0.002362  -0.001198   0.004767   0.002158   0.028761
    9  C  1  Z    0.000661  -0.000348  -0.000378  -0.000524   0.001442
   10  O  2  S    0.028918  -0.019265  -0.002825   0.016639   0.042049
   11  O  2  S   -0.029164   0.019385   0.003004  -0.017586  -0.038360
   12  O  2  X   -0.023691   0.041150   0.079638  -0.043091   0.122351
   13  O  2  Y   -0.028091   0.038290   0.076301  -0.015887   0.095130
   14  O  2  Z   -0.004044   0.006463   0.012605  -0.005400   0.018172
   15  O  2  S   -0.093199   0.064080   0.006604  -0.052265  -0.176818
   16  O  2  X   -0.019014   0.033249   0.064324  -0.037942   0.108113
   17  O  2  Y   -0.025734   0.035406   0.065833  -0.018446   0.076784
   18  O  2  Z   -0.003441   0.005420   0.010450  -0.005025   0.015651
   19  C  3  S   -0.076589   0.071451   0.070701  -0.057916   0.033780
   20  C  3  S    0.086711  -0.079257  -0.077064   0.064669  -0.033549
   21  C  3  X   -0.072032   0.035342  -0.028942  -0.038668  -0.109383
   22  C  3  Y   -0.015708   0.021088   0.072777   0.088437   0.008203
   23  C  3  Z   -0.008403   0.004812   0.000918   0.000933  -0.011060
   24  C  3  S    0.150761  -0.159481  -0.178220   0.120016  -0.108073
   25  C  3  X   -0.034729   0.026453   0.008033  -0.029383   0.013187
   26  C  3  Y    0.003884  -0.009560   0.001732   0.041426  -0.041537
   27  C  3  Z   -0.003382   0.002515   0.000709  -0.000663  -0.000910
   28  C  4  S   -0.078565   0.058221   0.076181   0.072159  -0.045312
   29  C  4  S    0.089799  -0.064192  -0.082301  -0.079936   0.049004
   30  C  4  X   -0.050591  -0.007619  -0.062608   0.058936  -0.022905
   31  C  4  Y    0.056187  -0.044775  -0.035298   0.042620  -0.033029
   32  C  4  Z   -0.002368  -0.003124  -0.008607   0.008811  -0.004204
   33  C  4  S    0.144930  -0.129432  -0.203912  -0.158125   0.117774
   34  C  4  X   -0.024347   0.015735   0.019357   0.046937  -0.070133
   35  C  4  Y    0.013215  -0.012583  -0.009946   0.014461  -0.013176
   36  C  4  Z   -0.001844   0.000440   0.001956   0.005504  -0.008271
   37  C  5  S   -0.095296   0.002644  -0.022111   0.117836  -0.017030
   38  C  5  S    0.105586  -0.003279   0.019382  -0.126321   0.019729
   39  C  5  X    0.008639  -0.048855  -0.049515  -0.015302   0.056993
   40  C  5  Y    0.057864  -0.001694   0.020559  -0.014830  -0.004816
   41  C  5  Z    0.004086  -0.005061  -0.004389  -0.002115   0.006014
   42  C  5  S    0.164706  -0.005340   0.093292  -0.251867   0.001673
   43  C  5  X    0.000293   0.000427   0.021805   0.011611  -0.008060
   44  C  5  Y    0.009173  -0.010683   0.027470  -0.001770  -0.006459
   45  C  5  Z    0.000741   0.001128   0.002651   0.001857  -0.000943
   46  C  6  S   -0.110973  -0.059057  -0.072498   0.051773   0.043960
   47  C  6  S    0.119877   0.063846   0.076088  -0.053902  -0.046445
   48  C  6  X    0.042095  -0.057127   0.033028  -0.018308   0.046849
   49  C  6  Y    0.008559  -0.004916   0.027648   0.079644   0.010511
   50  C  6  Z    0.005710  -0.002652   0.001956   0.004383   0.007441
   51  C  6  S    0.204130   0.117577   0.160918  -0.123216  -0.094684
   52  C  6  X    0.012293   0.026309  -0.022017  -0.000447   0.017983
   53  C  6  Y    0.000841   0.005254   0.001375   0.003820   0.009369
   54  C  6  Z    0.000332   0.001037  -0.002222   0.000649   0.003910
   55  C  7  S   -0.095290  -0.004463  -0.081289  -0.070117  -0.011230
   56  C  7  S    0.103723   0.005007   0.086744   0.074117   0.012626
   57  C  7  X    0.028751  -0.043912   0.005926   0.066157   0.041922
   58  C  7  Y   -0.049568  -0.020166  -0.030148   0.036901   0.021740
   59  C  7  Z    0.000145  -0.004990  -0.002000   0.009533   0.006199
   60  C  7  S    0.180992   0.006442   0.184665   0.161171   0.012349
   61  C  7  X    0.016520  -0.010643   0.016816   0.001342   0.001714
   62  C  7  Y   -0.011233   0.017997  -0.007690  -0.003673   0.014140
   63  C  7  Z    0.001459   0.001266   0.000533  -0.000048   0.001095
   64  C  8  S   -0.085851   0.047696  -0.031654  -0.129060  -0.039213
   65  C  8  S    0.096218  -0.052142   0.031145   0.137752   0.038044
   66  C  8  X   -0.021145  -0.016881  -0.052312  -0.006993  -0.016692
   67  C  8  Y   -0.053189   0.031319   0.012914  -0.024816  -0.000511
   68  C  8  Z   -0.005175   0.000039  -0.004862  -0.001992  -0.001674
   69  C  8  S    0.136685  -0.083486   0.084643   0.284983   0.154061
   70  C  8  X   -0.001474   0.012996   0.006075  -0.011144   0.005281
   71  C  8  Y    0.000125  -0.005375  -0.017363  -0.000282  -0.035353
   72  C  8  Z   -0.000216   0.000824  -0.000284  -0.001065  -0.001406
   73  C  9  S   -0.053912  -0.124739   0.014366   0.017092   0.066398
   74  C  9  S    0.050687   0.114984  -0.013137  -0.015894  -0.061475
   75  C  9  X    0.023619  -0.008387   0.048931  -0.035778  -0.032336
[...]
   1926   -5.94848    2.56567   -6.62111        -9.916239       9.915912      -0.000327
   1927   -4.46779    2.01153   -6.63961       -10.584131      10.579926      -0.004205
   1928   -5.94848    1.09641   -7.20518        -9.712165       9.711856      -0.000308
   1929   -4.33017    0.18130   -6.99991       -10.530224      10.526086      -0.004138
   1930   -5.94848   -0.73381   -7.20518        -9.734819       9.734419      -0.000399
   1931   -5.03336    3.49222   -5.72449       -10.700771      10.697902      -0.002869
   1932   -5.94848    4.41809   -4.38143       -10.916721      10.916107      -0.000615
   1933   -6.86359    3.49222   -5.72449        -9.934071       9.935530       0.001459
   1934   -7.42917    2.01153   -6.63961        -9.412695       9.414736       0.002041
   1935   -8.90985    1.09641   -6.07404        -9.210792       9.213825       0.003032
   1936   -9.80647    0.18130   -5.14749        -9.324651       9.326725       0.002073
   1937   -8.90985   -0.73381   -6.07404        -9.181696       9.183375       0.001679
   1938   -7.56679    0.18130   -6.99991        -9.251649       9.253271       0.001622
   1939   -7.42917   -1.64893   -6.63961        -9.415860       9.416833       0.000973
   1940   -9.82497   -1.29939   -4.59335        -9.476030       9.475822      -0.000208
   1941   -8.56696   -2.43718   -5.38160        -9.493432       9.494097       0.000665
   1942   -5.54773   -5.01867    2.81673       -11.230492      11.233195       0.002702
   1943   -4.63261   -5.94521    1.92012       -11.309774      11.316196       0.006422
   1944   -5.54773   -5.01867   -4.89925       -10.210214      10.213255       0.003041
   1945   -4.06704   -4.46453   -4.91775       -11.218120      11.219586       0.001466
   1946   -4.63261   -5.94521   -4.00263       -10.536088      10.542349       0.006261
   1947   -7.02841   -4.46453   -4.91775        -9.793651       9.795664       0.002013
   1948   -7.93210   -6.49229   -1.04126        -9.359377       9.363336       0.003959
   1949   -8.85864   -5.59567   -0.12614        -9.479495       9.480177       0.000682
   1950   -8.85864   -5.59567   -1.95637        -9.273496       9.275199       0.001703
   1951   -9.78452   -4.25261   -1.04126        -9.654749       9.651303      -0.003446
   1952   -9.42421   -4.11498   -2.87149        -9.515824       9.514972      -0.000852
   1953   -6.46284   -5.94521   -4.00263        -9.681298       9.685873       0.004575
   1954   -7.37795   -6.51078   -2.52194        -9.375927       9.380766       0.004839
   1955   -8.16621   -5.25278   -3.65974        -9.362911       9.365314       0.002403
   1956   -6.46284   -7.07636   -1.04126        -9.700816       9.707687       0.006871
   1957   -5.54773   -6.87109   -2.65957        -9.978087       9.985866       0.007779
   1958   -4.63261   -7.07636   -1.04126       -10.615617      10.626698       0.011082
   1959   -8.16621   -5.25278    1.57722        -9.987139       9.987284       0.000145
   1960   -7.37795   -6.51078    0.43943        -9.671266       9.675507       0.004241
   1961   -6.46284   -5.94521    1.92012       -10.339729      10.343607       0.003878
   1962   -5.54773   -6.87109    0.57705       -10.326684      10.334459       0.007774
   1963   -6.45498   -2.53115    6.90639        -9.366491       9.367184       0.000693
   1964   -4.97430   -1.97700    6.92488        -9.953550       9.952692      -0.000858
   1965   -3.49361   -1.06189    6.35931       -11.053231      11.047695      -0.005536
   1966   -2.59699   -0.14678    5.43276       -12.425353      12.412380      -0.012973
   1967   -6.45498   -1.06189    7.49045        -9.246809       9.247167       0.000358
   1968   -4.83667   -0.14678    7.28518        -9.954157       9.951854      -0.002302
   1969   -3.49361    0.76834    6.35931       -11.151746      11.143798      -0.007947
   1970   -6.45498    0.76834    7.49045        -9.350058       9.349340      -0.000718
   1971   -4.97430    1.68345    6.92488       -10.149166      10.144792      -0.004374
   1972   -6.45498    2.23760    6.90639        -9.660051       9.657515      -0.002537
   1973   -2.57849   -1.62746    4.87862       -12.830748      12.818464      -0.012284
   1974   -4.62475   -4.02326    4.52908       -11.217235      11.216865      -0.000369
   1975   -3.83650   -2.76526    5.66687       -11.144316      11.141096      -0.003221
   1976   -5.53987   -3.45769    6.00977       -10.010746      10.011066       0.000320
   1977   -3.83650    2.47171    5.66687       -11.460293      11.449338      -0.010955
   1978   -5.53987    3.16414    6.00977       -10.435429      10.428601      -0.006828
   1979   -7.93567    1.68345    6.92488        -9.230313       9.230324       0.000011
   1980   -9.41636   -1.06189    6.35931        -8.877945       8.877776      -0.000169
   1981   -9.07346   -2.76526    5.66687        -9.024205       9.023083      -0.001123
   1982   -8.28521   -4.02326    4.52908        -9.526925       9.525723      -0.001202
   1983   -7.93567   -1.97700    6.92488        -8.960719       8.961414       0.000695
   1984   -7.37010   -3.45769    6.00977        -9.324754       9.325290       0.000536
   1985   -6.45498   -4.38357    4.66670       -10.124593      10.125352       0.000759
   1986   -8.07329   -0.14678    7.28518        -8.938165       8.938900       0.000736
   1987  -10.02074    0.31363    6.24458        -8.814220       8.814731       0.000511
   1988  -10.02074    1.78288    6.82865        -8.400740       8.402114       0.001375
   1989   -8.40243    2.69800    6.62338        -9.104882       9.104681      -0.000202
   1990  -10.02074    3.61311    6.82865        -8.099850       8.101249       0.001398
   1991   -8.54006    4.52823    6.26308        -8.735463       8.734163      -0.001299
   1992  -10.02074    5.08237    6.24458        -7.982754       7.983704       0.000951
   1993   -9.10563    6.00892    5.34796        -8.387693       8.386406      -0.001287
   1994  -10.93586    7.14006    2.38659        -7.985396       7.985139      -0.000257
   1995  -12.40512    6.55599    2.38659        -7.544220       7.545701       0.001482
   1996  -10.02074    6.93479    4.00490        -8.095820       8.095093      -0.000727
   1997  -11.85097    6.57449    3.86728        -7.505115       7.506780       0.001666
   1998  -10.93586    6.00892    5.34796        -7.663674       7.665182       0.001508
   1999  -13.33166    5.65937    1.47148        -7.496050       7.497749       0.001699
   2000  -11.50143    4.52823    6.26308        -7.524597       7.527095       0.002498
   2001  -12.63923    5.31648    5.00507        -7.254241       7.257061       0.002820
   2002  -13.33166    5.65937    3.30171        -7.237998       7.240434       0.002437
   2003  -12.98212    3.61311    5.69751        -7.250972       7.253802       0.002831
   2004  -13.89723    4.17869    4.21682        -7.120315       7.122943       0.002628
   2005  -13.87874    2.69800    4.77096        -7.212392       7.214358       0.001966
   2006  -14.46280    2.69800    3.30171        -7.238822       7.239834       0.001012
   2007  -14.25754    4.31631    2.38659        -7.242147       7.243909       0.001762
   2008  -13.89723    1.21731    4.21682        -7.453535       7.453393      -0.000142
   2009  -14.25754    1.07969    2.38659        -7.634810       7.632508      -0.002302
   2010  -12.98212    1.78288    5.69751        -7.461557       7.463137       0.001579
   2011  -12.63923    0.07952    5.00507        -7.919615       7.918285      -0.001330
   2012  -11.50143    0.86777    6.26308        -8.024088       8.024919       0.000830
   2013  -11.63905    2.69800    6.62338        -7.655095       7.657383       0.002287
   2014   -9.43627    5.07455   -4.92329        -8.597407       8.600675       0.003268
   2015   -7.95558    4.52041   -4.94178        -9.522171       9.524790       0.002618
   2016   -9.43627    3.60529   -5.50736        -8.808056       8.811859       0.003803
   2017   -9.43627    1.77506   -5.50736        -9.225769       9.229657       0.003888
   2018   -7.60604    6.56666   -2.54598        -9.633106       9.632415      -0.000691
   2019   -6.81779    5.30866   -3.68378       -10.370765      10.370970       0.000206
   2020   -8.52116    6.00109   -4.02667        -8.988606       8.990453       0.001847
   2021  -11.82064    6.54817   -1.06530        -7.919108       7.920419       0.001312
   2022  -11.26650    6.56666   -2.54598        -7.920022       7.922147       0.002125
   2023   -9.43627    6.92697   -2.68361        -8.551596       8.552587       0.000991
   2024  -10.35139    6.00109   -4.02667        -8.163912       8.166846       0.002934
   2025  -12.74719    5.65155   -1.98041        -7.641533       7.643734       0.002201
   2026  -12.05475    5.30866   -3.68378        -7.710272       7.713427       0.003155
   2027  -10.91696    4.52041   -4.94178        -8.075862       8.079559       0.003697
   2028  -13.31276    4.17086   -2.89552        -7.562608       7.564824       0.002216
   2029  -12.39764    3.60529   -4.37621        -7.757138       7.760168       0.003031
   2030  -13.29426    2.69018   -3.44967        -7.699791       7.701261       0.001470
   2031  -12.39764    1.77506   -4.37621        -8.024353       8.025964       0.001611
   2032  -11.05458    2.69018   -5.30209        -8.277813       8.281201       0.003389
   2033  -10.91696    0.85995   -4.94178        -8.732640       8.734492       0.001852
   2034  -13.87833    2.69018   -1.98041        -7.696782       7.696840       0.000059
   2035  -13.31276    1.20949   -2.89552        -7.973427       7.972383      -0.001044
   2036  -10.35139   -0.62074   -4.02667        -9.567296       9.566304      -0.000993
   2037  -12.05475    0.07169   -3.68378        -8.548691       8.547201      -0.001489
   2038    1.64676   -8.83077    5.10950        -9.040685       9.046028       0.005343
   2039    3.12745   -8.27663    5.12800        -9.271261       9.274584       0.003322
   2040    1.64676   -7.36152    5.69357        -9.594385       9.596839       0.002454
   2041    3.26507   -6.44640    5.48830       -10.126827      10.125204      -0.001622
   2042    1.64676   -5.53129    5.69357       -10.664085      10.661751      -0.002334
   2043    1.64676   -4.06203    5.10950       -12.101449      12.092968      -0.008481
   2044    2.56188   -9.75732    4.21288        -8.823869       8.830664       0.006795
   2045    0.16608   -4.61617    5.12800       -11.683920      11.679556      -0.004364
   2046   -1.31461   -5.53129    4.56242       -11.316898      11.317393       0.000494
   2047   -2.21123   -6.44640    3.63588       -11.034859      11.039833       0.004974
   2048   -0.73761  -10.30440    1.25151        -9.129208       9.140298       0.011091
   2049   -1.66415   -9.40778    2.16662        -9.439253       9.449400       0.010148
   2050   -2.22972   -7.92709    3.08174       -10.133244      10.141556       0.008312
   2051   -1.66415   -9.40778    0.33639        -9.768538       9.780828       0.012290
   2052   -2.59003   -8.06471    1.25151       -10.514324      10.526076       0.011752
   2053   -1.31461   -7.36152    4.56242       -10.027027      10.032349       0.005322
   2054   -0.97172   -9.06488    3.86999        -9.254769       9.262759       0.007990
   2055   -0.18347  -10.32289    2.73220        -8.870824       8.880410       0.009586
   2056    0.16608   -8.27663    5.12800        -9.324313       9.329795       0.005482
   2057    0.73165   -9.75732    4.21288        -8.836756       8.844359       0.007603
   2058    1.64676  -10.68319    2.86982        -8.690745       8.700014       0.009270
   2059    0.02845   -6.44640    5.48830       -10.223746      10.225607       0.001861
   2060    2.01173   -8.69364   -5.97037        -8.854078       8.860445       0.006368
   2061    3.49241   -8.13950   -5.98886        -8.995498       8.999925       0.004428
   2062    4.97310   -7.22438   -5.42329        -9.486699       9.487962       0.001262
   2063    2.92684   -9.62018   -5.07375        -8.665726       8.673134       0.007407
   2064    2.01173   -3.92490   -5.97037       -11.536768      11.530726      -0.006042
   2065    3.49241   -4.47904   -5.98886       -10.941516      10.936084      -0.005432
   2066    2.01173   -5.39415   -6.55443       -10.258223      10.257847      -0.000376
   2067    3.63004   -6.30927   -6.34916        -9.706201       9.706599       0.000398
   2068    2.01173   -7.22438   -6.55443        -9.320270       9.324155       0.003884
   2069    0.53104   -4.47904   -5.98886       -11.319565      11.316818      -0.002747
   2070   -0.94965   -5.39415   -5.42329       -11.154635      11.156757       0.002122
   2071   -0.94965   -7.22438   -5.42329        -9.931808       9.938577       0.006769
   2072    0.39342   -6.30927   -6.34916        -9.983789       9.987102       0.003313
   2073    0.53104   -8.13950   -5.98886        -9.173345       9.179988       0.006643
   2074   -0.37264  -10.16726   -2.11237        -9.238575       9.250520       0.011946
   2075   -1.29919   -9.27064   -3.02749        -9.523088       9.534378       0.011290
   2076   -1.86476   -7.78995   -3.94260       -10.176065      10.186189       0.010125
   2077    1.09661   -9.62018   -5.07375        -8.744965       8.753393       0.008428
   2078    0.18150  -10.18575   -3.59306        -8.883672       8.894020       0.010348
   2079   -0.60675   -8.92775   -4.73085        -9.220533       9.229609       0.009076
   2080    2.01173  -10.54606   -3.73068        -8.643365       8.653124       0.009758
   2081    6.14561   -8.84351    3.72835        -8.773681       8.776802       0.003120
   2082    7.62629   -7.92840    3.16278        -8.820769       8.820800       0.000031
   2083    8.52291   -7.01328    2.23623        -9.055380       9.052062      -0.003318
   2084    7.62629   -6.09817    3.16278        -9.838934       9.830920      -0.008014
   2085    7.04929  -10.87128   -0.14814        -7.857990       7.865350       0.007359
   2086    7.97584   -9.97466    0.76698        -7.965963       7.971426       0.005463
   2087    8.54141   -8.49397    1.68209        -8.383913       8.385742       0.001829
   2088    6.49515  -10.88977    1.33255        -7.954600       7.962008       0.007408
   2089    7.28340   -9.63176    2.47035        -8.212746       8.217419       0.004672
   2090    5.58004  -10.32420    2.81324        -8.332824       8.339534       0.006710
   2091    8.54141   -5.53260    1.68209        -9.966864       9.955272      -0.011592
   2092    8.90171   -5.39497   -0.14814        -9.951380       9.939302      -0.012078
   2093    9.10698   -7.01328    0.76698        -8.917944       8.914879      -0.003065
   2094    8.54141   -5.53260   -1.97836        -9.937034       9.926583      -0.010451
   2095    9.10698   -7.01328   -1.06325        -8.911227       8.908456      -0.002771
   2096    8.52291   -7.01328   -2.53251        -9.041531       9.039047      -0.002484
   2097    7.97584   -9.97466   -1.06325        -7.967462       7.973087       0.005625
   2098    8.54141   -8.49397   -1.97836        -8.381311       8.383551       0.002240
   2099    8.90171   -8.63159   -0.14814        -8.259806       8.262211       0.002404
   2100    6.14561   -8.84351   -4.02462        -8.795245       8.799707       0.004462
   2101    7.62629   -7.92840   -3.45905        -8.819623       8.820676       0.001053
   2102    5.58004  -10.32420   -3.10951        -8.354297       8.361889       0.007591
   2103    7.28340   -9.63176   -2.76662        -8.220085       8.225340       0.005255
   2104    6.49515  -10.88977   -1.62882        -7.961814       7.969534       0.007720
   2105    7.62629   -6.09817   -3.45905        -9.813241       9.807055      -0.006186
   2106    4.66492  -11.25007   -1.76645        -8.242370       8.251949       0.009579
   2107    5.58004  -11.45534   -0.14814        -7.966902       7.975781       0.008880
   2108    4.66492  -11.25007    1.47017        -8.227733       8.236804       0.009071

 NET CHARGES:
 -------------------------------------
 ATOM                CHARGE    E.S.D.
 -------------------------------------
 C                  -0.0039    0.2416
 O                  -0.3277    0.0437
 C                   0.2201    0.2609
 C                   0.3134    0.2682
 C                  -0.3818    0.2717
 C                   0.0430    0.2917
 C                  -0.3068    0.2528
 C                  -0.2354    0.2526
 C                  -0.0535    0.3537
 C                  -0.0697    0.1226
 C                  -0.5129    0.0895
 O                  -0.3373    0.0442
 C                  -0.0104    0.2582
 H                   0.0937    0.0164
 H                   0.0630    0.0176
 H                   0.0624    0.0176
 H                   0.1812    0.0192
 H                   0.2003    0.0152
 H                   0.1602    0.0170
 H                   0.0840    0.0211
 H                   0.0628    0.0246
 H                   0.1348    0.0108
 H                   0.1954    0.0086
 H                   0.2007    0.0079
 H                   0.0663    0.0190
 H                   0.0631    0.0186
 H                   0.0952    0.0176
 -------------------------------------

 RMS DEVIATION IS            1.068 KCAL/MOLE
 RELATIVE RMS DEVIATION IS  13.114 %

 MULTIPOLE MOMENTS:
 ---------------------------------------------------------
 STATUS  ACTUAL VALUE       QUANTITY        FITTED VALUE 
 ---------------------------------------------------------
 FIXED       0.0000       TOTAL CHARGE         0.0000
             0.1437 D    DIPOLE MOMENT         0.1834 D
 FREE       -0.1330 D          DX             -0.1717 D
 FREE       -0.0371 D          DY             -0.0341 D
 FREE       -0.0397 D          DZ             -0.0545 D
 FREE        0.0000 BU         QXX            -5.3497 BU
 FREE        0.0000 BU         QYY            15.0735 BU
 FREE        0.0000 BU         QZZ            -9.7238 BU
 FREE        0.0000 BU         QXY             6.1298 BU
 FREE        0.0000 BU         QXZ             1.6176 BU
 FREE        0.0000 BU         QYZ             1.6848 BU
 ---------------------------------------------------------
 ...... END OF PROPERTY EVALUATION ......
 CPU     0: STEP CPU TIME=     1.47 TOTAL CPU TIME=         53.9 (      0.9 MIN)
 TOTAL WALL CLOCK TIME=         78.0 SECONDS, CPU UTILIZATION IS    69.12%
              1075959  WORDS OF DYNAMIC MEMORY USED
 EXECUTION OF GAMESS TERMINATED NORMALLY Mon May 25 19:21:12 2020
 DDI: 263640 bytes (0.3 MB / 0 MWords) used by master data server.
Note: The following floating-point exceptions are signalling: IEEE_UNDERFLOW_FLAGNote: The following floating-point exceptions are signalling: IEEE_UNDERFLOW_FLAGNote: The following floating-point exceptions are signalling:
 ----------------------------------------
 CPU timing information for all processes
 ========================================
 0: 53.488 + 0.403 = 53.891
 1: 50.559 + 0.174 = 50.733
 2: 50.691 + 0.110 = 50.801
 3: 52.484 + 0.101 = 52.586
 4: 49.257 + 0.113 = 49.371
 5: 49.599 + 0.122 = 49.721
 ----------------------------------------
 IEEE_DENORMAL
 IEEE_DENORMAL
 IEEE_UNDERFLOW_FLAG IEEE_DENORMALNote: The following floating-point exceptions are signalling: IEEE_UNDERFLOW_FLAGNote: The following floating-point exceptions are signalling: IEEE_UNDERFLOW_FLAGNote: The following floating-point exceptions are signalling:
 IEEE_DENORMAL
 IEEE_DENORMAL
 IEEE_UNDERFLOW_FLAG IEEE_DENORMAL
 ddikick.x: exited gracefully.
unset echo
----- accounting info -----
Files used on the master node pietdev were:
-rwxr-xr-x 1 piet piet     1259 mei 25 19:19 /home/piet/scr/methyl_eugenol_charge_geodisk.F05*
-rw-r--r-- 1 piet piet 50790400 mei 25 19:21 /home/piet/scr/methyl_eugenol_charge_geodisk.F10
ls: No match.
ls: No match.
ls: No match.
ma 25 mei 2020 19:21:15 CEST
0.111u 0.023s 1:21.11 0.1%	0+0k 0+8io 0pf+0w
