----- GAMESS execution script 'rungms' -----
This job is running on host pietdev
under operating system Linux at ma 25 mei 2020 19:21:27 CEST
Available scratch disk space (Kbyte units) at beginning of the job is
Filesystem     1K-blocks     Used Available Use% Mounted on
/dev/sda2      244568380 31071516 201003808  14% /
GAMESS temporary binary files will be written to /home/piet/scr
GAMESS supplementary output files will be written to /home/piet/gamess/scr
Copying input file methyl_eugenol_fukui_neu.inp to your run's scratch directory...
cp methyl_eugenol_fukui_neu.inp /home/piet/scr/methyl_eugenol_fukui_neu.F05
unset echo
 
Assuming a single but multicore node.
 
/home/piet/gamess/ddikick.x /home/piet/gamess/gamess.03.x methyl_eugenol_fukui_neu -ddi 1 6 pietdev:cpus=6 -scr /home/piet/scr

 Distributed Data Interface kickoff program.
 Initiating 6 compute processes on 1 nodes to run the following command:
 /home/piet/gamess/gamess.03.x methyl_eugenol_fukui_neu 

          ******************************************************
          *         GAMESS VERSION = 30 SEP 2019 (R2)          *
          *             FROM IOWA STATE UNIVERSITY             *
          * M.W.SCHMIDT, K.K.BALDRIDGE, J.A.BOATZ, S.T.ELBERT, *
          *   M.S.GORDON, J.H.JENSEN, S.KOSEKI, N.MATSUNAGA,   *
          *          K.A.NGUYEN, S.J.SU, T.L.WINDUS,           *
          *       TOGETHER WITH M.DUPUIS, J.A.MONTGOMERY       *
          *         J.COMPUT.CHEM.  14, 1347-1363(1993)        *
          **************** 64 BIT LINUX VERSION ****************

  SINCE 1993, STUDENTS AND POSTDOCS WORKING AT IOWA STATE UNIVERSITY
  AND ALSO IN THEIR VARIOUS JOBS AFTER LEAVING ISU HAVE MADE IMPORTANT
  CONTRIBUTIONS TO THE CODE:
     IVANA ADAMOVIC, CHRISTINE AIKENS, YURI ALEXEEV, POOJA ARORA,
     ANDREY ASADCHEV, ROB BELL, PRADIPTA BANDYOPADHYAY, JONATHAN BENTZ,
     COLLEEN BERTONI, BRETT BODE, KURT BRORSEN, CALEB CARLIN, GALINA CHABAN,
     WEI CHEN, CHEOL HO CHOI, PAUL DAY, ALBERT DEFUSCO, NUWAN DESILVA,
     TIM DUDLEY, DMITRI FEDOROV, ALEX FINDLATER, GRAHAM FLETCHER, 
     MARK FREITAG, KURT GLAESEMANN, EMILIE B GUIDEZ, ANASTASIA GUNINA, 
     DAN KEMP, SAROM SOK LEANG, GRANT MERRILL,
     NORIYUKI MINEZAWA, JONATHAN MULLIN,
     TAKESHI NAGATA, SEAN NEDD, HEATHER NETZLOFF, BOSILJKA NJEGIC, RYAN OLSON,
     MIKE PAK, BUU PHAM, DAVID POOLE,
     SPENCER PRUITT, LUKE ROSKOP, TOSAPORN SATTASATHUCHANA,
     JIM SHOEMAKER, LYUDMILA SLIPCHENKO,
     TONY SMITH, JIE SONG, TETSUYA TAKETSUGU, SIMON WEBB,
     JORGE LUIS GALVEZ VALLEJO, PENG XU, SOOHAENG YOO,
     FEDERICO ZAHARIEV

  ADDITIONAL CODE HAS BEEN PROVIDED BY COLLABORATORS IN OTHER GROUPS:
     IOWA STATE UNIVERSITY:
          JOE IVANIC, AARON WEST, LAIMUTIS BYTAUTAS, KLAUS RUEDENBERG
     UNIVERSITY OF TOKYO: KIMIHIKO HIRAO, TAKAHITO NAKAJIMA,
          TAKAO TSUNEDA, MUNEAKI KAMIYA, SUSUMU YANAGISAWA,
          KIYOSHI YAGI, MAHITO CHIBA, SEIKEN TOKURA, NAOAKI KAWAKAMI
     UNIVERSITY OF AARHUS: FRANK JENSEN
     UNIVERSITY OF IOWA: VISVALDAS KAIRYS, HUI LI
     NATIONAL INST. OF STANDARDS AND TECHNOLOGY: WALT STEVENS, DAVID GARMER
     UNIVERSITY OF PISA: BENEDETTA MENNUCCI, JACOPO TOMASI
     UNIVERSITY OF MEMPHIS: HENRY KURTZ, PRAKASHAN KORAMBATH
     UNIVERSITY OF ALBERTA: TOBY ZENG, MARIUSZ KLOBUKOWSKI
     UNIVERSITY OF NEW ENGLAND: MARK SPACKMAN
     MIE UNIVERSITY: HIROAKI UMEDA
     NAT. INST. OF ADVANCED INDUSTRIAL SCIENCE AND TECHNOLOGY: KAZUO KITAURA
     MICHIGAN STATE UNIVERSITY:
          KAROL KOWALSKI, MARTA WLOCH, JEFFREY GOUR, JESSE LUTZ,
          WEI LI, JUN SHEN, J. EMILIANO DEUSTUA, PIOTR PIECUCH
     UNIVERSITY OF MINNESOTA:
          ANDREW SAND, PRACHI SHARMA, YINAN SHU
     UNIVERSITY OF SILESIA: MONIKA MUSIAL, STANISLAW KUCHARSKI
     FACULTES UNIVERSITAIRES NOTRE-DAME DE LA PAIX:
          OLIVIER QUINET, BENOIT CHAMPAGNE
     UNIVERSITY OF CALIFORNIA - SANTA BARBARA: BERNARD KIRTMAN
     INSTITUTE FOR MOLECULAR SCIENCE:
          KAZUYA ISHIMURA, MICHIO KATOUDA, AND SHIGERU NAGASE
     UNIVERSITY OF NOTRE DAME: ANNA POMOGAEVA, DAN CHIPMAN
     KYUSHU UNIVERSITY:
          HARUYUKI NAKANO,
          FENG LONG GU, JACEK KORCHOWIEC, MARCIN MAKOWSKI, AND YURIKO AOKI,
          HIROTOSHI MORI AND EISAKU MIYOSHI
     PENNSYLVANIA STATE UNIVERSITY:
          TZVETELIN IORDANOV, CHET SWALINA, JONATHAN SKONE,
          SHARON HAMMES-SCHIFFER
     WASEDA UNIVERSITY:
          MASATO KOBAYASHI, TOMOKO AKAMA, TSUGUKI TOUMA,
          TAKESHI YOSHIKAWA, YASUHIRO IKABATA, JUNJI SEINO,
          YUYA NAKAJIMA, HIROMI NAKAI
     NANJING UNIVERSITY: SHUHUA LI
     UNIVERSITY OF NEBRASKA:
          PEIFENG SU, DEJUN SI, NANDUN THELLAMUREGE, YALI WANG, HUI LI
     UNIVERSITY OF ZURICH: ROBERTO PEVERATI, KIM BALDRIDGE
     N. COPERNICUS UNIVERSITY AND JACKSON STATE UNIVERSITY:
          MARIA BARYSZ
     UNIVERSITY OF COPENHAGEN: Jimmy Kromann, CASPER STEINMANN
     TOKYO INSTITUTE OF TECHNOLOGY: HIROYA NAKATA
     NAGOYA UNIVERSITY: YOSHIO NISHIMOTO, STEPHAN IRLE
     MOSCOW STATE UNIVERSITY: VLADIMIR MIRONOV
     A.N.NESMEYANOV INSTITUTE OF ORGANOELEMENT COMPOUNDS OF RUSSIAN ACADEMY OF SCIENCES:
          IGOR S. GERASIMOV
     JOHANNES KEPLER UNIVERSITY LINZ:
          CHRISTIAN FRIEDL


 PARALLEL VERSION RUNNING ON        6 PROCESSORS IN        1 NODES.

 EXECUTION OF GAMESS BEGUN Mon May 25 19:21:27 2020

            ECHO OF THE FIRST FEW INPUT CARDS -
 INPUT CARD> $BASIS GBASIS=N21 NGAUSS=3 $END                                                
 INPUT CARD> $CONTRL SCFTYP=RHF MAXIT=60 MULT=1 ICHARG=0 $END                               
 INPUT CARD> $SYSTEM MEMDDI=1000 MWORDS=30 $END                                             
 INPUT CARD> $SCF DIRSCF=.TRUE. $END                                                        
 INPUT CARD> $DATA                                                                          
 INPUT CARD>                                                                                
 INPUT CARD>C1                                                                              
 INPUT CARD>C 6.0000000 3.29336 2.00983 0.29195                                             
 INPUT CARD>O 8.0000000 2.78561 0.68900 0.16544                                             
 INPUT CARD>C 6.0000000 1.43765 0.53055 0.01424                                             
 INPUT CARD>C 6.0000000 0.98049 -0.80562 -0.10716                                           
 INPUT CARD>C 6.0000000 -0.38369 -1.05403 -0.26645                                          
 INPUT CARD>C 6.0000000 -1.32150 -0.00621 -0.30987                                          
 INPUT CARD>C 6.0000000 -0.85991 1.30265 -0.18318                                           
 INPUT CARD>C 6.0000000 0.50773 1.56949 -0.02516                                            
 INPUT CARD>C 6.0000000 -2.80260 -0.30459 -0.49960                                          
 INPUT CARD>C 6.0000000 -3.67457 0.24338 0.60328                                            
 INPUT CARD>C 6.0000000 -4.70749 1.07311 0.42616                                            
 INPUT CARD>O 8.0000000 1.94581 -1.76934 -0.05561                                           
 INPUT CARD>C 6.0000000 1.54866 -3.12944 -0.15487                                           
 INPUT CARD>H 1.0000000 4.37438 1.90328 0.39511                                             
 INPUT CARD>H 1.0000000 3.06975 2.61214 -0.59840                                            
 INPUT CARD>H 1.0000000 2.88987 2.51075 1.18178                                             
 INPUT CARD>H 1.0000000 -0.73551 -2.07549 -0.36316                                          
 INPUT CARD>H 1.0000000 -1.56328 2.13044 -0.20230                                           
 INPUT CARD>H 1.0000000 0.83701 2.59780 0.06961                                             
 INPUT CARD>H 1.0000000 -3.14780 0.09594 -1.46218                                           
 INPUT CARD>H 1.0000000 -2.93573 -1.39401 -0.55101                                          
 INPUT CARD>H 1.0000000 -3.41583 -0.07767 1.61314                                           
 INPUT CARD>H 1.0000000 -5.30275 1.42772 1.26293                                            
 INPUT CARD>H 1.0000000 -4.99346 1.42358 -0.56373                                           
 INPUT CARD>H 1.0000000 0.87143 -3.41129 0.66227                                            
 INPUT CARD>H 1.0000000 1.06456 -3.33872 -1.11782                                           
 INPUT CARD>H 1.0000000 2.46857 -3.71127 -0.07839                                           
 INPUT CARD> $END                                                                           
   30000000 WORDS OF MEMORY AVAILABLE

     BASIS OPTIONS
     -------------
     GBASIS=N21          IGAUSS=       3      POLAR=NONE    
     NDFUNC=       0     NFFUNC=       0     DIFFSP=       F
     NPFUNC=       0      DIFFS=       F     BASNAM=        


     RUN TITLE
     ---------
                                                                                 

 THE POINT GROUP OF THE MOLECULE IS C1      
 THE ORDER OF THE PRINCIPAL AXIS IS     0

 ATOM      ATOMIC                      COORDINATES (BOHR)
           CHARGE         X                   Y                   Z
 C           6.0     6.2235479789        3.7980279819        0.5517055021
 O           8.0     5.2640396087        1.3020212055        0.3126362674
 C           6.0     2.7167645662        1.0025941228        0.0269096981
 C           6.0     1.8528574337       -1.5224010502       -0.2025030368
 C           6.0    -0.7250689642       -1.9918278828       -0.5035174894
 C           6.0    -2.4972728928       -0.0117351984       -0.5855693918
 C           6.0    -1.6249942741        2.4616515579       -0.3461600064
 C           6.0     0.9594705757        2.9659060405       -0.0475455059
 C           6.0    -5.2961460532       -0.5755916386       -0.9441071035
 C           6.0    -6.9439304227        0.4599215109        1.1400338939
 C           6.0    -8.8958661899        2.0278838547        0.8053256269
 O           8.0     3.6770477242       -3.3435677791       -0.1050876622
 C           6.0     2.9265430481       -5.9137840950       -0.2926618637
 H           1.0     8.2663795662        3.5966776779        0.7466496350
 H           1.0     5.8009863508        4.9362288416       -1.1308120311
 H           1.0     5.4610624401        4.7446295237        2.2332403778
 H           1.0    -1.3899123612       -3.9221073903       -0.6862728897
 H           1.0    -2.9541708421        4.0259478333       -0.3822915673
 H           1.0     1.5817195490        4.9091301709        0.1315438260
 H           1.0    -5.9484794642        0.1813003113       -2.7631195447
 H           1.0    -5.5477252739       -2.6342969241       -1.0412579165
 H           1.0    -6.4549827206       -0.1467750175        3.0483925798
 H           1.0   -10.0207444814        2.6979995872        2.3865916417
 H           1.0    -9.4362711306        2.6901761216       -1.0652952311
 H           1.0     1.6467639175       -6.4464033647        1.2515088299
 H           1.0     2.0117266975       -6.3092659497       -2.1123735036
 H           1.0     4.6649208815       -7.0132833665       -0.1481356202

          INTERNUCLEAR DISTANCES (ANGS.)
          ------------------------------

                1 C          2 O          3 C          4 C          5 C     

   1 C       0.0000000    1.4207064 *  2.3893622 *  3.6654352    4.8186871  
   2 O       1.4207064 *  0.0000000    1.3656368 *  2.3593766 *  3.6426838  
   3 C       2.3893622 *  1.3656368 *  0.0000000    1.4174214 *  2.4304238 *
   4 C       3.6654352    2.3593766 *  1.4174214 *  0.0000000    1.3957320 *
   5 C       4.8186871    3.6426838    2.4304238 *  1.3957320 *  0.0000000  
   6 C       5.0718377    4.1925635    2.8294995 *  2.4452619 *  1.4068758 *
   7 C       4.2397528    3.7132086    2.4318501 *  2.7995810 *  2.4057556 *
   8 C       2.8379909 *  2.4495568 *  1.3948835 *  2.4230917 *  2.7813140 *
   9 C       6.5683955    5.7146820    4.3521501    3.8362495    2.5430582 *
  10 C       7.1950900    6.4903164    5.1540497    4.8243870    3.6427454  
  11 C       8.0566158    7.5074672    6.1827821    6.0139150    4.8682317  
  12 O       4.0272590    2.6072136 *  2.3563955 *  1.3650115 *  2.4459542 *
  13 C       5.4457068    4.0265528    3.6655761    2.3927459 *  2.8379135 *
  14 H       1.0911458 *  2.0128125 *  3.2640209    4.3713732    5.6411501  
  15 H       1.0979535 *  2.0886969 *  2.7151602 *  4.0357660    5.0474985  
  16 H       1.0979629 *  2.0886815 *  2.7190595 *  4.0379956    5.0518533  
  17 H       5.7750153    4.5077832    3.4141616    2.1500609 *  1.0846708 *
  18 H       4.8832143    4.5962840    3.4076559    3.8859060    3.3965272  
  19 H       2.5355077 *  2.7294217 *  2.1534523 *  3.4110265    3.8650882  
  20 H       6.9446734    6.1811181    4.8368433    4.4375295    3.2237409  
  21 H       7.1483054    6.1307392    4.8114334    3.9849698    2.5902643 *
  22 H       7.1495755    6.4141622    5.1461326    4.7767115    3.6986498  
  23 H       8.6703380    8.1958379    6.9135471    6.8076471    5.7179750  
  24 H       8.3514827    7.8476255    6.5184912    6.3926417    5.2418419  
  25 H       5.9490692    4.5522855    4.0346810    2.7190868 *  2.8274585 *
  26 H       5.9633873    4.5641317    4.0487043    2.7285705 *  2.8358539 *
  27 H       5.7920994    4.4184096    4.3662814    3.2646610    3.9027783  

                6 C          7 C          8 C          9 C         10 C     

   1 C       5.0718377    4.2397528    2.8379909 *  6.5683955    7.1950900  
   2 O       4.1925635    3.7132086    2.4495568 *  5.7146820    6.4903164  
   3 C       2.8294995 *  2.4318501 *  1.3948835 *  4.3521501    5.1540497  
   4 C       2.4452619 *  2.7995810 *  2.4230917 *  3.8362495    4.8243870  
   5 C       1.4068758 *  2.4057556 *  2.7813140 *  2.5430582 *  3.6427454  
   6 C       0.0000000    1.3936392 *  2.4310435 *  1.5227230 *  2.5363510 *
   7 C       1.3936392 *  0.0000000    1.4023598 *  2.5411388 *  3.1085178  
   8 C       2.4310435 *  1.4023598 *  0.0000000    3.8334780    4.4322836  
   9 C       1.5227230 *  2.5411388 *  3.8334780    0.0000000    1.5089556 *
  10 C       2.5363510 *  3.1085178    4.4322836    1.5089556 *  0.0000000  
  11 C       3.6292699    3.9022885    5.2581938    2.5265975 *  1.3366926 *
  12 O       3.7213694    4.1623865    3.6354899    4.9889896    6.0061509  
  13 C       4.2445741    5.0443466    4.8145927    5.1992384    6.2636122  
  14 H       6.0486526    5.3002799    3.9037194    7.5620260    8.2209609  
  15 H       5.1207502    4.1628595    2.8248309 *  6.5575582    7.2485110  
  16 H       5.1279377    4.1693490    2.8314776 *  6.5694286    6.9690388  
  17 H       2.1513121 *  3.3852176    3.8659758    2.7253557 *  3.8664245  
  18 H       2.1529752 *  1.0864305 *  2.1529343 *  2.7483945 *  2.9440618 *
  19 H       3.4035332    2.1496171 *  1.0838949 *  4.6898431    5.1168791  
  20 H       2.1618568 *  2.8855555 *  4.1951491    1.0982475 *  2.1366680 *
  21 H       2.1423996 *  3.4229085    4.5734306    1.0987277 *  2.1352555 *
  22 H       2.8441681 *  3.4153735    4.5597682    2.2116089 *  1.0907964 *
  23 H       4.5144442    4.6739388    5.9532304    3.5154175    2.1186716 *
  24 H       3.9486750    4.1527916    5.5294158    2.7911560 *  2.1199659 *
  25 H       4.1651612    5.0924998    5.0411315    4.9497498    5.8331988  
  26 H       4.1775218    5.1107193    5.0590998    4.9540960    6.1848993  
  27 H       5.3052505    6.0190659    5.6333075    6.2903195    7.3377176  

               11 C         12 O         13 C         14 H         15 H     

   1 C       8.0566158    4.0272590    5.4457068    1.0911458 *  1.0979535 *
   2 O       7.5074672    2.6072136 *  4.0265528    2.0128125 *  2.0886969 *
   3 C       6.1827821    2.3563955 *  3.6655761    3.2640209    2.7151602 *
   4 C       6.0139150    1.3650115 *  2.3927459 *  4.3713732    4.0357660  
   5 C       4.8682317    2.4459542 *  2.8379135 *  5.6411501    5.0474985  
   6 C       3.6292699    3.7213694    4.2445741    6.0486526    5.1207502  
   7 C       3.9022885    4.1623865    5.0443466    5.3002799    4.1628595  
   8 C       5.2581938    3.6354899    4.8145927    3.9037194    2.8248309 *
   9 C       2.5265975 *  4.9889896    5.1992384    7.5620260    6.5575582  
  10 C       1.3366926 *  6.0061509    6.2636122    8.2209609    7.2485110  
  11 C       0.0000000    7.2510706    7.5589970    9.1197867    7.9939851  
  12 O       7.2510706    0.0000000    1.4203706 *  4.4259732    4.5557907  
  13 C       7.5589970    1.4203706 *  0.0000000    5.7978826    5.9561879  
  14 H       9.1197867    4.4259732    5.7978826    0.0000000    1.7865061 *
  15 H       7.9939851    4.5557907    5.9561879    1.7865061 *  0.0000000  
  16 H       7.7690186    4.5542896    5.9495563    1.7865160 *  1.7921154 *
  17 H       5.1296523    2.7162091 *  2.5242084 *  6.5204724    6.0422857  
  18 H       3.3762354    5.2481916    6.1116903    5.9719600    4.6748152  
  19 H       5.7613616    4.5074415    5.7756484    3.6195711    2.3305731 *
  20 H       2.6369153 *  5.6037997    5.8454146    7.9560792    6.7627884  
  21 H       3.1907171    4.9209477    4.8247692    8.0749596    7.2192294  
  22 H       2.0979994 *  5.8646106    6.0897718    8.1298913    7.3612998  
  23 H       1.0864008 *  8.0312740    8.3498313    9.7275955    8.6582999  
  24 H       1.0883429 *  7.6554812    7.9810082    9.4289932    8.1504130  
  25 H       7.1616995    2.0894123 *  1.0980882 *  6.3707682    6.5347998  
  26 H       7.4272929    2.0899390 *  1.0979179 *  6.3814128    6.3010570  
  27 H       8.6394849    2.0111910 *  1.0911507 *  5.9480657    6.3731736  

               16 H         17 H         18 H         19 H         20 H     

   1 C       1.0979629 *  5.7750153    4.8832143    2.5355077 *  6.9446734  
   2 O       2.0886815 *  4.5077832    4.5962840    2.7294217 *  6.1811181  
   3 C       2.7190595 *  3.4141616    3.4076559    2.1534523 *  4.8368433  
   4 C       4.0379956    2.1500609 *  3.8859060    3.4110265    4.4375295  
   5 C       5.0518533    1.0846708 *  3.3965272    3.8650882    3.2237409  
   6 C       5.1279377    2.1513121 *  2.1529752 *  3.4035332    2.1618568 *
   7 C       4.1693490    3.3852176    1.0864305 *  2.1496171 *  2.8855555 *
   8 C       2.8314776 *  3.8659758    2.1529343 *  1.0838949 *  4.1951491  
   9 C       6.5694286    2.7253557 *  2.7483945 *  4.6898431    1.0982475 *
  10 C       6.9690388    3.8664245    2.9440618 *  5.1168791    2.1366680 *
  11 C       7.7690186    5.1296523    3.3762354    5.7613616    2.6369153 *
  12 O       4.5542896    2.7162091 *  5.2481916    4.5074415    5.6037997  
  13 C       5.9495563    2.5242084 *  6.1116903    5.7756484    5.8454146  
  14 H       1.7865160 *  6.5204724    5.9719600    3.6195711    7.9560792  
  15 H       1.7921154 *  6.0422857    4.6748152    2.3305731 *  6.7627884  
  16 H       0.0000000    6.0468022    4.6787667    2.3363934 *  7.0196361  
  17 H       6.0468022    0.0000000    4.2896301    4.9497221    3.4266742  
  18 H       4.6787667    4.2896301    0.0000000    2.4604375 *  2.8700508 *
  19 H       2.3363934 *  4.9497221    2.4604375 *  0.0000000    4.9481709  
  20 H       7.0196361    3.4266742    2.8700508 *  4.9481709    0.0000000  
  21 H       7.2240797    2.3109891 *  3.7982845    5.5275025    1.7593054 *
  22 H       6.8299225    3.8834471    3.4063931    5.2561652    3.0918560  
  23 H       8.2642944    5.9813318    4.0772969    6.3631559    3.7207085  
  24 H       8.1471244    5.5148760    3.5208547    5.9811615    2.4446475 *
  25 H       6.2781007    2.3276865 *  6.1144146    6.0383436    5.7417906  
  26 H       6.5449382    2.3249761 *  6.1364021    6.0583858    5.4460490  
  27 H       6.3623152    3.6087392    7.0990664    6.5183016    6.9248346  

               21 H         22 H         23 H         24 H         25 H     

   1 C       7.1483054    7.1495755    8.6703380    8.3514827    5.9490692  
   2 O       6.1307392    6.4141622    8.1958379    7.8476255    4.5522855  
   3 C       4.8114334    5.1461326    6.9135471    6.5184912    4.0346810  
   4 C       3.9849698    4.7767115    6.8076471    6.3926417    2.7190868 *
   5 C       2.5902643 *  3.6986498    5.7179750    5.2418419    2.8274585 *
   6 C       2.1423996 *  2.8441681 *  4.5144442    3.9486750    4.1651612  
   7 C       3.4229085    3.4153735    4.6739388    4.1527916    5.0924998  
   8 C       4.5734306    4.5597682    5.9532304    5.5294158    5.0411315  
   9 C       1.0987277 *  2.2116089 *  3.5154175    2.7911560 *  4.9497498  
  10 C       2.1352555 *  1.0907964 *  2.1186716 *  2.1199659 *  5.8331988  
  11 C       3.1907171    2.0979994 *  1.0864008 *  1.0883429 *  7.1616995  
  12 O       4.9209477    5.8646106    8.0312740    7.6554812    2.0894123 *
  13 C       4.8247692    6.0897718    8.3498313    7.9810082    1.0980882 *
  14 H       8.0749596    8.1298913    9.7275955    9.4289932    6.3707682  
  15 H       7.2192294    7.3612998    8.6582999    8.1504130    6.5347998  
  16 H       7.2240797    6.8299225    8.2642944    8.1471244    6.2781007  
  17 H       2.3109891 *  3.8834471    5.9813318    5.5148760    2.3276865 *
  18 H       3.7982845    3.4063931    4.0772969    3.5208547    6.1144146  
  19 H       5.5275025    5.2561652    6.3631559    5.9811615    6.0383436  
  20 H       1.7593054 *  3.0918560    3.7207085    2.4446475 *  5.7417906  
  21 H       0.0000000    2.5781374 *  4.1055234    3.4890153    4.4761517  
  22 H       2.5781374 *  0.0000000    2.4391214 *  3.0791932    5.5134177  
  23 H       4.1055234    2.4391214 *  0.0000000    1.8526641 *  7.8674843  
  24 H       3.4890153    3.0791932    1.8526641 *  0.0000000    7.6990895  
  25 H       4.4761517    5.5134177    7.8674843    7.6990895    0.0000000  
  26 H       4.4839147    6.1779029    8.3023826    7.7256795    1.7920061 *
  27 H       5.8991120    7.1197251    9.4128514    9.0710601    1.7858951 *

               26 H         27 H     

   1 C       5.9633873    5.7920994  
   2 O       4.5641317    4.4184096  
   3 C       4.0487043    4.3662814  
   4 C       2.7285705 *  3.2646610  
   5 C       2.8358539 *  3.9027783  
   6 C       4.1775218    5.3052505  
   7 C       5.1107193    6.0190659  
   8 C       5.0590998    5.6333075  
   9 C       4.9540960    6.2903195  
  10 C       6.1848993    7.3377176  
  11 C       7.4272929    8.6394849  
  12 O       2.0899390 *  2.0111910 *
  13 C       1.0979179 *  1.0911507 *
  14 H       6.3814128    5.9480657  
  15 H       6.3010570    6.3731736  
  16 H       6.5449382    6.3623152  
  17 H       2.3249761 *  3.6087392  
  18 H       6.1364021    7.0990664  
  19 H       6.0583858    6.5183016  
  20 H       5.4460490    6.9248346  
  21 H       4.4839147    5.8991120  
  22 H       6.1779029    7.1197251  
  23 H       8.3023826    9.4128514  
  24 H       7.7256795    9.0710601  
  25 H       1.7920061 *  1.7858951 *
  26 H       0.0000000    1.7861837 *
  27 H       1.7861837 *  0.0000000  

  * ... LESS THAN  3.000


     ATOMIC BASIS SET
     ----------------
 THE CONTRACTED PRIMITIVE FUNCTIONS HAVE BEEN UNNORMALIZED
 THE CONTRACTED BASIS FUNCTIONS ARE NOW NORMALIZED TO UNITY

  SHELL TYPE  PRIMITIVE        EXPONENT          CONTRACTION COEFFICIENT(S)

 C         

      1   S       1           172.2560000    0.061766907377
      1   S       2            25.9109000    0.358794042852
      1   S       3             5.5333500    0.700713083689

      2   L       4             3.6649800   -0.395895162119    0.236459946619
      2   L       5             0.7705450    1.215834355681    0.860618805716

      3   L       6             0.1958570    1.000000000000    1.000000000000

 O         

      4   S       7           322.0370000    0.059239393389
      4   S       8            48.4308000    0.351499960776
      4   S       9            10.4206000    0.707657921031

      5   L      10             7.4029400   -0.404453583190    0.244586106967
      5   L      11             1.5762000    1.221561761397    0.853955373466

      6   L      12             0.3736840    1.000000000000    1.000000000000

 C         

      7   S      13           172.2560000    0.061766907377
      7   S      14            25.9109000    0.358794042852
      7   S      15             5.5333500    0.700713083689

      8   L      16             3.6649800   -0.395895162119    0.236459946619
      8   L      17             0.7705450    1.215834355681    0.860618805716

      9   L      18             0.1958570    1.000000000000    1.000000000000

 C         

     10   S      19           172.2560000    0.061766907377
     10   S      20            25.9109000    0.358794042852
     10   S      21             5.5333500    0.700713083689

     11   L      22             3.6649800   -0.395895162119    0.236459946619
     11   L      23             0.7705450    1.215834355681    0.860618805716

     12   L      24             0.1958570    1.000000000000    1.000000000000

 C         

     13   S      25           172.2560000    0.061766907377
     13   S      26            25.9109000    0.358794042852
     13   S      27             5.5333500    0.700713083689

     14   L      28             3.6649800   -0.395895162119    0.236459946619
     14   L      29             0.7705450    1.215834355681    0.860618805716

     15   L      30             0.1958570    1.000000000000    1.000000000000

 C         

     16   S      31           172.2560000    0.061766907377
     16   S      32            25.9109000    0.358794042852
     16   S      33             5.5333500    0.700713083689

     17   L      34             3.6649800   -0.395895162119    0.236459946619
     17   L      35             0.7705450    1.215834355681    0.860618805716

     18   L      36             0.1958570    1.000000000000    1.000000000000

 C         

     19   S      37           172.2560000    0.061766907377
     19   S      38            25.9109000    0.358794042852
     19   S      39             5.5333500    0.700713083689

     20   L      40             3.6649800   -0.395895162119    0.236459946619
     20   L      41             0.7705450    1.215834355681    0.860618805716

     21   L      42             0.1958570    1.000000000000    1.000000000000

 C         

     22   S      43           172.2560000    0.061766907377
     22   S      44            25.9109000    0.358794042852
     22   S      45             5.5333500    0.700713083689

     23   L      46             3.6649800   -0.395895162119    0.236459946619
     23   L      47             0.7705450    1.215834355681    0.860618805716

     24   L      48             0.1958570    1.000000000000    1.000000000000

 C         

     25   S      49           172.2560000    0.061766907377
     25   S      50            25.9109000    0.358794042852
     25   S      51             5.5333500    0.700713083689

     26   L      52             3.6649800   -0.395895162119    0.236459946619
     26   L      53             0.7705450    1.215834355681    0.860618805716

     27   L      54             0.1958570    1.000000000000    1.000000000000

 C         

     28   S      55           172.2560000    0.061766907377
     28   S      56            25.9109000    0.358794042852
     28   S      57             5.5333500    0.700713083689

     29   L      58             3.6649800   -0.395895162119    0.236459946619
     29   L      59             0.7705450    1.215834355681    0.860618805716

     30   L      60             0.1958570    1.000000000000    1.000000000000

 C         

     31   S      61           172.2560000    0.061766907377
     31   S      62            25.9109000    0.358794042852
     31   S      63             5.5333500    0.700713083689

     32   L      64             3.6649800   -0.395895162119    0.236459946619
     32   L      65             0.7705450    1.215834355681    0.860618805716

     33   L      66             0.1958570    1.000000000000    1.000000000000

 O         

     34   S      67           322.0370000    0.059239393389
     34   S      68            48.4308000    0.351499960776
     34   S      69            10.4206000    0.707657921031

     35   L      70             7.4029400   -0.404453583190    0.244586106967
     35   L      71             1.5762000    1.221561761397    0.853955373466

     36   L      72             0.3736840    1.000000000000    1.000000000000

 C         

     37   S      73           172.2560000    0.061766907377
     37   S      74            25.9109000    0.358794042852
     37   S      75             5.5333500    0.700713083689

     38   L      76             3.6649800   -0.395895162119    0.236459946619
     38   L      77             0.7705450    1.215834355681    0.860618805716

     39   L      78             0.1958570    1.000000000000    1.000000000000

 H         

     40   S      79             5.4471780    0.156284978695
     40   S      80             0.8245472    0.904690876670

     41   S      81             0.1831916    1.000000000000

 H         

     42   S      82             5.4471780    0.156284978695
     42   S      83             0.8245472    0.904690876670

     43   S      84             0.1831916    1.000000000000

 H         

     44   S      85             5.4471780    0.156284978695
     44   S      86             0.8245472    0.904690876670

     45   S      87             0.1831916    1.000000000000

 H         

     46   S      88             5.4471780    0.156284978695
     46   S      89             0.8245472    0.904690876670

     47   S      90             0.1831916    1.000000000000

 H         

     48   S      91             5.4471780    0.156284978695
     48   S      92             0.8245472    0.904690876670

     49   S      93             0.1831916    1.000000000000

 H         

     50   S      94             5.4471780    0.156284978695
     50   S      95             0.8245472    0.904690876670

     51   S      96             0.1831916    1.000000000000

 H         

     52   S      97             5.4471780    0.156284978695
     52   S      98             0.8245472    0.904690876670

     53   S      99             0.1831916    1.000000000000

 H         

     54   S     100             5.4471780    0.156284978695
     54   S     101             0.8245472    0.904690876670

     55   S     102             0.1831916    1.000000000000

 H         

     56   S     103             5.4471780    0.156284978695
     56   S     104             0.8245472    0.904690876670

     57   S     105             0.1831916    1.000000000000

 H         

     58   S     106             5.4471780    0.156284978695
     58   S     107             0.8245472    0.904690876670

     59   S     108             0.1831916    1.000000000000

 H         

     60   S     109             5.4471780    0.156284978695
     60   S     110             0.8245472    0.904690876670

     61   S     111             0.1831916    1.000000000000

 H         

     62   S     112             5.4471780    0.156284978695
     62   S     113             0.8245472    0.904690876670

     63   S     114             0.1831916    1.000000000000

 H         

     64   S     115             5.4471780    0.156284978695
     64   S     116             0.8245472    0.904690876670

     65   S     117             0.1831916    1.000000000000

 H         

     66   S     118             5.4471780    0.156284978695
     66   S     119             0.8245472    0.904690876670

     67   S     120             0.1831916    1.000000000000

 TOTAL NUMBER OF BASIS SET SHELLS             =   67
 NUMBER OF CARTESIAN GAUSSIAN BASIS FUNCTIONS =  145
 NUMBER OF ELECTRONS                          =   96
 CHARGE OF MOLECULE                           =    0
 SPIN MULTIPLICITY                            =    1
 NUMBER OF OCCUPIED ORBITALS (ALPHA)          =   48
 NUMBER OF OCCUPIED ORBITALS (BETA )          =   48
 TOTAL NUMBER OF ATOMS                        =   27
 THE NUCLEAR REPULSION ENERGY IS      764.1560776709

     $CONTRL OPTIONS
     ---------------
 SCFTYP=RHF          RUNTYP=ENERGY       EXETYP=RUN     
 MPLEVL=       0     CITYP =NONE         CCTYP =NONE         VBTYP =NONE    
 DFTTYP=NONE         TDDFT =NONE    
 MULT  =       1     ICHARG=       0     NZVAR =       0     COORD =UNIQUE  
 PP    =NONE         RELWFN=NONE         LOCAL =NONE         NUMGRD=       F
 ISPHER=      -1     NOSYM =       0     MAXIT =      60     UNITS =ANGS    
 PLTORB=       F     MOLPLT=       F     AIMPAC=       F     FRIEND=        
 NPRINT=       7     IREST =       0     GEOM  =INPUT   
 NORMF =       0     NORMP =       0     ITOL  =      20     ICUT  =       9
 INTTYP=BEST         GRDTYP=BEST         QMTTOL= 1.0E-06

     $SYSTEM OPTIONS
     ---------------
  REPLICATED MEMORY=    30000000 WORDS (ON EVERY NODE).
 DISTRIBUTED MEMDDI=        1000 MILLION WORDS IN AGGREGATE,
 MEMDDI DISTRIBUTED OVER   6 PROCESSORS IS   166666666 WORDS/PROCESSOR.
 TOTAL MEMORY REQUESTED ON EACH PROCESSOR=   196666666 WORDS.
 TIMLIM=      525600.00 MINUTES, OR     365.0 DAYS.
 PARALL= T  BALTYP=  DLB     KDIAG=    0  COREFL= F
 MXSEQ2=     300 MXSEQ3=     150  mem10=         0

          ----------------
          PROPERTIES INPUT
          ----------------

     MOMENTS            FIELD           POTENTIAL          DENSITY
 IEMOM =       1   IEFLD =       0   IEPOT =       0   IEDEN =       0
 WHERE =COMASS     WHERE =NUCLEI     WHERE =NUCLEI     WHERE =NUCLEI  
 OUTPUT=BOTH       OUTPUT=BOTH       OUTPUT=BOTH       OUTPUT=BOTH    
 IEMINT=       0   IEFINT=       0                     IEDINT=       0
                                                       MORB  =       0
          EXTRAPOLATION IN EFFECT
          SOSCF IN EFFECT
 ORBITAL PRINTING OPTION: NPREO=     1   145     2     1

     -------------------------------
     INTEGRAL TRANSFORMATION OPTIONS
     -------------------------------
     NWORD  =            0
     CUTOFF = 1.0E-09     MPTRAN =       0
     DIRTRF =       T     AOINTS =DUP     

          ----------------------
          INTEGRAL INPUT OPTIONS
          ----------------------
 NOPK  =       1 NORDER=       0 SCHWRZ=       T

     ------------------------------------------
     THE POINT GROUP IS C1 , NAXIS= 0, ORDER= 1
     ------------------------------------------

     DIMENSIONS OF THE SYMMETRY SUBSPACES ARE
 A   =  145

 ..... DONE SETTING UP THE RUN .....
 CPU     0: STEP CPU TIME=     0.03 TOTAL CPU TIME=          0.0 (      0.0 MIN)
 TOTAL WALL CLOCK TIME=          0.0 SECONDS, CPU UTILIZATION IS    75.00%

          ********************
          1 ELECTRON INTEGRALS
          ********************
 ...... END OF ONE-ELECTRON INTEGRALS ......
 CPU     0: STEP CPU TIME=     0.01 TOTAL CPU TIME=          0.0 (      0.0 MIN)
 TOTAL WALL CLOCK TIME=          0.1 SECONDS, CPU UTILIZATION IS    66.67%

          -------------
          GUESS OPTIONS
          -------------
          GUESS =HUCKEL            NORB  =       0          NORDER=       0
          MIX   =       F          PRTMO =       F          PUNMO =       F
          TOLZ  = 1.0E-08          TOLE  = 1.0E-05
          SYMDEN=       F          PURIFY=       F

 INITIAL GUESS ORBITALS GENERATED BY HUCKEL   ROUTINE.
 HUCKEL GUESS REQUIRES    197422 WORDS.

 SYMMETRIES FOR INITIAL GUESS ORBITALS FOLLOW.   BOTH SET(S).
    48 ORBITALS ARE OCCUPIED (   13 CORE ORBITALS).
    14=A       15=A       16=A       17=A       18=A       19=A       20=A   
    21=A       22=A       23=A       24=A       25=A       26=A       27=A   
    28=A       29=A       30=A       31=A       32=A       33=A       34=A   
    35=A       36=A       37=A       38=A       39=A       40=A       41=A   
    42=A       43=A       44=A       45=A       46=A       47=A       48=A   
    49=A       50=A       51=A       52=A       53=A       54=A       55=A   
    56=A       57=A       58=A   
 ...... END OF INITIAL ORBITAL SELECTION ......
 CPU     0: STEP CPU TIME=     0.04 TOTAL CPU TIME=          0.1 (      0.0 MIN)
 TOTAL WALL CLOCK TIME=          0.1 SECONDS, CPU UTILIZATION IS    61.54%

                    ----------------------
                    AO INTEGRAL TECHNOLOGY
                    ----------------------
     S,P,L SHELL ROTATED AXIS INTEGRALS, REPROGRAMMED BY
        KAZUYA ISHIMURA (IMS) AND JOSE SIERRA (SYNSTAR).
     S,P,D,L SHELL ROTATED AXIS INTEGRALS PROGRAMMED BY
        KAZUYA ISHIMURA (INSTITUTE FOR MOLECULAR SCIENCE).
     S,P,D,F,G SHELL TO TOTAL QUARTET ANGULAR MOMENTUM SUM 5,
        ERIC PROGRAM BY GRAHAM FLETCHER (ELORET AND NASA ADVANCED
        SUPERCOMPUTING DIVISION, AMES RESEARCH CENTER).
     S,P,D,F,G,L SHELL GENERAL RYS QUADRATURE PROGRAMMED BY
        MICHEL DUPUIS (PACIFIC NORTHWEST NATIONAL LABORATORY).

          --------------------
          2 ELECTRON INTEGRALS
          --------------------

 DIRECT SCF METHOD SKIPS INTEGRAL STORAGE ON DISK.
 DIRECT TRANSFORMATION SKIPS AO INTEGRAL STORAGE ON DISK.
  ...... END OF TWO-ELECTRON INTEGRALS .....
 CPU     0: STEP CPU TIME=     0.01 TOTAL CPU TIME=          0.1 (      0.0 MIN)
 TOTAL WALL CLOCK TIME=          0.1 SECONDS, CPU UTILIZATION IS    64.29%

          --------------------------
                 RHF SCF CALCULATION
          --------------------------

     NUCLEAR ENERGY =       764.1560776709
     MAXIT =   60     NPUNCH=    2
     EXTRAP=T  DAMP=F  SHIFT=F  RSTRCT=F  DIIS=F  DEM=F  SOSCF=T
     DENSITY MATRIX CONV=  2.00E-05
     SOSCF WILL OPTIMIZE    4656 ORBITAL ROTATIONS, SOGTOL=   0.250
     MEMORY REQUIRED FOR RHF ITERS=    216741 WORDS.

 DIRECT SCF CALCULATION, SCHWRZ=T   FDIFF=T,  DIRTHR=  0.00E+00 NITDIR=10
 SCHWARZ INEQUALITY OVERHEAD:      9439 INTEGRALS, T=        0.01

                                                                                   NONZERO     BLOCKS
 ITER EX DEM     TOTAL ENERGY        E CHANGE  DENSITY CHANGE     ORB. GRAD      INTEGRALS    SKIPPED
   1  0  0     -569.9281081546  -569.9281081546   0.660990551   0.000000000       25023436    1711715
          ---------------START SECOND ORDER SCF---------------
   2  1  0     -571.1209100864    -1.1928019318   0.145810320   0.045553735       24961266    1740865
   3  2  0     -571.1735421138    -0.0526320275   0.070688371   0.012680916       24671482    1799535
   4  3  0     -571.1804054771    -0.0068633632   0.008785473   0.004581053       24285493    1843772
   5  4  0     -571.1808786181    -0.0004731410   0.003003680   0.000898656       23055794    1923836
   6  5  0     -571.1809296358    -0.0000510176   0.001330187   0.000302168       22126156    1969995
   7  6  0     -571.1809356442    -0.0000060084   0.000523495   0.000106139       21237074    2011486
   8  7  0     -571.1809361658    -0.0000005216   0.000069737   0.000040875       19911000    2057916
   9  8  0     -571.1809362475    -0.0000000817   0.000058964   0.000025418       18422227    2110354
  10  9  0     -571.1809362633    -0.0000000158   0.000026422   0.000012046       17780548    2134976
  11 10  0     -571.1809362662    -0.0000000028   0.000012267   0.000003624       16414327    2182856
  12 11  0     -571.1809362669    -0.0000000007   0.000003993   0.000001354       15568640    2202454

          -----------------
          DENSITY CONVERGED
          -----------------
     TIME TO FORM FOCK OPERATORS=       4.2 SECONDS (       0.3 SEC/ITER)
     FOCK TIME ON FIRST ITERATION=       0.4, LAST ITERATION=       0.2
     TIME TO SOLVE SCF EQUATIONS=       0.1 SECONDS (       0.0 SEC/ITER)

 FINAL RHF ENERGY IS     -571.1809362669 AFTER  12 ITERATIONS

          ------------
          EIGENVECTORS
          ------------

                      1          2          3          4          5
                  -20.4756   -20.4741   -11.2457   -11.2433   -11.2269
                     A          A          A          A          A   
    1  C  1  S    0.000018  -0.000500  -0.004264  -0.004343  -0.035663
    2  C  1  S   -0.000315  -0.001300  -0.001431  -0.001092  -0.004020
    3  C  1  X    0.000347  -0.000959   0.000274   0.000506   0.000217
    4  C  1  Y    0.000563  -0.002146   0.000111   0.000267   0.000105
    5  C  1  Z    0.000068  -0.000221   0.000034   0.000068   0.000028
    6  C  1  S   -0.000548   0.011680   0.003411   0.000403   0.003522
    7  C  1  X   -0.000610  -0.002142  -0.002530  -0.002721  -0.001353
    8  C  1  Y   -0.000475  -0.004015  -0.001341   0.000626  -0.000321
    9  C  1  Z   -0.000091  -0.000444  -0.000336  -0.000256  -0.000159
   10  O  2  S   -0.175899   0.968064  -0.000124   0.000267  -0.000036
   11  O  2  S   -0.019521   0.099988  -0.001371   0.002843  -0.000387
   12  O  2  X    0.000731  -0.002906   0.000482  -0.001038   0.000118
   13  O  2  Y   -0.000408   0.002628   0.000168  -0.000190  -0.000055
   14  O  2  Z    0.000054  -0.000162   0.000061  -0.000122   0.000008
   15  O  2  S    0.018542  -0.059414   0.006066  -0.008004   0.001512
   16  O  2  X   -0.005171   0.011176  -0.003097   0.005640  -0.000882
   17  O  2  Y   -0.000183  -0.005277  -0.000334   0.000969   0.000162
   18  O  2  Z   -0.000556   0.000889  -0.000348   0.000659  -0.000078
   19  C  3  S   -0.000218  -0.000069  -0.138312   0.977619   0.005065
   20  C  3  S   -0.001913   0.001603  -0.018798   0.098172  -0.000956
   21  C  3  X    0.000388   0.000429   0.000987  -0.000729   0.000326
   22  C  3  Y   -0.000592   0.000249   0.001241   0.000155  -0.000098
   23  C  3  Z    0.000009   0.000056   0.000173  -0.000065   0.000034
   24  C  3  S    0.020287   0.000096   0.056285  -0.088171   0.016984
   25  C  3  X   -0.030568   0.035033  -0.031071   0.036815  -0.008089
   26  C  3  Y    0.002556   0.004651  -0.016528   0.003036  -0.009314
   27  C  3  Z   -0.003096   0.003970  -0.004192   0.004023  -0.001396
   28  C  4  S    0.000012  -0.000234   0.977782   0.137217   0.003448
   29  C  4  S    0.002179  -0.001253   0.099583   0.009027  -0.000055
   30  C  4  X   -0.000041   0.000695  -0.000660  -0.000210   0.000288
   31  C  4  Y   -0.000469   0.000065   0.000756  -0.001440   0.001831
   32  C  4  Z   -0.000026   0.000081  -0.000026  -0.000100   0.000119
   33  C  4  S   -0.006706   0.019715  -0.099801   0.031049  -0.005907
   34  C  4  X    0.031531  -0.016535   0.029681  -0.007215  -0.004147
   35  C  4  Y   -0.030522   0.006392  -0.033471   0.023902  -0.019911
   36  C  4  Z    0.001716  -0.001413   0.001352   0.000553  -0.001466
   37  C  5  S   -0.000309   0.000171  -0.004360  -0.001676  -0.000266
   38  C  5  S   -0.001600   0.000576  -0.005709  -0.000653   0.000181
   39  C  5  X    0.000819  -0.000552  -0.000921  -0.001134  -0.000434
   40  C  5  Y   -0.001091  -0.000483  -0.001193  -0.000668   0.000280
   41  C  5  Z    0.000029  -0.000081  -0.000157  -0.000147  -0.000030
   42  C  5  S    0.029253  -0.016973   0.053190  -0.011394  -0.005693
   43  C  5  X    0.000108  -0.007646   0.017102  -0.002350  -0.002511
   44  C  5  Y    0.027319  -0.004617   0.028171  -0.008916   0.003540
   45  C  5  Z    0.001509  -0.001091   0.003348  -0.000795  -0.000093
   46  C  6  S    0.000312  -0.000113  -0.000165  -0.001531  -0.001203
   47  C  6  S    0.001358  -0.000540   0.001096  -0.001122  -0.000426
   48  C  6  X   -0.000304  -0.000530  -0.000628  -0.000727  -0.000447
   49  C  6  Y    0.000200  -0.000050   0.000499  -0.000071   0.000068
   50  C  6  Z   -0.000033  -0.000069  -0.000073  -0.000106  -0.000045
   51  C  6  S   -0.024804   0.006762  -0.025753   0.013065  -0.001900
   52  C  6  X   -0.014999   0.009005  -0.015759   0.012231   0.001555
   53  C  6  Y    0.004984   0.003541   0.001548   0.004677   0.000002
   54  C  6  Z   -0.001369   0.001204  -0.001610   0.001658   0.000179
   55  C  7  S   -0.000200   0.000243  -0.001261  -0.000410  -0.000198
   56  C  7  S   -0.000967   0.001032  -0.001318   0.000707  -0.000210
   57  C  7  X   -0.000072  -0.000710  -0.000158  -0.001235   0.000156
   58  C  7  Y    0.000194   0.000023   0.000299  -0.000081   0.000171
   59  C  7  Z    0.000008  -0.000080   0.000002  -0.000142   0.000025
   60  C  7  S    0.013582  -0.021314   0.017324  -0.022136   0.002987
   61  C  7  X    0.009184  -0.009684   0.009421  -0.008705   0.001237
   62  C  7  Y   -0.007346   0.005055  -0.009028   0.010510  -0.000665
   63  C  7  Z    0.000513  -0.000689   0.000430  -0.000280   0.000086
   64  C  8  S    0.000245  -0.000216  -0.000514  -0.004700   0.000257
   65  C  8  S    0.000958  -0.001214   0.000809  -0.005568   0.000259
   66  C  8  X   -0.000625   0.001178  -0.000521  -0.000081  -0.000286
   67  C  8  Y    0.000629   0.000551   0.000850   0.001753   0.000080
   68  C  8  Z   -0.000033   0.000160  -0.000011   0.000094  -0.000026
   69  C  8  S   -0.024985   0.020493  -0.024593   0.046337  -0.003463
   70  C  8  X    0.002885  -0.014431   0.004606  -0.000614   0.002716
   71  C  8  Y    0.014171  -0.018170   0.015473  -0.030554   0.004147
   72  C  8  Z    0.001120  -0.002569   0.001375  -0.001799   0.000530
   73  C  9  S   -0.000021  -0.000043  -0.001089  -0.000499  -0.000483
   74  C  9  S   -0.000186  -0.000155  -0.000728  -0.000515  -0.000323
   75  C  9  X   -0.000228   0.000272  -0.000564   0.000122   0.000076
   76  C  9  Y    0.000084   0.000151   0.000195   0.000154  -0.000038
   77  C  9  Z   -0.000069   0.000034  -0.000145  -0.000013   0.000005
   78  C  9  S   -0.002399   0.004316  -0.002215   0.005624   0.001857
   79  C  9  X   -0.000252   0.001660   0.001164   0.002903   0.000516
   80  C  9  Y   -0.002431  -0.000444  -0.002659  -0.000530   0.000510
   81  C  9  Z    0.000133   0.000272   0.000608   0.000621   0.000085
   82  C 10  S    0.000004   0.000006  -0.000081  -0.000079  -0.000190
   83  C 10  S    0.000030   0.000038  -0.000051  -0.000048  -0.000062
   84  C 10  X    0.000063   0.000008   0.000127   0.000031  -0.000057
   85  C 10  Y   -0.000050   0.000065  -0.000144   0.000009   0.000022
   86  C 10  Z    0.000035  -0.000001   0.000116   0.000059   0.000008
   87  C 10  S    0.000508  -0.000314   0.001266   0.000133  -0.000197
   88  C 10  X   -0.000506  -0.000103  -0.001352  -0.000629   0.000027
   89  C 10  Y    0.000543  -0.000097   0.001265   0.000345  -0.000097
   90  C 10  Z   -0.000869   0.000113  -0.001654  -0.000323   0.000278
   91  C 11  S    0.000002  -0.000006   0.000003  -0.000034   0.000015
   92  C 11  S   -0.000006  -0.000042   0.000046  -0.000016   0.000006
   93  C 11  X   -0.000062  -0.000000  -0.000102  -0.000028   0.000019
   94  C 11  Y    0.000046   0.000014   0.000092   0.000041  -0.000003
   95  C 11  Z    0.000030   0.000021   0.000045   0.000031  -0.000004
   96  C 11  S   -0.000707   0.000160  -0.001813  -0.000504   0.000131
   97  C 11  X   -0.000139   0.000137  -0.000541  -0.000099   0.000022
   98  C 11  Y    0.000122  -0.000084   0.000395   0.000083  -0.000033
   99  C 11  Z    0.000007  -0.000164   0.000033  -0.000169  -0.000060
  100  O 12  S    0.968129   0.175554   0.000292  -0.000045  -0.000009
  101  O 12  S    0.100496   0.016865   0.003123  -0.000529   0.000926
  102  O 12  X   -0.003931  -0.000607  -0.000753   0.000060  -0.000817
  103  O 12  Y   -0.000213  -0.000231   0.000898  -0.000207  -0.000886
  104  O 12  Z   -0.000401  -0.000068  -0.000033  -0.000000  -0.000125
  105  O 12  S   -0.062261  -0.003443  -0.009409   0.003624   0.002236
  106  O 12  X    0.012703   0.000590   0.004368  -0.000995   0.003281
  107  O 12  Y   -0.003731   0.002276  -0.004771   0.000978  -0.000573
  108  O 12  Z    0.001098   0.000154   0.000216  -0.000080   0.000327
  109  C 13  S   -0.000478  -0.000157  -0.002878  -0.006077   0.986554
  110  C 13  S   -0.001131  -0.000733  -0.000662  -0.001737   0.099194
  111  C 13  X    0.000550   0.000134   0.000219   0.000223  -0.000469
  112  C 13  Y    0.002369   0.000207  -0.000464  -0.000379   0.001193
  113  C 13  Z    0.000165   0.000022  -0.000003   0.000009   0.000004
  114  C 13  S    0.011179   0.003585  -0.000614   0.003397  -0.067020
  115  C 13  X    0.000666   0.000096  -0.002255  -0.001857   0.003337
  116  C 13  Y    0.004024   0.002270   0.000483   0.002833   0.000577
  117  C 13  Z    0.000217   0.000117  -0.000197  -0.000068   0.000350
  118  H 14  S    0.000108  -0.000957  -0.000026   0.000488   0.000069
  119  H 14  S    0.000411  -0.001005   0.000753   0.001041   0.000028
  120  H 15  S   -0.000043  -0.001012  -0.000390  -0.000380  -0.000172
  121  H 15  S    0.000578  -0.001636  -0.000073  -0.000612  -0.000562
  122  H 16  S   -0.000044  -0.001008  -0.000389  -0.000374  -0.000172
  123  H 16  S    0.000580  -0.001642  -0.000076  -0.000601  -0.000559
  124  H 17  S    0.001941   0.000107   0.000795  -0.000465   0.000448
  125  H 17  S    0.007482  -0.000981   0.007662  -0.002150   0.001840
  126  H 18  S    0.000657  -0.000132   0.000574  -0.000621  -0.000019
  127  H 18  S    0.002984  -0.001712   0.003336  -0.002146   0.000255
  128  H 19  S   -0.000483   0.001919  -0.000526   0.000706  -0.000334
  129  H 19  S   -0.003254   0.006734  -0.003665   0.007455  -0.001649
  130  H 20  S    0.000148  -0.000069   0.000218  -0.000065  -0.000128
  131  H 20  S    0.000456   0.000039   0.000748   0.000204  -0.000115
  132  H 21  S   -0.000149  -0.000139  -0.000520  -0.000330   0.000021
  133  H 21  S   -0.001163  -0.000748  -0.000284  -0.000383  -0.000154
  134  H 22  S    0.000093  -0.000000   0.000196   0.000059  -0.000025
  135  H 22  S    0.000506   0.000009   0.000941   0.000253  -0.000128
  136  H 23  S    0.000011   0.000016   0.000029   0.000029   0.000006
  137  H 23  S    0.000066   0.000089   0.000055   0.000088   0.000003
  138  H 24  S    0.000008  -0.000038   0.000033  -0.000026  -0.000006
  139  H 24  S    0.000063  -0.000025   0.000121   0.000004  -0.000034
  140  H 25  S   -0.000945  -0.000397  -0.000293  -0.000487  -0.000137
  141  H 25  S   -0.001736  -0.000025  -0.000517  -0.000226   0.014314
  142  H 26  S   -0.000942  -0.000395  -0.000261  -0.000485  -0.000149
  143  H 26  S   -0.001757  -0.000014  -0.000554  -0.000217   0.014307
  144  H 27  S   -0.000931  -0.000239   0.000495   0.000113  -0.000850
  145  H 27  S   -0.001026   0.000015   0.000890   0.001003   0.012541

                      6          7          8          9         10
                  -11.2258   -11.1877   -11.1817   -11.1797   -11.1796
                     A          A          A          A          A   
    1  C  1  S    0.986556   0.000157   0.000073  -0.000110   0.000294
    2  C  1  S    0.099182  -0.000079  -0.000032   0.000053  -0.000146
    3  C  1  X   -0.001081  -0.000019   0.000045   0.000011   0.000087
    4  C  1  Y   -0.000649  -0.000003  -0.000016   0.000041  -0.000087
    5  C  1  Z   -0.000149  -0.000001   0.000003   0.000003   0.000004
    6  C  1  S   -0.067026   0.000468   0.000063  -0.000788   0.001109
    7  C  1  X    0.002280  -0.000113  -0.000224  -0.000005  -0.000468
    8  C  1  Y   -0.002507  -0.000227   0.000009   0.000707  -0.000744
    9  C  1  Z    0.000097  -0.000025  -0.000036   0.000042  -0.000087
   10  O  2  S   -0.000010  -0.000023   0.000002   0.000031  -0.000017
   11  O  2  S    0.000913  -0.000201   0.000022   0.000369  -0.000281
   12  O  2  X   -0.000108   0.000042  -0.000007  -0.000139   0.000158
   13  O  2  Y    0.001203   0.000053   0.000006  -0.000197   0.000243
   14  O  2  Z    0.000055   0.000006   0.000007  -0.000030   0.000027
   15  O  2  S    0.002287   0.001258  -0.000028  -0.002286   0.001889
   16  O  2  X    0.002934  -0.000413   0.000039   0.000572  -0.000444
   17  O  2  Y   -0.001543  -0.000371  -0.000095   0.001577  -0.001950
   18  O  2  Z    0.000226  -0.000062  -0.000032   0.000169  -0.000141
   19  C  3  S    0.003809   0.001095  -0.000005  -0.002235   0.002581
   20  C  3  S   -0.000087  -0.000647  -0.000030   0.002858  -0.003244
   21  C  3  X   -0.000852   0.000164   0.000012  -0.000719   0.000926
   22  C  3  Y   -0.001634  -0.000011  -0.000050   0.000754  -0.000930
   23  C  3  Z   -0.000181   0.000019  -0.000007  -0.000023   0.000056
   24  C  3  S   -0.005181   0.009826   0.001378  -0.026307   0.029785
   25  C  3  X    0.008639  -0.006301  -0.000742   0.015932  -0.017172
   26  C  3  Y    0.017757   0.000579   0.000886  -0.007061   0.009451
   27  C  3  Z    0.001895  -0.000625   0.000065   0.001216  -0.001330
   28  C  4  S    0.004532   0.000683   0.000018  -0.000345   0.001232
   29  C  4  S   -0.001069   0.000355   0.000112  -0.000294   0.000214
   30  C  4  X    0.000337   0.000605   0.000131   0.000373  -0.000046
   31  C  4  Y   -0.000007  -0.000146   0.000010   0.000505  -0.000728
   32  C  4  Z    0.000037   0.000082  -0.000031   0.000089  -0.000025
   33  C  4  S    0.016817  -0.008367  -0.002552   0.007044  -0.012202
   34  C  4  X   -0.000978   0.004703   0.001925  -0.005272   0.007413
   35  C  4  Y    0.011364  -0.005180  -0.000431   0.003585  -0.002479
   36  C  4  Z    0.000508   0.000088   0.000490  -0.000425   0.000597
   37  C  5  S    0.000274  -0.024386  -0.013251  -0.034809  -0.123846
   38  C  5  S    0.000324  -0.006403  -0.001928  -0.003596  -0.013803
   39  C  5  X   -0.000295   0.000946  -0.000058   0.000619   0.000244
   40  C  5  Y    0.000128  -0.001302  -0.000171   0.000156  -0.000434
   41  C  5  Z   -0.000023  -0.000036   0.000215   0.000008  -0.000056
   42  C  5  S   -0.004779   0.035309   0.006650  -0.001692   0.022180
   43  C  5  X   -0.000024  -0.007471   0.001316  -0.002415   0.004370
   44  C  5  Y   -0.005243   0.018563   0.004377  -0.001347   0.010014
   45  C  5  Z   -0.000296   0.000424  -0.000365  -0.000296   0.001048
   46  C  6  S   -0.000274   0.986779   0.025767  -0.002482   0.003605
   47  C  6  S   -0.000212   0.100786   0.001617  -0.001387   0.000424
   48  C  6  X   -0.000046   0.000269   0.001342   0.000804   0.000294
   49  C  6  Y   -0.000148   0.000051  -0.000201   0.000630  -0.000271
   50  C  6  Z   -0.000011   0.000168  -0.000170   0.000157   0.000057
   51  C  6  S    0.002821  -0.096000  -0.003433   0.021865  -0.005585
   52  C  6  X    0.002284  -0.014055  -0.009557  -0.011429  -0.024651
   53  C  6  Y   -0.001525  -0.002166  -0.002262  -0.000940  -0.007413
   54  C  6  Z    0.000175  -0.001559  -0.001086  -0.000587  -0.002466
   55  C  7  S   -0.001157  -0.013503  -0.004128   0.016792  -0.039837
   56  C  7  S   -0.000577  -0.005321  -0.000624   0.004242  -0.007746
   57  C  7  X   -0.000307   0.000157   0.000480   0.001572  -0.000716
   58  C  7  Y    0.000208   0.001502   0.000367   0.000044   0.000443
   59  C  7  Z   -0.000020   0.000182  -0.000359   0.000279   0.000052
   60  C  7  S   -0.000792   0.033057   0.001651  -0.025634   0.034736
   61  C  7  X   -0.000026   0.000681  -0.000383  -0.014366   0.015352
   62  C  7  Y   -0.001044  -0.019949  -0.005488   0.003544  -0.013644
   63  C  7  Z   -0.000072  -0.001339   0.000754  -0.001775   0.000357
   64  C  8  S   -0.000302  -0.005816  -0.015790  -0.668058   0.722639
   65  C  8  S    0.000154  -0.000352  -0.001826  -0.068198   0.072828
   66  C  8  X   -0.000540   0.000748   0.000217   0.000548   0.000045
   67  C  8  Y    0.000044   0.000219   0.000087   0.001042  -0.000874
   68  C  8  Z   -0.000057   0.000080   0.000141   0.000091  -0.000061
   69  C  8  S   -0.005010  -0.009669   0.001060   0.066808  -0.070970
   70  C  8  X   -0.004242  -0.000245  -0.001942  -0.005927   0.002036
   71  C  8  Y   -0.001274   0.007675   0.001138  -0.017579   0.018923
   72  C  8  Z   -0.000508   0.000494  -0.000725  -0.001411   0.001438
   73  C  9  S   -0.000150  -0.003015  -0.028889   0.726599   0.659916
   74  C  9  S   -0.000088  -0.000764  -0.004030   0.078168   0.070152
   75  C  9  X    0.000032  -0.000086   0.000161   0.000210  -0.000046
   76  C  9  Y   -0.000078   0.000086  -0.000227   0.000216  -0.000274
   77  C  9  Z    0.000011   0.000028   0.000055   0.000272   0.000197
   78  C  9  S    0.000673   0.005458   0.014391  -0.074819  -0.069354
   79  C  9  X    0.000073   0.008622  -0.012273  -0.003393  -0.004181
   80  C  9  Y    0.000850  -0.000599   0.005788  -0.004129  -0.000767
   81  C  9  Z   -0.000038  -0.002440   0.005024  -0.005577  -0.005160
   82  C 10  S   -0.000092  -0.026513   0.986175   0.009966   0.028692
   83  C 10  S   -0.000029  -0.003838   0.098470  -0.000039   0.001672
   84  C 10  X   -0.000046  -0.001283  -0.000002   0.000206  -0.000071
   85  C 10  Y    0.000015   0.000444   0.000357   0.000080   0.000047
   86  C 10  Z   -0.000008   0.000209  -0.000938   0.000121   0.000136
   87  C 10  S   -0.000183   0.003192  -0.078581   0.013339   0.010457
   88  C 10  X    0.000148   0.006718   0.004548   0.008774   0.008386
   89  C 10  Y   -0.000176  -0.003897  -0.005106  -0.005177  -0.005032
   90  C 10  Z    0.000305  -0.002518   0.011057  -0.009522  -0.007759
   91  C 11  S    0.000041  -0.001446  -0.000298  -0.007806  -0.006389
   92  C 11  S    0.000018  -0.000420  -0.004072  -0.001519  -0.001300
   93  C 11  X    0.000030   0.000238  -0.001614  -0.000486  -0.000400
   94  C 11  Y   -0.000009   0.000085   0.001260   0.000265   0.000246
   95  C 11  Z   -0.000012  -0.000145   0.000014   0.000156   0.000086
   96  C 11  S    0.000207   0.004639   0.028515   0.003739   0.004123
   97  C 11  X    0.000018   0.001041   0.012677   0.001561   0.001486
   98  C 11  Y   -0.000047  -0.002064  -0.009436  -0.001390  -0.001457
   99  C 11  Z   -0.000001   0.002090  -0.003064   0.002565   0.002398
  100  O 12  S   -0.000040   0.000037   0.000007  -0.000015   0.000001
  101  O 12  S   -0.000344   0.000261   0.000054  -0.000073  -0.000047
  102  O 12  X    0.000072   0.000047   0.000020   0.000030  -0.000027
  103  O 12  Y   -0.000094  -0.000018   0.000017   0.000155  -0.000236
  104  O 12  Z    0.000004  -0.000005   0.000023   0.000006  -0.000021
  105  O 12  S    0.001788  -0.002047  -0.000405   0.001212  -0.000806
  106  O 12  X   -0.000609   0.000249  -0.000045  -0.000318   0.000077
  107  O 12  Y    0.000380  -0.000090  -0.000137  -0.000259   0.000805
  108  O 12  Z   -0.000051   0.000061  -0.000099  -0.000026   0.000071
  109  C 13  S    0.035507   0.001102   0.000199   0.000450   0.000066
  110  C 13  S    0.003140  -0.000352  -0.000064  -0.000099  -0.000146
  111  C 13  X    0.000064   0.000376   0.000043   0.000067   0.000175
  112  C 13  Y   -0.000133  -0.000222  -0.000053  -0.000175   0.000042
  113  C 13  Z    0.000002   0.000031   0.000004  -0.000001   0.000021
  114  C 13  S   -0.001329   0.000626   0.000099  -0.000130   0.000616
  115  C 13  X   -0.000592  -0.001657  -0.000235  -0.000518  -0.000497
  116  C 13  Y    0.001114   0.001085   0.000152   0.000457   0.000484
  117  C 13  Z   -0.000013  -0.000139  -0.000031  -0.000034  -0.000043
  118  H 14  S   -0.000851  -0.000024   0.000014   0.000088  -0.000079
  119  H 14  S    0.012560  -0.000038   0.000114   0.000166   0.000056
  120  H 15  S   -0.000149  -0.000026  -0.000015   0.000071  -0.000153
  121  H 15  S    0.014324  -0.000013  -0.000054   0.000028  -0.000088
  122  H 16  S   -0.000152  -0.000019  -0.000057   0.000081  -0.000139
  123  H 16  S    0.014327  -0.000028   0.000065  -0.000003  -0.000120
  124  H 17  S   -0.000292  -0.000303   0.000250   0.000192   0.000761
  125  H 17  S   -0.001586   0.002071   0.001098  -0.001837   0.000550
  126  H 18  S    0.000092  -0.000280  -0.000367  -0.000081   0.000242
  127  H 18  S    0.000517   0.002875   0.003248  -0.001894   0.004915
  128  H 19  S    0.000450  -0.000445  -0.000042   0.001527  -0.001659
  129  H 19  S    0.001722  -0.001059  -0.000332  -0.003459   0.004648
  130  H 20  S   -0.000082  -0.001090  -0.001049   0.001114   0.000614
  131  H 20  S   -0.000163   0.001715  -0.001912   0.010473   0.009047
  132  H 21  S    0.000049  -0.000323  -0.000945   0.001017   0.001118
  133  H 21  S    0.000356  -0.000990   0.002225   0.010316   0.010752
  134  H 22  S   -0.000033  -0.000754  -0.001521  -0.000610  -0.000685
  135  H 22  S   -0.000170   0.000127   0.009284   0.001691   0.001307
  136  H 23  S   -0.000003  -0.000326  -0.000544  -0.000441  -0.000426
  137  H 23  S   -0.000026  -0.000482   0.002615   0.000118   0.000008
  138  H 24  S    0.000004   0.000153  -0.001680   0.000238   0.000237
  139  H 24  S   -0.000026   0.000760  -0.001106   0.000550   0.000421
  140  H 25  S   -0.000176  -0.000258  -0.000049  -0.000110  -0.000114
  141  H 25  S    0.000477  -0.000183   0.000000   0.000182  -0.000086
  142  H 26  S   -0.000178  -0.000273  -0.000004  -0.000114  -0.000119
  143  H 26  S    0.000486  -0.000162  -0.000123   0.000194  -0.000090
  144  H 27  S    0.000004   0.000111   0.000013   0.000071   0.000001
  145  H 27  S    0.000911   0.001041   0.000154   0.000382   0.000299

                     11         12         13         14         15
                  -11.1784   -11.1735   -11.1670    -1.4111    -1.3890
                     A          A          A          A          A   
    1  C  1  S   -0.000242   0.001042  -0.000039  -0.040765  -0.049894
    2  C  1  S   -0.000068  -0.000452   0.000014   0.044472   0.051158
    3  C  1  X   -0.000000   0.000471  -0.000010  -0.019594  -0.021867
    4  C  1  Y   -0.000215   0.000006  -0.000011  -0.038971  -0.045641
    5  C  1  Z   -0.000012   0.000048  -0.000002  -0.004222  -0.004835
    6  C  1  S    0.000771   0.000804  -0.000012   0.062908   0.086555
    7  C  1  X   -0.000174  -0.002064   0.000034   0.005280  -0.003114
    8  C  1  Y   -0.000132   0.000088  -0.000016   0.000089  -0.006100
    9  C  1  Z   -0.000024  -0.000201   0.000003   0.000560  -0.000651
   10  O  2  S    0.000013   0.000039  -0.000004  -0.145347  -0.162706
   11  O  2  S    0.000011   0.000242  -0.000026   0.130450   0.141516
   12  O  2  X    0.000163   0.000089  -0.000001  -0.038406  -0.035396
   13  O  2  Y    0.000311  -0.000060   0.000016   0.028674   0.040938
   14  O  2  Z    0.000033   0.000007  -0.000001  -0.002466  -0.001482
   15  O  2  S   -0.001297  -0.002238   0.000199   0.467405   0.558011
   16  O  2  X   -0.000241   0.000116  -0.000043  -0.058549  -0.073967
   17  O  2  Y   -0.001268   0.000170  -0.000106   0.044459   0.055213
   18  O  2  Z   -0.000092   0.000017   0.000000  -0.003728  -0.004770
   19  C  3  S    0.001615   0.000881   0.000022  -0.063801  -0.050148
   20  C  3  S   -0.000218   0.000290  -0.000048   0.072623   0.047924
   21  C  3  X    0.000472   0.000848  -0.000014   0.052396   0.066865
   22  C  3  Y    0.000696  -0.000374   0.000017  -0.003332   0.025845
   23  C  3  Z    0.000090   0.000064   0.000006   0.005392   0.008502
   24  C  3  S   -0.007978  -0.012646   0.000886   0.049658   0.153906
   25  C  3  X    0.006732   0.009066  -0.000847  -0.022508  -0.143004
   26  C  3  Y    0.000558  -0.001051   0.000730  -0.025102  -0.024787
   27  C  3  Z    0.000735   0.000906  -0.000093  -0.003718  -0.016520
   28  C  4  S    0.003637   0.001099   0.000031  -0.067297   0.045404
   29  C  4  S   -0.004430  -0.000948   0.000029   0.076188  -0.042561
   30  C  4  X    0.001665   0.000242  -0.000008   0.046050  -0.033758
   31  C  4  Y    0.000071  -0.000183  -0.000031  -0.034747   0.059942
   32  C  4  Z    0.000186   0.000012  -0.000005   0.003131  -0.000458
   33  C  4  S    0.038482   0.012722  -0.001171   0.056653  -0.149665
   34  C  4  X   -0.024316  -0.008368   0.001044  -0.004200   0.097632
   35  C  4  Y    0.005524   0.003892   0.000462   0.044151  -0.106768
   36  C  4  Z   -0.002302  -0.000668   0.000184   0.001881   0.004672
   37  C  5  S    0.978451   0.016121  -0.000452  -0.013802   0.009326
   38  C  5  S    0.098897   0.001595   0.000031   0.016597  -0.014964
   39  C  5  X    0.000695   0.000551  -0.000046   0.016152  -0.009857
   40  C  5  Y    0.001101  -0.000881   0.000014   0.003689   0.001046
   41  C  5  Z    0.000121   0.000007  -0.000003   0.001918  -0.001006
   42  C  5  S   -0.096064  -0.014121  -0.000223   0.011893   0.086327
   43  C  5  X   -0.009764  -0.007651   0.002116   0.027916   0.005865
   44  C  5  Y   -0.022808  -0.008053   0.000038  -0.043918   0.083413
   45  C  5  Z   -0.002298  -0.001278   0.000111   0.000701   0.005185
   46  C  6  S    0.024301   0.013564   0.001364  -0.003534   0.001778
   47  C  6  S   -0.001517  -0.002769  -0.000149   0.002949   0.002152
   48  C  6  X   -0.001744  -0.001402   0.000149   0.006109  -0.001119
   49  C  6  Y    0.000883  -0.001732   0.000302  -0.000514   0.001701
   50  C  6  Z   -0.000144  -0.000272  -0.000056   0.000681  -0.000041
   51  C  6  S    0.031890   0.034899   0.000365   0.039942  -0.071136
   52  C  6  X    0.024132   0.022952  -0.001939  -0.000841  -0.050661
   53  C  6  Y   -0.008999   0.020710  -0.003264  -0.022897   0.015057
   54  C  6  Z    0.002281   0.003741  -0.000078  -0.001503  -0.004708
   55  C  7  S   -0.020857   0.986146  -0.001259  -0.003329  -0.001922
   56  C  7  S   -0.002552   0.099677  -0.000163   0.003444  -0.001586
   57  C  7  X    0.000145   0.001023  -0.000179   0.005123   0.003025
   58  C  7  Y    0.001137  -0.000923   0.000172  -0.002839   0.000601
   59  C  7  Z    0.000086   0.000053   0.000009   0.000380   0.000367
   60  C  7  S   -0.007352  -0.096896   0.002160   0.038041   0.068542
   61  C  7  X   -0.006657  -0.016115   0.001098   0.007718   0.043027
   62  C  7  Y    0.003706   0.021920  -0.002721   0.003791  -0.019638
   63  C  7  Z   -0.000535  -0.000401  -0.000194   0.001010   0.003271
   64  C  8  S    0.066342   0.040870  -0.000586  -0.013046  -0.010370
   65  C  8  S    0.005748  -0.000451   0.000076   0.015611   0.015654
   66  C  8  X    0.000088   0.001315   0.000039   0.009996   0.009069
   67  C  8  Y    0.000261   0.000759  -0.000060  -0.012667  -0.006009
   68  C  8  Z    0.000023   0.000181  -0.000004   0.000344   0.000607
   69  C  8  S    0.005864   0.037209  -0.001650   0.016248  -0.079886
   70  C  8  X   -0.002611  -0.015475  -0.000102   0.039462   0.044435
   71  C  8  Y   -0.005334  -0.017352   0.001621   0.018900   0.069355
   72  C  8  Z   -0.000558  -0.002611   0.000139   0.005217   0.008665
   73  C  9  S    0.108417   0.016262   0.009984  -0.000073   0.000157
   74  C  9  S    0.010316   0.000745   0.000469   0.001796  -0.000311
   75  C  9  X    0.000044  -0.000055   0.000474   0.000174  -0.001003
   76  C  9  Y    0.000113  -0.000120  -0.000469  -0.000524   0.000184
   77  C  9  Z    0.000017  -0.000098  -0.000291   0.000106  -0.000217
   78  C  9  S   -0.001117   0.007706  -0.001342  -0.012417  -0.012134
   79  C  9  X    0.003191   0.005795  -0.001121  -0.007926  -0.002331
   80  C  9  Y    0.002450  -0.001793   0.000619   0.005882  -0.007213
   81  C  9  Z   -0.000191   0.000887   0.001339  -0.001521   0.000030
   82  C 10  S    0.016481   0.005080   0.000050  -0.000069   0.000005
   83  C 10  S    0.001075   0.000236  -0.003809   0.000085  -0.000063
   84  C 10  X   -0.000162  -0.000192   0.001936  -0.000017   0.000200
   85  C 10  Y    0.000057  -0.000087  -0.001558  -0.000080  -0.000228
   86  C 10  Z    0.000179   0.000121   0.000464  -0.000174   0.000129
   87  C 10  S    0.001006   0.000888   0.024790  -0.000599   0.002591
   88  C 10  X    0.001318  -0.000370  -0.011831   0.001774  -0.001522
   89  C 10  Y   -0.000846   0.000696   0.009461  -0.000871   0.002073
   90  C 10  Z   -0.001011  -0.001373  -0.001954   0.001951  -0.003169
   91  C 11  S   -0.000662   0.001096   0.986759  -0.000002   0.000024
   92  C 11  S   -0.000161   0.000160   0.096321   0.000084   0.000067
   93  C 11  X   -0.000037   0.000023   0.000169   0.000120  -0.000162
   94  C 11  Y    0.000062   0.000169  -0.000136  -0.000137   0.000087
   95  C 11  Z   -0.000027   0.000027   0.000039  -0.000096   0.000030
   96  C 11  S    0.000782  -0.001002  -0.069717   0.001480  -0.002779
   97  C 11  X    0.000084  -0.000505  -0.006548   0.000113  -0.000909
   98  C 11  Y   -0.000272  -0.000152   0.005271  -0.000159   0.000698
   99  C 11  Z    0.000488   0.000059  -0.001218   0.000366   0.000377
  100  O 12  S   -0.000037  -0.000035  -0.000002  -0.156819   0.151747
  101  O 12  S   -0.000505  -0.000301  -0.000023   0.140441  -0.131644
  102  O 12  X   -0.000014  -0.000002   0.000012  -0.051370   0.049182
  103  O 12  Y   -0.000429  -0.000107   0.000006   0.000635   0.010383
  104  O 12  Z   -0.000023  -0.000004   0.000003  -0.004953   0.005296
  105  O 12  S    0.002922   0.001861   0.000054   0.506636  -0.523175
  106  O 12  X    0.000899  -0.000104  -0.000109  -0.080010   0.086438
  107  O 12  Y    0.002602   0.000912  -0.000058   0.001158  -0.002383
  108  O 12  Z    0.000228   0.000027  -0.000024  -0.007777   0.008483
  109  C 13  S    0.000324   0.000189  -0.000008  -0.044183   0.046735
  110  C 13  S   -0.000183  -0.000127   0.000012   0.047986  -0.047822
  111  C 13  X    0.000116   0.000029  -0.000031   0.008761  -0.009657
  112  C 13  Y    0.000042  -0.000003  -0.000000   0.046418  -0.046461
  113  C 13  Z    0.000016   0.000002  -0.000003   0.002929  -0.003012
  114  C 13  S    0.001536   0.000614  -0.000029   0.068738  -0.081513
  115  C 13  X    0.000320  -0.000065   0.000107   0.004369  -0.001326
  116  C 13  Y    0.001120   0.000474  -0.000065  -0.002995  -0.006672
  117  C 13  Z    0.000053   0.000018   0.000006   0.000306  -0.000472
  118  H 14  S   -0.000059   0.000098  -0.000002   0.010509   0.013318
  119  H 14  S   -0.000004   0.001086  -0.000023  -0.003716  -0.000979
  120  H 15  S   -0.000047  -0.000259  -0.000004   0.012642   0.014453
  121  H 15  S   -0.000222  -0.000277   0.000033  -0.001286  -0.000683
  122  H 16  S   -0.000045  -0.000256  -0.000002   0.012618   0.014427
  123  H 16  S   -0.000228  -0.000292   0.000027  -0.001306  -0.000707
  124  H 17  S   -0.002194  -0.000593   0.000110   0.001533  -0.000391
  125  H 17  S    0.006107  -0.001786   0.000286  -0.013994   0.022904
  126  H 18  S   -0.000552  -0.002388  -0.000070  -0.000422   0.001538
  127  H 18  S   -0.001273   0.005286   0.001719  -0.003991   0.009654
  128  H 19  S    0.000019   0.000104  -0.000079   0.001114   0.000528
  129  H 19  S    0.002473   0.004986  -0.000498  -0.013791  -0.023331
  130  H 20  S   -0.000376  -0.000178  -0.000143   0.000206   0.000448
  131  H 20  S    0.001347   0.000980   0.000595  -0.001383   0.001584
  132  H 21  S    0.000030  -0.000577   0.000075   0.000857  -0.000404
  133  H 21  S    0.001552  -0.000140   0.000677   0.005011  -0.002590
  134  H 22  S   -0.000201   0.000019  -0.000978  -0.000112   0.000214
  135  H 22  S    0.000258   0.000831   0.001414  -0.001344   0.001731
  136  H 23  S   -0.000082   0.000006  -0.001321  -0.000048  -0.000001
  137  H 23  S   -0.000121   0.000071   0.012195  -0.000367  -0.000037
  138  H 24  S    0.000058   0.000041  -0.001299   0.000059   0.000070
  139  H 24  S    0.000066   0.000117   0.012029  -0.000095   0.000279
  140  H 25  S   -0.000180  -0.000074   0.000019   0.013638  -0.013495
  141  H 25  S   -0.000083   0.000029   0.000004  -0.001360   0.000562
  142  H 26  S   -0.000159  -0.000073   0.000026   0.013573  -0.013447
  143  H 26  S   -0.000174   0.000036  -0.000017  -0.001407   0.000535
  144  H 27  S   -0.000127  -0.000020  -0.000009   0.011422  -0.012492
  145  H 27  S   -0.000051   0.000053  -0.000063  -0.003864   0.000970

                     16         17         18         19         20
                   -1.1505    -1.0788    -1.0214    -1.0141    -0.9550
                     A          A          A          A          A   
    1  C  1  S    0.021115  -0.026840   0.068217  -0.002688  -0.130656
    2  C  1  S   -0.020186   0.026693  -0.068496   0.002704   0.131500
    3  C  1  X    0.001812  -0.000552  -0.001697  -0.005898   0.014336
    4  C  1  Y    0.015625  -0.014601   0.019049   0.007362   0.014736
    5  C  1  Z    0.001055  -0.000863   0.000885  -0.000219   0.002302
    6  C  1  S   -0.051007   0.067686  -0.182740   0.009668   0.377725
    7  C  1  X    0.005623  -0.002617   0.004927  -0.004635  -0.004192
    8  C  1  Y    0.001984  -0.000613  -0.005311   0.003554   0.031555
    9  C  1  Z    0.000700  -0.000319   0.000237  -0.000282   0.001309
   10  O  2  S    0.029588  -0.020883   0.015824   0.015354   0.033396
   11  O  2  S   -0.028364   0.020162  -0.016010  -0.016116  -0.028418
   12  O  2  X   -0.020632   0.030950  -0.070958  -0.010611   0.090539
   13  O  2  Y   -0.018332   0.023421  -0.059487   0.015206   0.089807
   14  O  2  Z   -0.003179   0.004564  -0.010751  -0.000259   0.014518
   15  O  2  S   -0.099402   0.071793  -0.050437  -0.049712  -0.145923
   16  O  2  X   -0.014739   0.025663  -0.063035  -0.012111   0.087412
   17  O  2  Y   -0.018658   0.024778  -0.057671   0.006311   0.080028
   18  O  2  Z   -0.002599   0.004043  -0.009846  -0.000918   0.013660
   19  C  3  S   -0.070500   0.065594  -0.092768  -0.025695   0.034184
   20  C  3  S    0.082411  -0.074347   0.103084   0.029654  -0.033725
   21  C  3  X   -0.070008   0.043482  -0.015542  -0.042862  -0.083122
   22  C  3  Y   -0.010082   0.011430  -0.042692   0.103874   0.015559
   23  C  3  Z   -0.007879   0.005124  -0.003926   0.001301  -0.007898
   24  C  3  S    0.139718  -0.144081   0.221588   0.041946  -0.102774
   25  C  3  X   -0.032364   0.028976  -0.034701  -0.027625   0.009625
   26  C  3  Y    0.004555  -0.011437   0.010413   0.038898  -0.028662
   27  C  3  Z   -0.003094   0.002625  -0.002918  -0.000717  -0.000644
   28  C  4  S   -0.072518   0.051547  -0.066819   0.091929  -0.034438
   29  C  4  S    0.085878  -0.057956   0.072961  -0.102467   0.039653
   30  C  4  X   -0.052663   0.002975   0.051749   0.059761  -0.090050
   31  C  4  Y    0.050552  -0.042496   0.058132   0.015785  -0.022893
   32  C  4  Z   -0.002886  -0.001888   0.008767   0.007375  -0.010752
   33  C  4  S    0.130863  -0.114492   0.181254  -0.209512   0.073785
   34  C  4  X   -0.020980   0.016769  -0.019832   0.065040  -0.063566
   35  C  4  Y    0.010308  -0.014085   0.021192  -0.000639  -0.008022
   36  C  4  Z   -0.001628   0.000458  -0.001385   0.006722  -0.007211
   37  C  5  S   -0.095237   0.007958   0.039660   0.116578  -0.062458
   38  C  5  S    0.107597  -0.009028  -0.038638  -0.126845   0.065899
   39  C  5  X    0.004943  -0.043994   0.059994  -0.033363   0.056251
   40  C  5  Y    0.056813  -0.003575  -0.022542  -0.013327  -0.001188
   41  C  5  Z    0.003665  -0.004625   0.005424  -0.004084   0.006098
   42  C  5  S    0.171641  -0.016748  -0.129164  -0.236387   0.147452
   43  C  5  X    0.003610  -0.002127  -0.012760   0.010020   0.007751
   44  C  5  Y    0.009120  -0.008740  -0.028097   0.004074   0.006873
   45  C  5  Z    0.001121   0.001081  -0.001615   0.001608   0.001385
   46  C  6  S   -0.113897  -0.048384   0.094064   0.027346   0.034528
   47  C  6  S    0.125446   0.053816  -0.098694  -0.028100  -0.036281
   48  C  6  X    0.041290  -0.058926  -0.021489  -0.015985   0.076130
   49  C  6  Y    0.009732  -0.007067  -0.011460   0.091341  -0.017024
   50  C  6  Z    0.005686  -0.003165   0.000017   0.004252   0.008755
   51  C  6  S    0.216101   0.092497  -0.215138  -0.072529  -0.079265
   52  C  6  X    0.006694   0.029705   0.018114  -0.010000   0.013055
   53  C  6  Y   -0.000528   0.010395  -0.003495   0.013524  -0.000888
   54  C  6  Z   -0.000449   0.001356   0.001826   0.000089   0.003192
   55  C  7  S   -0.098027   0.006023   0.061246  -0.096050   0.003787
   56  C  7  S    0.109021  -0.006322  -0.065831   0.102365  -0.003250
   57  C  7  X    0.027429  -0.045374   0.026601   0.063389   0.037363
   58  C  7  Y   -0.050024  -0.017283   0.043725   0.026187   0.013568
   59  C  7  Z   -0.000011  -0.004899   0.006273   0.008400   0.005257
   60  C  7  S    0.193410  -0.017023  -0.140566   0.223265  -0.021593
   61  C  7  X    0.018839  -0.007571  -0.011299   0.010653   0.000764
   62  C  7  Y   -0.010697   0.019178   0.008165  -0.005426   0.007368
   63  C  7  Z    0.001771   0.001524  -0.000338   0.000587   0.000333
   64  C  8  S   -0.085673   0.054617  -0.020493  -0.130201  -0.022722
   65  C  8  S    0.098272  -0.059876   0.024606   0.138855   0.020698
   66  C  8  X   -0.023537  -0.011859   0.054060  -0.030646  -0.008636
   67  C  8  Y   -0.049965   0.031673  -0.029212  -0.016894   0.000453
   68  C  8  Z   -0.005234   0.000585   0.004146  -0.004059  -0.000796
   69  C  8  S    0.138184  -0.104452   0.028460   0.295612   0.109102
   70  C  8  X    0.001781   0.012723  -0.004296  -0.010723   0.001226
   71  C  8  Y    0.001779  -0.002984   0.013384  -0.008853  -0.029446
   72  C  8  Z    0.000243   0.001064   0.000469  -0.001445  -0.001381
   73  C  9  S   -0.055303  -0.121708   0.011744   0.013993   0.091527
   74  C  9  S    0.053295   0.111483  -0.010243  -0.012652  -0.081773
   75  C  9  X    0.024180  -0.013246  -0.059214  -0.019169  -0.026088
   76  C  9  Y    0.008269   0.020488   0.008233   0.014311   0.004111
   77  C  9  Z    0.009183   0.029443   0.016158   0.003762   0.006338
   78  C  9  S    0.136527   0.349540  -0.034684  -0.046725  -0.300021
   79  C  9  X   -0.004068   0.018385  -0.002667  -0.002417  -0.006607
   80  C  9  Y    0.004058   0.004953   0.001308   0.000294  -0.004931
   81  C  9  Z    0.009016   0.018947  -0.002729  -0.001602  -0.009318
   82  C 10  S   -0.028944  -0.131072  -0.088507  -0.020575  -0.032990
   83  C 10  S    0.033974   0.143607   0.093830   0.021278   0.033908
   84  C 10  X    0.008845  -0.016015  -0.060120  -0.016442  -0.081594
   85  C 10  Y   -0.001181   0.019020   0.041943   0.013729   0.057712
   86  C 10  Z   -0.013321  -0.038073  -0.003607   0.000954   0.028103
   87  C 10  S    0.047765   0.271119   0.207616   0.054152   0.093708
   88  C 10  X   -0.012445  -0.020581   0.000248  -0.000196  -0.003921
   89  C 10  Y    0.007795   0.014018   0.000466   0.002521   0.004987
   90  C 10  Z    0.006930  -0.005806  -0.011367  -0.006485  -0.005747
   91  C 11  S   -0.013916  -0.092387  -0.096091  -0.024998  -0.085683
   92  C 11  S    0.016360   0.103475   0.104538   0.027027   0.091286
   93  C 11  X    0.010743   0.057451   0.046169   0.011509   0.023616
   94  C 11  Y   -0.008072  -0.045051  -0.037979  -0.008931  -0.020631
   95  C 11  Z   -0.000178   0.002994   0.007874   0.002325   0.012698
   96  C 11  S    0.017188   0.175539   0.222707   0.056613   0.221363
   97  C 11  X   -0.001698   0.000169   0.007617   0.001746   0.006546
   98  C 11  Y    0.004083   0.001096  -0.009110  -0.001286  -0.007710
   99  C 11  Z   -0.004708  -0.001015   0.009098   0.003156   0.011169
  100  O 12  S    0.030856  -0.014333   0.006355  -0.022057   0.018010
  101  O 12  S   -0.029235   0.013827  -0.006548   0.023209  -0.018575
  102  O 12  X   -0.005739   0.006049  -0.009768   0.030939  -0.021174
  103  O 12  Y    0.028288  -0.033066   0.078619  -0.073581  -0.016579
  104  O 12  Z    0.000691  -0.000942   0.002724  -0.000102  -0.003101
  105  O 12  S   -0.106034   0.049142  -0.017469   0.067899  -0.061437
  106  O 12  X   -0.000130   0.003573  -0.007521   0.024027  -0.018958
  107  O 12  Y    0.024104  -0.029830   0.070984  -0.074901  -0.010149
  108  O 12  Z    0.001058  -0.000916   0.002718  -0.000908  -0.002538
  109  C 13  S    0.021893  -0.022945   0.058415  -0.057454  -0.017044
  110  C 13  S   -0.020851   0.023099  -0.058671   0.057747   0.017356
  111  C 13  X   -0.008518   0.005378  -0.007045   0.017642  -0.009573
  112  C 13  Y   -0.013939   0.009786  -0.010554   0.011665  -0.004888
  113  C 13  Z   -0.001472   0.000965  -0.001148   0.002314  -0.001206
  114  C 13  S   -0.052996   0.058247  -0.157362   0.153143   0.049579
  115  C 13  X    0.003411  -0.001531   0.008717  -0.002157  -0.009238
  116  C 13  Y   -0.005750   0.000785   0.001336  -0.002138  -0.003009
  117  C 13  Z    0.000121  -0.000076   0.000929  -0.000263  -0.001073
[...]
   19             0.001216   0.000002   0.000006
   20             0.000099   0.008642   0.016444
   21             0.059157   0.000081   0.000895
   22             0.000002   0.000990   0.001245
   23             0.000035   0.000255   0.000377
   24             0.000000   0.000082   0.000177
   25             0.000673   0.006284   0.011611
   26             0.000196   0.006286   0.011644
   27             0.000039   0.000003   0.000003

               ----- POPULATIONS IN EACH AO -----
                             MULLIKEN      LOWDIN
              1  C  1  S      1.98738     1.97595
              2  C  1  S      0.36763     0.42129
              3  C  1  X      0.55478     0.52657
              4  C  1  Y      0.43854     0.42320
              5  C  1  Z      0.56687     0.52525
              6  C  1  S      1.03342     0.58808
              7  C  1  X      0.53035     0.56610
              8  C  1  Y      0.25950     0.41572
              9  C  1  Z      0.52476     0.59317
             10  O  2  S      1.98674     1.97992
             11  O  2  S      0.40707     0.56265
             12  O  2  X      0.61096     0.60457
             13  O  2  Y      0.65790     0.65347
             14  O  2  Z      0.83659     0.84800
             15  O  2  S      1.55257     0.96245
             16  O  2  X      0.80876     0.80203
             17  O  2  Y      0.84550     0.86117
             18  O  2  Z      1.00769     0.99897
             19  C  3  S      1.98801     1.97557
             20  C  3  S      0.40337     0.41731
             21  C  3  X      0.50939     0.48970
             22  C  3  Y      0.63053     0.60840
             23  C  3  Z      0.43544     0.41924
             24  C  3  S      0.75436     0.49940
             25  C  3  X      0.02389     0.38741
             26  C  3  Y      0.30070     0.48538
             27  C  3  Z      0.56942     0.59189
             28  C  4  S      1.98803     1.97560
             29  C  4  S      0.40440     0.41777
             30  C  4  X      0.58925     0.55992
             31  C  4  Y      0.55047     0.53824
             32  C  4  Z      0.43284     0.41603
             33  C  4  S      0.74731     0.49926
             34  C  4  X      0.18538     0.44704
             35  C  4  Y      0.13886     0.42432
             36  C  4  Z      0.56665     0.58830
             37  C  5  S      1.98829     1.97646
             38  C  5  S      0.39200     0.41358
             39  C  5  X      0.59802     0.57739
             40  C  5  Y      0.58062     0.55574
             41  C  5  Z      0.43559     0.42808
             42  C  5  S      0.85938     0.53236
             43  C  5  X      0.24226     0.48426
             44  C  5  Y      0.51013     0.54057
             45  C  5  Z      0.65491     0.66249
             46  C  6  S      1.98851     1.97633
             47  C  6  S      0.39092     0.40932
             48  C  6  X      0.56668     0.55518
             49  C  6  Y      0.61058     0.59021
             50  C  6  Z      0.41423     0.40206
             51  C  6  S      0.83702     0.51441
             52  C  6  X      0.35214     0.50000
             53  C  6  Y      0.31022     0.49628
             54  C  6  Z      0.58206     0.59409
             55  C  7  S      1.98830     1.97664
             56  C  7  S      0.39362     0.41154
             57  C  7  X      0.59023     0.56481
             58  C  7  Y      0.59495     0.57048
             59  C  7  Z      0.41839     0.40827
             60  C  7  S      0.89140     0.53128
             61  C  7  X      0.35155     0.50633
             62  C  7  Y      0.39357     0.51535
             63  C  7  Z      0.60306     0.62433
             64  C  8  S      1.98818     1.97652
             65  C  8  S      0.39283     0.41227
             66  C  8  X      0.60625     0.58320
             67  C  8  Y      0.57953     0.55455
             68  C  8  Z      0.42827     0.41940
             69  C  8  S      0.85746     0.53463
             70  C  8  X      0.31873     0.49583
             71  C  8  Y      0.44442     0.53604
             72  C  8  Z      0.64521     0.65020
             73  C  9  S      1.98956     1.97597
             74  C  9  S      0.34541     0.40855
             75  C  9  X      0.53021     0.51520
             76  C  9  Y      0.54733     0.51940
             77  C  9  Z      0.54048     0.51413
             78  C  9  S      1.17296     0.55173
             79  C  9  X      0.30956     0.51159
             80  C  9  Y      0.55406     0.57797
             81  C  9  Z      0.48916     0.56926
             82  C 10  S      1.98793     1.97727
             83  C 10  S      0.39325     0.42139
             84  C 10  X      0.53525     0.51464
             85  C 10  Y      0.48105     0.46305
             86  C 10  Z      0.55576     0.52907
             87  C 10  S      0.91516     0.55361
             88  C 10  X      0.37438     0.52256
             89  C 10  Y      0.46866     0.55568
             90  C 10  Z      0.48019     0.55037
             91  C 11  S      1.98711     1.97741
             92  C 11  S      0.39285     0.42120
             93  C 11  X      0.53688     0.51409
             94  C 11  Y      0.48709     0.47055
             95  C 11  Z      0.55498     0.51843
             96  C 11  S      0.96033     0.57913
             97  C 11  X      0.43610     0.56161
             98  C 11  Y      0.50952     0.59310
             99  C 11  Z      0.55903     0.57964
            100  O 12  S      1.98674     1.97992
            101  O 12  S      0.40702     0.56262
            102  O 12  X      0.71188     0.71319
            103  O 12  Y      0.55544     0.54330
            104  O 12  Z      0.83844     0.84994
            105  O 12  S      1.55274     0.96185
            106  O 12  X      0.92232     0.92460
            107  O 12  Y      0.73037     0.73525
            108  O 12  Z      1.01014     1.00150
            109  C 13  S      1.98737     1.97594
            110  C 13  S      0.36767     0.42123
            111  C 13  X      0.57208     0.53545
            112  C 13  Y      0.42063     0.41406
            113  C 13  Z      0.56752     0.52562
            114  C 13  S      1.03293     0.58802
            115  C 13  X      0.53760     0.58443
            116  C 13  Y      0.25155     0.39665
            117  C 13  Z      0.52536     0.59392
            118  H 14  S      0.47759     0.47622
            119  H 14  S      0.29272     0.42592
            120  H 15  S      0.47841     0.48015
            121  H 15  S      0.33011     0.44701
            122  H 16  S      0.47840     0.48011
            123  H 16  S      0.33002     0.44702
            124  H 17  S      0.47017     0.46993
            125  H 17  S      0.28835     0.42680
            126  H 18  S      0.46901     0.46924
            127  H 18  S      0.28737     0.42567
            128  H 19  S      0.47004     0.46941
            129  H 19  S      0.28323     0.42368
            130  H 20  S      0.46252     0.47341
            131  H 20  S      0.30294     0.42674
            132  H 21  S      0.46418     0.47576
            133  H 21  S      0.30813     0.42916
            134  H 22  S      0.46995     0.47151
            135  H 22  S      0.29918     0.43051
            136  H 23  S      0.47062     0.46501
            137  H 23  S      0.31731     0.43819
            138  H 24  S      0.46992     0.46493
            139  H 24  S      0.32639     0.44364
            140  H 25  S      0.47834     0.48006
            141  H 25  S      0.33034     0.44712
            142  H 26  S      0.47850     0.48013
            143  H 26  S      0.33007     0.44706
            144  H 27  S      0.47750     0.47619
            145  H 27  S      0.29183     0.42553

          ----- MULLIKEN ATOMIC OVERLAP POPULATIONS -----
          (OFF-DIAGONAL ELEMENTS NEED TO BE MULTIPLIED BY 2)

             1           2           3           4           5

    1    5.0382944
    2    0.2259912   8.4357224
    3   -0.0789051   0.2624856   4.9469779
    4    0.0033841  -0.0521743   0.4292965   4.9365952
    5   -0.0001218   0.0027002  -0.0975907   0.3192136   5.4416896
    6    0.0000125  -0.0002623  -0.0099267  -0.0593705   0.3941488
    7    0.0000797   0.0027473  -0.0617951  -0.0091708  -0.0865785
    8   -0.0083775  -0.0654194   0.3214870  -0.1023672  -0.0067194
    9    0.0000000  -0.0000001   0.0000824   0.0015907  -0.0502741
   10    0.0000000   0.0000000  -0.0000074  -0.0000115   0.0013938
   11    0.0000000   0.0000000  -0.0000001   0.0000004   0.0000026
   12   -0.0000008   0.0005173  -0.0531605   0.2602920  -0.0632582
   13    0.0000005  -0.0000012   0.0033114  -0.0782091  -0.0081718
   14    0.3812477  -0.0253017   0.0029388   0.0000424   0.0000010
   15    0.3512123  -0.0341370  -0.0040542  -0.0002412   0.0000002
   16    0.3512439  -0.0341640  -0.0039334  -0.0002382  -0.0000007
   17    0.0000005  -0.0000035   0.0017165  -0.0425973   0.4056939
   18   -0.0000048  -0.0000017   0.0018288  -0.0000580   0.0024149
   19   -0.0008199  -0.0049206  -0.0452477   0.0017451  -0.0000884
   20   -0.0000000  -0.0000000   0.0000083  -0.0000477   0.0004117
   21    0.0000000  -0.0000000  -0.0000039   0.0002895   0.0005309
   22    0.0000000   0.0000000  -0.0000013  -0.0000072   0.0001317
   23    0.0000000  -0.0000000   0.0000000  -0.0000000   0.0000004
   24    0.0000000  -0.0000000   0.0000000  -0.0000000  -0.0000010
   25    0.0000000  -0.0000017  -0.0002190  -0.0038097   0.0028819
   26    0.0000000  -0.0000016  -0.0002328  -0.0038324   0.0027468
   27   -0.0000001  -0.0000018   0.0000407   0.0028715   0.0000297

             6           7           8           9          10

    6    5.3836819
    7    0.4649559   5.2058140
    8   -0.1003175   0.3975467   5.4392928
    9    0.2447512  -0.0585970   0.0016918   5.3900824
   10   -0.1000995  -0.0007056   0.0002498   0.2799204   5.2784767
   11    0.0012338   0.0001835   0.0000099  -0.0766780   0.5383849
   12    0.0029907  -0.0002279   0.0026011  -0.0000051   0.0000000
   13    0.0000806   0.0000100  -0.0001204  -0.0000050   0.0000000
   14   -0.0000000   0.0000032   0.0000069  -0.0000000   0.0000000
   15   -0.0000022  -0.0001225   0.0030485  -0.0000000  -0.0000000
   16   -0.0000007  -0.0001339   0.0029927   0.0000000   0.0000000
   17   -0.0351558   0.0024740  -0.0000565  -0.0007503  -0.0000441
   18   -0.0339145   0.3973821  -0.0292811  -0.0024354   0.0021250
   19    0.0026171  -0.0317966   0.4046274  -0.0000406   0.0000008
   20   -0.0454876  -0.0007973   0.0000464   0.3935501  -0.0523343
   21   -0.0577208   0.0028980  -0.0000490   0.3935322  -0.0465320
   22    0.0005209   0.0008864  -0.0000156  -0.0391737   0.3941707
   23   -0.0000741   0.0000011  -0.0000000   0.0024376  -0.0488218
   24    0.0000016   0.0000235   0.0000001  -0.0009542  -0.0545280
   25   -0.0001546  -0.0000028   0.0000001   0.0000027  -0.0000001
   26   -0.0001590  -0.0000023   0.0000006   0.0000021  -0.0000000
   27    0.0000040  -0.0000000   0.0000010  -0.0000000   0.0000000

            11          12          13          14          15

   11    5.2047308
   12    0.0000000   8.4384682
   13   -0.0000000   0.2255100   5.0375551
   14    0.0000000  -0.0000019  -0.0000001   0.4674957
   15   -0.0000000  -0.0000017   0.0000000  -0.0280387   0.5632688
   16    0.0000000  -0.0000017   0.0000000  -0.0281028  -0.0430071
   17   -0.0000002  -0.0051830  -0.0008419  -0.0000000   0.0000000
   18    0.0013445  -0.0000001   0.0000000  -0.0000000  -0.0000003
   19    0.0000001  -0.0000039   0.0000005   0.0000231   0.0005943
   20    0.0022558   0.0000000   0.0000001  -0.0000000   0.0000000
   21    0.0002678   0.0000002  -0.0000031   0.0000000  -0.0000000
   22   -0.0378842  -0.0000000   0.0000000  -0.0000000   0.0000000
   23    0.3931329   0.0000000   0.0000000  -0.0000000  -0.0000000
   24    0.3969263  -0.0000000  -0.0000000   0.0000000   0.0000000
   25   -0.0000000  -0.0340665   0.3510262   0.0000000  -0.0000000
   26   -0.0000000  -0.0339820   0.3512919   0.0000000   0.0000000
   27    0.0000000  -0.0254039   0.3812809   0.0000000   0.0000000

            16          17          18          19          20

   16    0.5631386
   17    0.0000000   0.4298415
   18   -0.0000001  -0.0000366   0.4177417
   19    0.0006256   0.0000007  -0.0012235   0.4271686
   20   -0.0000000   0.0000392   0.0002925   0.0000005   0.4841935
   21   -0.0000000   0.0020446   0.0000770   0.0000004  -0.0213057
   22   -0.0000000   0.0000198   0.0000655   0.0000000   0.0021475
   23    0.0000000  -0.0000000   0.0000061   0.0000000   0.0000582
   24   -0.0000000   0.0000001   0.0000659  -0.0000000   0.0024308
   25    0.0000000   0.0006181   0.0000000   0.0000000  -0.0000000
   26   -0.0000000   0.0007079   0.0000000   0.0000000  -0.0000000
   27    0.0000000   0.0000257  -0.0000000  -0.0000000   0.0000000

            21          22          23          24          25

   21    0.4982672
   22    0.0000073   0.4479955
   23   -0.0000577  -0.0017953   0.4637664
   24    0.0000692   0.0020602  -0.0207228   0.4709437
   25   -0.0000011   0.0000000  -0.0000000  -0.0000000   0.5634151
   26   -0.0000032   0.0000000  -0.0000000   0.0000000  -0.0430082
   27    0.0000000  -0.0000000   0.0000000  -0.0000000  -0.0280074

            26          27

   26    0.5632366
   27   -0.0281878   0.4666758

          TOTAL MULLIKEN AND LOWDIN ATOMIC POPULATIONS
       ATOM         MULL.POP.    CHARGE          LOW.POP.     CHARGE
    1 C             6.263237   -0.263237         6.035327   -0.035327
    2 O             8.713773   -0.713773         8.273231   -0.273231
    3 C             5.615096    0.384904         5.874305    0.125695
    4 C             5.603186    0.396814         5.866472    0.133528
    5 C             6.261187   -0.261187         6.170935   -0.170935
    6 C             6.052353   -0.052353         6.037872   -0.037872
    7 C             6.225075   -0.225075         6.109025   -0.109025
    8 C             6.260879   -0.260879         6.162654   -0.162654
    9 C             6.478730   -0.478730         6.143788   -0.143788
   10 C             6.191638   -0.191638         6.087630   -0.087630
   11 C             6.423911   -0.423911         6.215173   -0.215173
   12 O             8.715082   -0.715082         8.272168   -0.272168
   13 C             6.262715   -0.262715         6.035309   -0.035309
   14 H             0.770314    0.229686         0.902137    0.097863
   15 H             0.808519    0.191481         0.927154    0.072846
   16 H             0.808418    0.191582         0.927126    0.072874
   17 H             0.758513    0.241487         0.896737    0.103263
   18 H             0.756388    0.243612         0.894916    0.105084
   19 H             0.753263    0.246737         0.893090    0.106910
   20 H             0.765462    0.234538         0.900150    0.099850
   21 H             0.772308    0.227692         0.904920    0.095080
   22 H             0.769128    0.230872         0.902016    0.097984
   23 H             0.787931    0.212069         0.903196    0.096804
   24 H             0.796316    0.203684         0.908575    0.091425
   25 H             0.808673    0.191327         0.927179    0.072821
   26 H             0.808576    0.191424         0.927191    0.072809
   27 H             0.769328    0.230672         0.901722    0.098278

          -------------------------------
          BOND ORDER AND VALENCE ANALYSIS     BOND ORDER THRESHOLD=0.050
          -------------------------------

                   BOND                       BOND                       BOND
  ATOM PAIR DIST  ORDER      ATOM PAIR DIST  ORDER      ATOM PAIR DIST  ORDER
    1   2  1.421  0.826        1  14  1.091  0.922        1  15  1.098  0.899
    1  16  1.098  0.899        2   3  1.366  0.802        3   4  1.417  1.293
    3   6  2.829  0.093        3   8  1.395  1.369        4   5  1.396  1.378
    4   7  2.800  0.094        4  12  1.365  0.799        5   6  1.407  1.346
    5   8  2.781  0.090        5  17  1.085  0.932        6   7  1.394  1.434
    6   9  1.523  0.920        7   8  1.402  1.352        7  18  1.086  0.937
    8  19  1.084  0.930        9  10  1.509  0.924        9  20  1.098  0.917
    9  21  1.099  0.915       10  11  1.337  1.890       10  22  1.091  0.931
   11  23  1.086  0.941       11  24  1.088  0.945       12  13  1.420  0.825
   13  25  1.098  0.899       13  26  1.098  0.899       13  27  1.091  0.922

                       TOTAL       BONDED        FREE
      ATOM            VALENCE     VALENCE     VALENCE
    1 C                 3.546       3.546       0.000
    2 O                 1.746       1.746      -0.000
    3 C                 3.497       3.497      -0.000
    4 C                 3.498       3.498       0.000
    5 C                 3.718       3.718       0.000
    6 C                 3.663       3.663      -0.000
    7 C                 3.737       3.737      -0.000
    8 C                 3.702       3.702       0.000
    9 C                 3.595       3.595      -0.000
   10 C                 3.670       3.670      -0.000
   11 C                 3.770       3.770       0.000
   12 O                 1.746       1.746      -0.000
   13 C                 3.545       3.545      -0.000
   14 H                 0.912       0.912       0.000
   15 H                 0.914       0.914      -0.000
   16 H                 0.914       0.914      -0.000
   17 H                 0.918       0.918       0.000
   18 H                 0.921       0.921       0.000
   19 H                 0.913       0.913      -0.000
   20 H                 0.903       0.903      -0.000
   21 H                 0.904       0.904       0.000
   22 H                 0.916       0.916      -0.000
   23 H                 0.925       0.925      -0.000
   24 H                 0.930       0.930       0.000
   25 H                 0.914       0.914       0.000
   26 H                 0.914       0.914      -0.000
   27 H                 0.912       0.912       0.000

          ---------------------
          ELECTROSTATIC MOMENTS
          ---------------------

 POINT   1           X           Y           Z (BOHR)    CHARGE
                -0.028368    0.006028   -0.005532        0.00 (A.U.)
         DX          DY          DZ         /D/  (DEBYE)
    -1.080536    0.262890   -0.098066    1.116372
 ...... END OF PROPERTY EVALUATION ......
 CPU     0: STEP CPU TIME=     0.07 TOTAL CPU TIME=          4.6 (      0.1 MIN)
 TOTAL WALL CLOCK TIME=         12.7 SECONDS, CPU UTILIZATION IS    36.25%
               580000  WORDS OF DYNAMIC MEMORY USED
 EXECUTION OF GAMESS TERMINATED NORMALLY Mon May 25 19:21:40 2020
 DDI: 263640 bytes (0.3 MB / 0 MWords) used by master data server.
Note: The following floating-point exceptions are signalling: IEEE_DENORMAL
 ----------------------------------------
 CPU timing information for all processes
 ========================================
 0: 4.435 + 0.178 = 4.613
 1: 4.491 + 0.36 = 4.528
 2: 4.459 + 0.28 = 4.487
 3: 4.424 + 0.68 = 4.492
 4: 4.213 + 0.39 = 4.253
 5: 4.268 + 0.37 = 4.305
 ----------------------------------------
Note: The following floating-point exceptions are signalling:
Note: The following floating-point exceptions are signalling:Note: The following floating-point exceptions are signalling: IEEE_DENORMAL
 IEEE_DENORMAL
Note: The following floating-point exceptions are signalling: IEEE_DENORMALNote: The following floating-point exceptions are signalling: IEEE_DENORMAL IEEE_DENORMAL


 ddikick.x: exited gracefully.
unset echo
----- accounting info -----
Files used on the master node pietdev were:
-rwxr-xr-x 1 piet piet     1174 mei 25 19:21 /home/piet/scr/methyl_eugenol_fukui_neu.F05*
-rw-r--r-- 1 piet piet 49152000 mei 25 19:21 /home/piet/scr/methyl_eugenol_fukui_neu.F10
ls: No match.
ls: No match.
ls: No match.
ma 25 mei 2020 19:21:43 CEST
0.125u 0.032s 0:15.96 0.9%	0+0k 0+8io 0pf+0w
