 $BASIS GBASIS=N31 NGAUSS=6 NDFUNC=1 NPFUNC=1 $END
 $CONTRL SCFTYP=RHF RUNTYP=OPTIMIZE DFTTYP=B3LYP MAXIT=60 MULT=1 ICHARG=0 $END 
 $SYSTEM MEMDDI=1000 MWORDS=30 $END
 $STATPT NSTEP=999 $END
 $SCF DIRSCF=.TRUE. $END
 $DATA

C1
C 6.0000000 -1.61550 1.30050 -0.62280
C 6.0000000 -2.47950 0.02740 -0.72490
C 6.0000000 -0.31950 0.99620 0.12110
C 6.0000000 -2.48970 2.26220 0.21160
C 6.0000000 1.71350 -0.26230 -0.04770
C 6.0000000 -3.92880 1.97860 -0.26770
C 6.0000000 2.36820 -1.40770 -0.82420
C 6.0000000 3.77120 -1.65850 -0.26290
C 6.0000000 4.58190 -0.36150 -0.34650
C 6.0000000 3.84170 0.74350 0.41160
C 6.0000000 4.61520 2.05720 0.28220
C 6.0000000 -2.10750 3.71610 -0.07270
C 6.0000000 -5.02970 -3.27780 -0.03330
H 1.0000000 -5.20210 2.79930 -1.61170
H 1.0000000 0.67540 -2.50260 -1.01610
H 1.0000000 3.95420 -3.52520 -1.02650
H 1.0000000 6.39220 -1.25530 -0.18740
H 1.0000000 4.42560 3.92180 1.04940
O 8.0000000 -3.21900 -2.55040 1.70840
C 6.0000000 -3.92370 0.55830 -0.85940
O 8.0000000 -4.30640 2.92490 -1.26970
O 8.0000000 1.57950 -2.59120 -0.68480
O 8.0000000 4.41780 -2.67660 -1.02930
O 8.0000000 5.86880 -0.56410 0.24080
O 8.0000000 3.98750 3.06050 1.08320
C 6.0000000 -3.26840 -1.87270 0.69910
O 8.0000000 0.42600 0.01480 -0.60220
O 8.0000000 -4.16740 -2.16210 -0.26450
C 6.0000000 -2.38270 -0.78060 0.53590
O 8.0000000 -0.63120 0.48840 1.44560
O 8.0000000 2.53360 0.90430 -0.14070
C 6.0000000 -1.50880 -0.52780 1.51090
H 1.0000000 -1.40750 1.70940 -1.61150
H 1.0000000 -2.19210 -0.56910 -1.59070
H 1.0000000 0.27100 1.90800 0.21070
H 1.0000000 -2.39130 2.04190 1.27450
H 1.0000000 1.60490 -0.54770 0.99870
H 1.0000000 -4.61960 2.03070 0.57380
H 1.0000000 -4.21300 0.59070 -1.90980
H 1.0000000 -4.60940 -0.08030 -0.30260
H 1.0000000 2.43920 -1.13940 -1.87830
H 1.0000000 3.69640 -1.97690 0.77680
H 1.0000000 -1.50610 -1.16250 2.38480
H 1.0000000 4.69960 -0.07220 -1.39080
H 1.0000000 3.76110 0.47110 1.46390
H 1.0000000 -2.25600 3.93050 -1.13110
H 1.0000000 -2.73360 4.37970 0.52370
H 1.0000000 -1.06060 3.87400 0.18660
H 1.0000000 5.64050 1.91020 0.62170
H 1.0000000 4.61980 2.37500 -0.76040
H 1.0000000 -4.43110 -4.18040 0.08940
H 1.0000000 -5.61440 -3.10400 0.87010
H 1.0000000 -5.70150 -3.40000 -0.88290
 $END
