----- GAMESS execution script 'rungms' -----
This job is running on host pietdev
under operating system Linux at ma 25 mei 2020 18:11:21 CEST
Available scratch disk space (Kbyte units) at beginning of the job is
Filesystem     1K-blocks     Used Available Use% Mounted on
/dev/sda2      244568380 31071244 201004080  14% /
GAMESS temporary binary files will be written to /home/piet/scr
GAMESS supplementary output files will be written to /home/piet/gamess/scr
Copying input file camphene_charge_geodisk.inp to your run's scratch directory...
cp camphene_charge_geodisk.inp /home/piet/scr/camphene_charge_geodisk.F05
unset echo
 
Assuming a single but multicore node.
 
/home/piet/gamess/ddikick.x /home/piet/gamess/gamess.03.x camphene_charge_geodisk -ddi 1 6 pietdev:cpus=6 -scr /home/piet/scr

 Distributed Data Interface kickoff program.
 Initiating 6 compute processes on 1 nodes to run the following command:
 /home/piet/gamess/gamess.03.x camphene_charge_geodisk 

          ******************************************************
          *         GAMESS VERSION = 30 SEP 2019 (R2)          *
          *             FROM IOWA STATE UNIVERSITY             *
          * M.W.SCHMIDT, K.K.BALDRIDGE, J.A.BOATZ, S.T.ELBERT, *
          *   M.S.GORDON, J.H.JENSEN, S.KOSEKI, N.MATSUNAGA,   *
          *          K.A.NGUYEN, S.J.SU, T.L.WINDUS,           *
          *       TOGETHER WITH M.DUPUIS, J.A.MONTGOMERY       *
          *         J.COMPUT.CHEM.  14, 1347-1363(1993)        *
          **************** 64 BIT LINUX VERSION ****************

  SINCE 1993, STUDENTS AND POSTDOCS WORKING AT IOWA STATE UNIVERSITY
  AND ALSO IN THEIR VARIOUS JOBS AFTER LEAVING ISU HAVE MADE IMPORTANT
  CONTRIBUTIONS TO THE CODE:
     IVANA ADAMOVIC, CHRISTINE AIKENS, YURI ALEXEEV, POOJA ARORA,
     ANDREY ASADCHEV, ROB BELL, PRADIPTA BANDYOPADHYAY, JONATHAN BENTZ,
     COLLEEN BERTONI, BRETT BODE, KURT BRORSEN, CALEB CARLIN, GALINA CHABAN,
     WEI CHEN, CHEOL HO CHOI, PAUL DAY, ALBERT DEFUSCO, NUWAN DESILVA,
     TIM DUDLEY, DMITRI FEDOROV, ALEX FINDLATER, GRAHAM FLETCHER, 
     MARK FREITAG, KURT GLAESEMANN, EMILIE B GUIDEZ, ANASTASIA GUNINA, 
     DAN KEMP, SAROM SOK LEANG, GRANT MERRILL,
     NORIYUKI MINEZAWA, JONATHAN MULLIN,
     TAKESHI NAGATA, SEAN NEDD, HEATHER NETZLOFF, BOSILJKA NJEGIC, RYAN OLSON,
     MIKE PAK, BUU PHAM, DAVID POOLE,
     SPENCER PRUITT, LUKE ROSKOP, TOSAPORN SATTASATHUCHANA,
     JIM SHOEMAKER, LYUDMILA SLIPCHENKO,
     TONY SMITH, JIE SONG, TETSUYA TAKETSUGU, SIMON WEBB,
     JORGE LUIS GALVEZ VALLEJO, PENG XU, SOOHAENG YOO,
     FEDERICO ZAHARIEV

  ADDITIONAL CODE HAS BEEN PROVIDED BY COLLABORATORS IN OTHER GROUPS:
     IOWA STATE UNIVERSITY:
          JOE IVANIC, AARON WEST, LAIMUTIS BYTAUTAS, KLAUS RUEDENBERG
     UNIVERSITY OF TOKYO: KIMIHIKO HIRAO, TAKAHITO NAKAJIMA,
          TAKAO TSUNEDA, MUNEAKI KAMIYA, SUSUMU YANAGISAWA,
          KIYOSHI YAGI, MAHITO CHIBA, SEIKEN TOKURA, NAOAKI KAWAKAMI
     UNIVERSITY OF AARHUS: FRANK JENSEN
     UNIVERSITY OF IOWA: VISVALDAS KAIRYS, HUI LI
     NATIONAL INST. OF STANDARDS AND TECHNOLOGY: WALT STEVENS, DAVID GARMER
     UNIVERSITY OF PISA: BENEDETTA MENNUCCI, JACOPO TOMASI
     UNIVERSITY OF MEMPHIS: HENRY KURTZ, PRAKASHAN KORAMBATH
     UNIVERSITY OF ALBERTA: TOBY ZENG, MARIUSZ KLOBUKOWSKI
     UNIVERSITY OF NEW ENGLAND: MARK SPACKMAN
     MIE UNIVERSITY: HIROAKI UMEDA
     NAT. INST. OF ADVANCED INDUSTRIAL SCIENCE AND TECHNOLOGY: KAZUO KITAURA
     MICHIGAN STATE UNIVERSITY:
          KAROL KOWALSKI, MARTA WLOCH, JEFFREY GOUR, JESSE LUTZ,
          WEI LI, JUN SHEN, J. EMILIANO DEUSTUA, PIOTR PIECUCH
     UNIVERSITY OF MINNESOTA:
          ANDREW SAND, PRACHI SHARMA, YINAN SHU
     UNIVERSITY OF SILESIA: MONIKA MUSIAL, STANISLAW KUCHARSKI
     FACULTES UNIVERSITAIRES NOTRE-DAME DE LA PAIX:
          OLIVIER QUINET, BENOIT CHAMPAGNE
     UNIVERSITY OF CALIFORNIA - SANTA BARBARA: BERNARD KIRTMAN
     INSTITUTE FOR MOLECULAR SCIENCE:
          KAZUYA ISHIMURA, MICHIO KATOUDA, AND SHIGERU NAGASE
     UNIVERSITY OF NOTRE DAME: ANNA POMOGAEVA, DAN CHIPMAN
     KYUSHU UNIVERSITY:
          HARUYUKI NAKANO,
          FENG LONG GU, JACEK KORCHOWIEC, MARCIN MAKOWSKI, AND YURIKO AOKI,
          HIROTOSHI MORI AND EISAKU MIYOSHI
     PENNSYLVANIA STATE UNIVERSITY:
          TZVETELIN IORDANOV, CHET SWALINA, JONATHAN SKONE,
          SHARON HAMMES-SCHIFFER
     WASEDA UNIVERSITY:
          MASATO KOBAYASHI, TOMOKO AKAMA, TSUGUKI TOUMA,
          TAKESHI YOSHIKAWA, YASUHIRO IKABATA, JUNJI SEINO,
          YUYA NAKAJIMA, HIROMI NAKAI
     NANJING UNIVERSITY: SHUHUA LI
     UNIVERSITY OF NEBRASKA:
          PEIFENG SU, DEJUN SI, NANDUN THELLAMUREGE, YALI WANG, HUI LI
     UNIVERSITY OF ZURICH: ROBERTO PEVERATI, KIM BALDRIDGE
     N. COPERNICUS UNIVERSITY AND JACKSON STATE UNIVERSITY:
          MARIA BARYSZ
     UNIVERSITY OF COPENHAGEN: Jimmy Kromann, CASPER STEINMANN
     TOKYO INSTITUTE OF TECHNOLOGY: HIROYA NAKATA
     NAGOYA UNIVERSITY: YOSHIO NISHIMOTO, STEPHAN IRLE
     MOSCOW STATE UNIVERSITY: VLADIMIR MIRONOV
     A.N.NESMEYANOV INSTITUTE OF ORGANOELEMENT COMPOUNDS OF RUSSIAN ACADEMY OF SCIENCES:
          IGOR S. GERASIMOV
     JOHANNES KEPLER UNIVERSITY LINZ:
          CHRISTIAN FRIEDL


 PARALLEL VERSION RUNNING ON        6 PROCESSORS IN        1 NODES.

 EXECUTION OF GAMESS BEGUN Mon May 25 18:11:22 2020

            ECHO OF THE FIRST FEW INPUT CARDS -
 INPUT CARD> $BASIS GBASIS=N21 NGAUSS=3 $END                                                
 INPUT CARD> $CONTRL SCFTYP=RHF DFTTYP=B3LYP MAXIT=60 MULT=1 ICHARG=0 $END                  
 INPUT CARD> $SYSTEM MEMDDI=1000 MWORDS=30 $END                                             
 INPUT CARD> $SCF DIRSCF=.TRUE. $END                                                        
 INPUT CARD> $ELPOT  IEPOT=1 WHERE=PDC $END                                                 
 INPUT CARD> $PDC PTSEL=GEODESIC CONSTR=CHARGE $END                                         
 INPUT CARD> $DATA                                                                          
 INPUT CARD>                                                                                
 INPUT CARD>C1                                                                              
 INPUT CARD>C 6.0000000 0.52733 -1.11261 -0.44826                                           
 INPUT CARD>C 6.0000000 -0.83494 -0.49465 0.03228                                           
 INPUT CARD>C 6.0000000 -1.94909 -0.78438 -0.99995                                          
 INPUT CARD>C 6.0000000 -1.31241 -1.00899 1.40461                                           
 INPUT CARD>C 6.0000000 -0.46872 1.00653 0.05887                                            
 INPUT CARD>C 6.0000000 -1.26705 2.02222 0.39969                                            
 INPUT CARD>C 6.0000000 0.97668 1.10878 -0.39396                                            
 INPUT CARD>C 6.0000000 1.87603 0.53163 0.74168                                             
 INPUT CARD>C 6.0000000 1.60674 -1.00645 0.65790                                            
 INPUT CARD>C 6.0000000 1.04112 -0.03537 -1.43488                                           
 INPUT CARD>H 1.0000000 0.41079 -2.12375 -0.85205                                           
 INPUT CARD>H 1.0000000 -2.17961 -1.85707 -1.01941                                          
 INPUT CARD>H 1.0000000 -2.86612 -0.24664 -0.73615                                          
 INPUT CARD>H 1.0000000 -1.66873 -0.47850 -2.01160                                          
 INPUT CARD>H 1.0000000 -0.63873 -0.72123 2.21599                                           
 INPUT CARD>H 1.0000000 -2.30010 -0.59930 1.64386                                           
 INPUT CARD>H 1.0000000 -1.39969 -2.10304 1.40118                                           
 INPUT CARD>H 1.0000000 -2.29572 1.86899 0.71781                                            
 INPUT CARD>H 1.0000000 -0.91727 3.05153 0.37134                                            
 INPUT CARD>H 1.0000000 1.27059 2.10719 -0.72901                                            
 INPUT CARD>H 1.0000000 2.92922 0.76554 0.54819                                             
 INPUT CARD>H 1.0000000 1.61835 0.95722 1.71656                                             
 INPUT CARD>H 1.0000000 1.29695 -1.43961 1.61193                                            
 INPUT CARD>H 1.0000000 2.50809 -1.54495 0.34384                                            
 INPUT CARD>H 1.0000000 2.05900 -0.23498 -1.78971                                           
 INPUT CARD>H 1.0000000 0.39615 0.13175 -2.30229                                            
 INPUT CARD> $END                                                                           
   30000000 WORDS OF MEMORY AVAILABLE

     BASIS OPTIONS
     -------------
     GBASIS=N21          IGAUSS=       3      POLAR=NONE    
     NDFUNC=       0     NFFUNC=       0     DIFFSP=       F
     NPFUNC=       0      DIFFS=       F     BASNAM=        


     RUN TITLE
     ---------
                                                                                 

 THE POINT GROUP OF THE MOLECULE IS C1      
 THE ORDER OF THE PRINCIPAL AXIS IS     0

 ATOM      ATOMIC                      COORDINATES (BOHR)
           CHARGE         X                   Y                   Z
 C           6.0     0.9965092051       -2.1025280312       -0.8470885713
 C           6.0    -1.5778078162       -0.9347529598        0.0610003549
 C           6.0    -3.6832460254       -1.4822632702       -1.8896315014
 C           6.0    -2.4800952835       -1.9067146244        2.6543280196
 C           6.0    -0.8857523650        1.9020658984        0.1112481689
 C           6.0    -2.3943773127        3.8214416869        0.7553045800
 C           6.0     1.8456575777        2.0952903807       -0.7444764501
 C           6.0     3.5451826447        1.0046350269        1.4015719706
 C           6.0     3.0362983335       -1.9019147203        1.2432507273
 C           6.0     1.9674315203       -0.0668396082       -2.7115300253
 H           1.0     0.7762805385       -4.0133055664       -1.6101410278
 H           1.0    -4.1188656601       -3.5093534400       -1.9264055691
 H           1.0    -5.4161814479       -0.4660820176       -1.3911217859
 H           1.0    -3.1534424475       -0.9042338851       -3.8013727969
 H           1.0    -1.2070246801       -1.3629270741        4.1876138915
 H           1.0    -4.3465587444       -1.1325127844        3.1064449622
 H           1.0    -2.6450305678       -3.9741693412        2.6478462595
 H           1.0    -4.3382817445        3.5318789738        1.3564642112
 H           1.0    -1.7333889568        5.7665555433        0.7017308483
 H           1.0     2.4010669427        3.9820117041       -1.3776291423
 H           1.0     5.5354231578        1.4466608326        1.0359288892
 H           1.0     3.0582380522        1.8088835100        3.2438280415
 H           1.0     2.4508801198       -2.7204684292        3.0461060114
 H           1.0     4.7396028525       -2.9195321647        0.6497633836
 H           1.0     3.8909458087       -0.4440478126       -3.3820614975
 H           1.0     0.7486149500        0.2489713989       -4.3506972443

          INTERNUCLEAR DISTANCES (ANGS.)
          ------------------------------

                1 C          2 C          3 C          4 C          5 C     

   1 C       0.0000000    1.5711692 *  2.5582714 *  2.6131413 *  2.3958403 *
   2 C       1.5711692 *  0.0000000    1.5462123 *  1.5413672 *  1.5454338 *
   3 C       2.5582714 *  1.5462123 *  0.0000000    2.4975428 *  2.5534200 *
   4 C       2.6131413 *  1.5413672 *  2.4975428 *  0.0000000    2.5661547 *
   5 C       2.3958403 *  1.5454338 *  2.5534200 *  2.5661547 *  0.0000000  
   6 C       3.7102531    2.5799891 *  3.2095442    3.1937683    1.3360820 *
   7 C       2.2670327 *  2.4565495 *  3.5371470    3.5999635    1.5181210 *
   8 C       2.4368985 *  2.9842683 *  4.4041685    3.6026568    2.4878931 *
   9 C       1.5491888 *  2.5719916 *  3.9295940    3.0131411    2.9527038 *
  10 C       1.5484977 *  2.4255098 *  3.1131232    3.8144125    2.3656842 *
  11 H       1.0950032 *  2.2333494 *  2.7175025 *  3.0503479    3.3766797  
  12 H       2.8649533 *  2.1841194 *  1.0973523 *  2.7105624 *  3.5057149  
  13 H       3.5140130    2.1857918 *  1.0953076 *  2.7528250 *  2.8195777 *
  14 H       2.7692611 *  2.2074673 *  1.0934350 *  3.4754675    2.8164133 *
  15 H       2.9344680 *  2.2041838 *  3.4732264    1.0931551 *  2.7689754 *
  16 H       3.5545483    2.1805585 *  2.6734236 *  1.0957272 *  2.9060000 *
  17 H       2.8486463 *  2.1862635 *  2.7939452 *  1.0975313 *  3.5125385  
  18 H       4.2684036    2.8619266 *  3.1798151    3.1179098    2.1250807 *
  19 H       4.4831546    3.5633036    4.2022963    4.2085158    2.1168041 *
  20 H       3.3163788    3.4325487    4.3360033    4.5754564    2.2039525 *
  21 H       3.2077150    4.0028918    5.3476067    4.6769474    3.4414396  
  22 H       3.1876271    3.3110961    4.8103249    3.5429717    2.6657511 *
  23 H       2.2234268 *  2.8165934 *  4.2175845    2.6527674 *  3.3931087  
  24 H       2.1766374 *  3.5179610    4.7170639    4.0010881    3.9309866  
  25 H       2.2171458 *  3.4295721    4.1219348    4.7084156    3.3686738  
  26 H       2.2367537 *  2.7125959 *  2.8347018 *  4.2381096    2.6623893 *

                6 C          7 C          8 C          9 C         10 C     

   1 C       3.7102531    2.2670327 *  2.4368985 *  1.5491888 *  1.5484977 *
   2 C       2.5799891 *  2.4565495 *  2.9842683 *  2.5719916 *  2.4255098 *
   3 C       3.2095442    3.5371470    4.4041685    3.9295940    3.1131232  
   4 C       3.1937683    3.5999635    3.6026568    3.0131411    3.8144125  
   5 C       1.3360820 *  1.5181210 *  2.4878931 *  2.9527038 *  2.3656842 *
   6 C       0.0000000    2.5492307 *  3.4953923    4.1830830    3.5954099  
   7 C       2.5492307 *  0.0000000    1.5593623 *  2.4449096 *  1.5481428 *
   8 C       3.4953923    1.5593623 *  0.0000000    1.5637219 *  2.3991618 *
   9 C       4.1830830    2.4449096 *  1.5637219 *  0.0000000    2.3754264 *
  10 C       3.5954099    1.5481428 *  2.3991618 *  2.3754264 *  0.0000000  
  11 H       4.6444663    3.3135069    3.4260687    2.2267925 *  2.2579499 *
  12 H       4.2303075    4.3760279    5.0254892    4.2276908    3.7234806  
  13 H       2.9991471 *  4.0891771    5.0276906    4.7462789    3.9748438  
  14 H       3.4970369    3.4834482    4.6006779    4.2583641    2.8057543 *
  15 H       3.3496641    3.5735592    3.1728955    2.7479320 *  4.0769047  
  16 H       3.0801816    4.2198975    4.4196146    4.0498502    4.5782538  
  17 H       4.2471574    4.3801198    4.2552048    3.2853609    4.2750496  
  18 H       1.0875853 *  3.5387220    4.3809359    4.8477767    4.4039939  
  19 H       1.0874874 *  2.8190439 *  3.7801551    4.7874779    4.0775818  
  20 H       2.7786328 *  1.0933728 *  2.2387220 *  3.4250942    2.2674815 *
  21 H       4.3829190    2.1949653 *  1.0960664 *  2.2138063 *  2.8528836 *
  22 H       3.3457293    2.2111096 *  1.0944939 *  2.2308957 *  3.3541025  
  23 H       4.4752529    3.2589046    2.2312454 *  1.0925981 *  3.3645787  
  24 H       5.1941797    3.1514835    2.2067988 *  1.0959232 *  2.7558443 *
  25 H       4.5772298    2.2192849 *  2.6512458 *  2.6058587 *  1.0962792 *
  26 H       3.6933463    2.2211092 *  3.4081817    3.3946653    1.0937621 *

               11 H         12 H         13 H         14 H         15 H     

   1 C       1.0950032 *  2.8649533 *  3.5140130    2.7692611 *  2.9344680 *
   2 C       2.2333494 *  2.1841194 *  2.1857918 *  2.2074673 *  2.2041838 *
   3 C       2.7175025 *  1.0973523 *  1.0953076 *  1.0934350 *  3.4732264  
   4 C       3.0503479    2.7105624 *  2.7528250 *  3.4754675    1.0931551 *
   5 C       3.3766797    3.5057149    2.8195777 *  2.8164133 *  2.7689754 *
   6 C       4.6444663    4.2303075    2.9991471 *  3.4970369    3.3496641  
   7 C       3.3135069    4.3760279    4.0891771    3.4834482    3.5735592  
   8 C       3.4260687    5.0254892    5.0276906    4.6006779    3.1728955  
   9 C       2.2267925 *  4.2276908    4.7462789    4.2583641    2.7479320 *
  10 C       2.2579499 *  3.7234806    3.9748438    2.8057543 *  4.0769047  
  11 H       0.0000000    2.6094635 *  3.7782422    2.8940987 *  3.5329059  
  12 H       2.6094635 *  0.0000000    1.7734196 *  1.7736670 *  3.7592894  
  13 H       3.7782422    1.7734196 *  0.0000000    1.7647307 *  3.7284893  
  14 H       2.8940987 *  1.7736670 *  1.7647307 *  0.0000000    4.3580196  
  15 H       3.5329059    3.7592894    3.7284893    4.3580196    0.0000000  
  16 H       3.9877862    2.9477975 *  2.4716786 *  3.7115507    1.7613489 *
  17 H       2.8905557 *  2.5550014 *  3.1882311    3.7892717    1.7754927 *
  18 H       5.0726354    4.1127774    2.6296856 *  3.6542448    3.4204384  
  19 H       5.4812361    5.2556676    3.9877908    4.3248361    4.2088046  
  20 H       4.3191722    5.2634180    4.7595101    4.1195184    4.5076033  
  21 H       4.0805831    5.9527806    6.0216280    5.4075230    4.2097873  
  22 H       4.1890732    5.4617085    5.2512414    5.1735253    2.8567525 *
  23 H       2.7063859 *  4.3800334    4.9262368    4.7800586    2.1512358 *
  24 H       2.4827061 *  4.8918709    5.6333046    4.9123557    3.7531235  
  25 H       2.6764257 *  4.6032980    5.0365595    3.7422598    4.8538458  
  26 H       2.6815463 *  3.4979602    3.6384583    2.1727023 *  4.7131100  

               16 H         17 H         18 H         19 H         20 H     

   1 C       3.5545483    2.8486463 *  4.2684036    4.4831546    3.3163788  
   2 C       2.1805585 *  2.1862635 *  2.8619266 *  3.5633036    3.4325487  
   3 C       2.6734236 *  2.7939452 *  3.1798151    4.2022963    4.3360033  
   4 C       1.0957272 *  1.0975313 *  3.1179098    4.2085158    4.5754564  
   5 C       2.9060000 *  3.5125385    2.1250807 *  2.1168041 *  2.2039525 *
   6 C       3.0801816    4.2471574    1.0875853 *  1.0874874 *  2.7786328 *
   7 C       4.2198975    4.3801198    3.5387220    2.8190439 *  1.0933728 *
   8 C       4.4196146    4.2552048    4.3809359    3.7801551    2.2387220 *
   9 C       4.0498502    3.2853609    4.8477767    4.7874779    3.4250942  
  10 C       4.5782538    4.2750496    4.4039939    4.0775818    2.2674815 *
  11 H       3.9877862    2.8905557 *  5.0726354    5.4812361    4.3191722  
  12 H       2.9477975 *  2.5550014 *  4.1127774    5.2556676    5.2634180  
  13 H       2.4716786 *  3.1882311    2.6296856 *  3.9877908    4.7595101  
  14 H       3.7115507    3.7892717    3.6542448    4.3248361    4.1195184  
  15 H       1.7613489 *  1.7754927 *  3.4204384    4.2088046    4.5076033  
  16 H       0.0000000    1.7694253 *  2.6362935 *  4.1061035    5.0700520  
  17 H       1.7694253 *  0.0000000    4.1287876    5.2785312    5.4216364  
  18 H       2.6362935 *  4.1287876    0.0000000    1.8489366 *  3.8559816  
  19 H       4.1061035    5.2785312    1.8489366 *  0.0000000    2.6247437 *
  20 H       5.0700520    5.4216364    3.8559816    2.6247437 *  0.0000000  
  21 H       5.5144418    5.2626804    5.3428804    4.4780031    2.4864268 *
  22 H       4.2169053    4.3096660    4.1411073    3.5531845    2.7247350 *
  23 H       3.6940370    2.7850354 *  4.9652354    5.1586987    4.2497630  
  24 H       5.0698123    4.0865850    5.9052037    5.7324930    4.0025667  
  25 H       5.5609248    5.0629995    5.4477456    4.9324911    2.6893187 *
  26 H       4.8349041    4.6834835    4.4028594    4.1711491    2.6724929 *

               21 H         22 H         23 H         24 H         25 H     

   1 C       3.2077150    3.1876271    2.2234268 *  2.1766374 *  2.2171458 *
   2 C       4.0028918    3.3110961    2.8165934 *  3.5179610    3.4295721  
   3 C       5.3476067    4.8103249    4.2175845    4.7170639    4.1219348  
   4 C       4.6769474    3.5429717    2.6527674 *  4.0010881    4.7084156  
   5 C       3.4414396    2.6657511 *  3.3931087    3.9309866    3.3686738  
   6 C       4.3829190    3.3457293    4.4752529    5.1941797    4.5772298  
   7 C       2.1949653 *  2.2111096 *  3.2589046    3.1514835    2.2192849 *
   8 C       1.0960664 *  1.0944939 *  2.2312454 *  2.2067988 *  2.6512458 *
   9 C       2.2138063 *  2.2308957 *  1.0925981 *  1.0959232 *  2.6058587 *
  10 C       2.8528836 *  3.3541025    3.3645787    2.7558443 *  1.0962792 *
  11 H       4.0805831    4.1890732    2.7063859 *  2.4827061 *  2.6764257 *
  12 H       5.9527806    5.4617085    4.3800334    4.8918709    4.6032980  
  13 H       6.0216280    5.2512414    4.9262368    5.6333046    5.0365595  
  14 H       5.4075230    5.1735253    4.7800586    4.9123557    3.7422598  
  15 H       4.2097873    2.8567525 *  2.1512358 *  3.7531235    4.8538458  
  16 H       5.5144418    4.2169053    3.6940370    5.0698123    5.5609248  
  17 H       5.2626804    4.3096660    2.7850354 *  4.0865850    5.0629995  
  18 H       5.3428804    4.1411073    4.9652354    5.9052037    5.4477456  
  19 H       4.4780031    3.5531845    5.1586987    5.7324930    4.9324911  
  20 H       2.4864268 *  2.7247350 *  4.2497630    4.0025667    2.6893187 *
  21 H       0.0000000    1.7664116 *  2.9425388 *  2.3574294 *  2.6877685 *
  22 H       1.7664116 *  0.0000000    2.4205453 *  2.9894568 *  3.7295365  
  23 H       2.9425388 *  2.4205453 *  0.0000000    1.7567040 *  3.6882256  
  24 H       2.3574294 *  2.9894568 *  1.7567040 *  0.0000000    2.5435681 *
  25 H       2.6877685 *  3.7295365    3.6882256    2.5435681 *  0.0000000  
  26 H       3.8656655    4.2809262    4.3129724    3.7780441    1.7782855 *

               26 H     

   1 C       2.2367537 *
   2 C       2.7125959 *
   3 C       2.8347018 *
   4 C       4.2381096  
   5 C       2.6623893 *
   6 C       3.6933463  
   7 C       2.2211092 *
   8 C       3.4081817  
   9 C       3.3946653  
  10 C       1.0937621 *
  11 H       2.6815463 *
  12 H       3.4979602  
  13 H       3.6384583  
  14 H       2.1727023 *
  15 H       4.7131100  
  16 H       4.8349041  
  17 H       4.6834835  
  18 H       4.4028594  
  19 H       4.1711491  
  20 H       2.6724929 *
  21 H       3.8656655  
  22 H       4.2809262  
  23 H       4.3129724  
  24 H       3.7780441  
  25 H       1.7782855 *
  26 H       0.0000000  

  * ... LESS THAN  3.000


     ATOMIC BASIS SET
     ----------------
 THE CONTRACTED PRIMITIVE FUNCTIONS HAVE BEEN UNNORMALIZED
 THE CONTRACTED BASIS FUNCTIONS ARE NOW NORMALIZED TO UNITY

  SHELL TYPE  PRIMITIVE        EXPONENT          CONTRACTION COEFFICIENT(S)

 C         

      1   S       1           172.2560000    0.061766907377
      1   S       2            25.9109000    0.358794042852
      1   S       3             5.5333500    0.700713083689

      2   L       4             3.6649800   -0.395895162119    0.236459946619
      2   L       5             0.7705450    1.215834355681    0.860618805716

      3   L       6             0.1958570    1.000000000000    1.000000000000

 C         

      4   S       7           172.2560000    0.061766907377
      4   S       8            25.9109000    0.358794042852
      4   S       9             5.5333500    0.700713083689

      5   L      10             3.6649800   -0.395895162119    0.236459946619
      5   L      11             0.7705450    1.215834355681    0.860618805716

      6   L      12             0.1958570    1.000000000000    1.000000000000

 C         

      7   S      13           172.2560000    0.061766907377
      7   S      14            25.9109000    0.358794042852
      7   S      15             5.5333500    0.700713083689

      8   L      16             3.6649800   -0.395895162119    0.236459946619
      8   L      17             0.7705450    1.215834355681    0.860618805716

      9   L      18             0.1958570    1.000000000000    1.000000000000

 C         

     10   S      19           172.2560000    0.061766907377
     10   S      20            25.9109000    0.358794042852
     10   S      21             5.5333500    0.700713083689

     11   L      22             3.6649800   -0.395895162119    0.236459946619
     11   L      23             0.7705450    1.215834355681    0.860618805716

     12   L      24             0.1958570    1.000000000000    1.000000000000

 C         

     13   S      25           172.2560000    0.061766907377
     13   S      26            25.9109000    0.358794042852
     13   S      27             5.5333500    0.700713083689

     14   L      28             3.6649800   -0.395895162119    0.236459946619
     14   L      29             0.7705450    1.215834355681    0.860618805716

     15   L      30             0.1958570    1.000000000000    1.000000000000

 C         

     16   S      31           172.2560000    0.061766907377
     16   S      32            25.9109000    0.358794042852
     16   S      33             5.5333500    0.700713083689

     17   L      34             3.6649800   -0.395895162119    0.236459946619
     17   L      35             0.7705450    1.215834355681    0.860618805716

     18   L      36             0.1958570    1.000000000000    1.000000000000

 C         

     19   S      37           172.2560000    0.061766907377
     19   S      38            25.9109000    0.358794042852
     19   S      39             5.5333500    0.700713083689

     20   L      40             3.6649800   -0.395895162119    0.236459946619
     20   L      41             0.7705450    1.215834355681    0.860618805716

     21   L      42             0.1958570    1.000000000000    1.000000000000

 C         

     22   S      43           172.2560000    0.061766907377
     22   S      44            25.9109000    0.358794042852
     22   S      45             5.5333500    0.700713083689

     23   L      46             3.6649800   -0.395895162119    0.236459946619
     23   L      47             0.7705450    1.215834355681    0.860618805716

     24   L      48             0.1958570    1.000000000000    1.000000000000

 C         

     25   S      49           172.2560000    0.061766907377
     25   S      50            25.9109000    0.358794042852
     25   S      51             5.5333500    0.700713083689

     26   L      52             3.6649800   -0.395895162119    0.236459946619
     26   L      53             0.7705450    1.215834355681    0.860618805716

     27   L      54             0.1958570    1.000000000000    1.000000000000

 C         

     28   S      55           172.2560000    0.061766907377
     28   S      56            25.9109000    0.358794042852
     28   S      57             5.5333500    0.700713083689

     29   L      58             3.6649800   -0.395895162119    0.236459946619
     29   L      59             0.7705450    1.215834355681    0.860618805716

     30   L      60             0.1958570    1.000000000000    1.000000000000

 H         

     31   S      61             5.4471780    0.156284978695
     31   S      62             0.8245472    0.904690876670

     32   S      63             0.1831916    1.000000000000

 H         

     33   S      64             5.4471780    0.156284978695
     33   S      65             0.8245472    0.904690876670

     34   S      66             0.1831916    1.000000000000

 H         

     35   S      67             5.4471780    0.156284978695
     35   S      68             0.8245472    0.904690876670

     36   S      69             0.1831916    1.000000000000

 H         

     37   S      70             5.4471780    0.156284978695
     37   S      71             0.8245472    0.904690876670

     38   S      72             0.1831916    1.000000000000

 H         

     39   S      73             5.4471780    0.156284978695
     39   S      74             0.8245472    0.904690876670

     40   S      75             0.1831916    1.000000000000

 H         

     41   S      76             5.4471780    0.156284978695
     41   S      77             0.8245472    0.904690876670

     42   S      78             0.1831916    1.000000000000

 H         

     43   S      79             5.4471780    0.156284978695
     43   S      80             0.8245472    0.904690876670

     44   S      81             0.1831916    1.000000000000

 H         

     45   S      82             5.4471780    0.156284978695
     45   S      83             0.8245472    0.904690876670

     46   S      84             0.1831916    1.000000000000

 H         

     47   S      85             5.4471780    0.156284978695
     47   S      86             0.8245472    0.904690876670

     48   S      87             0.1831916    1.000000000000

 H         

     49   S      88             5.4471780    0.156284978695
     49   S      89             0.8245472    0.904690876670

     50   S      90             0.1831916    1.000000000000

 H         

     51   S      91             5.4471780    0.156284978695
     51   S      92             0.8245472    0.904690876670

     52   S      93             0.1831916    1.000000000000

 H         

     53   S      94             5.4471780    0.156284978695
     53   S      95             0.8245472    0.904690876670

     54   S      96             0.1831916    1.000000000000

 H         

     55   S      97             5.4471780    0.156284978695
     55   S      98             0.8245472    0.904690876670

     56   S      99             0.1831916    1.000000000000

 H         

     57   S     100             5.4471780    0.156284978695
     57   S     101             0.8245472    0.904690876670

     58   S     102             0.1831916    1.000000000000

 H         

     59   S     103             5.4471780    0.156284978695
     59   S     104             0.8245472    0.904690876670

     60   S     105             0.1831916    1.000000000000

 H         

     61   S     106             5.4471780    0.156284978695
     61   S     107             0.8245472    0.904690876670

     62   S     108             0.1831916    1.000000000000

 TOTAL NUMBER OF BASIS SET SHELLS             =   62
 NUMBER OF CARTESIAN GAUSSIAN BASIS FUNCTIONS =  122
 NUMBER OF ELECTRONS                          =   76
 CHARGE OF MOLECULE                           =    0
 SPIN MULTIPLICITY                            =    1
 NUMBER OF OCCUPIED ORBITALS (ALPHA)          =   38
 NUMBER OF OCCUPIED ORBITALS (BETA )          =   38
 TOTAL NUMBER OF ATOMS                        =   26
 THE NUCLEAR REPULSION ENERGY IS      572.5440808592

 SELECTED MURRAY-HANDY-LAMING RADIAL GRID

 LEGACY BECKE'S FUZZY CELL METHOD

 SELECTED ORIGINAL BECKE'S PARTITION FUNCTION

     LEBEDEV GRID-BASED DFT OPTIONS
     ------------------------------
     DFTTYP=B3LYP   
     NRAD  =      96     NLEB  =     302
     NRAD0 =      24     NLEB0 =     110
     SWOFF =    5.00E-03 (PURE SCF -> DFT)
     SWITCH=    3.00E-04 (COARSE -> TIGHT GRID)
     THRESH=    0.00E+00 GTHRE=    1.00E+00

 GRIMME'S EMPIRICAL DISPERSION CORRECTION= F

     $CONTRL OPTIONS
     ---------------
 SCFTYP=RHF          RUNTYP=ENERGY       EXETYP=RUN     
 MPLEVL=       0     CITYP =NONE         CCTYP =NONE         VBTYP =NONE    
 DFTTYP=B3LYP        TDDFT =NONE    
 MULT  =       1     ICHARG=       0     NZVAR =       0     COORD =UNIQUE  
 PP    =NONE         RELWFN=NONE         LOCAL =NONE         NUMGRD=       F
 ISPHER=      -1     NOSYM =       0     MAXIT =      60     UNITS =ANGS    
 PLTORB=       F     MOLPLT=       F     AIMPAC=       F     FRIEND=        
 NPRINT=       7     IREST =       0     GEOM  =INPUT   
 NORMF =       0     NORMP =       0     ITOL  =      20     ICUT  =       9
 INTTYP=BEST         GRDTYP=BEST         QMTTOL= 1.0E-06

     $SYSTEM OPTIONS
     ---------------
  REPLICATED MEMORY=    30000000 WORDS (ON EVERY NODE).
 DISTRIBUTED MEMDDI=        1000 MILLION WORDS IN AGGREGATE,
 MEMDDI DISTRIBUTED OVER   6 PROCESSORS IS   166666666 WORDS/PROCESSOR.
 TOTAL MEMORY REQUESTED ON EACH PROCESSOR=   196666666 WORDS.
 TIMLIM=      525600.00 MINUTES, OR     365.0 DAYS.
 PARALL= T  BALTYP=  DLB     KDIAG=    0  COREFL= F
 MXSEQ2=     300 MXSEQ3=     150  mem10=         0

     INPUT FOR POTENTIAL-DERIVED CHARGES 
     -----------------------------------
     VDWSCL=    1.40   RMAX=    3.00   DELR=    0.80
     VDWINC=    0.20 PTDENS=    0.28
     LAYER =       4  NFREQ=      30 MAXPDC=   10000
     CONSTR=CHARGE    UNITS=ANGS      PTSEL=GEODESIC
     CENTER=  0.0000  0.0000  0.0000
     DPOLE =  0.0000  0.0000  0.0000
     QPOLE =  0.0000  0.0000  0.0000  0.0000  0.0000  0.0000


          ----------------
          PROPERTIES INPUT
          ----------------

     MOMENTS            FIELD           POTENTIAL          DENSITY
 IEMOM =       1   IEFLD =       0   IEPOT =       1   IEDEN =       0
 WHERE =COMASS     WHERE =NUCLEI     WHERE =PDC        WHERE =NUCLEI  
 OUTPUT=BOTH       OUTPUT=BOTH       OUTPUT=BOTH       OUTPUT=BOTH    
 IEMINT=       0   IEFINT=       0                     IEDINT=       0
                                                       MORB  =       0
          EXTRAPOLATION IN EFFECT
          DIIS IN EFFECT
 ORBITAL PRINTING OPTION: NPREO=     1   122     2     1

     -------------------------------
     INTEGRAL TRANSFORMATION OPTIONS
     -------------------------------
     NWORD  =            0
     CUTOFF = 1.0E-09     MPTRAN =       0
     DIRTRF =       T     AOINTS =DUP     

          ----------------------
          INTEGRAL INPUT OPTIONS
          ----------------------
 NOPK  =       1 NORDER=       0 SCHWRZ=       T

     ------------------------------------------
     THE POINT GROUP IS C1 , NAXIS= 0, ORDER= 1
     ------------------------------------------

     DIMENSIONS OF THE SYMMETRY SUBSPACES ARE
 A   =  122

 ..... DONE SETTING UP THE RUN .....
 CPU     0: STEP CPU TIME=     0.02 TOTAL CPU TIME=          0.0 (      0.0 MIN)
 TOTAL WALL CLOCK TIME=          0.0 SECONDS, CPU UTILIZATION IS    66.67%

          ********************
          1 ELECTRON INTEGRALS
          ********************
 ...... END OF ONE-ELECTRON INTEGRALS ......
 CPU     0: STEP CPU TIME=     0.02 TOTAL CPU TIME=          0.0 (      0.0 MIN)
 TOTAL WALL CLOCK TIME=          0.1 SECONDS, CPU UTILIZATION IS    80.00%

          -------------
          GUESS OPTIONS
          -------------
          GUESS =HUCKEL            NORB  =       0          NORDER=       0
          MIX   =       F          PRTMO =       F          PUNMO =       F
          TOLZ  = 1.0E-08          TOLE  = 1.0E-05
          SYMDEN=       F          PURIFY=       F

 INITIAL GUESS ORBITALS GENERATED BY HUCKEL   ROUTINE.
 HUCKEL GUESS REQUIRES    144266 WORDS.

 SYMMETRIES FOR INITIAL GUESS ORBITALS FOLLOW.   BOTH SET(S).
    38 ORBITALS ARE OCCUPIED (   10 CORE ORBITALS).
    11=A       12=A       13=A       14=A       15=A       16=A       17=A   
    18=A       19=A       20=A       21=A       22=A       23=A       24=A   
    25=A       26=A       27=A       28=A       29=A       30=A       31=A   
    32=A       33=A       34=A       35=A       36=A       37=A       38=A   
    39=A       40=A       41=A       42=A       43=A       44=A       45=A   
    46=A       47=A       48=A   
 ...... END OF INITIAL ORBITAL SELECTION ......
 CPU     0: STEP CPU TIME=     0.03 TOTAL CPU TIME=          0.1 (      0.0 MIN)
 TOTAL WALL CLOCK TIME=          0.1 SECONDS, CPU UTILIZATION IS    70.00%

                    ----------------------
                    AO INTEGRAL TECHNOLOGY
                    ----------------------
     S,P,L SHELL ROTATED AXIS INTEGRALS, REPROGRAMMED BY
        KAZUYA ISHIMURA (IMS) AND JOSE SIERRA (SYNSTAR).
     S,P,D,L SHELL ROTATED AXIS INTEGRALS PROGRAMMED BY
        KAZUYA ISHIMURA (INSTITUTE FOR MOLECULAR SCIENCE).
     S,P,D,F,G SHELL TO TOTAL QUARTET ANGULAR MOMENTUM SUM 5,
        ERIC PROGRAM BY GRAHAM FLETCHER (ELORET AND NASA ADVANCED
        SUPERCOMPUTING DIVISION, AMES RESEARCH CENTER).
     S,P,D,F,G,L SHELL GENERAL RYS QUADRATURE PROGRAMMED BY
        MICHEL DUPUIS (PACIFIC NORTHWEST NATIONAL LABORATORY).

          --------------------
          2 ELECTRON INTEGRALS
          --------------------

 DIRECT SCF METHOD SKIPS INTEGRAL STORAGE ON DISK.
 DIRECT TRANSFORMATION SKIPS AO INTEGRAL STORAGE ON DISK.
  ...... END OF TWO-ELECTRON INTEGRALS .....
 CPU     0: STEP CPU TIME=     0.02 TOTAL CPU TIME=          0.1 (      0.0 MIN)
 TOTAL WALL CLOCK TIME=          0.1 SECONDS, CPU UTILIZATION IS    75.00%

          --------------------------
             R-B3LYP SCF CALCULATION
          --------------------------

     NUCLEAR ENERGY =       572.5440808592
     MAXIT =   60     NPUNCH=    2
     EXTRAP=T  DAMP=F  SHIFT=F  RSTRCT=F  DIIS=T  DEM=F  SOSCF=F
         DENSITY MATRIX CONVERGENCE THRESHOLD=  2.00E-05
     COARSE -> FINE DFT GRID SWITCH THRESHOLD=  3.00E-04 (SWITCH IN $DFT)
                   HF -> DFT SWITCH THRESHOLD=  5.00E-03 (SWOFF IN $DFT)
     MEMORY REQUIRED FOR RHF ITERS=    997620 WORDS.

 DIRECT SCF CALCULATION, SCHWRZ=T   FDIFF=T,  DIRTHR=  0.00E+00 NITDIR=10
 SCHWARZ INEQUALITY OVERHEAD:      7375 INTEGRALS, T=        0.00

 DFT CODE IS SWITCHING FROM THE FINE GRID NRAD= 96,  NLEB=  302
                      TO THE COARSE GRID NRAD0= 24, NLEB0=  110

     EXCHANGE FUNCTIONAL   =B88&HFX   
     CORRELATION FUNCTIONAL=LYP88&VWN5
     DFT THRESHOLD         =.531E-08
     GRID CHANGE THRESHOLD =.300E-03
 FOR AN EULER-MACLAURIN QUADRATURE USING  96 RADIAL POINTS:
 SMALLEST GAUSSIAN PRIMITIVE EXPONENT=        0.1831915800 OF TYPE -S-
 ON ATOM NUMBER  11 HAS RADIAL NORMALIZATION=  1.000000
  LARGEST GAUSSIAN PRIMITIVE EXPONENT=      172.2560000000 OF TYPE -S-
 ON ATOM NUMBER   1 HAS RADIAL NORMALIZATION=  1.000000
 DFT IS SWITCHED OFF, PERFORMING PURE SCF UNTIL SWOFF THRESHOLD IS REACHED.

                                                                                   NONZERO     BLOCKS
 ITER EX DEM     TOTAL ENERGY        E CHANGE  DENSITY CHANGE    DIIS ERROR      INTEGRALS    SKIPPED
   1  0  0     -385.0514982493  -385.0514982493   0.836778213   0.567590995       22334187     711202
          * * *   INITIATING DIIS PROCEDURE   * * *
   2  1  0     -385.7749403356    -0.7234420863   0.100768285   0.053803706       22241955     736915
   3  2  0     -385.8174856161    -0.0425452805   0.114629790   0.036878827       22036713     775012
   4  3  0     -385.8356681081    -0.0181824921   0.020105384   0.005974076       21699442     826667
   5  4  0     -385.8364144907    -0.0007463826   0.005976016   0.001569459       21040585     893288
   6  5  0     -385.8364570737    -0.0000425830   0.001188772   0.000365761       20136216     970783
 CONVERGED TO SWOFF, SO DFT CALCULATION IS NOW SWITCHED ON.
          * * *   INITIATING DIIS PROCEDURE   * * *
   7  6  0     -388.2549952747    -2.4185382009   0.099930416   0.083029569       22344294     706515
   8  7  0     -388.2790309464    -0.0240356718   0.080014148   0.022536602       22044750     778471
   9  8  0     -388.2797974332    -0.0007664867   0.051464129   0.020114026       21779602     809129
  10  9  0     -388.2864309039    -0.0066334708   0.008816042   0.007627144       21546272     841103
  11 10  0     -388.2869194579    -0.0004885539   0.001739820   0.000501412       20460302     951339
  12 11  0     -388.2869221444    -0.0000026865   0.000527706   0.000297044       19241947    1046097
  13 12  0     -388.2869226029    -0.0000004586   0.000044525   0.000019890       18110029    1138088
 DFT CODE IS SWITCHING BACK TO THE FINE GRID
          * * *   INITIATING DIIS PROCEDURE   * * *
  14 13  0     -388.2893480026    -0.0024253996   0.004720654   0.002110196       22360397     700865
  15 14  0     -388.2893939767    -0.0000459741   0.002079337   0.000281141       20645100     930545
  16 15  0     -388.2893938573     0.0000001194   0.000774040   0.000342862       19265895    1040334
  17 16  0     -388.2893952083    -0.0000013510   0.000150801   0.000096377       18600976    1098043
  18 17  0     -388.2893952773    -0.0000000690   0.000044318   0.000041277       17486582    1181911
  19 18  0     -388.2893952916    -0.0000000143   0.000005960   0.000002779       16414402    1253179
  20 19  0     -388.2893952914     0.0000000003   0.000002303   0.000001029       14200875    1382019

          -----------------
          DENSITY CONVERGED
          -----------------
     TIME TO FORM FOCK OPERATORS=      40.7 SECONDS (       2.0 SEC/ITER)
     FOCK TIME ON FIRST ITERATION=       0.3, LAST ITERATION=       4.5
     TIME TO SOLVE SCF EQUATIONS=       0.4 SECONDS (       0.0 SEC/ITER)

 FINAL R-B3LYP ENERGY IS     -388.2893952914 AFTER  20 ITERATIONS
 DFT EXCHANGE + CORRELATION ENERGY =       -48.3767387298
 TOTAL ELECTRON NUMBER             =        76.0002353728

          ------------
          EIGENVECTORS
          ------------

                      1          2          3          4          5
                  -10.1268   -10.1167   -10.1163   -10.1141   -10.1086
                     A          A          A          A          A   
    1  C  1  S   -0.022659   0.106948  -0.208526   0.958191   0.007652
    2  C  1  S   -0.006083   0.016701  -0.031153   0.117447   0.000681
    3  C  1  X   -0.001807   0.000694  -0.000422   0.000511  -0.000826
    4  C  1  Y    0.000200   0.001216  -0.002646   0.002882  -0.000528
    5  C  1  Z    0.000362   0.000091  -0.000313   0.000706  -0.000534
    6  C  1  S    0.031569  -0.028250   0.043172  -0.118578  -0.007912
    7  C  1  X   -0.014894   0.000590   0.001799  -0.004230  -0.005076
    8  C  1  Y    0.008119  -0.014888   0.018981  -0.024337  -0.001090
    9  C  1  Z    0.005783  -0.003880   0.011711  -0.008708   0.001095
   10  C  2  S    0.987538   0.010634   0.016143   0.023430  -0.003828
   11  C  2  S    0.124422   0.000472   0.002467  -0.000535   0.000800
   12  C  2  X    0.000712   0.000131  -0.000709   0.000970   0.000276
   13  C  2  Y    0.000136   0.000754  -0.000031  -0.000439  -0.000425
   14  C  2  Z   -0.000406  -0.000324  -0.000124  -0.000742  -0.000458
   15  C  2  S   -0.143601   0.018225  -0.011062   0.028432  -0.005543
   16  C  2  X   -0.008233   0.017150  -0.009539   0.019081  -0.004931
   17  C  2  Y   -0.009086   0.008663   0.006170  -0.000056  -0.001486
   18  C  2  Z    0.003150  -0.001478   0.004723  -0.001220   0.003403
   19  C  3  S   -0.008670  -0.013997  -0.008070  -0.014422  -0.004637
   20  C  3  S   -0.003650  -0.003650  -0.002284  -0.003206  -0.000999
   21  C  3  X    0.001065  -0.000631  -0.000104  -0.000844   0.000061
   22  C  3  Y    0.000273  -0.001015  -0.000716   0.000113  -0.000138
   23  C  3  Z    0.001020  -0.000133  -0.000122  -0.000152   0.000007
   24  C  3  S    0.028312   0.008133   0.004249   0.006099   0.002007
   25  C  3  X    0.011331   0.002093   0.002695   0.001659   0.000881
   26  C  3  Y    0.003969   0.003930   0.002776  -0.000391   0.001092
   27  C  3  Z    0.007795   0.003607  -0.000462   0.001814  -0.000813
   28  C  4  S   -0.008864  -0.011977  -0.005029  -0.011047   0.006449
   29  C  4  S   -0.003587  -0.002944  -0.001335  -0.002104   0.001229
   30  C  4  X    0.000284  -0.000608  -0.000032  -0.000699   0.000234
   31  C  4  Y    0.000478  -0.000950  -0.000752  -0.000011  -0.000077
   32  C  4  Z   -0.001213   0.000456  -0.000001   0.000719  -0.000125
   33  C  4  S    0.026769   0.004768   0.001128   0.001122  -0.002781
   34  C  4  X    0.006247  -0.000797   0.001210  -0.000870  -0.000428
   35  C  4  Y    0.005280   0.003157   0.002432  -0.000661   0.000056
   36  C  4  Z   -0.011099  -0.003211   0.000454  -0.000669   0.001690
   37  C  5  S   -0.020566   0.752984   0.631716   0.051509   0.041256
   38  C  5  S   -0.004668   0.086969   0.070195   0.005769   0.001709
   39  C  5  X    0.000024   0.000469   0.000923  -0.000682  -0.001700
   40  C  5  Y    0.000118  -0.000510  -0.001059   0.000864   0.000538
   41  C  5  Z   -0.000173  -0.000156  -0.000062   0.000164  -0.000269
   42  C  5  S    0.029839  -0.093194  -0.029517  -0.014795   0.005021
   43  C  5  X   -0.006451  -0.022576   0.022979   0.003783   0.010027
   44  C  5  Y   -0.032011   0.007900  -0.005940   0.000896  -0.006258
   45  C  5  Z   -0.000493   0.006600  -0.007188  -0.001667  -0.001891
   46  C  6  S   -0.001912  -0.017205  -0.018724  -0.007766  -0.000045
   47  C  6  S   -0.000566  -0.005108  -0.005293  -0.002258  -0.000073
   48  C  6  X   -0.000173  -0.001242  -0.001392  -0.000163   0.000293
   49  C  6  Y    0.000387   0.001699   0.001474   0.000318   0.000048
   50  C  6  Z    0.000133   0.000582   0.000506   0.000098   0.000199
   51  C  6  S    0.005840   0.013413   0.024303   0.007752   0.005889
   52  C  6  X    0.008454   0.007563   0.004300   0.001830  -0.000704
   53  C  6  Y    0.002357  -0.003301  -0.012398  -0.004871  -0.003184
   54  C  6  Z   -0.002704  -0.002466  -0.002360  -0.000941  -0.001447
   55  C  7  S   -0.010631  -0.628586   0.727304   0.224866   0.025957
   56  C  7  S   -0.002011  -0.079399   0.092589   0.022099   0.002264
   57  C  7  X    0.001003   0.000016  -0.000746   0.000241   0.000934
   58  C  7  Y   -0.000083   0.002716  -0.003386   0.001340  -0.000563
   59  C  7  Z   -0.000157  -0.000251   0.000673   0.000105   0.000751
   60  C  7  S    0.000705   0.095194  -0.101573  -0.012269   0.007674
   61  C  7  X   -0.001653  -0.017194   0.003785  -0.002939   0.010835
   62  C  7  Y    0.008151  -0.018837   0.031912  -0.009478   0.000804
   63  C  7  Z    0.001940   0.007875  -0.010417   0.004309   0.009647
   64  C  8  S    0.002923  -0.015949  -0.048108  -0.024036   0.969518
   65  C  8  S    0.001112  -0.002269  -0.010567  -0.002993   0.114212
   66  C  8  X    0.000010   0.002598   0.000105   0.000604  -0.000645
   67  C  8  Y    0.000286  -0.000252   0.000180   0.000594  -0.000096
   68  C  8  Z   -0.000211   0.001216  -0.001353   0.000207  -0.001058
   69  C  8  S   -0.002158  -0.017001   0.043894  -0.003640  -0.101388
   70  C  8  X    0.001459   0.000502  -0.018547   0.000679   0.005600
   71  C  8  Y   -0.000536  -0.001818  -0.001820   0.003460   0.006775
   72  C  8  Z   -0.000411   0.006776  -0.011886   0.001371   0.007493
   73  C  9  S   -0.009983   0.006998   0.006983  -0.032823  -0.130515
   74  C  9  S   -0.002495   0.001059   0.003269  -0.006839  -0.018029
   75  C  9  X    0.001368  -0.000689   0.000405  -0.001010   0.000286
   76  C  9  Y   -0.000445   0.000240  -0.000972  -0.000009   0.000539
   77  C  9  Z    0.000365  -0.000491   0.000744  -0.001175  -0.000133
   78  C  9  S    0.000718   0.006644  -0.027057   0.035101   0.038103
   79  C  9  X   -0.002000  -0.000525   0.008640  -0.012168   0.000356
   80  C  9  Y    0.001437   0.001019  -0.007928   0.003730   0.014455
   81  C  9  Z    0.000600  -0.002829   0.005522  -0.010975  -0.000732
   82  C 10  S   -0.010883  -0.006130  -0.025277  -0.033527  -0.120864
   83  C 10  S   -0.003106  -0.001556  -0.005357  -0.005868  -0.016144
   84  C 10  X    0.000791   0.000723   0.000783  -0.000612  -0.000490
   85  C 10  Y    0.000726  -0.002142   0.002125  -0.001590  -0.000233
   86  C 10  Z   -0.000806  -0.001090   0.000310   0.001259  -0.001028
   87  C 10  S    0.003882  -0.008955   0.020340   0.031856   0.017886
   88  C 10  X   -0.000735  -0.005471  -0.001640  -0.004651   0.001907
   89  C 10  Y    0.000839  -0.007404   0.011662  -0.008133   0.000260
   90  C 10  Z    0.002379  -0.002243   0.008436   0.009476   0.006939
   91  H 11  S   -0.001306  -0.000350   0.000653  -0.000507   0.000234
   92  H 11  S    0.000058  -0.003257   0.004715   0.009043   0.001350
   93  H 12  S   -0.001296  -0.000143  -0.000151  -0.000129   0.000077
   94  H 12  S   -0.000098   0.001936   0.001901  -0.001595   0.000097
   95  H 13  S   -0.001455  -0.000632  -0.000295  -0.000335  -0.000093
   96  H 13  S   -0.000049  -0.001696  -0.000526   0.000825  -0.000221
   97  H 14  S   -0.001627  -0.000799  -0.000635  -0.000251  -0.000178
   98  H 14  S   -0.001611   0.000318  -0.001554  -0.000461  -0.001156
   99  H 15  S   -0.001677  -0.000794  -0.000594   0.000454   0.000203
  100  H 15  S   -0.001335   0.001503  -0.000345  -0.001193  -0.000686
  101  H 16  S   -0.001295  -0.000366  -0.000061  -0.000206   0.000043
  102  H 16  S    0.000272  -0.001403  -0.000995   0.000728  -0.000123
  103  H 17  S   -0.001322  -0.000029   0.000117  -0.000274   0.000128
  104  H 17  S   -0.000187   0.001446   0.001615  -0.000341   0.000458
  105  H 18  S    0.000801  -0.000239  -0.001262  -0.000549  -0.000364
  106  H 18  S    0.003584   0.001272  -0.000513   0.000192  -0.000798
  107  H 19  S   -0.001047  -0.001088  -0.000297  -0.000031   0.000197
  108  H 19  S   -0.001560  -0.001130   0.001951   0.000791   0.000839
  109  H 20  S   -0.000930  -0.000130  -0.001304   0.000574  -0.001101
  110  H 20  S   -0.001976  -0.003872   0.001957   0.009021  -0.000476
  111  H 21  S    0.000006   0.001213  -0.001142   0.000223   0.000749
  112  H 21  S   -0.000255   0.003156   0.002820   0.000155   0.015452
  113  H 22  S    0.000433  -0.000083  -0.002825   0.000121   0.000433
  114  H 22  S    0.000365   0.000341  -0.000572  -0.001125   0.014247
  115  H 23  S    0.000015   0.000084   0.001600  -0.001717  -0.001547
  116  H 23  S   -0.001476  -0.000132  -0.000256   0.000081  -0.001689
  117  H 24  S   -0.000010  -0.000530   0.000840  -0.001353  -0.001472
  118  H 24  S    0.002508  -0.000541  -0.001311   0.000487  -0.000961
  119  H 25  S   -0.000301   0.000932  -0.000727  -0.001471  -0.000827
  120  H 25  S    0.001597   0.002954   0.001229  -0.000630  -0.002531
  121  H 26  S   -0.000117  -0.000212  -0.001383  -0.001619  -0.000081
  122  H 26  S   -0.000381  -0.000729   0.000294  -0.000467   0.001467

                      6          7          8          9         10
                  -10.1072   -10.1062   -10.1003   -10.0996   -10.0963
                     A          A          A          A          A   
    1  C  1  S    0.016345   0.040154   0.007087   0.016676   0.005425
    2  C  1  S    0.001352   0.003018  -0.000100   0.000433  -0.000509
    3  C  1  X    0.000138   0.000509   0.000866   0.000928  -0.000045
    4  C  1  Y    0.001124   0.000436  -0.000075   0.000013  -0.000308
    5  C  1  Z   -0.000384   0.000349   0.000955  -0.000340  -0.000097
    6  C  1  S    0.010499   0.017500   0.002095  -0.000646   0.002916
    7  C  1  X   -0.000862   0.009222  -0.003470  -0.003589  -0.000065
    8  C  1  Y    0.006494  -0.001144   0.001446  -0.000385   0.003042
    9  C  1  Z   -0.012846   0.006042  -0.003846  -0.000847   0.001226
   10  C  2  S    0.007567   0.012919   0.003684   0.012322   0.002825
   11  C  2  S   -0.000245  -0.000334   0.000338   0.000671   0.000302
   12  C  2  X    0.000027  -0.001750  -0.000184  -0.000229   0.000292
   13  C  2  Y   -0.000535  -0.000321  -0.000244  -0.000209  -0.000506
   14  C  2  Z    0.001659  -0.000439   0.000187  -0.000120  -0.000154
   15  C  2  S   -0.001786  -0.000641   0.002027   0.012999  -0.000730
   16  C  2  X   -0.003590   0.007754  -0.006449  -0.005508   0.000208
   17  C  2  Y    0.000081   0.003156   0.000398  -0.006699   0.000723
   18  C  2  Z   -0.009513   0.001793  -0.014819   0.007130   0.000038
   19  C  3  S    0.008561  -0.020774   0.872183   0.459433   0.005688
   20  C  3  S    0.002087  -0.003719   0.100776   0.050398   0.000518
   21  C  3  X   -0.000137  -0.000321   0.000137   0.000189  -0.000020
   22  C  3  Y   -0.000369   0.000071  -0.000195   0.000244  -0.000300
   23  C  3  Z    0.000013   0.000162   0.000815  -0.000919  -0.000028
   24  C  3  S   -0.007232   0.008541  -0.082560  -0.035866  -0.000193
   25  C  3  X   -0.003719   0.003236  -0.002875  -0.001150   0.000305
   26  C  3  Y    0.000523  -0.000279  -0.000204  -0.000582   0.000707
   27  C  3  Z   -0.002063   0.001673  -0.004669   0.002999   0.000211
   28  C  4  S   -0.013714  -0.014796  -0.460582   0.871688   0.008082
   29  C  4  S   -0.002914  -0.002346  -0.054688   0.098388   0.000739
   30  C  4  X    0.000078  -0.000494   0.000587   0.000193   0.000078
   31  C  4  Y    0.000113  -0.000159   0.000173   0.000129  -0.000312
   32  C  4  Z    0.000034   0.000136   0.001057   0.000227  -0.000027
   33  C  4  S    0.008266   0.003605   0.048072  -0.076733  -0.000115
   34  C  4  X    0.002631   0.000063  -0.000948  -0.001647  -0.000416
   35  C  4  Y    0.001308   0.000195   0.000010  -0.001513   0.000824
   36  C  4  Z   -0.002735  -0.001224  -0.006203   0.001864  -0.000173
   37  C  5  S    0.026298   0.006202   0.008236   0.018328   0.025585
   38  C  5  S    0.000607   0.000546  -0.000173  -0.000496  -0.001592
   39  C  5  X   -0.001154  -0.000607   0.000525   0.001089   0.002290
   40  C  5  Y    0.000799   0.000729   0.000459   0.001280  -0.002932
   41  C  5  Z    0.000860   0.000183   0.001010  -0.000521  -0.000986
   42  C  5  S   -0.000011  -0.004846   0.001594   0.005320   0.027680
   43  C  5  X    0.009565   0.003171  -0.002282  -0.005732  -0.012648
   44  C  5  Y   -0.007990  -0.001405  -0.002254  -0.005823   0.015373
   45  C  5  Z   -0.002936  -0.002283  -0.001186   0.001431   0.005389
   46  C  6  S   -0.002421  -0.002490  -0.001510  -0.010450   0.985102
   47  C  6  S   -0.000763  -0.000617  -0.000141  -0.001171   0.106516
   48  C  6  X    0.000020   0.000169  -0.000056  -0.000116   0.000013
   49  C  6  Y   -0.000049   0.000031  -0.000070   0.000203  -0.000004
   50  C  6  Z   -0.000215  -0.000068   0.000140  -0.000018   0.000004
   51  C  6  S    0.008797   0.004334   0.000225  -0.000149  -0.081458
   52  C  6  X    0.002303   0.000296   0.000990   0.001542  -0.006311
   53  C  6  Y   -0.004336  -0.002580   0.001438   0.002940   0.008076
   54  C  6  Z   -0.000691   0.000083   0.000149  -0.000144   0.002684
   55  C  7  S    0.020384   0.018474   0.000938  -0.000713   0.004655
   56  C  7  S    0.001394   0.001505  -0.000142   0.000062   0.000321
   57  C  7  X    0.000302  -0.000231  -0.000010   0.000044   0.000505
   58  C  7  Y   -0.001602   0.000133  -0.000037  -0.000350  -0.000639
   59  C  7  Z   -0.000161  -0.000447  -0.000411   0.000148  -0.000228
   60  C  7  S    0.017033   0.000518   0.002061   0.001637   0.000693
   61  C  7  X    0.003694   0.000595  -0.000367  -0.001710  -0.001345
   62  C  7  Y   -0.005431   0.000719  -0.000544   0.003089   0.000633
   63  C  7  Z   -0.011311  -0.000844   0.001582   0.000904   0.000416
   64  C  8  S    0.070002   0.160621   0.007261  -0.000217  -0.000749
   65  C  8  S    0.007446   0.015232   0.000518  -0.000030  -0.000131
   66  C  8  X   -0.000116  -0.000148   0.000507  -0.000335  -0.000039
   67  C  8  Y    0.000643  -0.000524   0.000249   0.000030   0.000049
   68  C  8  Z    0.000943  -0.000051   0.000008  -0.000002   0.000068
   69  C  8  S   -0.013429   0.009787  -0.001747   0.001188   0.000914
   70  C  8  X    0.002227  -0.002813  -0.001219   0.001630  -0.000331
   71  C  8  Y    0.005080  -0.011883  -0.000777  -0.000224  -0.000785
   72  C  8  Z   -0.002979  -0.001956   0.000618  -0.000689  -0.000796
   73  C  9  S   -0.326397   0.921210   0.013835   0.018352   0.001721
   74  C  9  S   -0.041337   0.107066   0.000630   0.001127   0.000246
   75  C  9  X    0.000050  -0.000414  -0.000069   0.000703   0.000217
   76  C  9  Y   -0.000653   0.000436  -0.000209   0.000030  -0.000040
   77  C  9  Z    0.001367  -0.000529   0.000119  -0.000120   0.000085
   78  C  9  S    0.041335  -0.089465   0.003041   0.001671  -0.001873
   79  C  9  X   -0.001129   0.003446  -0.001647  -0.003300   0.000008
   80  C  9  Y    0.005572  -0.004749   0.000239  -0.000056  -0.000723
   81  C  9  Z   -0.007504   0.004895  -0.001878  -0.000445   0.000676
   82  C 10  S    0.928030   0.309674  -0.010448   0.013966   0.002202
   83  C 10  S    0.110392   0.033293  -0.000158   0.000582  -0.000050
   84  C 10  X   -0.000380  -0.000712  -0.000179   0.000332   0.000016
   85  C 10  Y   -0.000038   0.000552  -0.000011   0.000115   0.000219
   86  C 10  Z    0.002037  -0.000596   0.000237   0.000038  -0.000080
   87  C 10  S   -0.095709  -0.021723  -0.002307   0.003254   0.000308
   88  C 10  X    0.003669   0.004087   0.003157  -0.001186  -0.000601
   89  C 10  Y   -0.000702  -0.001513   0.001395   0.000191   0.000537
   90  C 10  Z   -0.013978   0.003556  -0.002611   0.001343   0.000167
   91  H 11  S   -0.000970  -0.001534  -0.000618  -0.000207   0.000121
   92  H 11  S   -0.000217   0.000076   0.000088  -0.000891   0.001260
   93  H 12  S    0.000524  -0.000501   0.000421  -0.000582  -0.000015
   94  H 12  S    0.000651  -0.000603   0.014570   0.006189   0.000624
   95  H 13  S    0.000118  -0.000242   0.000158  -0.000599  -0.000192
   96  H 13  S   -0.000475   0.000419   0.014995   0.005739   0.000074
   97  H 14  S    0.000541  -0.000325  -0.000204  -0.000303  -0.000088
   98  H 14  S   -0.000960  -0.001324   0.013475   0.009855   0.000085
   99  H 15  S   -0.000305  -0.000066  -0.000031  -0.000242  -0.000167
  100  H 15  S   -0.001278  -0.000960  -0.005156   0.014841   0.000415
  101  H 16  S   -0.000247  -0.000238  -0.000657  -0.000406  -0.000023
  102  H 16  S    0.000220   0.000059  -0.008398   0.013750  -0.000764
  103  H 17  S   -0.000636   0.000077  -0.000515  -0.000236  -0.000047
  104  H 17  S    0.000414  -0.000883  -0.009305   0.012983   0.000699
  105  H 18  S   -0.000302  -0.000275   0.000373   0.000684  -0.001841
  106  H 18  S    0.000133  -0.000506  -0.000153  -0.000391   0.013723
  107  H 19  S   -0.000228   0.000082  -0.000204  -0.000393  -0.001817
  108  H 19  S    0.001152   0.000526  -0.000760  -0.001253   0.013684
  109  H 20  S   -0.001461  -0.000626  -0.000024  -0.000374  -0.000175
  110  H 20  S   -0.001777   0.000675   0.000368  -0.000821  -0.000192
  111  H 21  S    0.000223  -0.001378   0.000173  -0.000269  -0.000057
  112  H 21  S   -0.001166   0.002694   0.001127  -0.000791   0.000217
  113  H 22  S    0.000532  -0.001464  -0.000263   0.000429  -0.000118
  114  H 22  S    0.003626   0.003604   0.000482  -0.000471   0.000619
  115  H 23  S   -0.000173  -0.000109  -0.000091  -0.000523   0.000021
  116  H 23  S   -0.002016   0.014802   0.000339  -0.000415  -0.000271
  117  H 24  S   -0.000919   0.000315  -0.000272  -0.000052   0.000084
  118  H 24  S   -0.007055   0.014313   0.000471   0.001504   0.000238
  119  H 25  S    0.000577  -0.001084  -0.000170  -0.000248   0.000023
  120  H 25  S    0.012918   0.003244  -0.001325   0.000913   0.000457
  121  H 26  S    0.000142   0.000044   0.000698  -0.000128  -0.000065
  122  H 26  S    0.013221   0.008391  -0.001798  -0.001065  -0.000234

                     11         12         13         14         15
                   -0.8749    -0.7785    -0.7465    -0.7043    -0.6776
                     A          A          A          A          A   
    1  C  1  S   -0.097565   0.014590   0.085649  -0.043577  -0.101998
    2  C  1  S    0.091103  -0.009659  -0.071244   0.037149   0.083950
    3  C  1  X    0.003396  -0.067261  -0.002912  -0.020800   0.029306
    4  C  1  Y    0.046668  -0.011667   0.012047   0.035144  -0.020067
    5  C  1  Z    0.007826   0.003285  -0.016489  -0.076516   0.015396
    6  C  1  S    0.211969  -0.047492  -0.246814   0.123729   0.332480
    7  C  1  X    0.014999   0.003027  -0.008493  -0.001524   0.005930
    8  C  1  Y    0.043666  -0.018690  -0.038701   0.019050   0.039010
    9  C  1  Z    0.009759  -0.004410  -0.019158   0.002124   0.015649
   10  C  2  S   -0.088700  -0.121239   0.044666   0.001068   0.008019
   11  C  2  S    0.080966   0.101429  -0.042477   0.001731  -0.003189
   12  C  2  X    0.032613  -0.045942  -0.000469   0.026215   0.070915
   13  C  2  Y    0.017012   0.002453   0.067702   0.004701   0.009389
   14  C  2  Z   -0.008024   0.007993   0.002090  -0.066855   0.010833
   15  C  2  S    0.211895   0.349020  -0.109914  -0.013102  -0.059417
   16  C  2  X   -0.004293  -0.005150   0.016704   0.007245  -0.024149
   17  C  2  Y    0.008250   0.015962   0.009384   0.001142  -0.009003
   18  C  2  Z   -0.011927  -0.003821   0.000081  -0.016800   0.005670
   19  C  3  S   -0.031343  -0.090254   0.044035  -0.023622   0.091648
   20  C  3  S    0.036286   0.091603  -0.043366   0.020542  -0.085742
   21  C  3  X    0.019471   0.023455  -0.011622   0.010816   0.012257
   22  C  3  Y    0.006453   0.008478   0.010820   0.001784   0.003683
   23  C  3  Z    0.012941   0.031478  -0.010734  -0.012524  -0.002052
   24  C  3  S    0.041679   0.205751  -0.107129   0.073358  -0.279826
   25  C  3  X   -0.009775  -0.005895  -0.001685   0.011186   0.004740
   26  C  3  Y   -0.007979  -0.004955   0.003343  -0.001834   0.002368
   27  C  3  Z   -0.007040  -0.000928   0.002593  -0.001812  -0.011087
   28  C  4  S   -0.031049  -0.086304   0.049404   0.071796   0.028934
   29  C  4  S    0.034050   0.087765  -0.048232  -0.067648  -0.028152
   30  C  4  X    0.010439   0.003415  -0.006214  -0.002882   0.017130
   31  C  4  Y    0.008947   0.014656   0.007610  -0.004540   0.002878
   32  C  4  Z   -0.019590  -0.037141   0.016827  -0.002626   0.005665
   33  C  4  S    0.054200   0.199335  -0.125239  -0.205306  -0.084971
   34  C  4  X   -0.000370  -0.006585  -0.004247  -0.005281   0.016469
   35  C  4  Y   -0.004245  -0.002495   0.003178   0.000074   0.001548
   36  C  4  Z    0.004792   0.002570   0.001394   0.003519   0.006528
   37  C  5  S   -0.082584  -0.060360  -0.126196   0.014417  -0.038881
   38  C  5  S    0.092140   0.064137   0.131249  -0.015013   0.036668
   39  C  5  X    0.024796  -0.062769  -0.012597   0.035733  -0.078760
   40  C  5  Y   -0.027054  -0.014234   0.090796  -0.033947   0.049971
   41  C  5  Z   -0.009846   0.013827   0.010684  -0.040738   0.028706
   42  C  5  S    0.120311   0.112394   0.254498  -0.032426   0.130835
   43  C  5  X   -0.016102   0.044593  -0.016153   0.001520   0.018686
   44  C  5  Y    0.016027   0.007215  -0.007612  -0.011393  -0.025696
   45  C  5  Z    0.005553  -0.012740   0.000851  -0.014071  -0.005135
   46  C  6  S   -0.029160  -0.049197  -0.120793   0.043285  -0.093419
   47  C  6  S    0.033497   0.051832   0.129364  -0.045475   0.099842
   48  C  6  X    0.018110   0.013787   0.054061  -0.009369   0.014880
   49  C  6  Y   -0.023740  -0.034664  -0.053297   0.015867  -0.027885
   50  C  6  Z   -0.007754  -0.007945  -0.021890  -0.000186  -0.006789
   51  C  6  S    0.033602   0.125114   0.274195  -0.104993   0.255776
   52  C  6  X   -0.001708  -0.010895   0.022347  -0.002272   0.002677
   53  C  6  Y    0.009627  -0.032084  -0.002025   0.007500  -0.011505
   54  C  6  Z    0.001718  -0.000645  -0.006578  -0.002820  -0.002624
   55  C  7  S   -0.099146   0.055304  -0.083187  -0.025734   0.094623
   56  C  7  S    0.086872  -0.047265   0.066470   0.023682  -0.078662
   57  C  7  X   -0.019198  -0.038747  -0.043921  -0.029356  -0.041716
   58  C  7  Y   -0.045115   0.028428   0.026178  -0.027402  -0.006214
   59  C  7  Z    0.007053  -0.003817   0.014188  -0.075124  -0.019218
   60  C  7  S    0.249464  -0.165906   0.260799   0.068031  -0.312506
   61  C  7  X   -0.021221   0.019375  -0.024464  -0.008568   0.008190
   62  C  7  Y   -0.064227   0.023502  -0.031004  -0.006822   0.045786
   63  C  7  Z    0.017150  -0.012504   0.021470  -0.002010  -0.015628
   64  C  8  S   -0.064849   0.080141  -0.005460   0.109757   0.088202
   65  C  8  S    0.068302  -0.076909   0.009591  -0.100450  -0.081751
   66  C  8  X   -0.028608   0.008809  -0.015035  -0.006999   0.002435
   67  C  8  Y   -0.015232   0.017003   0.039639   0.030356  -0.054374
   68  C  8  Z   -0.027252   0.022020  -0.010351  -0.025141   0.019637
   69  C  8  S    0.110156  -0.188001  -0.013206  -0.306581  -0.244497
   70  C  8  X    0.011353   0.000947   0.021232   0.007331  -0.004194
   71  C  8  Y   -0.000813   0.004902   0.008870   0.004136  -0.009966
   72  C  8  Z    0.002549   0.009472   0.009911   0.003363   0.002273
   73  C  9  S   -0.065599   0.066038   0.067575   0.102872  -0.068311
   74  C  9  S    0.067260  -0.062654  -0.066780  -0.092335   0.063281
   75  C  9  X   -0.021633  -0.008262   0.018483  -0.019604  -0.031626
   76  C  9  Y    0.026646  -0.028932   0.011596  -0.027726  -0.053367
   77  C  9  Z   -0.025417   0.014524   0.017221  -0.033383  -0.029531
   78  C  9  S    0.124490  -0.161162  -0.147795  -0.299511   0.189906
   79  C  9  X    0.003829   0.000061  -0.012092   0.007236   0.000034
   80  C  9  Y    0.002721  -0.004916   0.008880  -0.011859  -0.013220
   81  C  9  Z    0.000116   0.012212   0.000123   0.006402  -0.005464
   82  C 10  S   -0.084443   0.051497   0.008486  -0.123013  -0.003113
   83  C 10  S    0.086845  -0.047643  -0.007280   0.107640   0.004108
   84  C 10  X   -0.015853  -0.018745  -0.001339  -0.025371  -0.014054
   85  C 10  Y    0.001267  -0.006104   0.044924  -0.000205  -0.064099
   86  C 10  Z    0.051408  -0.025576  -0.003033   0.000339   0.000619
   87  C 10  S    0.134572  -0.119873  -0.022834   0.358801   0.008277
   88  C 10  X   -0.000682  -0.004219   0.001874  -0.019542   0.006734
   89  C 10  Y   -0.000905   0.000577  -0.004941   0.002629  -0.003155
   90  C 10  Z   -0.005805  -0.008309  -0.005273   0.028919  -0.000904
   91  H 11  S    0.032878  -0.001024  -0.047208   0.023558   0.061513
   92  H 11  S    0.006517   0.000635  -0.025303   0.010669   0.027616
   93  H 12  S    0.012557   0.042774  -0.026508   0.010465  -0.054699
   94  H 12  S   -0.004346  -0.000868  -0.008101  -0.000861  -0.008876
   95  H 13  S    0.013548   0.045245  -0.018844   0.007799  -0.054944
   96  H 13  S   -0.001867   0.004430   0.002498  -0.001672  -0.007694
   97  H 14  S    0.015421   0.040815  -0.020261   0.020719  -0.050450
   98  H 14  S    0.003762  -0.003592   0.002285   0.011052  -0.009377
   99  H 15  S    0.014126   0.038038  -0.022691  -0.044600  -0.010376
  100  H 15  S    0.002593  -0.005588  -0.000930  -0.011984  -0.000915
  101  H 16  S    0.012852   0.043921  -0.022525  -0.039912  -0.021741
  102  H 16  S   -0.002220   0.003119   0.002609  -0.008804  -0.002786
  103  H 17  S    0.012381   0.040247  -0.028862  -0.037655  -0.018225
  104  H 17  S   -0.002715  -0.000231  -0.007995  -0.004357  -0.003437
  105  H 18  S    0.010949   0.022181   0.053102  -0.023834   0.053700
  106  H 18  S   -0.000793  -0.002822   0.006480  -0.006131   0.007917
  107  H 19  S    0.010279   0.019407   0.057253  -0.021802   0.050689
  108  H 19  S   -0.005150   0.008441   0.002738  -0.005757   0.010037
  109  H 20  S    0.032599  -0.022054   0.046011   0.010238  -0.059033
  110  H 20  S    0.012331  -0.007914   0.022765   0.002813  -0.030870
  111  H 21  S    0.022749  -0.037771   0.002190  -0.059851  -0.055854
  112  H 21  S   -0.009079  -0.002767  -0.007792  -0.008380  -0.013549
  113  H 22  S    0.024604  -0.032712   0.009243  -0.064584  -0.052347
  114  H 22  S   -0.004096   0.001671   0.002725  -0.015337  -0.009121
  115  H 23  S    0.023484  -0.024023  -0.036661  -0.063727   0.041316
  116  H 23  S   -0.004173   0.005562  -0.006042  -0.019160   0.007651
  117  H 24  S    0.023883  -0.031721  -0.034816  -0.053990   0.042685
  118  H 24  S   -0.007225  -0.002922   0.002210  -0.005815   0.008069
  119  H 25  S    0.031740  -0.029215  -0.008222   0.056854   0.001211
  120  H 25  S   -0.005789  -0.007349  -0.005707   0.010331  -0.003583
  121  H 26  S    0.031935  -0.015145  -0.000488   0.073640   0.000494
  122  H 26  S   -0.007126   0.009167  -0.000020   0.020087  -0.002528

                     16         17         18         19         20
                   -0.6702    -0.6156    -0.5615    -0.5449    -0.4902
                     A          A          A          A          A   
    1  C  1  S    0.010588   0.025894  -0.044293  -0.101346   0.015227
    2  C  1  S   -0.009433  -0.020518   0.035972   0.088148  -0.004194
    3  C  1  X   -0.007934   0.077840  -0.068229  -0.026411  -0.095463
    4  C  1  Y    0.019163  -0.018756   0.010396  -0.101555  -0.129849
    5  C  1  Z   -0.005979  -0.054138  -0.066976   0.000245  -0.020596
    6  C  1  S   -0.034109  -0.103164   0.171064   0.396453  -0.094263
    7  C  1  X   -0.000442   0.013900  -0.017583  -0.010675  -0.051108
    8  C  1  Y    0.001267  -0.039223   0.022374  -0.023968  -0.139600
    9  C  1  Z    0.003038  -0.017221  -0.019393   0.005233  -0.036450
   10  C  2  S   -0.005658   0.080759  -0.048991   0.045101  -0.057937
   11  C  2  S    0.005549  -0.068136   0.041386  -0.036968   0.044426
   12  C  2  X    0.030604  -0.090700   0.022348   0.039150  -0.052308
   13  C  2  Y   -0.008246  -0.052900  -0.022370  -0.138198  -0.065594
   14  C  2  Z    0.106048   0.019712  -0.016144  -0.019681  -0.012865
   15  C  2  S    0.018799  -0.282785   0.179723  -0.192272   0.264798
   16  C  2  X    0.017165  -0.040985   0.005477   0.008636  -0.011134
   17  C  2  Y    0.001137  -0.023105  -0.004563  -0.085749  -0.036275
   18  C  2  Z    0.023089   0.018008  -0.008057  -0.008511  -0.014850
   19  C  3  S    0.135549  -0.054431   0.037821  -0.017475   0.027997
   20  C  3  S   -0.127451   0.048237  -0.034610   0.015176  -0.023799
   21  C  3  X    0.007342  -0.046642   0.049848  -0.012662   0.089732
   22  C  3  Y   -0.002656  -0.016105   0.003936  -0.060056  -0.007535
   23  C  3  Z    0.023194  -0.018041   0.028552  -0.026190   0.065735
   24  C  3  S   -0.406825   0.193393  -0.140814   0.069617  -0.122479
   25  C  3  X    0.002540  -0.004842   0.027407   0.002891   0.049053
   26  C  3  Y   -0.001417  -0.000969  -0.001549  -0.030719  -0.005739
   27  C  3  Z    0.007965   0.001370   0.009056  -0.013151   0.036224
   28  C  4  S   -0.143100  -0.070239   0.017667  -0.016513   0.019537
   29  C  4  S    0.134485   0.064971  -0.015333   0.014194  -0.016211
   30  C  4  X    0.004687  -0.038626   0.010226   0.000075   0.024597
   31  C  4  Y   -0.002169  -0.023581   0.010895  -0.059184  -0.006044
   32  C  4  Z    0.021831   0.040263  -0.035638   0.017568  -0.085630
   33  C  4  S    0.432086   0.234314  -0.072204   0.066170  -0.088176
   34  C  4  X   -0.003517  -0.015040  -0.000738   0.005951   0.011552
   35  C  4  Y   -0.001108  -0.005171   0.008513  -0.026495  -0.009770
   36  C  4  Z    0.004989   0.010305  -0.011530   0.003424  -0.045560
   37  C  5  S    0.007013   0.051873   0.035889   0.045295  -0.002422
   38  C  5  S   -0.007080  -0.050869  -0.034326  -0.045901   0.001824
   39  C  5  X    0.043361  -0.074574  -0.087338   0.079934  -0.030735
   40  C  5  Y   -0.029485   0.118530  -0.027600   0.112731   0.047984
   41  C  5  Z   -0.001130   0.024258   0.041116  -0.002676  -0.014175
   42  C  5  S   -0.027335  -0.133800  -0.100409  -0.138992   0.011493
   43  C  5  X    0.001324  -0.040252  -0.027352   0.013361  -0.002158
   44  C  5  Y   -0.004202   0.046853   0.002814   0.053988   0.051931
   45  C  5  Z    0.003416   0.011405   0.017972   0.007131  -0.010870
   46  C  6  S    0.039527  -0.090603  -0.045134  -0.033365   0.015056
   47  C  6  S   -0.041751   0.094325   0.046518   0.033981  -0.013641
   48  C  6  X   -0.002716  -0.015340  -0.049664   0.017221   0.049767
   49  C  6  Y    0.008987   0.020950   0.010856   0.080706  -0.021093
   50  C  6  Z    0.005932   0.004879   0.021041   0.004492  -0.026292
   51  C  6  S   -0.103700   0.245334   0.136638   0.097403  -0.065110
   52  C  6  X    0.002890  -0.008448  -0.031839   0.019554   0.016924
   53  C  6  Y    0.004925   0.010772   0.002242   0.048802  -0.013074
   54  C  6  Z    0.004143   0.002073   0.015325   0.000371  -0.013003
   55  C  7  S   -0.038304   0.019025   0.077313  -0.071112  -0.015356
   56  C  7  S    0.031846  -0.013714  -0.063829   0.064653   0.020065
   57  C  7  X   -0.007067   0.066677   0.085280   0.026131   0.017187
   58  C  7  Y   -0.008108  -0.000408  -0.045299   0.089609   0.174676
   59  C  7  Z   -0.022837  -0.061205   0.047381   0.040406  -0.066943
   60  C  7  S    0.129102  -0.091414  -0.311742   0.279123   0.040126
   61  C  7  X   -0.008304   0.027305   0.042998   0.004476   0.030341
   62  C  7  Y   -0.022141   0.035078   0.013709   0.037746   0.143387
   63  C  7  Z    0.005465  -0.022755   0.009593   0.019871  -0.055316
   64  C  8  S    0.030190  -0.002075  -0.110519   0.006037  -0.001752
   65  C  8  S   -0.027271   0.001051   0.095180  -0.006808   0.000145
   66  C  8  X   -0.012203   0.035553   0.061384  -0.032215   0.091381
   67  C  8  Y    0.025675  -0.015887   0.060306   0.079927   0.057967
   68  C  8  Z   -0.016743  -0.011021   0.041238  -0.035767   0.069863
   69  C  8  S   -0.098561   0.011087   0.435065  -0.019468   0.017495
   70  C  8  X   -0.001251   0.008325   0.005553  -0.016319   0.055456
   71  C  8  Y    0.003895  -0.006476   0.011286   0.036426   0.040564
   72  C  8  Z    0.001562  -0.012536  -0.001199  -0.015040   0.043383
   73  C  9  S    0.053638  -0.018856   0.098992   0.044343  -0.020799
   74  C  9  S   -0.049722   0.017122  -0.085232  -0.039105   0.016678
   75  C  9  X   -0.015477   0.037625  -0.008017  -0.071748   0.064748
   76  C  9  Y   -0.002519  -0.008700   0.092914  -0.026717  -0.109167
   77  C  9  Z   -0.003603  -0.009393  -0.023253  -0.056481   0.097524
   78  C  9  S   -0.153900   0.066680  -0.389108  -0.177679   0.104258
   79  C  9  X   -0.010875   0.015749   0.007627  -0.025859   0.030115
   80  C  9  Y    0.002168   0.001651   0.019293  -0.024011  -0.063984
   81  C  9  Z    0.001475  -0.013961   0.003457  -0.019435   0.059603
   82  C 10  S   -0.039219  -0.106434  -0.024081   0.070758  -0.015537
   83  C 10  S    0.036353   0.092558   0.020989  -0.062853   0.013479
   84  C 10  X    0.000894   0.052753  -0.000921  -0.014258  -0.002753
   85  C 10  Y    0.021752  -0.006199  -0.069613  -0.021154   0.039715
   86  C 10  Z    0.002868  -0.053685  -0.020810   0.065312  -0.163355
   87  C 10  S    0.110647   0.378702   0.095662  -0.288911   0.094971
   88  C 10  X    0.004617   0.021199   0.000879   0.004264  -0.019001
   89  C 10  Y    0.005640  -0.004448  -0.021967  -0.009486   0.025090
   90  C 10  Z   -0.000613   0.013571  -0.001902   0.005987  -0.093151
   91  H 11  S   -0.013696  -0.003387   0.040971   0.123390   0.066557
   92  H 11  S   -0.006670  -0.002842   0.022867   0.070990   0.029447
   93  H 12  S   -0.077606   0.045701  -0.033068   0.045531  -0.026420
   94  H 12  S   -0.011495   0.020536  -0.012948   0.035784  -0.012226
   95  H 13  S   -0.079398   0.047122  -0.040666  -0.001273  -0.057755
   96  H 13  S   -0.011503   0.023444  -0.014790  -0.002641  -0.041164
   97  H 14  S   -0.086828   0.035369  -0.030980   0.011563  -0.039399
   98  H 14  S   -0.017401   0.013122  -0.011207  -0.000483  -0.015927
   99  H 15  S    0.090049   0.043520  -0.023585   0.007575  -0.040793
  100  H 15  S    0.019019   0.010858  -0.012396   0.000727  -0.022985
  101  H 16  S    0.081363   0.061107  -0.017959   0.001687  -0.040708
  102  H 16  S    0.008089   0.026440  -0.010724  -0.001835  -0.030710
  103  H 17  S    0.083314   0.056001  -0.017460   0.043232  -0.010217
  104  H 17  S    0.010761   0.021857  -0.009105   0.033364  -0.002898
  105  H 18  S   -0.023567   0.069846   0.057812   0.014020  -0.043214
  106  H 18  S   -0.004902   0.031192   0.025169   0.009258  -0.037528
  107  H 19  S   -0.022295   0.069133   0.031859   0.066542  -0.012194
  108  H 19  S   -0.006628   0.026857   0.013939   0.040335   0.000297
  109  H 20  S    0.021307   0.004223  -0.069291   0.091746   0.116972
  110  H 20  S    0.012127   0.000647  -0.037638   0.049293   0.066904
  111  H 21  S   -0.019114   0.016036   0.105582  -0.009174   0.052401
  112  H 21  S   -0.001911   0.014944   0.051692  -0.006129   0.043964
  113  H 22  S   -0.018197  -0.009391   0.095567  -0.001956   0.036567
  114  H 22  S   -0.002315  -0.002849   0.042331   0.000291   0.025599
  115  H 23  S   -0.027028   0.007863  -0.094504  -0.039540   0.076287
  116  H 23  S    0.001207   0.005080  -0.045773  -0.018486   0.049979
  117  H 24  S   -0.035522   0.029356  -0.087271  -0.046522   0.061758
  118  H 24  S   -0.005208   0.017531  -0.039085  -0.027148   0.048973
  119  H 25  S    0.020304   0.097332   0.025655  -0.067323   0.038454
  120  H 25  S    0.000551   0.041023   0.012505  -0.036732   0.038126
  121  H 26  S    0.020941   0.072256   0.018934  -0.074850   0.089399
  122  H 26  S   -0.003226   0.033203   0.006593  -0.037035   0.058286

                     21         22         23         24         25
                   -0.4857    -0.4718    -0.4346    -0.4299    -0.4112
                     A          A          A          A          A   
    1  C  1  S    0.030976  -0.030394  -0.006882   0.024198   0.012987
    2  C  1  S   -0.024922   0.026894   0.006148  -0.020376  -0.007293
    3  C  1  X   -0.006256   0.114489  -0.029720  -0.006901  -0.055757
    4  C  1  Y    0.048487  -0.088514   0.020983   0.070210   0.047888
    5  C  1  Z    0.083735  -0.038569  -0.093967  -0.015278   0.068881
    6  C  1  S   -0.140770   0.130364   0.023882  -0.111977  -0.082900
    7  C  1  X    0.008051   0.074480  -0.018997  -0.001090  -0.036641
    8  C  1  Y    0.023500  -0.053794   0.008932   0.053935   0.018737
    9  C  1  Z    0.045562  -0.027963  -0.058815  -0.004453   0.041992
   10  C  2  S   -0.078564   0.004551   0.008452  -0.016370  -0.009782
   11  C  2  S    0.066066  -0.004463  -0.008099   0.014328   0.005645
   12  C  2  X   -0.052415  -0.095316   0.003235  -0.056523   0.114603
   13  C  2  Y   -0.041541   0.056957   0.056410  -0.113299  -0.028162
   14  C  2  Z    0.032011   0.041018  -0.142254  -0.024820   0.006848
   15  C  2  S    0.342105  -0.016720  -0.037589   0.062666   0.055947
   16  C  2  X   -0.021986  -0.090325  -0.003339  -0.039060   0.106743
   17  C  2  Y   -0.012756   0.023905   0.046363  -0.098795  -0.028092
   18  C  2  Z    0.022265   0.035419  -0.127905  -0.026980   0.003632
   19  C  3  S    0.015009   0.002845   0.010236   0.004569  -0.007977
   20  C  3  S   -0.012509  -0.001295  -0.007033  -0.002568   0.006486
   21  C  3  X    0.034538  -0.038621   0.096081   0.052413   0.072631
   22  C  3  Y    0.005217   0.029832   0.077362  -0.121148  -0.058979
   23  C  3  Z    0.104741   0.062549  -0.035729   0.101408  -0.161438
   24  C  3  S   -0.075193  -0.018326  -0.057050  -0.030743   0.043824
   25  C  3  X    0.007260  -0.027455   0.060965   0.023446   0.053573
   26  C  3  Y    0.002383   0.016544   0.051707  -0.087029  -0.036779
   27  C  3  Z    0.059054   0.032242  -0.026217   0.069238  -0.122630
   28  C  4  S    0.025702   0.001456  -0.018499  -0.002284  -0.005434
   29  C  4  S   -0.021326   0.000732   0.013591   0.002423   0.005111
   30  C  4  X    0.012202  -0.064274  -0.111288  -0.061072   0.202441
   31  C  4  Y    0.031649   0.049037  -0.037206  -0.120138  -0.067404
   32  C  4  Z   -0.126786  -0.036098   0.099343  -0.114427   0.060112
   33  C  4  S   -0.120923  -0.016822   0.101744   0.007041   0.026268
   34  C  4  X    0.000240  -0.044243  -0.075099  -0.055975   0.146010
   35  C  4  Y    0.013929   0.030963  -0.020011  -0.085931  -0.047908
   36  C  4  Z   -0.066394  -0.011748   0.060792  -0.076376   0.052466
   37  C  5  S    0.079588  -0.051212   0.005964  -0.021428  -0.015955
   38  C  5  S   -0.077749   0.054317  -0.007298   0.023646   0.016713
   39  C  5  X   -0.024455  -0.105449   0.012881   0.060944  -0.096880
   40  C  5  Y   -0.082922   0.041246  -0.056197   0.118824   0.046528
   41  C  5  Z   -0.003075   0.049620  -0.098618  -0.020300   0.033196
   42  C  5  S   -0.302524   0.181443  -0.030234   0.073415   0.065936
   43  C  5  X   -0.043990  -0.058429   0.012049   0.046838  -0.056974
   44  C  5  Y    0.006106   0.018835  -0.044913   0.061810   0.038304
   45  C  5  Z    0.008253   0.027765  -0.070815  -0.017239   0.017246
   46  C  6  S   -0.038694   0.034910  -0.002998  -0.002601  -0.007733
[...]
   1622   -2.64503   -8.21096    1.02954        -8.674109       8.677197       0.003088
   1623   -1.72992   -8.41623    2.64785        -8.375314       8.377846       0.002532
   1624   -5.26351   -6.59265    5.26633        -7.764218       7.764729       0.000511
   1625   -4.47526   -7.85066    4.12853        -7.722905       7.724730       0.001825
   1626   -4.12572   -5.80440    6.52433        -7.956760       7.956457      -0.000303
   1627   -3.56015   -7.28509    5.60922        -7.760456       7.761573       0.001118
   1628   -2.64503   -8.21096    4.26616        -7.896158       7.898272       0.002114
   1629   -7.64920    6.49325    0.44135        -7.723380       7.722253      -0.001127
   1630   -8.21477    5.01257   -0.47377        -8.014540       8.013449      -0.001091
   1631   -8.19627    3.53188   -1.02791        -8.574077       8.573296      -0.000781
   1632   -5.81897    5.36211    5.23295        -8.056101       8.053728      -0.002373
   1633   -6.95676    6.15036    3.97495        -7.643460       7.643178      -0.000283
   1634   -7.64920    6.49325    2.27158        -7.539026       7.539200       0.000174
   1635   -7.29965    4.44699    4.66738        -7.876852       7.877292       0.000440
   1636   -8.21477    5.01257    3.18669        -7.616776       7.618201       0.001424
   1637   -8.19627    3.53188    3.74083        -7.949615       7.951729       0.002114
   1638   -8.78034    3.53188    2.27158        -7.930859       7.933339       0.002480
   1639   -8.57507    5.15019    1.35646        -7.665864       7.666868       0.001003
   1640   -8.78034    3.53188    0.44135        -8.153381       8.154875       0.001495
   1641   -8.21477    2.05119    3.18669        -8.506964       8.510227       0.003263
   1642   -8.57507    1.91357    1.35646        -8.689891       8.693260       0.003369
   1643   -7.29965    2.61676    4.66738        -8.447398       8.448838       0.001440
   1644   -5.95659    3.53188    5.59326        -8.513410       8.511373      -0.002038
   1645   -0.25270    7.59678    4.57822        -8.465675       8.461187      -0.004488
   1646   -1.73339    8.15093    4.55972        -8.003185       7.999744      -0.003441
   1647    2.14310    7.24724    2.53196        -9.375695       9.373469      -0.002226
   1648    1.57753    8.72793    1.61685        -8.381335       8.381961       0.000626
   1649    0.65098    9.62455    0.70173        -7.855963       7.857528       0.001565
   1650    0.88509    8.38504    3.32021        -8.318541       8.317024      -0.001516
   1651    0.09684    9.64304    2.18242        -7.696761       7.697498       0.000737
   1652   -0.81827    9.07747    3.66310        -7.747278       7.746169      -0.001109
   1653    1.57753    8.72793   -0.21338        -8.518432       8.520357       0.001926
   1654   -1.73339    8.15093   -3.15626        -8.447564       8.443644      -0.003921
   1655   -0.25270    7.59678   -3.17476        -9.055215       9.052495      -0.002720
   1656    0.09684    9.64304   -0.77896        -7.852152       7.853554       0.001401
   1657    0.88509    8.38504   -1.91675        -8.705060       8.706223       0.001163
   1658   -0.81827    9.07747   -2.25964        -8.061716       8.061141      -0.000576
   1659   -0.81827   10.20862    0.70173        -7.445656       7.447056       0.001399
   1660   -2.64850   10.20862    0.70173        -7.279039       7.279659       0.000620
   1661   -4.11776    9.62455    0.70173        -7.374172       7.373684      -0.000488
   1662   -1.73339   10.00335    2.32004        -7.363641       7.364184       0.000542
   1663   -3.56362    9.64304    2.18242        -7.350982       7.350770      -0.000211
   1664   -2.64850    9.07747    3.66310        -7.571125       7.569820      -0.001306
   1665   -3.56362    9.64304   -0.77896        -7.465093       7.464158      -0.000935
   1666   -1.73339   10.00335   -0.91658        -7.499662       7.500125       0.000463
   1667   -2.64850    9.07747   -2.25964        -7.838532       7.836285      -0.002248
   1668    5.71198    6.94338   -0.46251        -8.474177       8.475656       0.001479
   1669    4.78544    7.84000   -1.37763        -8.163580       8.165716       0.002136
   1670    5.01955    6.60049    1.24085        -9.070979       9.070602      -0.000377
   1671    4.23130    7.85850    0.10306        -8.480360       8.481698       0.001338
   1672    3.31618    7.29293    1.58374        -9.205846       9.205205      -0.000641
   1673    5.71198    6.94338   -2.29274        -8.200145       8.202263       0.002118
   1674    6.63786    5.60032   -1.37763        -8.742583       8.744269       0.001685
   1675    6.27755    5.46270   -3.20786        -8.559357       8.560955       0.001597
   1676    6.25906    3.98201   -3.76200        -9.196418       9.197223       0.000806
   1677    2.40107    6.36638   -5.23562        -8.647466       8.647022      -0.000445
   1678    3.88175    5.81224   -5.25412        -8.564411       8.564718       0.000307
   1679    5.36244    4.89713   -4.68855        -8.759461       8.760049       0.000589
   1680    2.40107    4.89713   -5.81969        -9.252444       9.250668      -0.001776
   1681    4.23130    7.85850   -2.85832        -8.057691       8.059906       0.002215
   1682    5.01955    6.60049   -3.99611        -8.212939       8.214653       0.001714
   1683    3.31618    7.29293   -4.33900        -8.226756       8.227987       0.001231
   1684    3.31618    8.42407   -1.37763        -8.242709       8.244854       0.002144
   1685    1.48595    8.42407   -1.37763        -8.696670       8.698618       0.001948
   1686    2.40107    8.21880    0.24068        -8.802650       8.804252       0.001602
   1687    0.57084    7.85850   -2.85832        -8.921756       8.921297      -0.000459
   1688    2.40107    8.21880   -2.99594        -8.275904       8.277435       0.001531
   1689    1.48595    7.29293   -4.33900        -8.625460       8.624932      -0.000528
   1690   -0.21741    6.60049   -3.99611        -9.524384       9.519423      -0.004961
   1691    0.92038    5.81224   -5.25412        -9.280347       9.277369      -0.002979
   1692    8.49680    0.53155    4.34684        -8.192663       8.192380      -0.000283
   1693    9.39342    1.44666    3.42030        -7.758376       7.759421       0.001045
   1694    8.49680    2.36178    4.34684        -7.931946       7.931906      -0.000041
   1695    9.41191   -0.03403    2.86616        -7.995725       7.996971       0.001245
   1696    9.41191    2.92735    2.86616        -7.613636       7.615050       0.001413
   1697    8.84634    4.40803    1.95104        -7.726793       7.728188       0.001395
   1698    7.91979    5.30465    1.03593        -8.083060       8.084165       0.001105
   1699    8.15390    4.06514    3.65441        -7.914014       7.914082       0.000069
   1700    7.36565    5.32315    2.51662        -8.200000       8.199907      -0.000092
   1701    8.84634    4.40803    0.12081        -7.870077       7.872209       0.002132
   1702    9.77221    3.06497    1.03593        -7.593532       7.595992       0.002461
   1703    9.97748    1.44666    1.95104        -7.640240       7.642442       0.002202
   1704    9.41191    2.92735   -0.79430        -7.889327       7.892172       0.002845
   1705    9.97748    1.44666    0.12081        -7.772525       7.775503       0.002978
   1706    9.39342    1.44666   -1.34844        -8.141495       8.144658       0.003163
   1707    9.41191   -0.03403   -0.79430        -8.305134       8.308358       0.003224
   1708    9.77221   -0.17165    1.03593        -8.005948       8.008492       0.002544
   1709    8.49680    0.53155   -2.27499        -8.855678       8.859134       0.003456
   1710    7.01611    3.27689   -2.84056        -9.364134       9.365687       0.001553
   1711    8.49680    2.36178   -2.27499        -8.539801       8.542551       0.002750
   1712    7.36565    5.32315   -0.44476        -8.497325       8.498825       0.001500
   1713    8.15390    4.06514   -1.58255        -8.387629       8.389821       0.002192
   1714    6.45054    5.88872    1.03593        -8.751878       8.752007       0.000128
   1715    3.05824   -0.57549    7.10182        -9.462692       9.463395       0.000703
   1716    4.53892   -0.02135    7.12032        -8.862807       8.862440      -0.000366
   1717    6.01961    0.89377    6.55474        -8.521549       8.520452      -0.001096
   1718    3.05824    0.89377    7.68589        -8.823609       8.823736       0.000127
   1719    4.67655    1.80888    7.48062        -8.308750       8.308494      -0.000256
   1720    6.01961    2.72400    6.55474        -8.169162       8.168375      -0.000787
   1721    3.05824    2.72400    7.68589        -8.449071       8.448567      -0.000504
   1722    4.53892    3.63911    7.12032        -8.135486       8.134961      -0.000525
   1723    3.05824    4.19325    7.10182        -8.388842       8.387579      -0.001262
   1724    5.67672    4.42736    5.86231        -8.169819       8.168800      -0.001019
   1725    4.88847    5.68537    4.72451        -8.517578       8.515825      -0.001753
   1726    3.97335    5.11980    6.20520        -8.314756       8.313373      -0.001383
   1727    2.14312    6.25094    3.24383       -10.032420      10.027406      -0.005015
   1728    3.05824    6.04567    4.86214        -8.902110       8.899103      -0.003007
   1729    1.22801    5.68537    4.72451        -9.746606       9.739358      -0.007248
   1730    2.14312    5.11980    6.20520        -8.810987       8.807746      -0.003241
   1731    1.57755    3.63911    7.12032        -8.902988       8.900326      -0.002662
   1732    0.43976    4.42736    5.86231        -9.764165       9.756037      -0.008128
   1733    0.09686    2.72400    6.55474        -9.973011       9.967108      -0.005903
   1734    1.43993    1.80888    7.48062        -9.202223       9.201118      -0.001105
   1735    2.45088   -5.10484    6.90410        -8.386804       8.388614       0.001810
   1736    3.93157   -4.55070    6.92259        -8.222016       8.223317       0.001302
   1737    5.41225   -3.63558    6.35702        -8.372869       8.372933       0.000064
   1738    2.45088   -3.63558    7.48817        -8.575548       8.577480       0.001931
   1739    4.06919   -2.72047    7.28290        -8.547336       8.548216       0.000880
   1740    2.45088   -1.80535    7.48817        -9.097429       9.099097       0.001667
   1741    3.93157   -0.89024    6.92259        -9.284670       9.284766       0.000096
   1742    4.28111   -6.59696    4.52679        -8.381200       8.381571       0.000371
   1743    5.06936   -5.33895    5.66459        -8.213510       8.213944       0.000434
   1744    3.36599   -6.03138    6.00748        -8.241854       8.243147       0.001292
   1745    1.53577   -7.16253    3.04611        -9.391572       9.391883       0.000310
   1746    0.62065   -6.59696    4.52679        -9.294373       9.295365       0.000992
   1747    0.97019   -4.55070    6.92259        -8.917521       8.919323       0.001802
   1748    1.53577   -6.03138    6.00748        -8.651061       8.652576       0.001515
   1749    2.45088   -6.95726    4.66442        -8.611875       8.612773       0.000898
   1750    7.70098   -3.83465    3.96068        -8.240378       8.240309      -0.000070
   1751    8.59760   -2.91953    3.03413        -8.200299       8.201024       0.000725
   1752    7.12397   -6.77752    0.64976        -7.829317       7.831373       0.002056
   1753    8.05052   -5.88091    1.56488        -7.693190       7.695214       0.002024
   1754    8.61609   -4.40022    2.47999        -7.821025       7.822538       0.001513
   1755    6.56983   -6.79602    2.13045        -7.959667       7.960784       0.001117
   1756    7.35808   -5.53801    3.26824        -7.943512       7.944238       0.000726
   1757    9.18166   -2.91953    1.56488        -8.045062       8.047121       0.002059
   1758    8.61609   -1.43885   -1.18047        -8.898619       8.902120       0.003501
   1759    9.18166   -2.91953   -0.26535        -8.122233       8.125292       0.003059
   1760    8.59760   -2.91953   -1.73461        -8.427562       8.431055       0.003494
   1761    8.05052   -5.88091   -0.26535        -7.763993       7.766778       0.002785
   1762    8.61609   -4.40022   -1.18047        -7.971579       7.974831       0.003252
   1763    8.97639   -4.53784    0.64976        -7.738646       7.741337       0.002691
   1764    6.22029   -4.74976   -3.22672        -9.035179       9.037594       0.002415
   1765    7.70098   -3.83465   -2.66115        -8.584994       8.588398       0.003404
   1766    5.65472   -6.23045   -2.31161        -8.733589       8.735612       0.002023
   1767    7.35808   -5.53801   -1.96872        -8.178874       8.181760       0.002887
   1768    6.56983   -6.79602   -0.83092        -8.090355       8.092622       0.002267
   1769    4.73960   -7.15632   -0.96855        -8.789356       8.790845       0.001489
   1770    5.65472   -7.36159    0.64976        -8.227476       8.228783       0.001307
   1771    7.20186    2.51733   -4.29718        -8.779523       8.781179       0.001656
   1772    8.12774    1.17426   -3.38206        -8.727951       8.730981       0.003030
   1773    8.33301   -0.44405   -2.46695        -8.959867       8.963590       0.003723
   1774    7.76743    1.03664   -5.21229        -8.166529       8.169109       0.002580
   1775    8.33301   -0.44405   -4.29718        -8.228478       8.231931       0.003453
   1776    7.74894   -0.44405   -5.76643        -7.936930       7.939901       0.002972
   1777    7.20186   -3.40542   -4.29718        -8.479311       8.482404       0.003092
   1778    7.76743   -1.92473   -5.21229        -8.042818       8.046098       0.003280
   1779    8.12774   -2.06236   -3.38206        -8.562533       8.566276       0.003743
   1780    5.37163   -2.27428   -7.25855        -8.137038       8.138395       0.001357
   1781    6.85232   -1.35916   -6.69298        -7.890361       7.892812       0.002452
   1782    4.80606   -3.75496   -6.34343        -8.577960       8.578831       0.000871
   1783    6.50943   -3.06253   -6.00054        -8.137115       8.139478       0.002363
   1784    5.72118   -4.32054   -4.86275        -8.768600       8.770340       0.001741
   1785    5.37163    1.38618   -7.25855        -8.293574       8.294081       0.000507
   1786    6.85232    0.47107   -6.69298        -7.961310       7.963327       0.002017
   1787    5.50926   -0.44405   -7.61885        -8.057690       8.058901       0.001211
   1788    6.50943    2.17443   -6.00054        -8.367530       8.368643       0.001113
   1789    0.74861   -2.13540   -8.20869        -8.676520       8.677298       0.000778
   1790    2.22930   -1.58126   -8.22719        -8.584918       8.585168       0.000250
   1791    0.74861    2.63334   -8.20869        -8.485809       8.485845       0.000036
   1792    2.22930    2.07920   -8.22719        -8.451138       8.451038      -0.000100
   1793    0.74861    1.16409   -8.79276        -8.284382       8.285400       0.001018
   1794    2.36693    0.24897   -8.58749        -8.353113       8.353555       0.000442
   1795    0.74861   -0.66614   -8.79276        -8.352587       8.353863       0.001277
   1796    1.66373    3.55989   -7.31207        -8.857188       8.855942      -0.001245
   1797   -1.08161    4.12546   -5.83138        -9.902683       9.897034      -0.005650
   1798    0.74861    4.48576   -5.96901        -9.663779       9.660319      -0.003459
   1799   -0.16650    3.55989   -7.31207        -8.935089       8.933631      -0.001457
   1800   -1.86987    2.86745   -6.96918        -9.293599       9.291867      -0.001732
   1801   -0.73207    2.07920   -8.22719        -8.576160       8.576827       0.000668
   1802   -0.86970    0.24897   -8.58749        -8.503501       8.505433       0.001932
   1803   -0.73207   -1.58126   -8.22719        -8.751914       8.753743       0.001830
   1804   -0.16650   -3.06194   -7.31207        -9.266728       9.267146       0.000419

 NET CHARGES:
 -------------------------------------
 ATOM                CHARGE    E.S.D.
 -------------------------------------
 C                  -0.0428    0.1371
 C                   0.4328    0.1967
 C                  -0.5072    0.2163
 C                  -0.5817    0.2221
 C                   0.0408    0.1427
 C                  -0.5532    0.0859
 C                   0.0335    0.1204
 C                  -0.1842    0.1330
 C                  -0.1536    0.1375
 C                  -0.3456    0.1347
 H                   0.0556    0.0148
 H                   0.1232    0.0150
 H                   0.1321    0.0151
 H                   0.1290    0.0176
 H                   0.1635    0.0174
 H                   0.1467    0.0166
 H                   0.1350    0.0155
 H                   0.1901    0.0079
 H                   0.1933    0.0064
 H                   0.0680    0.0110
 H                   0.0766    0.0104
 H                   0.0748    0.0122
 H                   0.0563    0.0131
 H                   0.0792    0.0111
 H                   0.1326    0.0112
 H                   0.1054    0.0144
 -------------------------------------

 RMS DEVIATION IS            0.629 KCAL/MOLE
 RELATIVE RMS DEVIATION IS  21.764 %

 MULTIPOLE MOMENTS:
 ---------------------------------------------------------
 STATUS  ACTUAL VALUE       QUANTITY        FITTED VALUE 
 ---------------------------------------------------------
 FIXED       0.0000       TOTAL CHARGE        -0.0000
             0.5144 D    DIPOLE MOMENT         0.5259 D
 FREE        0.2970 D          DX              0.3100 D
 FREE       -0.4093 D          DY             -0.4134 D
 FREE       -0.0942 D          DZ             -0.0981 D
 FREE        0.0000 BU         QXX             1.2730 BU
 FREE        0.0000 BU         QYY             0.2970 BU
 FREE        0.0000 BU         QZZ            -1.5700 BU
 FREE        0.0000 BU         QXY             0.9674 BU
 FREE        0.0000 BU         QXZ            -1.0784 BU
 FREE        0.0000 BU         QYZ             0.0393 BU
 ---------------------------------------------------------
 ...... END OF PROPERTY EVALUATION ......
 CPU     0: STEP CPU TIME=     0.77 TOTAL CPU TIME=         43.4 (      0.7 MIN)
 TOTAL WALL CLOCK TIME=         64.3 SECONDS, CPU UTILIZATION IS    67.47%
               997986  WORDS OF DYNAMIC MEMORY USED
 EXECUTION OF GAMESS TERMINATED NORMALLY Mon May 25 18:12:26 2020
 DDI: 263640 bytes (0.3 MB / 0 MWords) used by master data server.
Note: The following floating-point exceptions are signalling: IEEE_UNDERFLOW_FLAGNote: The following floating-point exceptions are signalling: IEEE_UNDERFLOW_FLAGNote: The following floating-point exceptions are signalling: IEEE_DENORMAL

 ----------------------------------------
 CPU timing information for all processes
 ========================================
 0: 43.34 + 0.356 = 43.391
 1: 41.891 + 0.164 = 42.56
 2: 41.159 + 0.96 = 41.255
 3: 41.335 + 0.128 = 41.464
 4: 40.334 + 0.68 = 40.402
 5: 40.97 + 0.72 = 40.170
 ----------------------------------------
 IEEE_DENORMAL
 IEEE_UNDERFLOW_FLAG IEEE_DENORMALNote: The following floating-point exceptions are signalling: IEEE_UNDERFLOW_FLAGNote: The following floating-point exceptions are signalling: IEEE_UNDERFLOW_FLAGNote: The following floating-point exceptions are signalling:
 IEEE_DENORMAL
 IEEE_DENORMAL
 IEEE_UNDERFLOW_FLAG IEEE_DENORMAL
 ddikick.x: exited gracefully.
unset echo
----- accounting info -----
Files used on the master node pietdev were:
-rwxr-xr-x 1 piet piet     1222 mei 25 18:11 /home/piet/scr/camphene_charge_geodisk.F05*
-rw-r--r-- 1 piet piet 50790400 mei 25 18:12 /home/piet/scr/camphene_charge_geodisk.F10
ls: No match.
ls: No match.
ls: No match.
ma 25 mei 2020 18:12:29 CEST
0.113u 0.014s 1:07.45 0.1%	0+0k 0+8io 0pf+0w
