----- GAMESS execution script 'rungms' -----
This job is running on host pietdev
under operating system Linux at ma 25 mei 2020 18:12:41 CEST
Available scratch disk space (Kbyte units) at beginning of the job is
Filesystem     1K-blocks     Used Available Use% Mounted on
/dev/sda2      244568380 31071244 201004080  14% /
GAMESS temporary binary files will be written to /home/piet/scr
GAMESS supplementary output files will be written to /home/piet/gamess/scr
Copying input file camphene_fukui_acid.inp to your run's scratch directory...
cp camphene_fukui_acid.inp /home/piet/scr/camphene_fukui_acid.F05
unset echo
 
Assuming a single but multicore node.
 
/home/piet/gamess/ddikick.x /home/piet/gamess/gamess.03.x camphene_fukui_acid -ddi 1 6 pietdev:cpus=6 -scr /home/piet/scr

 Distributed Data Interface kickoff program.
 Initiating 6 compute processes on 1 nodes to run the following command:
 /home/piet/gamess/gamess.03.x camphene_fukui_acid 

          ******************************************************
          *         GAMESS VERSION = 30 SEP 2019 (R2)          *
          *             FROM IOWA STATE UNIVERSITY             *
          * M.W.SCHMIDT, K.K.BALDRIDGE, J.A.BOATZ, S.T.ELBERT, *
          *   M.S.GORDON, J.H.JENSEN, S.KOSEKI, N.MATSUNAGA,   *
          *          K.A.NGUYEN, S.J.SU, T.L.WINDUS,           *
          *       TOGETHER WITH M.DUPUIS, J.A.MONTGOMERY       *
          *         J.COMPUT.CHEM.  14, 1347-1363(1993)        *
          **************** 64 BIT LINUX VERSION ****************

  SINCE 1993, STUDENTS AND POSTDOCS WORKING AT IOWA STATE UNIVERSITY
  AND ALSO IN THEIR VARIOUS JOBS AFTER LEAVING ISU HAVE MADE IMPORTANT
  CONTRIBUTIONS TO THE CODE:
     IVANA ADAMOVIC, CHRISTINE AIKENS, YURI ALEXEEV, POOJA ARORA,
     ANDREY ASADCHEV, ROB BELL, PRADIPTA BANDYOPADHYAY, JONATHAN BENTZ,
     COLLEEN BERTONI, BRETT BODE, KURT BRORSEN, CALEB CARLIN, GALINA CHABAN,
     WEI CHEN, CHEOL HO CHOI, PAUL DAY, ALBERT DEFUSCO, NUWAN DESILVA,
     TIM DUDLEY, DMITRI FEDOROV, ALEX FINDLATER, GRAHAM FLETCHER, 
     MARK FREITAG, KURT GLAESEMANN, EMILIE B GUIDEZ, ANASTASIA GUNINA, 
     DAN KEMP, SAROM SOK LEANG, GRANT MERRILL,
     NORIYUKI MINEZAWA, JONATHAN MULLIN,
     TAKESHI NAGATA, SEAN NEDD, HEATHER NETZLOFF, BOSILJKA NJEGIC, RYAN OLSON,
     MIKE PAK, BUU PHAM, DAVID POOLE,
     SPENCER PRUITT, LUKE ROSKOP, TOSAPORN SATTASATHUCHANA,
     JIM SHOEMAKER, LYUDMILA SLIPCHENKO,
     TONY SMITH, JIE SONG, TETSUYA TAKETSUGU, SIMON WEBB,
     JORGE LUIS GALVEZ VALLEJO, PENG XU, SOOHAENG YOO,
     FEDERICO ZAHARIEV

  ADDITIONAL CODE HAS BEEN PROVIDED BY COLLABORATORS IN OTHER GROUPS:
     IOWA STATE UNIVERSITY:
          JOE IVANIC, AARON WEST, LAIMUTIS BYTAUTAS, KLAUS RUEDENBERG
     UNIVERSITY OF TOKYO: KIMIHIKO HIRAO, TAKAHITO NAKAJIMA,
          TAKAO TSUNEDA, MUNEAKI KAMIYA, SUSUMU YANAGISAWA,
          KIYOSHI YAGI, MAHITO CHIBA, SEIKEN TOKURA, NAOAKI KAWAKAMI
     UNIVERSITY OF AARHUS: FRANK JENSEN
     UNIVERSITY OF IOWA: VISVALDAS KAIRYS, HUI LI
     NATIONAL INST. OF STANDARDS AND TECHNOLOGY: WALT STEVENS, DAVID GARMER
     UNIVERSITY OF PISA: BENEDETTA MENNUCCI, JACOPO TOMASI
     UNIVERSITY OF MEMPHIS: HENRY KURTZ, PRAKASHAN KORAMBATH
     UNIVERSITY OF ALBERTA: TOBY ZENG, MARIUSZ KLOBUKOWSKI
     UNIVERSITY OF NEW ENGLAND: MARK SPACKMAN
     MIE UNIVERSITY: HIROAKI UMEDA
     NAT. INST. OF ADVANCED INDUSTRIAL SCIENCE AND TECHNOLOGY: KAZUO KITAURA
     MICHIGAN STATE UNIVERSITY:
          KAROL KOWALSKI, MARTA WLOCH, JEFFREY GOUR, JESSE LUTZ,
          WEI LI, JUN SHEN, J. EMILIANO DEUSTUA, PIOTR PIECUCH
     UNIVERSITY OF MINNESOTA:
          ANDREW SAND, PRACHI SHARMA, YINAN SHU
     UNIVERSITY OF SILESIA: MONIKA MUSIAL, STANISLAW KUCHARSKI
     FACULTES UNIVERSITAIRES NOTRE-DAME DE LA PAIX:
          OLIVIER QUINET, BENOIT CHAMPAGNE
     UNIVERSITY OF CALIFORNIA - SANTA BARBARA: BERNARD KIRTMAN
     INSTITUTE FOR MOLECULAR SCIENCE:
          KAZUYA ISHIMURA, MICHIO KATOUDA, AND SHIGERU NAGASE
     UNIVERSITY OF NOTRE DAME: ANNA POMOGAEVA, DAN CHIPMAN
     KYUSHU UNIVERSITY:
          HARUYUKI NAKANO,
          FENG LONG GU, JACEK KORCHOWIEC, MARCIN MAKOWSKI, AND YURIKO AOKI,
          HIROTOSHI MORI AND EISAKU MIYOSHI
     PENNSYLVANIA STATE UNIVERSITY:
          TZVETELIN IORDANOV, CHET SWALINA, JONATHAN SKONE,
          SHARON HAMMES-SCHIFFER
     WASEDA UNIVERSITY:
          MASATO KOBAYASHI, TOMOKO AKAMA, TSUGUKI TOUMA,
          TAKESHI YOSHIKAWA, YASUHIRO IKABATA, JUNJI SEINO,
          YUYA NAKAJIMA, HIROMI NAKAI
     NANJING UNIVERSITY: SHUHUA LI
     UNIVERSITY OF NEBRASKA:
          PEIFENG SU, DEJUN SI, NANDUN THELLAMUREGE, YALI WANG, HUI LI
     UNIVERSITY OF ZURICH: ROBERTO PEVERATI, KIM BALDRIDGE
     N. COPERNICUS UNIVERSITY AND JACKSON STATE UNIVERSITY:
          MARIA BARYSZ
     UNIVERSITY OF COPENHAGEN: Jimmy Kromann, CASPER STEINMANN
     TOKYO INSTITUTE OF TECHNOLOGY: HIROYA NAKATA
     NAGOYA UNIVERSITY: YOSHIO NISHIMOTO, STEPHAN IRLE
     MOSCOW STATE UNIVERSITY: VLADIMIR MIRONOV
     A.N.NESMEYANOV INSTITUTE OF ORGANOELEMENT COMPOUNDS OF RUSSIAN ACADEMY OF SCIENCES:
          IGOR S. GERASIMOV
     JOHANNES KEPLER UNIVERSITY LINZ:
          CHRISTIAN FRIEDL


 PARALLEL VERSION RUNNING ON        6 PROCESSORS IN        1 NODES.

 EXECUTION OF GAMESS BEGUN Mon May 25 18:12:42 2020

            ECHO OF THE FIRST FEW INPUT CARDS -
 INPUT CARD> $BASIS GBASIS=N21 NGAUSS=3 $END                                                
 INPUT CARD> $CONTRL SCFTYP=UHF MAXIT=60 MULT=2 ICHARG=-1 $END                              
 INPUT CARD> $SYSTEM MEMDDI=1000 MWORDS=30 $END                                             
 INPUT CARD> $SCF DIRSCF=.TRUE. $END                                                        
 INPUT CARD> $STATPT OPTTOL=0.0001 NSTEP=999 $END                                           
 INPUT CARD> $DATA                                                                          
 INPUT CARD>                                                                                
 INPUT CARD>C1                                                                              
 INPUT CARD>C 6.0000000 0.52733 -1.11261 -0.44826                                           
 INPUT CARD>C 6.0000000 -0.83494 -0.49465 0.03228                                           
 INPUT CARD>C 6.0000000 -1.94909 -0.78438 -0.99995                                          
 INPUT CARD>C 6.0000000 -1.31241 -1.00899 1.40461                                           
 INPUT CARD>C 6.0000000 -0.46872 1.00653 0.05887                                            
 INPUT CARD>C 6.0000000 -1.26705 2.02222 0.39969                                            
 INPUT CARD>C 6.0000000 0.97668 1.10878 -0.39396                                            
 INPUT CARD>C 6.0000000 1.87603 0.53163 0.74168                                             
 INPUT CARD>C 6.0000000 1.60674 -1.00645 0.65790                                            
 INPUT CARD>C 6.0000000 1.04112 -0.03537 -1.43488                                           
 INPUT CARD>H 1.0000000 0.41079 -2.12375 -0.85205                                           
 INPUT CARD>H 1.0000000 -2.17961 -1.85707 -1.01941                                          
 INPUT CARD>H 1.0000000 -2.86612 -0.24664 -0.73615                                          
 INPUT CARD>H 1.0000000 -1.66873 -0.47850 -2.01160                                          
 INPUT CARD>H 1.0000000 -0.63873 -0.72123 2.21599                                           
 INPUT CARD>H 1.0000000 -2.30010 -0.59930 1.64386                                           
 INPUT CARD>H 1.0000000 -1.39969 -2.10304 1.40118                                           
 INPUT CARD>H 1.0000000 -2.29572 1.86899 0.71781                                            
 INPUT CARD>H 1.0000000 -0.91727 3.05153 0.37134                                            
 INPUT CARD>H 1.0000000 1.27059 2.10719 -0.72901                                            
 INPUT CARD>H 1.0000000 2.92922 0.76554 0.54819                                             
 INPUT CARD>H 1.0000000 1.61835 0.95722 1.71656                                             
 INPUT CARD>H 1.0000000 1.29695 -1.43961 1.61193                                            
 INPUT CARD>H 1.0000000 2.50809 -1.54495 0.34384                                            
 INPUT CARD>H 1.0000000 2.05900 -0.23498 -1.78971                                           
 INPUT CARD>H 1.0000000 0.39615 0.13175 -2.30229                                            
 INPUT CARD> $END                                                                           
   30000000 WORDS OF MEMORY AVAILABLE

     BASIS OPTIONS
     -------------
     GBASIS=N21          IGAUSS=       3      POLAR=NONE    
     NDFUNC=       0     NFFUNC=       0     DIFFSP=       F
     NPFUNC=       0      DIFFS=       F     BASNAM=        


     RUN TITLE
     ---------
                                                                                 

 THE POINT GROUP OF THE MOLECULE IS C1      
 THE ORDER OF THE PRINCIPAL AXIS IS     0

 ATOM      ATOMIC                      COORDINATES (BOHR)
           CHARGE         X                   Y                   Z
 C           6.0     0.9965092051       -2.1025280312       -0.8470885713
 C           6.0    -1.5778078162       -0.9347529598        0.0610003549
 C           6.0    -3.6832460254       -1.4822632702       -1.8896315014
 C           6.0    -2.4800952835       -1.9067146244        2.6543280196
 C           6.0    -0.8857523650        1.9020658984        0.1112481689
 C           6.0    -2.3943773127        3.8214416869        0.7553045800
 C           6.0     1.8456575777        2.0952903807       -0.7444764501
 C           6.0     3.5451826447        1.0046350269        1.4015719706
 C           6.0     3.0362983335       -1.9019147203        1.2432507273
 C           6.0     1.9674315203       -0.0668396082       -2.7115300253
 H           1.0     0.7762805385       -4.0133055664       -1.6101410278
 H           1.0    -4.1188656601       -3.5093534400       -1.9264055691
 H           1.0    -5.4161814479       -0.4660820176       -1.3911217859
 H           1.0    -3.1534424475       -0.9042338851       -3.8013727969
 H           1.0    -1.2070246801       -1.3629270741        4.1876138915
 H           1.0    -4.3465587444       -1.1325127844        3.1064449622
 H           1.0    -2.6450305678       -3.9741693412        2.6478462595
 H           1.0    -4.3382817445        3.5318789738        1.3564642112
 H           1.0    -1.7333889568        5.7665555433        0.7017308483
 H           1.0     2.4010669427        3.9820117041       -1.3776291423
 H           1.0     5.5354231578        1.4466608326        1.0359288892
 H           1.0     3.0582380522        1.8088835100        3.2438280415
 H           1.0     2.4508801198       -2.7204684292        3.0461060114
 H           1.0     4.7396028525       -2.9195321647        0.6497633836
 H           1.0     3.8909458087       -0.4440478126       -3.3820614975
 H           1.0     0.7486149500        0.2489713989       -4.3506972443

          INTERNUCLEAR DISTANCES (ANGS.)
          ------------------------------

                1 C          2 C          3 C          4 C          5 C     

   1 C       0.0000000    1.5711692 *  2.5582714 *  2.6131413 *  2.3958403 *
   2 C       1.5711692 *  0.0000000    1.5462123 *  1.5413672 *  1.5454338 *
   3 C       2.5582714 *  1.5462123 *  0.0000000    2.4975428 *  2.5534200 *
   4 C       2.6131413 *  1.5413672 *  2.4975428 *  0.0000000    2.5661547 *
   5 C       2.3958403 *  1.5454338 *  2.5534200 *  2.5661547 *  0.0000000  
   6 C       3.7102531    2.5799891 *  3.2095442    3.1937683    1.3360820 *
   7 C       2.2670327 *  2.4565495 *  3.5371470    3.5999635    1.5181210 *
   8 C       2.4368985 *  2.9842683 *  4.4041685    3.6026568    2.4878931 *
   9 C       1.5491888 *  2.5719916 *  3.9295940    3.0131411    2.9527038 *
  10 C       1.5484977 *  2.4255098 *  3.1131232    3.8144125    2.3656842 *
  11 H       1.0950032 *  2.2333494 *  2.7175025 *  3.0503479    3.3766797  
  12 H       2.8649533 *  2.1841194 *  1.0973523 *  2.7105624 *  3.5057149  
  13 H       3.5140130    2.1857918 *  1.0953076 *  2.7528250 *  2.8195777 *
  14 H       2.7692611 *  2.2074673 *  1.0934350 *  3.4754675    2.8164133 *
  15 H       2.9344680 *  2.2041838 *  3.4732264    1.0931551 *  2.7689754 *
  16 H       3.5545483    2.1805585 *  2.6734236 *  1.0957272 *  2.9060000 *
  17 H       2.8486463 *  2.1862635 *  2.7939452 *  1.0975313 *  3.5125385  
  18 H       4.2684036    2.8619266 *  3.1798151    3.1179098    2.1250807 *
  19 H       4.4831546    3.5633036    4.2022963    4.2085158    2.1168041 *
  20 H       3.3163788    3.4325487    4.3360033    4.5754564    2.2039525 *
  21 H       3.2077150    4.0028918    5.3476067    4.6769474    3.4414396  
  22 H       3.1876271    3.3110961    4.8103249    3.5429717    2.6657511 *
  23 H       2.2234268 *  2.8165934 *  4.2175845    2.6527674 *  3.3931087  
  24 H       2.1766374 *  3.5179610    4.7170639    4.0010881    3.9309866  
  25 H       2.2171458 *  3.4295721    4.1219348    4.7084156    3.3686738  
  26 H       2.2367537 *  2.7125959 *  2.8347018 *  4.2381096    2.6623893 *

                6 C          7 C          8 C          9 C         10 C     

   1 C       3.7102531    2.2670327 *  2.4368985 *  1.5491888 *  1.5484977 *
   2 C       2.5799891 *  2.4565495 *  2.9842683 *  2.5719916 *  2.4255098 *
   3 C       3.2095442    3.5371470    4.4041685    3.9295940    3.1131232  
   4 C       3.1937683    3.5999635    3.6026568    3.0131411    3.8144125  
   5 C       1.3360820 *  1.5181210 *  2.4878931 *  2.9527038 *  2.3656842 *
   6 C       0.0000000    2.5492307 *  3.4953923    4.1830830    3.5954099  
   7 C       2.5492307 *  0.0000000    1.5593623 *  2.4449096 *  1.5481428 *
   8 C       3.4953923    1.5593623 *  0.0000000    1.5637219 *  2.3991618 *
   9 C       4.1830830    2.4449096 *  1.5637219 *  0.0000000    2.3754264 *
  10 C       3.5954099    1.5481428 *  2.3991618 *  2.3754264 *  0.0000000  
  11 H       4.6444663    3.3135069    3.4260687    2.2267925 *  2.2579499 *
  12 H       4.2303075    4.3760279    5.0254892    4.2276908    3.7234806  
  13 H       2.9991471 *  4.0891771    5.0276906    4.7462789    3.9748438  
  14 H       3.4970369    3.4834482    4.6006779    4.2583641    2.8057543 *
  15 H       3.3496641    3.5735592    3.1728955    2.7479320 *  4.0769047  
  16 H       3.0801816    4.2198975    4.4196146    4.0498502    4.5782538  
  17 H       4.2471574    4.3801198    4.2552048    3.2853609    4.2750496  
  18 H       1.0875853 *  3.5387220    4.3809359    4.8477767    4.4039939  
  19 H       1.0874874 *  2.8190439 *  3.7801551    4.7874779    4.0775818  
  20 H       2.7786328 *  1.0933728 *  2.2387220 *  3.4250942    2.2674815 *
  21 H       4.3829190    2.1949653 *  1.0960664 *  2.2138063 *  2.8528836 *
  22 H       3.3457293    2.2111096 *  1.0944939 *  2.2308957 *  3.3541025  
  23 H       4.4752529    3.2589046    2.2312454 *  1.0925981 *  3.3645787  
  24 H       5.1941797    3.1514835    2.2067988 *  1.0959232 *  2.7558443 *
  25 H       4.5772298    2.2192849 *  2.6512458 *  2.6058587 *  1.0962792 *
  26 H       3.6933463    2.2211092 *  3.4081817    3.3946653    1.0937621 *

               11 H         12 H         13 H         14 H         15 H     

   1 C       1.0950032 *  2.8649533 *  3.5140130    2.7692611 *  2.9344680 *
   2 C       2.2333494 *  2.1841194 *  2.1857918 *  2.2074673 *  2.2041838 *
   3 C       2.7175025 *  1.0973523 *  1.0953076 *  1.0934350 *  3.4732264  
   4 C       3.0503479    2.7105624 *  2.7528250 *  3.4754675    1.0931551 *
   5 C       3.3766797    3.5057149    2.8195777 *  2.8164133 *  2.7689754 *
   6 C       4.6444663    4.2303075    2.9991471 *  3.4970369    3.3496641  
   7 C       3.3135069    4.3760279    4.0891771    3.4834482    3.5735592  
   8 C       3.4260687    5.0254892    5.0276906    4.6006779    3.1728955  
   9 C       2.2267925 *  4.2276908    4.7462789    4.2583641    2.7479320 *
  10 C       2.2579499 *  3.7234806    3.9748438    2.8057543 *  4.0769047  
  11 H       0.0000000    2.6094635 *  3.7782422    2.8940987 *  3.5329059  
  12 H       2.6094635 *  0.0000000    1.7734196 *  1.7736670 *  3.7592894  
  13 H       3.7782422    1.7734196 *  0.0000000    1.7647307 *  3.7284893  
  14 H       2.8940987 *  1.7736670 *  1.7647307 *  0.0000000    4.3580196  
  15 H       3.5329059    3.7592894    3.7284893    4.3580196    0.0000000  
  16 H       3.9877862    2.9477975 *  2.4716786 *  3.7115507    1.7613489 *
  17 H       2.8905557 *  2.5550014 *  3.1882311    3.7892717    1.7754927 *
  18 H       5.0726354    4.1127774    2.6296856 *  3.6542448    3.4204384  
  19 H       5.4812361    5.2556676    3.9877908    4.3248361    4.2088046  
  20 H       4.3191722    5.2634180    4.7595101    4.1195184    4.5076033  
  21 H       4.0805831    5.9527806    6.0216280    5.4075230    4.2097873  
  22 H       4.1890732    5.4617085    5.2512414    5.1735253    2.8567525 *
  23 H       2.7063859 *  4.3800334    4.9262368    4.7800586    2.1512358 *
  24 H       2.4827061 *  4.8918709    5.6333046    4.9123557    3.7531235  
  25 H       2.6764257 *  4.6032980    5.0365595    3.7422598    4.8538458  
  26 H       2.6815463 *  3.4979602    3.6384583    2.1727023 *  4.7131100  

               16 H         17 H         18 H         19 H         20 H     

   1 C       3.5545483    2.8486463 *  4.2684036    4.4831546    3.3163788  
   2 C       2.1805585 *  2.1862635 *  2.8619266 *  3.5633036    3.4325487  
   3 C       2.6734236 *  2.7939452 *  3.1798151    4.2022963    4.3360033  
   4 C       1.0957272 *  1.0975313 *  3.1179098    4.2085158    4.5754564  
   5 C       2.9060000 *  3.5125385    2.1250807 *  2.1168041 *  2.2039525 *
   6 C       3.0801816    4.2471574    1.0875853 *  1.0874874 *  2.7786328 *
   7 C       4.2198975    4.3801198    3.5387220    2.8190439 *  1.0933728 *
   8 C       4.4196146    4.2552048    4.3809359    3.7801551    2.2387220 *
   9 C       4.0498502    3.2853609    4.8477767    4.7874779    3.4250942  
  10 C       4.5782538    4.2750496    4.4039939    4.0775818    2.2674815 *
  11 H       3.9877862    2.8905557 *  5.0726354    5.4812361    4.3191722  
  12 H       2.9477975 *  2.5550014 *  4.1127774    5.2556676    5.2634180  
  13 H       2.4716786 *  3.1882311    2.6296856 *  3.9877908    4.7595101  
  14 H       3.7115507    3.7892717    3.6542448    4.3248361    4.1195184  
  15 H       1.7613489 *  1.7754927 *  3.4204384    4.2088046    4.5076033  
  16 H       0.0000000    1.7694253 *  2.6362935 *  4.1061035    5.0700520  
  17 H       1.7694253 *  0.0000000    4.1287876    5.2785312    5.4216364  
  18 H       2.6362935 *  4.1287876    0.0000000    1.8489366 *  3.8559816  
  19 H       4.1061035    5.2785312    1.8489366 *  0.0000000    2.6247437 *
  20 H       5.0700520    5.4216364    3.8559816    2.6247437 *  0.0000000  
  21 H       5.5144418    5.2626804    5.3428804    4.4780031    2.4864268 *
  22 H       4.2169053    4.3096660    4.1411073    3.5531845    2.7247350 *
  23 H       3.6940370    2.7850354 *  4.9652354    5.1586987    4.2497630  
  24 H       5.0698123    4.0865850    5.9052037    5.7324930    4.0025667  
  25 H       5.5609248    5.0629995    5.4477456    4.9324911    2.6893187 *
  26 H       4.8349041    4.6834835    4.4028594    4.1711491    2.6724929 *

               21 H         22 H         23 H         24 H         25 H     

   1 C       3.2077150    3.1876271    2.2234268 *  2.1766374 *  2.2171458 *
   2 C       4.0028918    3.3110961    2.8165934 *  3.5179610    3.4295721  
   3 C       5.3476067    4.8103249    4.2175845    4.7170639    4.1219348  
   4 C       4.6769474    3.5429717    2.6527674 *  4.0010881    4.7084156  
   5 C       3.4414396    2.6657511 *  3.3931087    3.9309866    3.3686738  
   6 C       4.3829190    3.3457293    4.4752529    5.1941797    4.5772298  
   7 C       2.1949653 *  2.2111096 *  3.2589046    3.1514835    2.2192849 *
   8 C       1.0960664 *  1.0944939 *  2.2312454 *  2.2067988 *  2.6512458 *
   9 C       2.2138063 *  2.2308957 *  1.0925981 *  1.0959232 *  2.6058587 *
  10 C       2.8528836 *  3.3541025    3.3645787    2.7558443 *  1.0962792 *
  11 H       4.0805831    4.1890732    2.7063859 *  2.4827061 *  2.6764257 *
  12 H       5.9527806    5.4617085    4.3800334    4.8918709    4.6032980  
  13 H       6.0216280    5.2512414    4.9262368    5.6333046    5.0365595  
  14 H       5.4075230    5.1735253    4.7800586    4.9123557    3.7422598  
  15 H       4.2097873    2.8567525 *  2.1512358 *  3.7531235    4.8538458  
  16 H       5.5144418    4.2169053    3.6940370    5.0698123    5.5609248  
  17 H       5.2626804    4.3096660    2.7850354 *  4.0865850    5.0629995  
  18 H       5.3428804    4.1411073    4.9652354    5.9052037    5.4477456  
  19 H       4.4780031    3.5531845    5.1586987    5.7324930    4.9324911  
  20 H       2.4864268 *  2.7247350 *  4.2497630    4.0025667    2.6893187 *
  21 H       0.0000000    1.7664116 *  2.9425388 *  2.3574294 *  2.6877685 *
  22 H       1.7664116 *  0.0000000    2.4205453 *  2.9894568 *  3.7295365  
  23 H       2.9425388 *  2.4205453 *  0.0000000    1.7567040 *  3.6882256  
  24 H       2.3574294 *  2.9894568 *  1.7567040 *  0.0000000    2.5435681 *
  25 H       2.6877685 *  3.7295365    3.6882256    2.5435681 *  0.0000000  
  26 H       3.8656655    4.2809262    4.3129724    3.7780441    1.7782855 *

               26 H     

   1 C       2.2367537 *
   2 C       2.7125959 *
   3 C       2.8347018 *
   4 C       4.2381096  
   5 C       2.6623893 *
   6 C       3.6933463  
   7 C       2.2211092 *
   8 C       3.4081817  
   9 C       3.3946653  
  10 C       1.0937621 *
  11 H       2.6815463 *
  12 H       3.4979602  
  13 H       3.6384583  
  14 H       2.1727023 *
  15 H       4.7131100  
  16 H       4.8349041  
  17 H       4.6834835  
  18 H       4.4028594  
  19 H       4.1711491  
  20 H       2.6724929 *
  21 H       3.8656655  
  22 H       4.2809262  
  23 H       4.3129724  
  24 H       3.7780441  
  25 H       1.7782855 *
  26 H       0.0000000  

  * ... LESS THAN  3.000


     ATOMIC BASIS SET
     ----------------
 THE CONTRACTED PRIMITIVE FUNCTIONS HAVE BEEN UNNORMALIZED
 THE CONTRACTED BASIS FUNCTIONS ARE NOW NORMALIZED TO UNITY

  SHELL TYPE  PRIMITIVE        EXPONENT          CONTRACTION COEFFICIENT(S)

 C         

      1   S       1           172.2560000    0.061766907377
      1   S       2            25.9109000    0.358794042852
      1   S       3             5.5333500    0.700713083689

      2   L       4             3.6649800   -0.395895162119    0.236459946619
      2   L       5             0.7705450    1.215834355681    0.860618805716

      3   L       6             0.1958570    1.000000000000    1.000000000000

 C         

      4   S       7           172.2560000    0.061766907377
      4   S       8            25.9109000    0.358794042852
      4   S       9             5.5333500    0.700713083689

      5   L      10             3.6649800   -0.395895162119    0.236459946619
      5   L      11             0.7705450    1.215834355681    0.860618805716

      6   L      12             0.1958570    1.000000000000    1.000000000000

 C         

      7   S      13           172.2560000    0.061766907377
      7   S      14            25.9109000    0.358794042852
      7   S      15             5.5333500    0.700713083689

      8   L      16             3.6649800   -0.395895162119    0.236459946619
      8   L      17             0.7705450    1.215834355681    0.860618805716

      9   L      18             0.1958570    1.000000000000    1.000000000000

 C         

     10   S      19           172.2560000    0.061766907377
     10   S      20            25.9109000    0.358794042852
     10   S      21             5.5333500    0.700713083689

     11   L      22             3.6649800   -0.395895162119    0.236459946619
     11   L      23             0.7705450    1.215834355681    0.860618805716

     12   L      24             0.1958570    1.000000000000    1.000000000000

 C         

     13   S      25           172.2560000    0.061766907377
     13   S      26            25.9109000    0.358794042852
     13   S      27             5.5333500    0.700713083689

     14   L      28             3.6649800   -0.395895162119    0.236459946619
     14   L      29             0.7705450    1.215834355681    0.860618805716

     15   L      30             0.1958570    1.000000000000    1.000000000000

 C         

     16   S      31           172.2560000    0.061766907377
     16   S      32            25.9109000    0.358794042852
     16   S      33             5.5333500    0.700713083689

     17   L      34             3.6649800   -0.395895162119    0.236459946619
     17   L      35             0.7705450    1.215834355681    0.860618805716

     18   L      36             0.1958570    1.000000000000    1.000000000000

 C         

     19   S      37           172.2560000    0.061766907377
     19   S      38            25.9109000    0.358794042852
     19   S      39             5.5333500    0.700713083689

     20   L      40             3.6649800   -0.395895162119    0.236459946619
     20   L      41             0.7705450    1.215834355681    0.860618805716

     21   L      42             0.1958570    1.000000000000    1.000000000000

 C         

     22   S      43           172.2560000    0.061766907377
     22   S      44            25.9109000    0.358794042852
     22   S      45             5.5333500    0.700713083689

     23   L      46             3.6649800   -0.395895162119    0.236459946619
     23   L      47             0.7705450    1.215834355681    0.860618805716

     24   L      48             0.1958570    1.000000000000    1.000000000000

 C         

     25   S      49           172.2560000    0.061766907377
     25   S      50            25.9109000    0.358794042852
     25   S      51             5.5333500    0.700713083689

     26   L      52             3.6649800   -0.395895162119    0.236459946619
     26   L      53             0.7705450    1.215834355681    0.860618805716

     27   L      54             0.1958570    1.000000000000    1.000000000000

 C         

     28   S      55           172.2560000    0.061766907377
     28   S      56            25.9109000    0.358794042852
     28   S      57             5.5333500    0.700713083689

     29   L      58             3.6649800   -0.395895162119    0.236459946619
     29   L      59             0.7705450    1.215834355681    0.860618805716

     30   L      60             0.1958570    1.000000000000    1.000000000000

 H         

     31   S      61             5.4471780    0.156284978695
     31   S      62             0.8245472    0.904690876670

     32   S      63             0.1831916    1.000000000000

 H         

     33   S      64             5.4471780    0.156284978695
     33   S      65             0.8245472    0.904690876670

     34   S      66             0.1831916    1.000000000000

 H         

     35   S      67             5.4471780    0.156284978695
     35   S      68             0.8245472    0.904690876670

     36   S      69             0.1831916    1.000000000000

 H         

     37   S      70             5.4471780    0.156284978695
     37   S      71             0.8245472    0.904690876670

     38   S      72             0.1831916    1.000000000000

 H         

     39   S      73             5.4471780    0.156284978695
     39   S      74             0.8245472    0.904690876670

     40   S      75             0.1831916    1.000000000000

 H         

     41   S      76             5.4471780    0.156284978695
     41   S      77             0.8245472    0.904690876670

     42   S      78             0.1831916    1.000000000000

 H         

     43   S      79             5.4471780    0.156284978695
     43   S      80             0.8245472    0.904690876670

     44   S      81             0.1831916    1.000000000000

 H         

     45   S      82             5.4471780    0.156284978695
     45   S      83             0.8245472    0.904690876670

     46   S      84             0.1831916    1.000000000000

 H         

     47   S      85             5.4471780    0.156284978695
     47   S      86             0.8245472    0.904690876670

     48   S      87             0.1831916    1.000000000000

 H         

     49   S      88             5.4471780    0.156284978695
     49   S      89             0.8245472    0.904690876670

     50   S      90             0.1831916    1.000000000000

 H         

     51   S      91             5.4471780    0.156284978695
     51   S      92             0.8245472    0.904690876670

     52   S      93             0.1831916    1.000000000000

 H         

     53   S      94             5.4471780    0.156284978695
     53   S      95             0.8245472    0.904690876670

     54   S      96             0.1831916    1.000000000000

 H         

     55   S      97             5.4471780    0.156284978695
     55   S      98             0.8245472    0.904690876670

     56   S      99             0.1831916    1.000000000000

 H         

     57   S     100             5.4471780    0.156284978695
     57   S     101             0.8245472    0.904690876670

     58   S     102             0.1831916    1.000000000000

 H         

     59   S     103             5.4471780    0.156284978695
     59   S     104             0.8245472    0.904690876670

     60   S     105             0.1831916    1.000000000000

 H         

     61   S     106             5.4471780    0.156284978695
     61   S     107             0.8245472    0.904690876670

     62   S     108             0.1831916    1.000000000000

 TOTAL NUMBER OF BASIS SET SHELLS             =   62
 NUMBER OF CARTESIAN GAUSSIAN BASIS FUNCTIONS =  122
 NUMBER OF ELECTRONS                          =   77
 CHARGE OF MOLECULE                           =   -1
 SPIN MULTIPLICITY                            =    2
 NUMBER OF OCCUPIED ORBITALS (ALPHA)          =   39
 NUMBER OF OCCUPIED ORBITALS (BETA )          =   38
 TOTAL NUMBER OF ATOMS                        =   26
 THE NUCLEAR REPULSION ENERGY IS      572.5440808592

     $CONTRL OPTIONS
     ---------------
 SCFTYP=UHF          RUNTYP=ENERGY       EXETYP=RUN     
 MPLEVL=       0     CITYP =NONE         CCTYP =NONE         VBTYP =NONE    
 DFTTYP=NONE         TDDFT =NONE    
 MULT  =       2     ICHARG=      -1     NZVAR =       0     COORD =UNIQUE  
 PP    =NONE         RELWFN=NONE         LOCAL =NONE         NUMGRD=       F
 ISPHER=      -1     NOSYM =       0     MAXIT =      60     UNITS =ANGS    
 PLTORB=       F     MOLPLT=       F     AIMPAC=       F     FRIEND=        
 NPRINT=       7     IREST =       0     GEOM  =INPUT   
 NORMF =       0     NORMP =       0     ITOL  =      20     ICUT  =       9
 INTTYP=BEST         GRDTYP=BEST         QMTTOL= 1.0E-06

     $SYSTEM OPTIONS
     ---------------
  REPLICATED MEMORY=    30000000 WORDS (ON EVERY NODE).
 DISTRIBUTED MEMDDI=        1000 MILLION WORDS IN AGGREGATE,
 MEMDDI DISTRIBUTED OVER   6 PROCESSORS IS   166666666 WORDS/PROCESSOR.
 TOTAL MEMORY REQUESTED ON EACH PROCESSOR=   196666666 WORDS.
 TIMLIM=      525600.00 MINUTES, OR     365.0 DAYS.
 PARALL= T  BALTYP=  DLB     KDIAG=    0  COREFL= F
 MXSEQ2=     300 MXSEQ3=     150  mem10=         0

          ----------------
          PROPERTIES INPUT
          ----------------

     MOMENTS            FIELD           POTENTIAL          DENSITY
 IEMOM =       1   IEFLD =       0   IEPOT =       0   IEDEN =       0
 WHERE =COMASS     WHERE =NUCLEI     WHERE =NUCLEI     WHERE =NUCLEI  
 OUTPUT=BOTH       OUTPUT=BOTH       OUTPUT=BOTH       OUTPUT=BOTH    
 IEMINT=       0   IEFINT=       0                     IEDINT=       0
                                                       MORB  =       0
          EXTRAPOLATION IN EFFECT
          SOSCF IN EFFECT
          DIIS or SOSCF will be reset if energy rises
 ORBITAL PRINTING OPTION: NPREO=     1   122     2     1

     -------------------------------
     INTEGRAL TRANSFORMATION OPTIONS
     -------------------------------
     NWORD  =            0
     CUTOFF = 1.0E-09     MPTRAN =       0
     DIRTRF =       T     AOINTS =DUP     

          ----------------------
          INTEGRAL INPUT OPTIONS
          ----------------------
 NOPK  =       1 NORDER=       0 SCHWRZ=       T

     ------------------------------------------
     THE POINT GROUP IS C1 , NAXIS= 0, ORDER= 1
     ------------------------------------------

     DIMENSIONS OF THE SYMMETRY SUBSPACES ARE
 A   =  122

 ..... DONE SETTING UP THE RUN .....
 CPU     0: STEP CPU TIME=     0.03 TOTAL CPU TIME=          0.0 (      0.0 MIN)
 TOTAL WALL CLOCK TIME=          0.0 SECONDS, CPU UTILIZATION IS    60.00%

          ********************
          1 ELECTRON INTEGRALS
          ********************
 ...... END OF ONE-ELECTRON INTEGRALS ......
 CPU     0: STEP CPU TIME=     0.02 TOTAL CPU TIME=          0.1 (      0.0 MIN)
 TOTAL WALL CLOCK TIME=          0.1 SECONDS, CPU UTILIZATION IS    62.50%

          -------------
          GUESS OPTIONS
          -------------
          GUESS =HUCKEL            NORB  =       0          NORDER=       0
          MIX   =       F          PRTMO =       F          PUNMO =       F
          TOLZ  = 1.0E-08          TOLE  = 1.0E-05
          SYMDEN=       F          PURIFY=       F

 INITIAL GUESS ORBITALS GENERATED BY HUCKEL   ROUTINE.
 HUCKEL GUESS REQUIRES    144266 WORDS.

 SYMMETRIES FOR INITIAL GUESS ORBITALS FOLLOW.  ALPHA SET(S).
    39 ORBITALS ARE OCCUPIED (   10 CORE ORBITALS).
    11=A       12=A       13=A       14=A       15=A       16=A       17=A   
    18=A       19=A       20=A       21=A       22=A       23=A       24=A   
    25=A       26=A       27=A       28=A       29=A       30=A       31=A   
    32=A       33=A       34=A       35=A       36=A       37=A       38=A   
    39=A       40=A       41=A       42=A       43=A       44=A       45=A   
    46=A       47=A       48=A       49=A   

 SYMMETRIES FOR INITIAL GUESS ORBITALS FOLLOW.   BETA SET(S).
    38 ORBITALS ARE OCCUPIED (   10 CORE ORBITALS).
    11=A       12=A       13=A       14=A       15=A       16=A       17=A   
    18=A       19=A       20=A       21=A       22=A       23=A       24=A   
    25=A       26=A       27=A       28=A       29=A       30=A       31=A   
    32=A       33=A       34=A       35=A       36=A       37=A       38=A   
    39=A       40=A       41=A       42=A       43=A       44=A       45=A   
    46=A       47=A       48=A   
 ...... END OF INITIAL ORBITAL SELECTION ......
 CPU     0: STEP CPU TIME=     0.04 TOTAL CPU TIME=          0.1 (      0.0 MIN)
 TOTAL WALL CLOCK TIME=          0.1 SECONDS, CPU UTILIZATION IS    60.00%

                    ----------------------
                    AO INTEGRAL TECHNOLOGY
                    ----------------------
     S,P,L SHELL ROTATED AXIS INTEGRALS, REPROGRAMMED BY
        KAZUYA ISHIMURA (IMS) AND JOSE SIERRA (SYNSTAR).
     S,P,D,L SHELL ROTATED AXIS INTEGRALS PROGRAMMED BY
        KAZUYA ISHIMURA (INSTITUTE FOR MOLECULAR SCIENCE).
     S,P,D,F,G SHELL TO TOTAL QUARTET ANGULAR MOMENTUM SUM 5,
        ERIC PROGRAM BY GRAHAM FLETCHER (ELORET AND NASA ADVANCED
        SUPERCOMPUTING DIVISION, AMES RESEARCH CENTER).
     S,P,D,F,G,L SHELL GENERAL RYS QUADRATURE PROGRAMMED BY
        MICHEL DUPUIS (PACIFIC NORTHWEST NATIONAL LABORATORY).

          --------------------
          2 ELECTRON INTEGRALS
          --------------------

 DIRECT SCF METHOD SKIPS INTEGRAL STORAGE ON DISK.
 DIRECT TRANSFORMATION SKIPS AO INTEGRAL STORAGE ON DISK.
  ...... END OF TWO-ELECTRON INTEGRALS .....
 CPU     0: STEP CPU TIME=     0.02 TOTAL CPU TIME=          0.1 (      0.0 MIN)
 TOTAL WALL CLOCK TIME=          0.2 SECONDS, CPU UTILIZATION IS    52.38%

          ---------------------------
                  UHF SCF CALCULATION
          ---------------------------

     NUCLEAR ENERGY =       572.5440808592
     MAXIT = 60     NPUNCH=  2     MULT=  2
     EXTRAP=T  DAMP=F  SHIFT=F  RSTRCT=F  DIIS=F  SOSCF=T
     DENSITY MATRIX CONV=  2.00E-05
     SOSCF WILL OPTIMIZE    3237 ALPHA AND    3192 BETA ROTATION ANGLES.
     SOGTOL= 2.500E-01
     MEMORY REQUIRED FOR UHF/ROHF ITERS=    244057 WORDS.

 DIRECT SCF CALCULATION, SCHWRZ=T   FDIFF=T
 SCHWARZ INEQUALITY OVERHEAD:      7375 INTEGRALS, T=        0.00

                                                                                NONZERO     BLOCKS
 ITER EX      TOTAL ENERGY        E CHANGE  DENSITY CHANGE    ORB. GRAD       INTEGRALS    SKIPPED
   1  0     -384.8859138573  -384.8859138573   0.752152885   0.000000000       22255549     735099
          ---------------START SECOND ORDER SCF---------------
   2  1     -385.6412088820    -0.7552950247   0.150733292   0.032668649       22160165     755794
   3  2     -385.6861684265    -0.0449595445   0.099577648   0.028381711       21847676     804434
   4  3     -385.6974632471    -0.0112948205   0.024360134   0.004949987       21514147     850758
   5  4     -385.6979380607    -0.0004748136   0.008047849   0.001674889       20956253     902625
   6  5     -385.6980213975    -0.0000833368   0.005568530   0.000810802       20367508     949269
   7  6     -385.6980514639    -0.0000300664   0.003800819   0.000689664       19969997     983686
   8  7     -385.6980604059    -0.0000089420   0.001576979   0.000256395       19199140    1049586
   9  8     -385.6980624086    -0.0000020027   0.000475522   0.000091827       18848961    1079872
  10  9     -385.6980627877    -0.0000003791   0.000244838   0.000041243       18329975    1121218
  11 10     -385.6980628587    -0.0000000710   0.000115007   0.000016211       17491805    1181133
  12 11     -385.6980628771    -0.0000000184   0.000087636   0.000007272       16669531    1234706
  13 12     -385.6980628822    -0.0000000051   0.000036419   0.000002198       16236627    1262623
  14 13     -385.6980628829    -0.0000000008   0.000009340   0.000001265       15383930    1318360
  15 14     -385.6980628836    -0.0000000007   0.000004929   0.000000693       14220935    1385355

          -----------------
          DENSITY CONVERGED
          -----------------
     TIME TO FORM FOCK OPERATORS=       5.9 SECONDS (       0.4 SEC/ITER)
     FOCK TIME ON FIRST ITERATION=       0.5, LAST ITERATION=       0.3
     TIME TO SOLVE SCF EQUATIONS=       0.2 SECONDS (       0.0 SEC/ITER)

 FINAL UHF ENERGY IS     -385.6980628836 AFTER  15 ITERATIONS

          --------------------
          SPIN SZ   =    0.500
          S-SQUARED =    0.762
          --------------------

  ----- ALPHA SET ----- 

          ------------
          EIGENVECTORS
          ------------

                      1          2          3          4          5
                  -11.0109   -11.0087   -10.9960   -10.9954   -10.9951
                     A          A          A          A          A   
    1  C  1  S   -0.014207   0.988591   0.006036  -0.004054   0.003256
    2  C  1  S   -0.002902   0.110946  -0.001871  -0.001871  -0.000736
    3  C  1  X    0.000664   0.000863  -0.001862   0.000133  -0.000439
    4  C  1  Y   -0.000076   0.003098  -0.000107   0.001157   0.000568
    5  C  1  Z    0.000610   0.000686   0.000458   0.000152  -0.000504
    6  C  1  S    0.017150  -0.113203   0.018398   0.023491   0.010936
    7  C  1  X    0.008979  -0.003249  -0.013765  -0.000359  -0.002297
    8  C  1  Y   -0.001687  -0.026391   0.004279   0.006959   0.003177
    9  C  1  Z    0.009211  -0.010267   0.007863  -0.005427  -0.004322
   10  C  2  S   -0.012303  -0.006407   0.929404   0.319614   0.111584
   11  C  2  S   -0.002638  -0.004037   0.106116   0.034646   0.012336
   12  C  2  X   -0.001536   0.001073   0.000684  -0.000226  -0.000268
   13  C  2  Y   -0.000016  -0.000414  -0.000336  -0.000229  -0.000685
   14  C  2  Z   -0.000758  -0.000700  -0.000842   0.001042   0.000471
   15  C  2  S    0.002262   0.032744  -0.119594  -0.038196  -0.018827
   16  C  2  X    0.007136   0.020733  -0.006399  -0.000608  -0.003753
   17  C  2  Y    0.002909  -0.000015  -0.007459  -0.000903  -0.001155
   18  C  2  Z    0.003864  -0.002315   0.005407  -0.006313  -0.002393
   19  C  3  S   -0.004789  -0.008302  -0.003623   0.005028  -0.001756
   20  C  3  S   -0.001810  -0.002116  -0.002880   0.000526  -0.000371
   21  C  3  X   -0.000219  -0.000814   0.001087   0.000196   0.000035
   22  C  3  Y    0.000169   0.000119   0.000335  -0.000053  -0.000186
   23  C  3  Z    0.000109  -0.000155   0.000985   0.000363   0.000189
   24  C  3  S    0.006959   0.004236   0.025391   0.003655   0.001885
   25  C  3  X    0.003403   0.000795   0.010525   0.000995   0.000348
   26  C  3  Y   -0.000569  -0.000559   0.003294   0.000780   0.001062
   27  C  3  Z    0.001848   0.001903   0.007023   0.001706  -0.000429
   28  C  4  S   -0.002447  -0.007594   0.002722  -0.019360  -0.007027
   29  C  4  S   -0.000414  -0.001501  -0.001415  -0.003871  -0.001508
   30  C  4  X   -0.000426  -0.000681   0.000324  -0.000054   0.000110
   31  C  4  Y   -0.000174   0.000015   0.000432   0.000240   0.000074
   32  C  4  Z    0.000120   0.000717  -0.001221  -0.000300  -0.000187
   33  C  4  S   -0.000162   0.000422   0.019727   0.014586   0.006153
   34  C  4  X   -0.000784  -0.001297   0.004486   0.003561   0.001743
   35  C  4  Y   -0.000274  -0.000816   0.004047   0.002225   0.001146
   36  C  4  Z   -0.000174  -0.000780  -0.008488  -0.005897  -0.001859
   37  C  5  S    0.000652  -0.000419  -0.000127   0.000382  -0.003660
   38  C  5  S    0.001031   0.000353  -0.001694  -0.000216  -0.003723
   39  C  5  X    0.000134  -0.000727   0.000078   0.000289  -0.001888
   40  C  5  Y    0.000249   0.000926  -0.000250   0.000165   0.000985
   41  C  5  Z   -0.000086   0.000153  -0.000406   0.000630   0.000331
   42  C  5  S   -0.005121  -0.017573   0.024032   0.003751   0.007611
   43  C  5  X   -0.001606  -0.003518  -0.006738  -0.001788   0.010375
   44  C  5  Y    0.002483   0.003764  -0.025757  -0.010049  -0.011307
   45  C  5  Z   -0.000670   0.000672   0.000142  -0.000944  -0.003074
   46  C  6  S   -0.000083  -0.000677  -0.000438  -0.000377  -0.000036
   47  C  6  S   -0.000109  -0.000986  -0.000312  -0.000487  -0.000195
   48  C  6  X    0.000086   0.000016  -0.000165  -0.000222   0.000304
   49  C  6  Y    0.000035   0.000158   0.000371   0.000081  -0.000055
   50  C  6  Z   -0.000012   0.000037   0.000211  -0.000203  -0.000031
   51  C  6  S   -0.000096   0.002835   0.003827   0.003945   0.008310
   52  C  6  X   -0.000506   0.001229   0.006748   0.004279   0.001354
   53  C  6  Y   -0.000295  -0.002195   0.002645  -0.000351  -0.003878
   54  C  6  Z    0.000513  -0.000492  -0.002390  -0.000349  -0.001306
   55  C  7  S   -0.001842  -0.018004  -0.008795  -0.000549  -0.000507
   56  C  7  S   -0.000064  -0.007675  -0.001485  -0.000337  -0.001541
   57  C  7  X   -0.000445   0.000307   0.000918  -0.000216   0.000929
   58  C  7  Y    0.000587   0.002093   0.000334  -0.000716  -0.001231
   59  C  7  Z   -0.000415  -0.000078   0.000116  -0.000878   0.000233
   60  C  7  S   -0.005658   0.019975  -0.003058   0.004749   0.019108
   61  C  7  X   -0.001884  -0.004994  -0.001280  -0.004845   0.008859
   62  C  7  Y    0.002773  -0.016693   0.008338  -0.000756  -0.002860
   63  C  7  Z    0.001288   0.006387   0.005919  -0.012054   0.000211
   64  C  8  S   -0.007660  -0.005494   0.108536  -0.589370   0.785415
   65  C  8  S   -0.003636   0.000020   0.012568  -0.063556   0.082456
   66  C  8  X   -0.000057   0.000769   0.000026   0.000196  -0.000381
   67  C  8  Y   -0.000873   0.000427   0.000085   0.000551  -0.000047
   68  C  8  Z   -0.000216   0.000587  -0.000540   0.001034  -0.000032
   69  C  8  S    0.025402  -0.013314  -0.011498   0.054535  -0.070121
   70  C  8  X   -0.003918   0.004170   0.001328  -0.002231   0.004866
   71  C  8  Y   -0.012448   0.002682  -0.000181  -0.003032   0.003595
   72  C  8  Z   -0.001792   0.004201   0.001455  -0.006662   0.002964
   73  C  9  S    0.987756   0.013120   0.007143   0.011269   0.015865
   74  C  9  S    0.105344  -0.001630   0.000102   0.000606  -0.002108
   75  C  9  X   -0.000283  -0.001241   0.001158   0.000178   0.000269
   76  C  9  Y    0.000408   0.000208  -0.000140  -0.000906   0.000294
   77  C  9  Z   -0.000783  -0.001391  -0.000064   0.000909   0.000562
   78  C  9  S   -0.092670   0.032744   0.000695  -0.011621   0.020342
   79  C  9  X    0.003674  -0.012072  -0.001779  -0.000766   0.000452
   80  C  9  Y   -0.007633   0.004656   0.001899  -0.005950   0.011200
   81  C  9  Z    0.006937  -0.010789   0.001721  -0.002894  -0.002913
   82  C 10  S   -0.016135   0.002187  -0.320779   0.725636   0.588362
   83  C 10  S   -0.004345  -0.001048  -0.036096   0.078055   0.061104
   84  C 10  X   -0.000371  -0.000739   0.000694   0.000275  -0.000621
   85  C 10  Y    0.000578  -0.002189   0.000576   0.000298  -0.000107
   86  C 10  Z   -0.001030   0.001057  -0.001248   0.001422   0.000116
   87  C 10  S    0.008003   0.020308   0.032651  -0.067405  -0.048882
   88  C 10  X    0.002131  -0.004007  -0.001603   0.001309   0.004522
   89  C 10  Y   -0.000619  -0.010228   0.000696  -0.000263  -0.000771
   90  C 10  Z    0.005891   0.006193   0.006643  -0.010964  -0.002753
   91  H 11  S   -0.000973  -0.000318  -0.000771  -0.001290  -0.001002
   92  H 11  S   -0.000376   0.006564   0.000534  -0.000918   0.000205
   93  H 12  S   -0.000557  -0.000074  -0.001229  -0.000184   0.000066
   94  H 12  S   -0.000396  -0.001464  -0.000186   0.000289   0.000183
   95  H 13  S   -0.000189  -0.000276  -0.001278  -0.000323  -0.000175
   96  H 13  S    0.000702   0.000700   0.000102  -0.000101  -0.000226
   97  H 14  S   -0.000389  -0.000131  -0.001541  -0.000101  -0.000020
   98  H 14  S   -0.000363   0.000045  -0.001105  -0.000490  -0.001645
   99  H 15  S    0.000009   0.000464  -0.001310  -0.000802  -0.000198
  100  H 15  S   -0.000134  -0.000724  -0.000766  -0.000825  -0.001457
  101  H 16  S   -0.000106  -0.000191  -0.001027  -0.000569  -0.000293
  102  H 16  S    0.000020   0.000702   0.000188   0.000233   0.000149
  103  H 17  S    0.000271  -0.000227  -0.000980  -0.000818  -0.000378
  104  H 17  S   -0.000797  -0.000432  -0.000123  -0.000225   0.000155
  105  H 18  S   -0.000081  -0.000287   0.000705   0.000220  -0.000293
  106  H 18  S   -0.000421   0.000325   0.002993   0.001545  -0.000178
  107  H 19  S    0.000114  -0.000056  -0.000840  -0.000554  -0.000057
  108  H 19  S   -0.000029   0.000312  -0.001573  -0.000198   0.001009
  109  H 20  S    0.000039   0.000706  -0.000518  -0.000550  -0.001729
  110  H 20  S    0.000734   0.006994  -0.001157  -0.001301  -0.001519
  111  H 21  S   -0.001342   0.000490   0.000166  -0.000696   0.000477
  112  H 21  S    0.000678   0.000041   0.001960  -0.009717   0.009748
  113  H 22  S   -0.001482   0.000578   0.000376  -0.000269   0.000578
  114  H 22  S    0.000124  -0.000643   0.000935  -0.005959   0.012088
  115  H 23  S    0.000574  -0.001809  -0.000159   0.000883  -0.001137
  116  H 23  S    0.013084   0.000798  -0.001768   0.001395   0.002091
  117  H 24  S    0.001115  -0.001410  -0.000016   0.000440  -0.001346
  118  H 24  S    0.014114   0.001114   0.002973  -0.000889   0.000075
  119  H 25  S   -0.000896  -0.001080  -0.000601   0.000825  -0.000281
  120  H 25  S   -0.000958  -0.000233  -0.002604   0.009929   0.006583
  121  H 26  S    0.000057  -0.001147  -0.000297   0.000347   0.000347
  122  H 26  S    0.002611  -0.000024  -0.004056   0.007784   0.010555

                      6          7          8          9         10
                  -10.9899   -10.9876   -10.9822   -10.8860   -10.8687
                     A          A          A          A          A   
    1  C  1  S    0.006695   0.008739   0.016297   0.000598   0.000416
    2  C  1  S    0.000048  -0.000462  -0.003960  -0.000708  -0.000937
    3  C  1  X    0.000276   0.001096  -0.000567   0.000285  -0.000057
    4  C  1  Y    0.000035  -0.000067  -0.001763  -0.000547  -0.000269
    5  C  1  Z   -0.000716   0.000519  -0.000094  -0.000120  -0.000084
    6  C  1  S   -0.001339   0.001335   0.018603  -0.000706   0.002958
    7  C  1  X   -0.000891  -0.004191  -0.000081   0.001313  -0.000016
    8  C  1  Y   -0.000852   0.001037   0.015514  -0.000435   0.002738
    9  C  1  Z    0.001079  -0.003428   0.007817   0.003262   0.001047
   10  C  2  S    0.003723   0.001660   0.008484  -0.000115   0.000589
   11  C  2  S   -0.000167  -0.000314   0.000989  -0.000381   0.000076
   12  C  2  X   -0.000123  -0.000395  -0.000331  -0.000262   0.000259
   13  C  2  Y   -0.000122  -0.000341  -0.000590   0.000614  -0.000443
   14  C  2  Z    0.000052  -0.000025  -0.000059  -0.000293  -0.000126
   15  C  2  S    0.009608   0.009278  -0.011374   0.009927  -0.000886
   16  C  2  X   -0.001182  -0.007913  -0.011980   0.006978   0.000063
   17  C  2  Y   -0.005265  -0.003141  -0.000894   0.009296   0.000477
   18  C  2  Z    0.012644  -0.007736   0.003634   0.001472  -0.000036
   19  C  3  S   -0.095203   0.982889  -0.000639   0.002074   0.000113
   20  C  3  S   -0.011883   0.101495  -0.000136  -0.002049  -0.000042
   21  C  3  X    0.000083   0.000004   0.000097  -0.000557  -0.000005
   22  C  3  Y    0.000293  -0.000164   0.000120  -0.001116  -0.000250
   23  C  3  Z   -0.001074   0.000003  -0.000029  -0.000199  -0.000014
   24  C  3  S    0.013251  -0.079339  -0.000548   0.006329   0.000072
   25  C  3  X    0.000419  -0.002860   0.000950   0.002759   0.000209
   26  C  3  Y   -0.000380  -0.000467  -0.000454   0.004239   0.000577
   27  C  3  Z    0.004295  -0.002134  -0.002046   0.002098   0.000116
   28  C  4  S    0.982739   0.094697  -0.003269   0.001692   0.000160
   29  C  4  S    0.101706   0.007734  -0.000138  -0.001411  -0.000102
   30  C  4  X   -0.000242   0.000526   0.000167  -0.000459   0.000078
   31  C  4  Y   -0.000156   0.000182   0.000038  -0.001091  -0.000259
   32  C  4  Z   -0.000181   0.000918  -0.000099   0.000379  -0.000037
   33  C  4  S   -0.080563  -0.002207  -0.001363   0.002532   0.000429
   34  C  4  X   -0.000743  -0.001491   0.001104  -0.000012  -0.000366
   35  C  4  Y   -0.001117  -0.000812  -0.000319   0.003462   0.000697
   36  C  4  Z    0.004466  -0.003441   0.001988  -0.001788  -0.000105
   37  C  5  S   -0.001789  -0.002753  -0.000195   0.987105   0.009553
   38  C  5  S   -0.001560  -0.002358  -0.001926   0.101999  -0.002792
   39  C  5  X    0.000546   0.000907   0.000346   0.000967   0.001848
   40  C  5  Y    0.000701   0.000943  -0.000148  -0.001148  -0.002399
   41  C  5  Z   -0.000875   0.000494   0.000025  -0.000182  -0.000797
   42  C  5  S    0.004341   0.005367   0.030468  -0.079302   0.025524
   43  C  5  X   -0.002910  -0.004262   0.029319  -0.001742  -0.011051
   44  C  5  Y   -0.002855  -0.004053  -0.008473   0.002510   0.013484
   45  C  5  Z    0.001510  -0.000078  -0.009011   0.000279   0.004722
   46  C  6  S   -0.000133  -0.000078  -0.000746  -0.009928   0.986532
   47  C  6  S   -0.000000   0.000083  -0.000678  -0.004917   0.097229
   48  C  6  X   -0.000034  -0.000061  -0.000209  -0.001465  -0.000014
   49  C  6  Y    0.000152  -0.000001   0.000072   0.001794   0.000029
   50  C  6  Z   -0.000090   0.000076   0.000017   0.000617   0.000022
   51  C  6  S   -0.001045  -0.000915   0.010131   0.022044  -0.071691
   52  C  6  X    0.000413   0.001138  -0.001243   0.007316  -0.005631
   53  C  6  Y    0.001568   0.002690  -0.007591  -0.009455   0.007188
   54  C  6  Z   -0.000067   0.000135  -0.000343  -0.002965   0.002387
   55  C  7  S    0.003159   0.000725   0.988915  -0.000158   0.000710
   56  C  7  S    0.000624   0.000006   0.111751   0.000211  -0.000117
   57  C  7  X    0.000035   0.000021   0.000071  -0.000554   0.000451
   58  C  7  Y   -0.000262  -0.000215  -0.003636  -0.000097  -0.000550
   59  C  7  Z    0.000297  -0.000226   0.000471   0.000303  -0.000204
   60  C  7  S   -0.000524   0.002059  -0.122255   0.006746   0.000805
   61  C  7  X   -0.000835  -0.000852   0.011656  -0.009027  -0.000983
   62  C  7  Y    0.002535   0.000925   0.029486   0.004749   0.000413
   63  C  7  Z   -0.000157   0.001480  -0.010199  -0.000374   0.000372
   64  C  8  S   -0.006704   0.004018   0.000040   0.002422  -0.000131
   65  C  8  S   -0.000513   0.000280  -0.003001  -0.002936   0.000023
   66  C  8  X   -0.000523   0.000169  -0.001430   0.001842  -0.000063
   67  C  8  Y   -0.000094   0.000203   0.000482  -0.000039   0.000038
   68  C  8  Z   -0.000010   0.000012  -0.001699   0.000053   0.000058
   69  C  8  S    0.001877  -0.001044   0.035233   0.009149   0.000466
   70  C  8  X    0.001862   0.000131  -0.012047  -0.010054  -0.000102
   71  C  8  Y    0.000272  -0.000434   0.000630  -0.001803  -0.000646
   72  C  8  Z   -0.000828   0.000134  -0.011310  -0.001892  -0.000623
   73  C  9  S    0.002403   0.004781   0.002514  -0.000182   0.000108
   74  C  9  S   -0.000020  -0.000737   0.000967   0.001211   0.000057
   75  C  9  X    0.000546   0.000303   0.000431  -0.000284   0.000189
   76  C  9  Y    0.000127  -0.000142  -0.000764  -0.000384  -0.000024
   77  C  9  Z   -0.000139   0.000041   0.000501   0.000059   0.000078
   78  C  9  S    0.000175   0.004520  -0.013883  -0.007273  -0.001512
   79  C  9  X   -0.001640  -0.002906   0.003278   0.003991   0.000023
   80  C  9  Y   -0.000184   0.000299  -0.004630  -0.003009  -0.000578
   81  C  9  Z    0.000559  -0.001611   0.002827   0.000484   0.000628
   82  C 10  S    0.019152  -0.001820  -0.002763   0.001439   0.000071
   83  C 10  S    0.000764   0.000212  -0.001779  -0.001938  -0.000196
   84  C 10  X    0.000331   0.000013  -0.000079   0.000881  -0.000001
   85  C 10  Y    0.000093   0.000050   0.002441  -0.000341   0.000198
   86  C 10  Z   -0.000066   0.000230   0.001243  -0.000479  -0.000069
   87  C 10  S    0.003304  -0.000490   0.024014   0.005130   0.000114
   88  C 10  X   -0.002415   0.001822   0.001323  -0.004765  -0.000428
   89  C 10  Y   -0.000429   0.001162   0.010054   0.001227   0.000457
   90  C 10  Z    0.002176  -0.001569   0.008891   0.003626   0.000015
   91  H 11  S    0.000169  -0.000509   0.000473   0.000114   0.000115
   92  H 11  S   -0.000716  -0.000403   0.006893   0.000953   0.001041
   93  H 12  S   -0.000642   0.000356  -0.000036  -0.000157  -0.000002
   94  H 12  S   -0.002528   0.013957  -0.000182   0.002600   0.000449
   95  H 13  S   -0.000526   0.000183   0.000094  -0.000610  -0.000154
   96  H 13  S   -0.003039   0.014029   0.000810  -0.001194   0.000004
   97  H 14  S   -0.000134   0.000065  -0.000021  -0.000898  -0.000057
   98  H 14  S    0.000706   0.014938  -0.001375  -0.000438  -0.000013
   99  H 15  S    0.000187  -0.000083   0.000158  -0.000842  -0.000133
  100  H 15  S    0.013599   0.003396  -0.001459   0.000974   0.000235
  101  H 16  S    0.000356  -0.000622   0.000120  -0.000297  -0.000009
  102  H 16  S    0.014403   0.000521   0.000255  -0.001313  -0.000781
  103  H 17  S    0.000384  -0.000446   0.000033   0.000045  -0.000034
  104  H 17  S    0.014304  -0.000551   0.000108   0.002105   0.000486
  105  H 18  S    0.000310   0.000605  -0.000855  -0.000943  -0.001468
  106  H 18  S   -0.000197  -0.000311  -0.001092   0.000615   0.012216
  107  H 19  S   -0.000177  -0.000317   0.000435  -0.000905  -0.001443
  108  H 19  S   -0.000434  -0.001068   0.002250   0.000608   0.012178
  109  H 20  S   -0.000239  -0.000167  -0.000366  -0.000874  -0.000132
  110  H 20  S   -0.000737  -0.000121   0.005447  -0.001143  -0.000209
  111  H 21  S   -0.000286   0.000007  -0.001428   0.000214  -0.000045
  112  H 21  S   -0.001223   0.000314   0.000427   0.004401   0.000127
  113  H 22  S    0.000457   0.000068  -0.001777  -0.001665  -0.000076
  114  H 22  S   -0.000626   0.000089  -0.000357   0.000505   0.000555
  115  H 23  S   -0.000343  -0.000334   0.000573   0.000816   0.000015
  116  H 23  S   -0.000541  -0.000183   0.000101  -0.000235  -0.000252
  117  H 24  S    0.000096  -0.000219   0.000522  -0.000028   0.000077
  118  H 24  S    0.000775   0.000856  -0.000291  -0.001240   0.000189
  119  H 25  S   -0.000083  -0.000217  -0.001393   0.000139   0.000032
  120  H 25  S    0.001332  -0.000610  -0.000875   0.002946   0.000316
  121  H 26  S   -0.000425   0.000480  -0.001135  -0.001021  -0.000027
  122  H 26  S    0.000078  -0.001950   0.000886   0.000040  -0.000228

                     11         12         13         14         15
                   -0.9970    -0.8820    -0.8192    -0.7960    -0.7607
                     A          A          A          A          A   
    1  C  1  S   -0.107274  -0.003094   0.068589  -0.096232   0.028970
    2  C  1  S    0.099296   0.006240  -0.054082   0.077333  -0.022338
    3  C  1  X    0.009172  -0.067399  -0.026840   0.002463  -0.005491
    4  C  1  Y    0.041160  -0.006755   0.037077   0.015523  -0.005845
    5  C  1  Z    0.008428   0.002779  -0.047067  -0.059645  -0.003190
    6  C  1  S    0.249077   0.001386  -0.219775   0.302520  -0.099574
    7  C  1  X    0.016291   0.004737  -0.009865   0.004234   0.000705
    8  C  1  Y    0.046280  -0.006565  -0.029896   0.039784  -0.014625
    9  C  1  Z    0.010912   0.000848  -0.018345   0.011509  -0.004821
   10  C  2  S   -0.080469  -0.124291   0.008481   0.006442   0.001933
   11  C  2  S    0.074574   0.102514  -0.009992  -0.000398  -0.003748
   12  C  2  X    0.030974  -0.041488  -0.001219   0.037338  -0.050752
   13  C  2  Y    0.005003  -0.015489   0.060881  -0.020586  -0.000423
   14  C  2  Z   -0.007693   0.005418  -0.016789  -0.055356  -0.093254
   15  C  2  S    0.190045   0.355562  -0.008923  -0.046183   0.008992
   16  C  2  X   -0.010316  -0.006315   0.026176  -0.009769  -0.002711
   17  C  2  Y   -0.000107   0.005489   0.017254  -0.008971   0.001140
   18  C  2  Z   -0.009709  -0.004019  -0.002830  -0.006523  -0.020837
   19  C  3  S   -0.030872  -0.102063   0.009326  -0.010219  -0.162029
   20  C  3  S    0.036823   0.104239  -0.010515   0.007694   0.150143
   21  C  3  X    0.018546   0.025402  -0.001241   0.010125  -0.011865
   22  C  3  Y    0.004171   0.004127   0.011312  -0.003488  -0.003231
   23  C  3  Z    0.012247   0.031623  -0.005118  -0.012016  -0.019904
   24  C  3  S    0.042442   0.241361  -0.015445   0.035480   0.494990
   25  C  3  X   -0.009699  -0.006330   0.002681   0.010154  -0.007989
   26  C  3  Y   -0.007173  -0.009144   0.000991  -0.001552  -0.012296
   27  C  3  Z   -0.007971  -0.003102   0.005480  -0.003953  -0.002268
   28  C  4  S   -0.031215  -0.098380   0.044459   0.068932   0.116981
   29  C  4  S    0.035258   0.100809  -0.042002  -0.064398  -0.108034
   30  C  4  X    0.010235   0.004611  -0.006348   0.002146  -0.009202
   31  C  4  Y    0.006754   0.010679   0.008776  -0.006591   0.001734
   32  C  4  Z   -0.018962  -0.038713   0.004908  -0.002949  -0.020888
   33  C  4  S    0.055704   0.234592  -0.126483  -0.204533  -0.358552
   34  C  4  X   -0.000014  -0.006051  -0.007675   0.002291  -0.000244
   35  C  4  Y   -0.004201  -0.006880   0.003515   0.002914   0.009423
   36  C  4  Z    0.006185   0.004196  -0.000020   0.003200  -0.005422
   37  C  5  S   -0.061238  -0.037261  -0.105168   0.050910   0.019812
   38  C  5  S    0.068942   0.040038   0.107313  -0.053883  -0.017666
   39  C  5  X    0.022875  -0.040463   0.013162   0.009580   0.000258
   40  C  5  Y   -0.025774  -0.026080   0.037166  -0.029238  -0.003436
   41  C  5  Z   -0.008357   0.005167  -0.010589  -0.027352  -0.014051
   42  C  5  S    0.091110   0.061509   0.196161  -0.085698  -0.053981
   43  C  5  X   -0.020680   0.053575  -0.012212  -0.000508  -0.007109
   44  C  5  Y    0.021611   0.007982  -0.012337  -0.003194   0.013004
   45  C  5  Z    0.007966  -0.015115  -0.004300  -0.004693   0.002077
   46  C  6  S   -0.016812  -0.021830  -0.070803   0.049313   0.016654
   47  C  6  S    0.021414   0.022775   0.075280  -0.050826  -0.017788
   48  C  6  X    0.010845   0.005819   0.034464  -0.019235  -0.007043
   49  C  6  Y   -0.014776  -0.018492  -0.035002   0.023039   0.007800
   50  C  6  Z   -0.004652  -0.003909  -0.014899   0.005451  -0.000668
   51  C  6  S    0.000181   0.064972   0.153188  -0.116753  -0.043911
   52  C  6  X   -0.006331  -0.012195   0.011515  -0.007292  -0.003389
   53  C  6  Y    0.015704  -0.025786   0.002878   0.006731   0.000637
   54  C  6  Z    0.003628   0.000424  -0.003311  -0.000786  -0.001929
   55  C  7  S   -0.089197   0.048973  -0.107956   0.032693  -0.003321
   56  C  7  S    0.079633  -0.039891   0.086908  -0.023566   0.002662
   57  C  7  X   -0.006740  -0.032693  -0.038901  -0.012534   0.023590
   58  C  7  Y   -0.042687   0.019111   0.004993  -0.030090   0.004723
   59  C  7  Z    0.003761  -0.006537  -0.012337  -0.069843   0.020401
   60  C  7  S    0.219363  -0.154284   0.328357  -0.116622   0.010864
   61  C  7  X   -0.013756   0.017358  -0.021868   0.004045   0.001940
   62  C  7  Y   -0.053793   0.020985  -0.048748   0.024102  -0.001551
   63  C  7  Z    0.011968  -0.012421   0.021639  -0.010236  -0.003573
   64  C  8  S   -0.070672   0.078037   0.017419   0.116897  -0.056623
   65  C  8  S    0.074422  -0.075557  -0.011347  -0.107687   0.050722
   66  C  8  X   -0.025077   0.006472  -0.020177   0.000529   0.009340
   67  C  8  Y   -0.019143   0.014473   0.061243  -0.001456  -0.000259
   68  C  8  Z   -0.026869   0.017577  -0.026463  -0.011376   0.004373
   69  C  8  S    0.132467  -0.185693  -0.073665  -0.320704   0.174633
   70  C  8  X    0.009284  -0.004824   0.017444  -0.008639   0.005309
   71  C  8  Y   -0.001443   0.003780   0.011484  -0.001029   0.000502
   72  C  8  Z    0.000245   0.007042   0.008602   0.000830  -0.004729
   73  C  9  S   -0.079499   0.061999   0.122542   0.044357  -0.015199
   74  C  9  S    0.081881  -0.056861  -0.113440  -0.036250   0.014168
   75  C  9  X   -0.022115  -0.013968   0.008728  -0.032321   0.025237
   76  C  9  Y    0.025695  -0.027167   0.016125  -0.042982   0.023479
   77  C  9  Z   -0.027599   0.007853   0.005873  -0.045751   0.013008
   78  C  9  S    0.159632  -0.166835  -0.328351  -0.154485   0.042093
   79  C  9  X    0.006180   0.002683  -0.010397   0.008091   0.009253
   80  C  9  Y    0.000874  -0.007383   0.008179  -0.018082   0.005679
   81  C  9  Z   -0.000148   0.012082   0.005894   0.002738   0.002710
   82  C 10  S   -0.088758   0.037757  -0.049817  -0.115050   0.027067
   83  C 10  S    0.091706  -0.034669   0.044105   0.099027  -0.025378
   84  C 10  X   -0.011941  -0.018635  -0.009255  -0.017670   0.003902
   85  C 10  Y   -0.003469  -0.009412   0.053064  -0.037647   0.007110
   86  C 10  Z    0.049296  -0.018188   0.003940  -0.000545  -0.003195
   87  C 10  S    0.152391  -0.092560   0.141257   0.343869  -0.075140
   88  C 10  X    0.000788  -0.003208  -0.002848  -0.005687  -0.009147
   89  C 10  Y    0.000031   0.001293  -0.002487  -0.001359  -0.003537
   90  C 10  Z   -0.005513  -0.005047   0.009852   0.026733   0.000331
   91  H 11  S    0.039332   0.007813  -0.044488   0.058112  -0.012008
   92  H 11  S    0.008227   0.005592  -0.026494   0.029985  -0.005419
   93  H 12  S    0.013662   0.051975  -0.010490   0.005335   0.096509
   94  H 12  S   -0.002542   0.002428  -0.008175   0.002040   0.018519
   95  H 13  S    0.013543   0.051588  -0.003468  -0.000554   0.095576
   96  H 13  S   -0.002112   0.005434   0.001615  -0.003853   0.018032
   97  H 14  S    0.015642   0.048105  -0.001685   0.012495   0.101573
   98  H 14  S    0.003401  -0.001291   0.005550   0.006875   0.026931
   99  H 15  S    0.014624   0.044762  -0.025122  -0.042513  -0.077344
  100  H 15  S    0.002468  -0.002861  -0.003746  -0.010604  -0.022248
  101  H 16  S    0.013279   0.051162  -0.021066  -0.041049  -0.065411
  102  H 16  S   -0.002327   0.004573  -0.000797  -0.010379  -0.011078
  103  H 17  S    0.013830   0.049685  -0.028215  -0.036006  -0.068580
  104  H 17  S   -0.001337   0.003032  -0.009809  -0.003545  -0.010042
  105  H 18  S    0.006554   0.008534   0.028299  -0.021698  -0.007796
  106  H 18  S   -0.000809  -0.004611   0.004048  -0.005292  -0.000871
  107  H 19  S    0.005718   0.007814   0.030681  -0.021637  -0.007671
  108  H 19  S   -0.005134   0.006998   0.000969  -0.004509  -0.000426
  109  H 20  S    0.030003  -0.020862   0.058657  -0.022651   0.003824
  110  H 20  S    0.009137  -0.008803   0.031899  -0.015530   0.001556
  111  H 21  S    0.026866  -0.038877  -0.009848  -0.066015   0.036890
  112  H 21  S   -0.007302  -0.003239  -0.007200  -0.008958   0.008458
  113  H 22  S    0.027049  -0.034389  -0.005310  -0.071950   0.033588
  114  H 22  S   -0.003985  -0.000284  -0.001611  -0.018933   0.006711
  115  H 23  S    0.030957  -0.023695  -0.073512  -0.032057   0.004065
  116  H 23  S   -0.003788   0.003428  -0.018588  -0.015364  -0.003273
  117  H 24  S    0.032191  -0.032691  -0.070686  -0.021570   0.012045
  118  H 24  S   -0.006730  -0.006814  -0.008558  -0.003424   0.003194
  119  H 25  S    0.036564  -0.024317   0.017798   0.059171  -0.013806
  120  H 25  S   -0.004116  -0.008213  -0.001978   0.014225   0.000761
  121  H 26  S    0.034220  -0.010009   0.032714   0.067015  -0.013699
  122  H 26  S   -0.006673   0.009049   0.010857   0.021186   0.001290

                     16         17         18         19         20
                   -0.7416    -0.6613    -0.6077    -0.5749    -0.5063
                     A          A          A          A          A   
    1  C  1  S   -0.056207   0.046699  -0.057938  -0.089218   0.017938
    2  C  1  S    0.045300  -0.036371   0.045506   0.072551  -0.003907
    3  C  1  X    0.006798   0.095357  -0.040341   0.020952  -0.103849
    4  C  1  Y   -0.023897  -0.012993  -0.021576  -0.108481  -0.123230
    5  C  1  Z    0.038429  -0.035182  -0.075179  -0.001398  -0.005111
    6  C  1  S    0.196230  -0.182332   0.229183   0.368568  -0.104753
    7  C  1  X    0.000506   0.024608  -0.009461   0.013240  -0.060940
    8  C  1  Y    0.016486  -0.036158   0.002350  -0.043923  -0.128459
    9  C  1  Z    0.010872  -0.017323  -0.027809   0.002197  -0.022594
   10  C  2  S   -0.013862   0.086461  -0.014724   0.078203  -0.062056
   11  C  2  S    0.012530  -0.068769   0.011053  -0.059658   0.044217
   12  C  2  X    0.047650  -0.079391   0.008448   0.023004  -0.053660
   13  C  2  Y    0.043504  -0.007437  -0.040512  -0.095356  -0.088445
   14  C  2  Z   -0.025465   0.019245  -0.012878  -0.009765  -0.008150
   15  C  2  S    0.021122  -0.303103   0.050847  -0.319494   0.272041
   16  C  2  X   -0.015075  -0.042263  -0.003342  -0.001247  -0.013097
   17  C  2  Y    0.004477  -0.003759  -0.018153  -0.065159  -0.059879
   18  C  2  Z   -0.008109   0.017926  -0.000954  -0.001546  -0.012040
   19  C  3  S    0.029459  -0.049704   0.020613  -0.025653   0.023206
   20  C  3  S   -0.025689   0.042331  -0.018228   0.020649  -0.017852
   21  C  3  X    0.012278  -0.054828   0.028094  -0.044712   0.091414
   22  C  3  Y    0.012315  -0.007864  -0.004925  -0.052065  -0.018033
   23  C  3  Z   -0.002495  -0.027486   0.013765  -0.044122   0.078719
   24  C  3  S   -0.102542   0.185693  -0.074175   0.109045  -0.105991
   25  C  3  X   -0.000733  -0.015312   0.021039  -0.015967   0.056453
   26  C  3  Y    0.004752  -0.001507  -0.002113  -0.026004  -0.007503
   27  C  3  Z   -0.007088  -0.008741   0.006008  -0.022992   0.050837
   28  C  4  S    0.088894  -0.050938   0.003540  -0.022987   0.018496
   29  C  4  S   -0.082406   0.044879  -0.002477   0.018308  -0.013784
   30  C  4  X    0.017158  -0.037019  -0.000958  -0.016111   0.027418
   31  C  4  Y    0.015211  -0.017073  -0.001839  -0.056330  -0.011201
   32  C  4  Z   -0.013632   0.049788  -0.015575   0.048261  -0.105274
   33  C  4  S   -0.276136   0.182367  -0.020170   0.098987  -0.086989
   34  C  4  X    0.014515  -0.013212  -0.003418  -0.002973   0.014656
   35  C  4  Y    0.009927  -0.008679   0.002283  -0.025861  -0.007325
   36  C  4  Z   -0.001982   0.019670  -0.005926   0.021499  -0.065542
   37  C  5  S   -0.095147   0.009884   0.031376   0.033471   0.026799
   38  C  5  S    0.090803  -0.005233  -0.024993  -0.030464  -0.024096
   39  C  5  X   -0.064738  -0.069768  -0.085732   0.053488  -0.020882
   40  C  5  Y    0.051028   0.105771   0.031775   0.101908   0.031380
   41  C  5  Z    0.022678   0.018963   0.042955   0.003370  -0.019258
   42  C  5  S    0.245584  -0.029090  -0.089527  -0.102428  -0.097963
   43  C  5  X    0.032143  -0.017865  -0.025300  -0.007718  -0.001590
   44  C  5  Y   -0.038043   0.020476   0.022748   0.035535   0.031617
   45  C  5  Z   -0.009694   0.003153   0.015368   0.010685  -0.014693
   46  C  6  S   -0.116739  -0.101902  -0.075466  -0.034388  -0.004814
   47  C  6  S    0.120868   0.100963   0.073360   0.032602   0.003641
   48  C  6  X    0.032534   0.002893  -0.021234   0.010126   0.001376
   49  C  6  Y   -0.044557  -0.003489   0.007733   0.040530   0.019024
   50  C  6  Z   -0.015086  -0.003114   0.010486   0.002345  -0.005110
   51  C  6  S    0.307994   0.285417   0.219088   0.099301   0.022034
   52  C  6  X    0.008319   0.001128  -0.014264   0.012148  -0.002890
   53  C  6  Y   -0.016310  -0.001758   0.002626   0.025625   0.000148
   54  C  6  Z   -0.005687  -0.002636   0.008433  -0.000362  -0.002575
   55  C  7  S    0.059319   0.026599   0.089475  -0.079693  -0.033886
   56  C  7  S   -0.048190  -0.020536  -0.069334   0.066686   0.034082
   57  C  7  X   -0.064978   0.021351   0.067377   0.032778   0.047916
   58  C  7  Y    0.018422   0.001386  -0.025194   0.077578   0.151204
   59  C  7  Z    0.020312  -0.057064   0.042904   0.025341  -0.068641
   60  C  7  S   -0.193729  -0.109844  -0.350784   0.316981   0.124804
   61  C  7  X   -0.007209   0.015029   0.030896   0.013358   0.049031
   62  C  7  Y    0.037957   0.028357   0.034901   0.024885   0.110090
   63  C  7  Z   -0.005926  -0.019136   0.004781   0.013140  -0.052957
   64  C  8  S    0.055791   0.028755  -0.102918   0.015682   0.006899
   65  C  8  S   -0.049691  -0.024105   0.083556  -0.012878  -0.006256
   66  C  8  X   -0.006398   0.024241   0.069570  -0.038224   0.075163
   67  C  8  Y   -0.043000  -0.042091   0.050785   0.068090   0.061699
   68  C  8  Z    0.025223  -0.001753   0.050834  -0.056116   0.032392
   69  C  8  S   -0.168029  -0.106714   0.422999  -0.066188  -0.025756
   70  C  8  X   -0.001372   0.008980   0.019145  -0.018241   0.048680
   71  C  8  Y   -0.004753  -0.012381   0.009055   0.036063   0.040451
   72  C  8  Z    0.007061  -0.000984   0.006865  -0.027772   0.025583
   73  C  9  S   -0.068290  -0.054747   0.083551   0.029048  -0.013666
   74  C  9  S    0.059331   0.045554  -0.067193  -0.024456   0.010509
   75  C  9  X   -0.018590   0.048504  -0.007204  -0.066707   0.057882
   76  C  9  Y   -0.043401  -0.033771   0.081690  -0.034644  -0.112911
   77  C  9  Z   -0.007428   0.006982  -0.033309  -0.072329   0.093540
   78  C  9  S    0.216445   0.209919  -0.351306  -0.124527   0.077438
   79  C  9  X   -0.002119   0.018587   0.004090  -0.031134   0.032499
   80  C  9  Y   -0.011269  -0.004706   0.023744  -0.021637  -0.076923
   81  C  9  Z   -0.003545  -0.007875  -0.005815  -0.036881   0.062414
   82  C 10  S    0.065333  -0.089271  -0.025082   0.065241  -0.006413
   83  C 10  S   -0.055714   0.075275   0.020964  -0.054512   0.007602
   84  C 10  X   -0.022281   0.047668   0.005110  -0.000356   0.009169
   85  C 10  Y   -0.040306  -0.000601  -0.087603  -0.011762   0.060181
   86  C 10  Z    0.007989  -0.059954  -0.033820   0.079162  -0.130485
   87  C 10  S   -0.207818   0.336538   0.102144  -0.280465   0.045381
   88  C 10  X   -0.000603   0.021255   0.007063   0.005489  -0.004855
   89  C 10  Y   -0.004823  -0.004702  -0.035072  -0.005148   0.034431
   90  C 10  Z   -0.009948  -0.000739  -0.009583   0.024404  -0.089145
   91  H 11  S    0.037147  -0.023060   0.068868   0.123517   0.067665
   92  H 11  S    0.016755  -0.012759   0.043647   0.081302   0.042309
   93  H 12  S   -0.024042   0.041910  -0.014466   0.054603  -0.017382
   94  H 12  S   -0.010562   0.020385  -0.004087   0.045631  -0.009340
   95  H 13  S   -0.018471   0.050346  -0.024627   0.018250  -0.057894
   96  H 13  S   -0.004753   0.028304  -0.009172   0.011469  -0.045686
   97  H 14  S   -0.013981   0.037258  -0.016630   0.023003  -0.047532
   98  H 14  S   -0.002997   0.015704  -0.007246   0.008346  -0.030838
   99  H 15  S   -0.049946   0.038030  -0.011821   0.019514  -0.051084
  100  H 15  S   -0.012108   0.013607  -0.006879   0.008838  -0.035861
  101  H 16  S   -0.058263   0.053013  -0.003232   0.018204  -0.046106
  102  H 16  S   -0.012243   0.030307  -0.001610   0.011506  -0.037457
  103  H 17  S   -0.060403   0.042904  -0.001019   0.050295  -0.005731
  104  H 17  S   -0.017481   0.020477  -0.000242   0.041505  -0.000852
  105  H 18  S    0.056640   0.064169   0.060175   0.017777  -0.000832
  106  H 18  S    0.011694   0.029276   0.030036   0.012363  -0.005663
  107  H 19  S    0.056255   0.063251   0.050838   0.043743   0.015550
  108  H 19  S    0.015084   0.026358   0.025518   0.028575   0.018795
  109  H 20  S   -0.038490  -0.005176  -0.071034   0.098571   0.133477
  110  H 20  S   -0.025039  -0.002751  -0.045887   0.061308   0.094344
  111  H 21  S   -0.041838  -0.010020   0.106597  -0.019162   0.046044
  112  H 21  S   -0.019116   0.002701   0.062869  -0.014234   0.047269
  113  H 22  S   -0.029256  -0.029215   0.093924  -0.019338   0.015019
  114  H 22  S   -0.005030  -0.012112   0.048138  -0.010896   0.012358
  115  H 23  S    0.046657   0.040664  -0.089945  -0.037494   0.077634
  116  H 23  S    0.013683   0.019204  -0.051016  -0.022207   0.059020
  117  H 24  S    0.044682   0.064251  -0.075611  -0.031701   0.059836
  118  H 24  S    0.011611   0.037847  -0.040313  -0.021815   0.054645
  119  H 25  S   -0.046037   0.091547   0.035157  -0.061684   0.031765
  120  H 25  S   -0.019453   0.048424   0.021750  -0.038283   0.034129
  121  H 26  S   -0.038138   0.068136   0.022414  -0.083401   0.070390
  122  H 26  S   -0.011339   0.035003   0.012359  -0.048648   0.049938

                     21         22         23         24         25
                   -0.4929    -0.4666    -0.4353    -0.4146    -0.4040
                     A          A          A          A          A   
    1  C  1  S    0.013215  -0.017249  -0.004577  -0.012666   0.019226
    2  C  1  S   -0.010353   0.016043   0.004819   0.009345  -0.012650
    3  C  1  X    0.053759   0.077981   0.070004  -0.012642  -0.023991
    4  C  1  Y    0.042741  -0.108104  -0.085439  -0.012727   0.004389
    5  C  1  Z    0.054424  -0.097304   0.052570   0.033550   0.043869
    6  C  1  S   -0.071306   0.071841   0.022501   0.056780  -0.086974
    7  C  1  X    0.049558   0.056614   0.052978  -0.008302  -0.017183
    8  C  1  Y    0.033132  -0.096430  -0.069065  -0.011786  -0.002903
    9  C  1  Z    0.036052  -0.077856   0.027956   0.021930   0.030978
   10  C  2  S   -0.058496   0.017188  -0.000160  -0.013713  -0.006314
   11  C  2  S    0.045428  -0.014465   0.000575   0.008827   0.002847
   12  C  2  X   -0.078861  -0.064368  -0.034647   0.057501   0.073775
   13  C  2  Y   -0.028698   0.104325   0.018844   0.075736  -0.024293
   14  C  2  Z    0.042351  -0.007187   0.126928   0.010388   0.044723
   15  C  2  S    0.249292  -0.077951   0.004130   0.079621   0.025705
   16  C  2  X   -0.049144  -0.050519  -0.025671   0.041355   0.061049
   17  C  2  Y   -0.019983   0.069493   0.008976   0.078446  -0.030374
   18  C  2  Z    0.026771  -0.003672   0.109731   0.008013   0.035763
   19  C  3  S    0.007610   0.003458  -0.006345  -0.006064  -0.004912
   20  C  3  S   -0.005152  -0.002263   0.003156   0.005388   0.002699
   21  C  3  X    0.007418  -0.019207  -0.124092   0.004608   0.045709
   22  C  3  Y    0.004700   0.061185  -0.008101   0.163243  -0.129620
   23  C  3  Z    0.119046   0.017347   0.054182  -0.124720  -0.115331
   24  C  3  S   -0.046616  -0.009875   0.035722   0.024597   0.022598
   25  C  3  X   -0.002466  -0.013094  -0.090334   0.001389   0.040642
   26  C  3  Y    0.003550   0.039219  -0.006271   0.117714  -0.097574
   27  C  3  Z    0.076659   0.013118   0.041896  -0.100759  -0.096477
   28  C  4  S    0.013112  -0.009178   0.011670  -0.003872  -0.003379
   29  C  4  S   -0.008828   0.007621  -0.006454   0.004506   0.003770
   30  C  4  X   -0.024988  -0.093798   0.061177   0.116222   0.205614
   31  C  4  Y    0.037985   0.046949   0.095789   0.147908  -0.086562
   32  C  4  Z   -0.126749   0.032165  -0.061847   0.119486   0.012232
   33  C  4  S   -0.071140   0.039758  -0.062200   0.016799   0.007685
   34  C  4  X   -0.022589  -0.070334   0.046886   0.096775   0.164491
   35  C  4  Y    0.025288   0.029558   0.067572   0.104843  -0.068497
   36  C  4  Z   -0.079673   0.022299  -0.040849   0.098913   0.015247
   37  C  5  S    0.047883  -0.079439  -0.024133   0.035935  -0.047160
   38  C  5  S   -0.040914   0.071066   0.023605  -0.031621   0.041327
   39  C  5  X   -0.051830  -0.031852  -0.012812  -0.060618  -0.019366
   40  C  5  Y   -0.028603   0.005592   0.011644  -0.081125   0.043381
   41  C  5  Z    0.024221  -0.006753   0.092601   0.005660   0.044177
   42  C  5  S   -0.180405   0.285696   0.095226  -0.132589   0.175572
   43  C  5  X   -0.044408   0.019750   0.004843  -0.024403  -0.006337
   44  C  5  Y    0.022704  -0.032188   0.003623  -0.028489   0.014135
   45  C  5  Z    0.021803  -0.019886   0.057771   0.001048   0.027089
   46  C  6  S   -0.027269   0.053565   0.020035  -0.006880   0.005970
   47  C  6  S    0.024937  -0.045375  -0.015807   0.002805  -0.000641
   48  C  6  X   -0.056978   0.072950   0.040225  -0.087510   0.092622
   49  C  6  Y    0.027323  -0.118821  -0.069183   0.011080  -0.060443
   50  C  6  Z    0.021309  -0.037665   0.006130   0.026367  -0.023695
   51  C  6  S    0.082235  -0.179733  -0.079049   0.042839  -0.045984
   52  C  6  X   -0.034175   0.039355   0.020872  -0.053264   0.050728
   53  C  6  Y    0.018381  -0.070144  -0.038897  -0.003691  -0.026589
   54  C  6  Z    0.011908  -0.021165   0.007396   0.014129  -0.010672
   55  C  7  S   -0.020868   0.009563   0.005103  -0.008302   0.018379
   56  C  7  S    0.014552  -0.003289  -0.003248   0.008747  -0.015349
   57  C  7  X    0.120081  -0.039039   0.029502   0.107580   0.001934
   58  C  7  Y   -0.035520   0.050174   0.039168   0.050546  -0.004871
   59  C  7  Z   -0.027624   0.028079   0.065217  -0.048082   0.021703
   60  C  7  S    0.088766  -0.066602  -0.023607   0.026265  -0.078823
   61  C  7  X    0.071858  -0.006472   0.031572   0.091059   0.003501
   62  C  7  Y   -0.041593   0.057771   0.027064   0.044054   0.003205
   63  C  7  Z   -0.012675   0.004823   0.045538  -0.043384   0.015304
   64  C  8  S    0.016640  -0.003533   0.000590   0.005870   0.003279
   65  C  8  S   -0.014805   0.002618   0.000249  -0.006044  -0.004247
   66  C  8  X    0.017809   0.097355  -0.119926   0.067967   0.080540
   67  C  8  Y   -0.033980   0.038204   0.059990   0.045799  -0.016548
   68  C  8  Z   -0.157667  -0.017310   0.062536  -0.059737  -0.079014
   69  C  8  S   -0.079375   0.024710   0.001182  -0.018988  -0.011026
   70  C  8  X    0.009504   0.068075  -0.093838   0.045660   0.056452
   71  C  8  Y   -0.023106   0.023613   0.042386   0.030009  -0.020043
   72  C  8  Z   -0.114567  -0.014203   0.053707  -0.050007  -0.071011
   73  C  9  S   -0.004823   0.009523   0.007418   0.007433   0.009247
[...]
   24 H             0.000856                     0.000554
   25 H             0.009469                     0.007125
   26 H            -0.001836                    -0.000566


          ********* ALL ELECTRONS ********

               ----- POPULATIONS IN EACH AO -----
                             MULLIKEN      LOWDIN
              1  C  1  S      1.99152     1.97643
              2  C  1  S      0.32643     0.41920
              3  C  1  X      0.52513     0.52428
              4  C  1  Y      0.52516     0.51044
              5  C  1  Z      0.50573     0.49417
              6  C  1  S      1.13616     0.55480
              7  C  1  X      0.35662     0.51989
              8  C  1  Y      0.50984     0.54748
              9  C  1  Z      0.38856     0.53631
             10  C  2  S      1.99187     1.97588
             11  C  2  S      0.32127     0.40402
             12  C  2  X      0.49460     0.49138
             13  C  2  Y      0.54728     0.54382
             14  C  2  Z      0.49518     0.48300
             15  C  2  S      1.13815     0.53529
             16  C  2  X      0.33172     0.50048
             17  C  2  Y      0.45944     0.54522
             18  C  2  Z      0.38408     0.52299
             19  C  3  S      1.98859     1.97666
             20  C  3  S      0.35552     0.42558
             21  C  3  X      0.53712     0.51769
             22  C  3  Y      0.52081     0.48462
             23  C  3  Z      0.53595     0.51361
             24  C  3  S      1.08714     0.57987
             25  C  3  X      0.48394     0.58126
             26  C  3  Y      0.48547     0.57943
             27  C  3  Z      0.49505     0.58125
             28  C  4  S      1.98852     1.97660
             29  C  4  S      0.35555     0.42290
             30  C  4  X      0.53487     0.50582
             31  C  4  Y      0.52166     0.48680
             32  C  4  Z      0.54079     0.52512
             33  C  4  S      1.09202     0.57938
             34  C  4  X      0.53965     0.59678
             35  C  4  Y      0.47614     0.57657
             36  C  4  Z      0.45230     0.56911
             37  C  5  S      1.98784     1.97563
             38  C  5  S      0.36018     0.39667
             39  C  5  X      0.51854     0.51569
             40  C  5  Y      0.52361     0.51421
             41  C  5  Z      0.58432     0.60467
             42  C  5  S      0.75467     0.51538
             43  C  5  X      0.26985     0.50802
             44  C  5  Y      0.24745     0.49691
             45  C  5  Z      0.71475     0.72797
             46  C  6  S      1.98636     1.97610
             47  C  6  S      0.36582     0.39271
             48  C  6  X      0.52429     0.49490
             49  C  6  Y      0.53415     0.50115
             50  C  6  Z      0.56497     0.58312
             51  C  6  S      0.91003     0.56163
             52  C  6  X      0.45557     0.58188
             53  C  6  Y      0.38482     0.54328
             54  C  6  Z      0.86799     0.86225
             55  C  7  S      1.99181     1.97626
             56  C  7  S      0.32558     0.41410
             57  C  7  X      0.55330     0.54608
             58  C  7  Y      0.51869     0.50564
             59  C  7  Z      0.48674     0.47201
             60  C  7  S      1.18915     0.54654
             61  C  7  X      0.40702     0.53891
             62  C  7  Y      0.50770     0.53714
             63  C  7  Z      0.36084     0.52072
             64  C  8  S      1.98958     1.97660
             65  C  8  S      0.34568     0.42548
             66  C  8  X      0.52673     0.50202
             67  C  8  Y      0.50526     0.49076
             68  C  8  Z      0.53933     0.52243
             69  C  8  S      1.06521     0.57055
             70  C  8  X      0.45444     0.55730
             71  C  8  Y      0.39021     0.54339
             72  C  8  Z      0.51040     0.57910
             73  C  9  S      1.98953     1.97639
             74  C  9  S      0.34332     0.41526
             75  C  9  X      0.52510     0.50413
             76  C  9  Y      0.52309     0.50544
             77  C  9  Z      0.53343     0.51381
             78  C  9  S      1.08032     0.56452
             79  C  9  X      0.45416     0.55827
             80  C  9  Y      0.43315     0.55722
             81  C  9  Z      0.48143     0.56382
             82  C 10  S      1.98974     1.97653
             83  C 10  S      0.34236     0.42355
             84  C 10  X      0.52225     0.49309
             85  C 10  Y      0.51824     0.51618
             86  C 10  Z      0.53462     0.52122
             87  C 10  S      1.06891     0.56385
             88  C 10  X      0.51477     0.56915
             89  C 10  Y      0.40149     0.55057
             90  C 10  Z      0.42459     0.54464
             91  H 11  S      0.47492     0.48805
             92  H 11  S      0.37962     0.46318
             93  H 12  S      0.47515     0.48280
             94  H 12  S      0.40960     0.48034
             95  H 13  S      0.46935     0.47353
             96  H 13  S      0.35282     0.45131
             97  H 14  S      0.47239     0.47671
             98  H 14  S      0.35754     0.45396
             99  H 15  S      0.47136     0.47558
            100  H 15  S      0.34841     0.44888
            101  H 16  S      0.47014     0.47476
            102  H 16  S      0.35743     0.45296
            103  H 17  S      0.47452     0.48157
            104  H 17  S      0.40549     0.47796
            105  H 18  S      0.47005     0.47092
            106  H 18  S      0.46421     0.50524
            107  H 19  S      0.46978     0.47074
            108  H 19  S      0.46479     0.50418
            109  H 20  S      0.47482     0.48589
            110  H 20  S      0.37961     0.46074
            111  H 21  S      0.47642     0.49060
            112  H 21  S      0.39797     0.47509
            113  H 22  S      0.47008     0.48017
            114  H 22  S      0.34007     0.44568
            115  H 23  S      0.47325     0.48327
            116  H 23  S      0.34829     0.44915
            117  H 24  S      0.47393     0.48720
            118  H 24  S      0.36865     0.45843
            119  H 25  S      0.47508     0.48806
            120  H 25  S      0.39538     0.47473
            121  H 26  S      0.47129     0.47978
            122  H 26  S      0.34438     0.44960

          ----- MULLIKEN ATOMIC OVERLAP POPULATIONS -----
          (OFF-DIAGONAL ELEMENTS NEED TO BE MULTIPLIED BY 2)

             1           2           3           4           5

    1    5.7218386
    2    0.2340384   5.6863607
    3   -0.0713797   0.2488297   5.4402063
    4   -0.0640834   0.2721050  -0.1314268   5.4042426
    5   -0.0736069   0.3352899  -0.1076980  -0.0967324   5.6932720
    6    0.0027389  -0.0617895   0.0041769   0.0043476   0.3174595
    7   -0.1974399  -0.0920151   0.0057446   0.0024012   0.2902345
    8   -0.0835301   0.0160758  -0.0007065   0.0015012  -0.1509894
    9    0.2594775  -0.0818689   0.0030106  -0.0063050   0.0113796
   10    0.2851788  -0.1042755  -0.0027676   0.0052276  -0.1260714
   11    0.4071547  -0.0389606  -0.0004675  -0.0001629   0.0029579
   12   -0.0024175  -0.0483951   0.3375633   0.0035875   0.0057137
   13    0.0036245  -0.0421691   0.3831442  -0.0015863  -0.0037088
   14   -0.0017722  -0.0351834   0.3771577   0.0037911   0.0013851
   15   -0.0006197  -0.0338013   0.0040586   0.3759338   0.0026579
   16    0.0032359  -0.0436062  -0.0027885   0.3836876  -0.0022762
   17   -0.0023099  -0.0505056   0.0042368   0.3445384   0.0051388
   18    0.0000644  -0.0059982  -0.0001529  -0.0002319  -0.0604513
   19   -0.0001102   0.0037469   0.0000095  -0.0000422  -0.0562216
   20    0.0043115   0.0027564   0.0000472  -0.0001243  -0.0361190
   21    0.0057712  -0.0004398   0.0000142  -0.0000690   0.0080800
   22    0.0021351   0.0005703   0.0000013  -0.0000378  -0.0037860
   23   -0.0359602  -0.0047464  -0.0000003   0.0009541   0.0000333
   24   -0.0492200   0.0039315  -0.0000393  -0.0000555  -0.0002384
   25   -0.0492953   0.0046002  -0.0003433   0.0000109   0.0066497
   26   -0.0326752  -0.0009599  -0.0008242   0.0000159  -0.0011382

             6           7           8           9          10

    6    5.5677303
    7   -0.0522643   5.6797480
    8   -0.0006606   0.2409370   5.5782497
    9    0.0000570  -0.0711994   0.2586767   5.4643841
   10    0.0008517   0.2686484  -0.1453783  -0.1354345   5.5470858
   11   -0.0000424   0.0041285   0.0030491  -0.0347042  -0.0287576
   12   -0.0001152  -0.0001629   0.0000155  -0.0000221   0.0003775
   13    0.0031050   0.0000446   0.0000034  -0.0000612  -0.0000931
   14   -0.0000046   0.0003546   0.0000194   0.0000008  -0.0003288
   15    0.0000728   0.0003609  -0.0000516  -0.0029088  -0.0000274
   16    0.0013717   0.0000466  -0.0000278   0.0001361  -0.0000893
   17   -0.0000414  -0.0001162  -0.0000059   0.0003065  -0.0000807
   18    0.4037975   0.0036200  -0.0000841   0.0000014  -0.0001303
   19    0.3994728  -0.0054043   0.0000505  -0.0000034   0.0000560
   20    0.0018206   0.4096415  -0.0478265   0.0029407  -0.0175794
   21   -0.0001217  -0.0425355   0.3338400  -0.0461039   0.0040049
   22    0.0020489  -0.0349511   0.3911669  -0.0361697   0.0050237
   23    0.0000167   0.0021884  -0.0345844   0.3915171   0.0045941
   24   -0.0000019   0.0046355  -0.0428736   0.3836467  -0.0003713
   25   -0.0000689  -0.0444762   0.0058426  -0.0010932   0.3661794
   26    0.0000419  -0.0313422   0.0041269   0.0038586   0.3911192

            11          12          13          14          15

   11    0.5414497
   12    0.0019001   0.6511702
   13   -0.0000121  -0.0335523   0.5369043
   14    0.0000887  -0.0313365  -0.0262848   0.5405425
   15    0.0000144  -0.0001097  -0.0000191  -0.0000594   0.5312636
   16   -0.0000724   0.0000642   0.0017771   0.0000285  -0.0272189
   17    0.0014160   0.0003412   0.0000001  -0.0001127  -0.0300561
   18   -0.0000006  -0.0000048   0.0011121   0.0000103   0.0000463
   19    0.0000009   0.0000007  -0.0000492  -0.0000065  -0.0000097
   20   -0.0000199  -0.0000000   0.0000014  -0.0000275   0.0000013
   21   -0.0000560  -0.0000002   0.0000000  -0.0000004   0.0000290
   22   -0.0000341  -0.0000001  -0.0000007  -0.0000003   0.0005511
   23    0.0001368   0.0000039  -0.0000012  -0.0000003  -0.0004209
   24   -0.0023372  -0.0000013   0.0000005  -0.0000004   0.0000858
   25   -0.0016024   0.0000098   0.0000009   0.0000482  -0.0000032
   26   -0.0005323   0.0001277  -0.0000093   0.0016161  -0.0000023

            16          17          18          19          20

   16    0.5465740
   17   -0.0343153   0.6415017
   18    0.0010847   0.0000001   0.6287344
   19   -0.0000356   0.0000009  -0.0370964   0.6280055
   20   -0.0000010   0.0000016  -0.0000200   0.0021011   0.5351549
   21    0.0000000   0.0000016   0.0000011   0.0000004   0.0005390
   22   -0.0000072   0.0000099  -0.0000351   0.0000969   0.0003017
   23    0.0000031   0.0000980  -0.0000005   0.0000001  -0.0000362
   24   -0.0000000  -0.0000293  -0.0000000  -0.0000000  -0.0000631
   25    0.0000008  -0.0000037   0.0000010  -0.0000012  -0.0027740
   26   -0.0000008  -0.0000004  -0.0000108   0.0000101  -0.0005972

            21          22          23          24          25

   21    0.6474253
   22   -0.0316527   0.5168282
   23    0.0017258  -0.0038431   0.5317142
   24   -0.0046609   0.0020385  -0.0318302   0.5790012
   25   -0.0013125  -0.0000430   0.0000261   0.0010216   0.6164177
   26   -0.0000885  -0.0000555  -0.0000484  -0.0000569  -0.0293308

            26

   26    0.5124354

          TOTAL MULLIKEN AND LOWDIN ATOMIC POPULATIONS
       ATOM         MULL.POP.    CHARGE          LOW.POP.     CHARGE
    1 C             6.265149   -0.265149         6.082995   -0.082995
    2 C             6.163590   -0.163590         6.002075   -0.002075
    3 C             6.489606   -0.489606         6.239971   -0.239971
    4 C             6.501487   -0.501487         6.239066   -0.239066
    5 C             5.961214    0.038786         6.255132   -0.255132
    6 C             6.593999   -0.593999         6.497031   -0.497031
    7 C             6.340827   -0.340827         6.057402   -0.057402
    8 C             6.326836   -0.326836         6.167622   -0.167622
    9 C             6.363519   -0.363519         6.158865   -0.158865
   10 C             6.316962   -0.316962         6.158775   -0.158775
   11 H             0.854535    0.145465         0.951232    0.048768
   12 H             0.884757    0.115243         0.963138    0.036862
   13 H             0.822171    0.177829         0.924844    0.075156
   14 H             0.829925    0.170075         0.930669    0.069331
   15 H             0.819767    0.180233         0.924457    0.075543
   16 H             0.827571    0.172429         0.927719    0.072281
   17 H             0.880014    0.119986         0.959526    0.040474
   18 H             0.934257    0.065743         0.976159    0.023841
   19 H             0.934572    0.065428         0.974923    0.025077
   20 H             0.854431    0.145569         0.946639    0.053361
   21 H             0.874391    0.125609         0.965692    0.034308
   22 H             0.810156    0.189844         0.925856    0.074144
   23 H             0.821539    0.178461         0.932418    0.067582
   24 H             0.842582    0.157418         0.945628    0.054372
   25 H             0.870461    0.129539         0.962786    0.037214
   26 H             0.815679    0.184321         0.929381    0.070619

          -------------------------------
          BOND ORDER AND VALENCE ANALYSIS     BOND ORDER THRESHOLD=0.050
          -------------------------------

                   BOND                       BOND                       BOND
  ATOM PAIR DIST  ORDER      ATOM PAIR DIST  ORDER      ATOM PAIR DIST  ORDER
    1   2  1.571  0.881        1   9  1.549  0.915        1  10  1.548  0.907
    1  11  1.095  0.960        2   3  1.546  0.889        2   4  1.541  0.903
    2   5  1.545  0.931        3  12  1.097  0.934        3  13  1.095  0.937
    3  14  1.093  0.942        4  15  1.093  0.939        4  16  1.096  0.937
    4  17  1.098  0.935        5   6  1.336  1.384        5   7  1.518  0.896
    6  18  1.088  0.964        6  19  1.087  0.964        7   8  1.559  0.872
    7  10  1.548  0.898        7  20  1.093  0.968        8   9  1.564  0.913
    8  21  1.096  0.934        8  22  1.094  0.941        9  23  1.093  0.940
    9  24  1.096  0.941       10  25  1.096  0.938       10  26  1.094  0.940

                       TOTAL       BONDED        FREE
      ATOM            VALENCE     VALENCE     VALENCE
    1 C                 3.543       3.543       0.000
    2 C                 3.497       3.491       0.005
    3 C                 3.663       3.661       0.002
    4 C                 3.675       3.674       0.001
    5 C                 3.330       3.131       0.199
    6 C                 3.611       3.345       0.266
    7 C                 3.547       3.542       0.005
    8 C                 3.601       3.599       0.002
    9 C                 3.629       3.629       0.000
   10 C                 3.604       3.604       0.000
   11 H                 0.948       0.948       0.000
   12 H                 0.933       0.933       0.000
   13 H                 0.929       0.929       0.000
   14 H                 0.933       0.933       0.000
   15 H                 0.929       0.929       0.000
   16 H                 0.928       0.928       0.000
   17 H                 0.932       0.932       0.000
   18 H                 0.959       0.954       0.005
   19 H                 0.960       0.955       0.005
   20 H                 0.955       0.955       0.000
   21 H                 0.932       0.932       0.000
   22 H                 0.927       0.927       0.000
   23 H                 0.927       0.927       0.000
   24 H                 0.926       0.926       0.000
   25 H                 0.936       0.935       0.000
   26 H                 0.932       0.932       0.000

          -----------------------------------------
          ATOMIC SPIN DENSITY AT THE NUCLEUS (A.U.)
          -----------------------------------------
                            SPIN DENS    ALPHA DENS     BETA DENS
    1  C            6.0     0.0026938      47.13746      47.13477
    2  C            6.0    -0.0394779      47.10761      47.14709
    3  C            6.0     0.0374096      47.03913      47.00172
    4  C            6.0     0.0287581      47.02824      46.99948
    5  C            6.0     0.1065334      47.01856      46.91202
    6  C            6.0     0.1025296      46.94682      46.84429
    7  C            6.0    -0.0386367      47.11757      47.15621
    8  C            6.0     0.0481680      47.08774      47.03957
    9  C            6.0    -0.0008645      47.04655      47.04741
   10  C            6.0     0.0173787      47.08001      47.06264
   11  H            1.0    -0.0003582       0.18660       0.18696
   12  H            1.0    -0.0004362       0.18664       0.18708
   13  H            1.0    -0.0013701       0.18345       0.18482
   14  H            1.0    -0.0008949       0.18498       0.18587
   15  H            1.0    -0.0009091       0.18457       0.18548
   16  H            1.0    -0.0010054       0.18399       0.18500
   17  H            1.0    -0.0006096       0.18624       0.18685
   18  H            1.0    -0.0146241       0.17687       0.19149
   19  H            1.0    -0.0145800       0.17680       0.19138
   20  H            1.0     0.0024966       0.18774       0.18524
   21  H            1.0     0.0021285       0.18899       0.18686
   22  H            1.0    -0.0006690       0.18448       0.18515
   23  H            1.0     0.0001971       0.18636       0.18616
   24  H            1.0     0.0001156       0.18689       0.18678
   25  H            1.0     0.0015841       0.18791       0.18633
   26  H            1.0    -0.0000996       0.18510       0.18520

          ---------------------
          ELECTROSTATIC MOMENTS
          ---------------------

 POINT   1           X           Y           Z (BOHR)    CHARGE
                 0.007740    0.003254    0.018812       -1.00 (A.U.)
         DX          DY          DZ         /D/  (DEBYE)
     2.631392   -4.354894   -0.660544    5.130852
 ...... END OF PROPERTY EVALUATION ......
 CPU     0: STEP CPU TIME=     0.06 TOTAL CPU TIME=          6.3 (      0.1 MIN)
 TOTAL WALL CLOCK TIME=         13.6 SECONDS, CPU UTILIZATION IS    46.29%
               580000  WORDS OF DYNAMIC MEMORY USED
 EXECUTION OF GAMESS TERMINATED NORMALLY Mon May 25 18:12:55 2020
 DDI: 263640 bytes (0.3 MB / 0 MWords) used by master data server.
Note: The following floating-point exceptions are signalling: IEEE_DENORMALNote: The following floating-point exceptions are signalling: IEEE_DENORMALNote: The following floating-point exceptions are signalling: IEEE_DENORMALNote: The following floating-point exceptions are signalling: IEEE_DENORMAL
 ----------------------------------------
 CPU timing information for all processes
 ========================================
 0: 6.161 + 0.167 = 6.328
 1: 5.743 + 0.59 = 5.803
 2: 5.931 + 0.28 = 5.959
 3: 5.784 + 0.27 = 5.812
 4: 5.922 + 0.33 = 5.955
 5: 5.743 + 0.20 = 5.764
 ----------------------------------------




Note: The following floating-point exceptions are signalling: IEEE_DENORMALNote: The following floating-point exceptions are signalling:
 IEEE_DENORMAL
 ddikick.x: exited gracefully.
unset echo
----- accounting info -----
Files used on the master node pietdev were:
-rwxr-xr-x 1 piet piet     1176 mei 25 18:12 /home/piet/scr/camphene_fukui_acid.F05*
-rw-r--r-- 1 piet piet 68812800 mei 25 18:12 /home/piet/scr/camphene_fukui_acid.F10
ls: No match.
ls: No match.
ls: No match.
ma 25 mei 2020 18:12:58 CEST
0.117u 0.025s 0:16.80 0.7%	0+0k 0+8io 0pf+0w
