----- GAMESS execution script 'rungms' -----
This job is running on host pietdev
under operating system Linux at vr 22 mei 2020 16:26:42 CEST
Available scratch disk space (Kbyte units) at beginning of the job is
Filesystem     1K-blocks     Used Available Use% Mounted on
/dev/sda2      244568380 31372864 200702460  14% /
GAMESS temporary binary files will be written to /home/piet/scr
GAMESS supplementary output files will be written to /home/piet/gamess/scr
Copying input file d-glyceraldehyde_charge_geodisk.inp to your run's scratch directory...
cp d-glyceraldehyde_charge_geodisk.inp /home/piet/scr/d-glyceraldehyde_charge_geodisk.F05
unset echo
 
Assuming a single but multicore node.
 
/home/piet/gamess/ddikick.x /home/piet/gamess/gamess.03.x d-glyceraldehyde_charge_geodisk -ddi 1 8 pietdev:cpus=8 -scr /home/piet/scr

 Distributed Data Interface kickoff program.
 Initiating 8 compute processes on 1 nodes to run the following command:
 /home/piet/gamess/gamess.03.x d-glyceraldehyde_charge_geodisk 

          ******************************************************
          *         GAMESS VERSION = 30 SEP 2019 (R2)          *
          *             FROM IOWA STATE UNIVERSITY             *
          * M.W.SCHMIDT, K.K.BALDRIDGE, J.A.BOATZ, S.T.ELBERT, *
          *   M.S.GORDON, J.H.JENSEN, S.KOSEKI, N.MATSUNAGA,   *
          *          K.A.NGUYEN, S.J.SU, T.L.WINDUS,           *
          *       TOGETHER WITH M.DUPUIS, J.A.MONTGOMERY       *
          *         J.COMPUT.CHEM.  14, 1347-1363(1993)        *
          **************** 64 BIT LINUX VERSION ****************

  SINCE 1993, STUDENTS AND POSTDOCS WORKING AT IOWA STATE UNIVERSITY
  AND ALSO IN THEIR VARIOUS JOBS AFTER LEAVING ISU HAVE MADE IMPORTANT
  CONTRIBUTIONS TO THE CODE:
     IVANA ADAMOVIC, CHRISTINE AIKENS, YURI ALEXEEV, POOJA ARORA,
     ANDREY ASADCHEV, ROB BELL, PRADIPTA BANDYOPADHYAY, JONATHAN BENTZ,
     COLLEEN BERTONI, BRETT BODE, KURT BRORSEN, CALEB CARLIN, GALINA CHABAN,
     WEI CHEN, CHEOL HO CHOI, PAUL DAY, ALBERT DEFUSCO, NUWAN DESILVA,
     TIM DUDLEY, DMITRI FEDOROV, ALEX FINDLATER, GRAHAM FLETCHER, 
     MARK FREITAG, KURT GLAESEMANN, EMILIE B GUIDEZ, ANASTASIA GUNINA, 
     DAN KEMP, SAROM SOK LEANG, GRANT MERRILL,
     NORIYUKI MINEZAWA, JONATHAN MULLIN,
     TAKESHI NAGATA, SEAN NEDD, HEATHER NETZLOFF, BOSILJKA NJEGIC, RYAN OLSON,
     MIKE PAK, BUU PHAM, DAVID POOLE,
     SPENCER PRUITT, LUKE ROSKOP, TOSAPORN SATTASATHUCHANA,
     JIM SHOEMAKER, LYUDMILA SLIPCHENKO,
     TONY SMITH, JIE SONG, TETSUYA TAKETSUGU, SIMON WEBB,
     JORGE LUIS GALVEZ VALLEJO, PENG XU, SOOHAENG YOO,
     FEDERICO ZAHARIEV

  ADDITIONAL CODE HAS BEEN PROVIDED BY COLLABORATORS IN OTHER GROUPS:
     IOWA STATE UNIVERSITY:
          JOE IVANIC, AARON WEST, LAIMUTIS BYTAUTAS, KLAUS RUEDENBERG
     UNIVERSITY OF TOKYO: KIMIHIKO HIRAO, TAKAHITO NAKAJIMA,
          TAKAO TSUNEDA, MUNEAKI KAMIYA, SUSUMU YANAGISAWA,
          KIYOSHI YAGI, MAHITO CHIBA, SEIKEN TOKURA, NAOAKI KAWAKAMI
     UNIVERSITY OF AARHUS: FRANK JENSEN
     UNIVERSITY OF IOWA: VISVALDAS KAIRYS, HUI LI
     NATIONAL INST. OF STANDARDS AND TECHNOLOGY: WALT STEVENS, DAVID GARMER
     UNIVERSITY OF PISA: BENEDETTA MENNUCCI, JACOPO TOMASI
     UNIVERSITY OF MEMPHIS: HENRY KURTZ, PRAKASHAN KORAMBATH
     UNIVERSITY OF ALBERTA: TOBY ZENG, MARIUSZ KLOBUKOWSKI
     UNIVERSITY OF NEW ENGLAND: MARK SPACKMAN
     MIE UNIVERSITY: HIROAKI UMEDA
     NAT. INST. OF ADVANCED INDUSTRIAL SCIENCE AND TECHNOLOGY: KAZUO KITAURA
     MICHIGAN STATE UNIVERSITY:
          KAROL KOWALSKI, MARTA WLOCH, JEFFREY GOUR, JESSE LUTZ,
          WEI LI, JUN SHEN, J. EMILIANO DEUSTUA, PIOTR PIECUCH
     UNIVERSITY OF MINNESOTA:
          ANDREW SAND, PRACHI SHARMA, YINAN SHU
     UNIVERSITY OF SILESIA: MONIKA MUSIAL, STANISLAW KUCHARSKI
     FACULTES UNIVERSITAIRES NOTRE-DAME DE LA PAIX:
          OLIVIER QUINET, BENOIT CHAMPAGNE
     UNIVERSITY OF CALIFORNIA - SANTA BARBARA: BERNARD KIRTMAN
     INSTITUTE FOR MOLECULAR SCIENCE:
          KAZUYA ISHIMURA, MICHIO KATOUDA, AND SHIGERU NAGASE
     UNIVERSITY OF NOTRE DAME: ANNA POMOGAEVA, DAN CHIPMAN
     KYUSHU UNIVERSITY:
          HARUYUKI NAKANO,
          FENG LONG GU, JACEK KORCHOWIEC, MARCIN MAKOWSKI, AND YURIKO AOKI,
          HIROTOSHI MORI AND EISAKU MIYOSHI
     PENNSYLVANIA STATE UNIVERSITY:
          TZVETELIN IORDANOV, CHET SWALINA, JONATHAN SKONE,
          SHARON HAMMES-SCHIFFER
     WASEDA UNIVERSITY:
          MASATO KOBAYASHI, TOMOKO AKAMA, TSUGUKI TOUMA,
          TAKESHI YOSHIKAWA, YASUHIRO IKABATA, JUNJI SEINO,
          YUYA NAKAJIMA, HIROMI NAKAI
     NANJING UNIVERSITY: SHUHUA LI
     UNIVERSITY OF NEBRASKA:
          PEIFENG SU, DEJUN SI, NANDUN THELLAMUREGE, YALI WANG, HUI LI
     UNIVERSITY OF ZURICH: ROBERTO PEVERATI, KIM BALDRIDGE
     N. COPERNICUS UNIVERSITY AND JACKSON STATE UNIVERSITY:
          MARIA BARYSZ
     UNIVERSITY OF COPENHAGEN: Jimmy Kromann, CASPER STEINMANN
     TOKYO INSTITUTE OF TECHNOLOGY: HIROYA NAKATA
     NAGOYA UNIVERSITY: YOSHIO NISHIMOTO, STEPHAN IRLE
     MOSCOW STATE UNIVERSITY: VLADIMIR MIRONOV
     A.N.NESMEYANOV INSTITUTE OF ORGANOELEMENT COMPOUNDS OF RUSSIAN ACADEMY OF SCIENCES:
          IGOR S. GERASIMOV
     JOHANNES KEPLER UNIVERSITY LINZ:
          CHRISTIAN FRIEDL


 PARALLEL VERSION RUNNING ON        8 PROCESSORS IN        1 NODES.

 EXECUTION OF GAMESS BEGUN Fri May 22 16:26:42 2020

            ECHO OF THE FIRST FEW INPUT CARDS -
 INPUT CARD> $BASIS GBASIS=N21 NGAUSS=3 $END                                                
 INPUT CARD> $CONTRL SCFTYP=RHF DFTTYP=B3LYP MAXIT=60 MULT=1 ICHARG=0 $END                  
 INPUT CARD> $SYSTEM MEMDDI=1000 MWORDS=30 $END                                             
 INPUT CARD> $SCF DIRSCF=.TRUE. $END                                                        
 INPUT CARD> $ELPOT  IEPOT=1 WHERE=PDC $END                                                 
 INPUT CARD> $PDC PTSEL=GEODESIC CONSTR=CHARGE $END                                         
 INPUT CARD> $DATA                                                                          
 INPUT CARD>                                                                                
 INPUT CARD>C1                                                                              
 INPUT CARD>O 8.0000000 -2.2476782571 -0.0907879442 -0.3261305362                           
 INPUT CARD>C 6.0000000 -1.2741004231 -0.6361060386 0.2033952557                            
 INPUT CARD>C 6.0000000 0.0521335565 0.0880063580 0.3336065567                              
 INPUT CARD>H 1.0000000 0.3085781766 0.1466262801 1.4047743585                              
 INPUT CARD>O 8.0000000 -0.0571775859 1.3934579270 -0.2655611158                            
 INPUT CARD>C 6.0000000 1.1716740922 -0.7326674878 -0.3254011664                            
 INPUT CARD>O 8.0000000 2.4125599352 -0.2505815172 0.2637112533                             
 INPUT CARD>H 1.0000000 -1.3116565635 -1.6595476150 0.6093171862                            
 INPUT CARD>H 1.0000000 -1.0142079903 1.4450390580 -0.5699934586                            
 INPUT CARD>H 1.0000000 1.0195164307 -1.8069872270 -0.1291874014                            
 INPUT CARD>H 1.0000000 1.1019960130 -0.5510694801 -1.4055469761                            
 INPUT CARD>H 1.0000000 3.1601629157 -0.5029824131 -0.3413838556                            
 INPUT CARD> $END                                                                           
   30000000 WORDS OF MEMORY AVAILABLE

     BASIS OPTIONS
     -------------
     GBASIS=N21          IGAUSS=       3      POLAR=NONE    
     NDFUNC=       0     NFFUNC=       0     DIFFSP=       F
     NPFUNC=       0      DIFFS=       F     BASNAM=        


     RUN TITLE
     ---------
                                                                                 

 THE POINT GROUP OF THE MOLECULE IS C1      
 THE ORDER OF THE PRINCIPAL AXIS IS     0

 ATOM      ATOMIC                      COORDINATES (BOHR)
           CHARGE         X                   Y                   Z
 O           8.0    -4.2474960145       -0.1715643375       -0.6162973496
 C           6.0    -2.4077006805       -1.2020661121        0.3843613005
 C           6.0     0.0985181366        0.1663079018        0.6304249799
 H           1.0     0.5831281996        0.2770834920        2.6546386121
 O           8.0    -0.1080499700        2.6332536574       -0.5018377419
 C           6.0     2.2141429812       -1.3845407921       -0.6149190406
 O           8.0     4.5590772065       -0.4735304051        0.4983420086
 H           1.0    -2.4786714950       -3.1360902559        1.1514425215
 H           1.0    -1.9165751962        2.7307278612       -1.0771314515
 H           1.0     1.9266066940       -3.4147107223       -0.2441287897
 H           1.0     2.0824705041       -1.0413703176       -2.6560986477
 H           1.0     5.9718419872       -0.9504989374       -0.6451219437

          INTERNUCLEAR DISTANCES (ANGS.)
          ------------------------------

                1 O          2 C          3 C          4 H          5 O     

   1 O       0.0000000    1.2351612 *  2.3992405 *  3.0962629    2.6466862 *
   2 C       1.2351612 *  0.0000000    1.5166378 *  2.1356154 *  2.4124575 *
   3 C       2.3992405 *  1.5166378 *  0.0000000    1.1029962 *  1.4405397 *
   4 H       3.0962629    2.1356154 *  1.1029962 *  0.0000000    2.1162200 *
   5 O       2.6466862 *  2.4124575 *  1.4405397 *  2.1162200 *  0.0000000  
   6 C       3.4790775    2.5041491 *  1.5366092 *  2.1240526 *  2.4564337 *
   7 O       4.7001348    3.7072539    2.3856110 *  2.4262189 *  3.0137350  
   8 H       2.0523659 *  1.1016423 *  2.2338050 *  2.5534637 *  3.4146702  
   9 H       1.9848634 *  2.2353611 *  1.9481055 *  2.7083846 *  1.0056077 *
  10 H       3.6957662    2.5965847 *  2.1773857 *  2.5836172 *  3.3794551  
  11 H       3.5492699    2.8708467 *  2.1296207 *  3.0023653    2.5346475 *
  12 H       5.4235489    4.4695858    3.2349229    3.4062583    3.7354404  

                6 C          7 O          8 H          9 H         10 H     

   1 O       3.4790775    4.7001348    2.0523659 *  1.9848634 *  3.6957662  
   2 C       2.5041491 *  3.7072539    1.1016423 *  2.2353611 *  2.5965847 *
   3 C       1.5366092 *  2.3856110 *  2.2338050 *  1.9481055 *  2.1773857 *
   4 H       2.1240526 *  2.4262189 *  2.5534637 *  2.7083846 *  2.5836172 *
   5 O       2.4564337 *  3.0137350    3.4146702    1.0056077 *  3.3794551  
   6 C       0.0000000    1.4557672 *  2.8106470 *  3.0952079    1.1026399 *
   7 O       1.4557672 *  0.0000000    3.9968009    3.9131740    2.1254031 *
   8 H       2.8106470 *  3.9968009    0.0000000    3.3343227    2.4497949 *
   9 H       3.0952079    3.9131740    3.3343227    0.0000000    3.8608315  
  10 H       1.1026399 *  2.1254031 *  2.4497949 *  3.8608315    0.0000000  
  11 H       1.0975189 *  2.1434304 *  3.3337847    3.0267009    1.7925474 *
  12 H       2.0017738 *  0.9943624 *  4.7157868    4.6122036    2.5155165 *

               11 H         12 H     

   1 O       3.5492699    5.4235489  
   2 C       2.8708467 *  4.4695858  
   3 C       2.1296207 *  3.2349229  
   4 H       3.0023653    3.4062583  
   5 O       2.5346475 *  3.7354404  
   6 C       1.0975189 *  2.0017738 *
   7 O       2.1434304 *  0.9943624 *
   8 H       3.3337847    4.7157868  
   9 H       3.0267009    4.6122036  
  10 H       1.7925474 *  2.5155165 *
  11 H       0.0000000    2.3175001 *
  12 H       2.3175001 *  0.0000000  

  * ... LESS THAN  3.000


     ATOMIC BASIS SET
     ----------------
 THE CONTRACTED PRIMITIVE FUNCTIONS HAVE BEEN UNNORMALIZED
 THE CONTRACTED BASIS FUNCTIONS ARE NOW NORMALIZED TO UNITY

  SHELL TYPE  PRIMITIVE        EXPONENT          CONTRACTION COEFFICIENT(S)

 O         

      1   S       1           322.0370000    0.059239393389
      1   S       2            48.4308000    0.351499960776
      1   S       3            10.4206000    0.707657921031

      2   L       4             7.4029400   -0.404453583190    0.244586106967
      2   L       5             1.5762000    1.221561761397    0.853955373466

      3   L       6             0.3736840    1.000000000000    1.000000000000

 C         

      4   S       7           172.2560000    0.061766907377
      4   S       8            25.9109000    0.358794042852
      4   S       9             5.5333500    0.700713083689

      5   L      10             3.6649800   -0.395895162119    0.236459946619
      5   L      11             0.7705450    1.215834355681    0.860618805716

      6   L      12             0.1958570    1.000000000000    1.000000000000

 C         

      7   S      13           172.2560000    0.061766907377
      7   S      14            25.9109000    0.358794042852
      7   S      15             5.5333500    0.700713083689

      8   L      16             3.6649800   -0.395895162119    0.236459946619
      8   L      17             0.7705450    1.215834355681    0.860618805716

      9   L      18             0.1958570    1.000000000000    1.000000000000

 H         

     10   S      19             5.4471780    0.156284978695
     10   S      20             0.8245472    0.904690876670

     11   S      21             0.1831916    1.000000000000

 O         

     12   S      22           322.0370000    0.059239393389
     12   S      23            48.4308000    0.351499960776
     12   S      24            10.4206000    0.707657921031

     13   L      25             7.4029400   -0.404453583190    0.244586106967
     13   L      26             1.5762000    1.221561761397    0.853955373466

     14   L      27             0.3736840    1.000000000000    1.000000000000

 C         

     15   S      28           172.2560000    0.061766907377
     15   S      29            25.9109000    0.358794042852
     15   S      30             5.5333500    0.700713083689

     16   L      31             3.6649800   -0.395895162119    0.236459946619
     16   L      32             0.7705450    1.215834355681    0.860618805716

     17   L      33             0.1958570    1.000000000000    1.000000000000

 O         

     18   S      34           322.0370000    0.059239393389
     18   S      35            48.4308000    0.351499960776
     18   S      36            10.4206000    0.707657921031

     19   L      37             7.4029400   -0.404453583190    0.244586106967
     19   L      38             1.5762000    1.221561761397    0.853955373466

     20   L      39             0.3736840    1.000000000000    1.000000000000

 H         

     21   S      40             5.4471780    0.156284978695
     21   S      41             0.8245472    0.904690876670

     22   S      42             0.1831916    1.000000000000

 H         

     23   S      43             5.4471780    0.156284978695
     23   S      44             0.8245472    0.904690876670

     24   S      45             0.1831916    1.000000000000

 H         

     25   S      46             5.4471780    0.156284978695
     25   S      47             0.8245472    0.904690876670

     26   S      48             0.1831916    1.000000000000

 H         

     27   S      49             5.4471780    0.156284978695
     27   S      50             0.8245472    0.904690876670

     28   S      51             0.1831916    1.000000000000

 H         

     29   S      52             5.4471780    0.156284978695
     29   S      53             0.8245472    0.904690876670

     30   S      54             0.1831916    1.000000000000

 TOTAL NUMBER OF BASIS SET SHELLS             =   30
 NUMBER OF CARTESIAN GAUSSIAN BASIS FUNCTIONS =   66
 NUMBER OF ELECTRONS                          =   48
 CHARGE OF MOLECULE                           =    0
 SPIN MULTIPLICITY                            =    1
 NUMBER OF OCCUPIED ORBITALS (ALPHA)          =   24
 NUMBER OF OCCUPIED ORBITALS (BETA )          =   24
 TOTAL NUMBER OF ATOMS                        =   12
 THE NUCLEAR REPULSION ENERGY IS      240.4478876135

 SELECTED MURRAY-HANDY-LAMING RADIAL GRID

 LEGACY BECKE'S FUZZY CELL METHOD

 SELECTED ORIGINAL BECKE'S PARTITION FUNCTION

     LEBEDEV GRID-BASED DFT OPTIONS
     ------------------------------
     DFTTYP=B3LYP   
     NRAD  =      96     NLEB  =     302
     NRAD0 =      24     NLEB0 =     110
     SWOFF =    5.00E-03 (PURE SCF -> DFT)
     SWITCH=    3.00E-04 (COARSE -> TIGHT GRID)
     THRESH=    0.00E+00 GTHRE=    1.00E+00

 GRIMME'S EMPIRICAL DISPERSION CORRECTION= F

     $CONTRL OPTIONS
     ---------------
 SCFTYP=RHF          RUNTYP=ENERGY       EXETYP=RUN     
 MPLEVL=       0     CITYP =NONE         CCTYP =NONE         VBTYP =NONE    
 DFTTYP=B3LYP        TDDFT =NONE    
 MULT  =       1     ICHARG=       0     NZVAR =       0     COORD =UNIQUE  
 PP    =NONE         RELWFN=NONE         LOCAL =NONE         NUMGRD=       F
 ISPHER=      -1     NOSYM =       0     MAXIT =      60     UNITS =ANGS    
 PLTORB=       F     MOLPLT=       F     AIMPAC=       F     FRIEND=        
 NPRINT=       7     IREST =       0     GEOM  =INPUT   
 NORMF =       0     NORMP =       0     ITOL  =      20     ICUT  =       9
 INTTYP=BEST         GRDTYP=BEST         QMTTOL= 1.0E-06

     $SYSTEM OPTIONS
     ---------------
  REPLICATED MEMORY=    30000000 WORDS (ON EVERY NODE).
 DISTRIBUTED MEMDDI=        1000 MILLION WORDS IN AGGREGATE,
 MEMDDI DISTRIBUTED OVER   8 PROCESSORS IS   125000000 WORDS/PROCESSOR.
 TOTAL MEMORY REQUESTED ON EACH PROCESSOR=   155000000 WORDS.
 TIMLIM=      525600.00 MINUTES, OR     365.0 DAYS.
 PARALL= T  BALTYP=  DLB     KDIAG=    0  COREFL= F
 MXSEQ2=     300 MXSEQ3=     150  mem10=         0

     INPUT FOR POTENTIAL-DERIVED CHARGES 
     -----------------------------------
     VDWSCL=    1.40   RMAX=    3.00   DELR=    0.80
     VDWINC=    0.20 PTDENS=    0.28
     LAYER =       4  NFREQ=      30 MAXPDC=   10000
     CONSTR=CHARGE    UNITS=ANGS      PTSEL=GEODESIC
     CENTER=  0.0000  0.0000  0.0000
     DPOLE =  0.0000  0.0000  0.0000
     QPOLE =  0.0000  0.0000  0.0000  0.0000  0.0000  0.0000


          ----------------
          PROPERTIES INPUT
          ----------------

     MOMENTS            FIELD           POTENTIAL          DENSITY
 IEMOM =       1   IEFLD =       0   IEPOT =       1   IEDEN =       0
 WHERE =COMASS     WHERE =NUCLEI     WHERE =PDC        WHERE =NUCLEI  
 OUTPUT=BOTH       OUTPUT=BOTH       OUTPUT=BOTH       OUTPUT=BOTH    
 IEMINT=       0   IEFINT=       0                     IEDINT=       0
                                                       MORB  =       0
          EXTRAPOLATION IN EFFECT
          DIIS IN EFFECT
 ORBITAL PRINTING OPTION: NPREO=     1    66     2     1

     -------------------------------
     INTEGRAL TRANSFORMATION OPTIONS
     -------------------------------
     NWORD  =            0
     CUTOFF = 1.0E-09     MPTRAN =       0
     DIRTRF =       T     AOINTS =DUP     

          ----------------------
          INTEGRAL INPUT OPTIONS
          ----------------------
 NOPK  =       1 NORDER=       0 SCHWRZ=       T

     ------------------------------------------
     THE POINT GROUP IS C1 , NAXIS= 0, ORDER= 1
     ------------------------------------------

     DIMENSIONS OF THE SYMMETRY SUBSPACES ARE
 A   =   66

 ..... DONE SETTING UP THE RUN .....
 CPU     0: STEP CPU TIME=     0.02 TOTAL CPU TIME=          0.0 (      0.0 MIN)
 TOTAL WALL CLOCK TIME=          0.0 SECONDS, CPU UTILIZATION IS    50.00%

          ********************
          1 ELECTRON INTEGRALS
          ********************
 ...... END OF ONE-ELECTRON INTEGRALS ......
 CPU     0: STEP CPU TIME=     0.01 TOTAL CPU TIME=          0.0 (      0.0 MIN)
 TOTAL WALL CLOCK TIME=          0.1 SECONDS, CPU UTILIZATION IS    60.00%

          -------------
          GUESS OPTIONS
          -------------
          GUESS =HUCKEL            NORB  =       0          NORDER=       0
          MIX   =       F          PRTMO =       F          PUNMO =       F
          TOLZ  = 1.0E-08          TOLE  = 1.0E-05
          SYMDEN=       F          PURIFY=       F

 INITIAL GUESS ORBITALS GENERATED BY HUCKEL   ROUTINE.
 HUCKEL GUESS REQUIRES     45708 WORDS.

 SYMMETRIES FOR INITIAL GUESS ORBITALS FOLLOW.   BOTH SET(S).
    24 ORBITALS ARE OCCUPIED (    6 CORE ORBITALS).
     7=A        8=A        9=A       10=A       11=A       12=A       13=A   
    14=A       15=A       16=A       17=A       18=A       19=A       20=A   
    21=A       22=A       23=A       24=A       25=A       26=A       27=A   
    28=A       29=A       30=A       31=A       32=A       33=A       34=A   
 ...... END OF INITIAL ORBITAL SELECTION ......
 CPU     0: STEP CPU TIME=     0.02 TOTAL CPU TIME=          0.0 (      0.0 MIN)
 TOTAL WALL CLOCK TIME=          0.1 SECONDS, CPU UTILIZATION IS    83.33%

                    ----------------------
                    AO INTEGRAL TECHNOLOGY
                    ----------------------
     S,P,L SHELL ROTATED AXIS INTEGRALS, REPROGRAMMED BY
        KAZUYA ISHIMURA (IMS) AND JOSE SIERRA (SYNSTAR).
     S,P,D,L SHELL ROTATED AXIS INTEGRALS PROGRAMMED BY
        KAZUYA ISHIMURA (INSTITUTE FOR MOLECULAR SCIENCE).
     S,P,D,F,G SHELL TO TOTAL QUARTET ANGULAR MOMENTUM SUM 5,
        ERIC PROGRAM BY GRAHAM FLETCHER (ELORET AND NASA ADVANCED
        SUPERCOMPUTING DIVISION, AMES RESEARCH CENTER).
     S,P,D,F,G,L SHELL GENERAL RYS QUADRATURE PROGRAMMED BY
        MICHEL DUPUIS (PACIFIC NORTHWEST NATIONAL LABORATORY).

          --------------------
          2 ELECTRON INTEGRALS
          --------------------

 DIRECT SCF METHOD SKIPS INTEGRAL STORAGE ON DISK.
 DIRECT TRANSFORMATION SKIPS AO INTEGRAL STORAGE ON DISK.
  ...... END OF TWO-ELECTRON INTEGRALS .....
 CPU     0: STEP CPU TIME=     0.00 TOTAL CPU TIME=          0.0 (      0.0 MIN)
 TOTAL WALL CLOCK TIME=          0.1 SECONDS, CPU UTILIZATION IS    71.43%

          --------------------------
             R-B3LYP SCF CALCULATION
          --------------------------

     NUCLEAR ENERGY =       240.4478876135
     MAXIT =   60     NPUNCH=    2
     EXTRAP=T  DAMP=F  SHIFT=F  RSTRCT=F  DIIS=T  DEM=F  SOSCF=F
         DENSITY MATRIX CONVERGENCE THRESHOLD=  2.00E-05
     COARSE -> FINE DFT GRID SWITCH THRESHOLD=  3.00E-04 (SWITCH IN $DFT)
                   HF -> DFT SWITCH THRESHOLD=  5.00E-03 (SWOFF IN $DFT)
     MEMORY REQUIRED FOR RHF ITERS=    487774 WORDS.

 DIRECT SCF CALCULATION, SCHWRZ=T   FDIFF=T,  DIRTHR=  0.00E+00 NITDIR=10
 SCHWARZ INEQUALITY OVERHEAD:      2151 INTEGRALS, T=        0.01

 DFT CODE IS SWITCHING FROM THE FINE GRID NRAD= 96,  NLEB=  302
                      TO THE COARSE GRID NRAD0= 24, NLEB0=  110

     EXCHANGE FUNCTIONAL   =B88&HFX   
     CORRELATION FUNCTIONAL=LYP88&VWN5
     DFT THRESHOLD         =.115E-07
     GRID CHANGE THRESHOLD =.300E-03
 FOR AN EULER-MACLAURIN QUADRATURE USING  96 RADIAL POINTS:
 SMALLEST GAUSSIAN PRIMITIVE EXPONENT=        0.1831915800 OF TYPE -S-
 ON ATOM NUMBER   4 HAS RADIAL NORMALIZATION=  1.000000
  LARGEST GAUSSIAN PRIMITIVE EXPONENT=      322.0370000000 OF TYPE -S-
 ON ATOM NUMBER   1 HAS RADIAL NORMALIZATION=  1.000000
 DFT IS SWITCHED OFF, PERFORMING PURE SCF UNTIL SWOFF THRESHOLD IS REACHED.

                                                                                   NONZERO     BLOCKS
 ITER EX DEM     TOTAL ENERGY        E CHANGE  DENSITY CHANGE    DIIS ERROR      INTEGRALS    SKIPPED
   1  0  0     -338.7762181502  -338.7762181502   0.822621280   0.609328322        1865948      30152
          * * *   INITIATING DIIS PROCEDURE   * * *
   2  1  0     -339.6390229451    -0.8628047949   0.129798051   0.172277683        1864225      31269
   3  2  0     -339.6925622489    -0.0535393039   0.113128518   0.136885587        1858295      33080
   4  3  0     -339.7285811889    -0.0360189399   0.027841562   0.014057167        1848742      34687
   5  4  0     -339.7301633848    -0.0015821960   0.005077238   0.003164540        1834719      36346
   6  5  0     -339.7302846853    -0.0001213005   0.002252446   0.001531974        1806786      38939
 CONVERGED TO SWOFF, SO DFT CALCULATION IS NOW SWITCHED ON.
          * * *   INITIATING DIIS PROCEDURE   * * *
   7  6  0     -341.4387211601    -1.7084364747   0.130064253   0.066050181        1866195      29827
   8  7  0     -341.4610223247    -0.0223011646   0.134542255   0.063520731        1859363      32824
   9  8  0     -341.4548528940     0.0061694307   0.068820649   0.103375150        1851052      34219
  10  9  0     -341.4692137203    -0.0143608263   0.009358079   0.014815305        1842415      35458
  11 10  0     -341.4697204930    -0.0005067726   0.002211322   0.002355289        1818978      37797
  12 11  0     -341.4697380159    -0.0000175229   0.000629656   0.000639955        1772335      41534
  13 12  0     -341.4697395221    -0.0000015062   0.000152825   0.000091939        1734423      43853
 DFT CODE IS SWITCHING BACK TO THE FINE GRID
          * * *   INITIATING DIIS PROCEDURE   * * *
  14 13  0     -341.4709480444    -0.0012085224   0.001161406   0.000834780        1866357      29701
  15 14  0     -341.4709598417    -0.0000117973   0.001558133   0.000356762        1786205      40666
  16 15  0     -341.4709598956    -0.0000000538   0.000694852   0.000614786        1750379      43135
  17 16  0     -341.4709609194    -0.0000010238   0.000139718   0.000280842        1719372      45258
  18 17  0     -341.4709610203    -0.0000001009   0.000038579   0.000082912        1643719      49808
  19 18  0     -341.4709610302    -0.0000000100   0.000009300   0.000015211        1579331      53810
  20 19  0     -341.4709610309    -0.0000000006   0.000003426   0.000003300        1496565      57366

          -----------------
          DENSITY CONVERGED
          -----------------
     TIME TO FORM FOCK OPERATORS=       4.2 SECONDS (       0.2 SEC/ITER)
     FOCK TIME ON FIRST ITERATION=       0.0, LAST ITERATION=       0.5
     TIME TO SOLVE SCF EQUATIONS=       0.2 SECONDS (       0.0 SEC/ITER)

 FINAL R-B3LYP ENERGY IS     -341.4709610309 AFTER  20 ITERATIONS
 DFT EXCHANGE + CORRELATION ENERGY =       -35.5096637689
 TOTAL ELECTRON NUMBER             =        48.0001159468

          ------------
          EIGENVECTORS
          ------------

                      1          2          3          4          5
                  -19.0728   -19.0290   -19.0184   -10.2347   -10.1846
                     A          A          A          A          A   
    1  O  1  S    0.982649   0.000706   0.002272   0.000325   0.000031
    2  O  1  S    0.106314  -0.000083  -0.000489   0.001069  -0.000021
    3  O  1  X    0.003758   0.000108   0.000027  -0.000814  -0.000093
    4  O  1  Y   -0.001646   0.000032   0.000319   0.000313   0.000346
    5  O  1  Z    0.001861  -0.000085  -0.000094  -0.000323  -0.000126
    6  O  1  S   -0.058379   0.000920   0.005031  -0.001900  -0.001380
    7  O  1  X   -0.013298  -0.000348   0.001490  -0.003222  -0.001909
    8  O  1  Y    0.005582  -0.000219  -0.001432   0.002833  -0.001924
    9  O  1  Z   -0.006487   0.000464   0.000894  -0.002385   0.000181
   10  C  2  S    0.000021  -0.000142   0.000205   0.985294   0.006642
   11  C  2  S    0.000271  -0.000987   0.000438   0.105310  -0.002050
   12  C  2  X   -0.002085  -0.000273  -0.000610  -0.000411   0.000297
   13  C  2  Y    0.000298   0.000175  -0.000190   0.000537  -0.000327
   14  C  2  Z   -0.000851   0.000185  -0.000104  -0.000599  -0.000015
   15  C  2  S    0.021636   0.003300  -0.007856  -0.058501   0.027937
   16  C  2  X   -0.013771   0.003325   0.000985  -0.013488   0.016059
   17  C  2  Y    0.015903  -0.000939  -0.008333   0.001999   0.010304
   18  C  2  Z   -0.010881  -0.000066   0.004429  -0.004823  -0.000217
   19  C  3  S    0.000229   0.000292  -0.000991  -0.007659   0.979927
   20  C  3  S    0.000800   0.001342  -0.004272  -0.002226   0.115748
   21  C  3  X    0.000078  -0.000622   0.000109   0.000637  -0.000348
   22  C  3  Y    0.000697   0.000020   0.001491   0.000334  -0.001241
   23  C  3  Z   -0.000458   0.000344  -0.000066   0.000007  -0.000228
   24  C  3  S   -0.004527  -0.009647   0.023295   0.013774  -0.110272
   25  C  3  X    0.005835  -0.002742  -0.005341  -0.010542   0.000920
   26  C  3  Y   -0.008211   0.003446   0.012157  -0.006406   0.014845
   27  C  3  Z    0.006693  -0.000679  -0.010751   0.002540   0.005661
   28  H  4  S   -0.000622   0.000612  -0.000683  -0.001563   0.001152
   29  H  4  S   -0.001748   0.001374   0.000970   0.001714   0.016084
   30  O  5  S   -0.002499   0.007616   0.982533  -0.000027  -0.000163
   31  O  5  S   -0.001032   0.001060   0.105627  -0.000449  -0.000935
   32  O  5  X   -0.000398   0.000164  -0.002270  -0.000067  -0.000179
   33  O  5  Y    0.000196  -0.000179  -0.003160   0.000467  -0.000235
   34  O  5  Z   -0.000219   0.000001   0.000690  -0.000117   0.000268
   35  O  5  S    0.004666  -0.000840  -0.053103   0.000704   0.010123
   36  O  5  X    0.001527  -0.000356   0.004658   0.001108   0.001150
   37  O  5  Y   -0.002562   0.000343   0.010681  -0.001429  -0.004226
   38  O  5  Z    0.001537  -0.000010  -0.002968   0.000427   0.000654
   39  C  6  S    0.000006  -0.000889   0.000162  -0.005210  -0.119194
   40  C  6  S    0.000053  -0.003608   0.000564  -0.002838  -0.017421
   41  C  6  X    0.000184   0.001654   0.000348   0.001386  -0.000351
   42  C  6  Y   -0.000200   0.000336  -0.000387  -0.000058  -0.000013
   43  C  6  Z    0.000123   0.000407  -0.000602   0.000150  -0.000018
   44  C  6  S   -0.002102   0.021068  -0.003898   0.005042   0.040587
   45  C  6  X   -0.000910   0.006705   0.002058  -0.005899  -0.013894
   46  C  6  Y    0.001687   0.005111  -0.003471   0.001013   0.008831
   47  C  6  Z   -0.003634   0.006228   0.004747  -0.002027   0.007930
   48  O  7  S   -0.000733   0.982396  -0.007578  -0.000066   0.000094
   49  O  7  S   -0.000253   0.104458  -0.000525  -0.000642   0.000476
   50  O  7  X   -0.000095  -0.000981  -0.000183   0.000235   0.000360
   51  O  7  Y    0.000129  -0.001910  -0.000070   0.000000  -0.000031
   52  O  7  Z    0.000046  -0.003074   0.000155   0.000059   0.000085
   53  O  7  S    0.001008  -0.048296  -0.000401   0.002355  -0.003820
   54  O  7  X    0.000017   0.004956   0.000588  -0.001342   0.001109
   55  O  7  Y   -0.000727   0.004693   0.000565  -0.000314   0.000166
   56  O  7  Z   -0.000163   0.007235  -0.000653  -0.000340   0.000067
   57  H  8  S    0.000580  -0.000503  -0.000936  -0.001663  -0.001165
   58  H  8  S    0.004563  -0.000412  -0.002271   0.014656   0.003043
   59  H  9  S   -0.000828  -0.000100   0.003310  -0.000376  -0.000672
   60  H  9  S    0.002851  -0.000180   0.006626   0.002506   0.003090
   61  H 10  S    0.000011  -0.001297  -0.000386  -0.000896  -0.001571
   62  H 10  S    0.002290  -0.001188  -0.000614   0.000745  -0.002329
   63  H 11  S   -0.000222  -0.001145   0.000795  -0.001049  -0.001998
   64  H 11  S   -0.001699  -0.000990   0.002680  -0.001401  -0.000338
   65  H 12  S   -0.000234   0.003148  -0.000124  -0.000200   0.000200
   66  H 12  S    0.000050   0.005553  -0.000285   0.001027   0.000793

                      6          7          8          9         10
                  -10.1809    -1.0850    -1.0133    -0.9958    -0.7738
                     A          A          A          A          A   
    1  O  1  S    0.000011  -0.201719   0.043258   0.045640   0.042326
    2  O  1  S    0.000052   0.192279  -0.040584  -0.043741  -0.042666
    3  O  1  X    0.000114   0.118118  -0.020038  -0.019778   0.006155
    4  O  1  Y    0.000012  -0.058079   0.015880   0.018428   0.001685
    5  O  1  Z   -0.000184   0.060669  -0.012791  -0.013829  -0.000796
    6  O  1  S   -0.000211   0.620135  -0.147937  -0.153378  -0.141989
    7  O  1  X   -0.000838   0.115911  -0.021386  -0.021174   0.004578
    8  O  1  Y   -0.000049  -0.051347   0.017479   0.020859   0.001797
    9  O  1  Z    0.000483   0.057448  -0.015033  -0.014260  -0.001193
   10  C  2  S    0.005575  -0.120574   0.011907   0.012241  -0.075291
   11  C  2  S   -0.001928   0.130961  -0.011283  -0.015523   0.091648
   12  C  2  X   -0.001143  -0.111260   0.045073   0.045361   0.118684
   13  C  2  Y    0.000087   0.077037  -0.004876  -0.000114  -0.007716
   14  C  2  Z    0.000145  -0.066480   0.014122   0.015271   0.031665
   15  C  2  S    0.008037   0.139924  -0.016640  -0.015598   0.134845
   16  C  2  X    0.004209   0.035731  -0.018203  -0.011167   0.024156
   17  C  2  Y    0.001056  -0.030540   0.027746   0.024807  -0.033812
   18  C  2  Z    0.000275   0.023102  -0.014152  -0.016741   0.018617
   19  C  3  S    0.118288  -0.034547  -0.061618  -0.056518  -0.142341
   20  C  3  S    0.010977   0.031180   0.061728   0.060809   0.136144
   21  C  3  X   -0.000007  -0.024017   0.008943  -0.021894   0.007178
   22  C  3  Y   -0.000179   0.006842   0.034728   0.066857  -0.105524
   23  C  3  Z    0.000213  -0.011786  -0.026611  -0.030359   0.002544
   24  C  3  S    0.009489   0.060471   0.124012   0.105933   0.401926
   25  C  3  X    0.012352  -0.011641   0.017461  -0.008041  -0.025030
   26  C  3  Y   -0.004635   0.016880  -0.022315  -0.021121  -0.067513
   27  C  3  Z   -0.006890  -0.020168   0.015153   0.009507  -0.000164
   28  H  4  S   -0.001357   0.010431   0.016108   0.013241   0.076354
   29  H  4  S    0.003956  -0.002505  -0.009801  -0.010550  -0.006427
   30  O  5  S    0.000024  -0.044955  -0.118998  -0.172683   0.071729
   31  O  5  S   -0.000060   0.043931   0.110165   0.160121  -0.066680
   32  O  5  X   -0.000243  -0.017630  -0.034252  -0.057816   0.052685
   33  O  5  Y    0.000223  -0.021244  -0.047164  -0.061486  -0.033175
   34  O  5  Z   -0.000055   0.003404   0.008222   0.009415   0.022505
   35  O  5  S   -0.000421   0.119290   0.369031   0.540336  -0.257823
   36  O  5  X   -0.000009  -0.021463  -0.037707  -0.058832   0.045859
   37  O  5  Y    0.000122  -0.017020  -0.053368  -0.073193  -0.005044
   38  O  5  Z    0.000418   0.001623   0.009981   0.014382   0.013496
   39  C  6  S    0.979147  -0.006944  -0.072994   0.034782  -0.111866
   40  C  6  S    0.110389   0.010359   0.077396  -0.038680   0.116946
   41  C  6  X   -0.000730  -0.006604   0.046531  -0.055056  -0.088383
   42  C  6  Y   -0.000008   0.004165   0.029686  -0.005374   0.011708
   43  C  6  Z   -0.000070   0.001560   0.027420  -0.015449   0.021250
   44  C  6  S   -0.083526   0.006381   0.119460  -0.068505   0.272184
   45  C  6  X    0.007945   0.013593  -0.001224   0.001390  -0.024278
   46  C  6  Y   -0.002736  -0.003512  -0.000262   0.017798  -0.014388
   47  C  6  Z   -0.000551   0.007983  -0.018088  -0.010090  -0.002509
   48  O  7  S   -0.000100  -0.004980  -0.171748   0.134587   0.051899
   49  O  7  S   -0.000426   0.005611   0.161664  -0.126899  -0.049013
   50  O  7  X   -0.000249  -0.001659  -0.012738   0.001608  -0.066246
   51  O  7  Y   -0.000277  -0.001252  -0.039970   0.033192   0.006601
   52  O  7  Z   -0.000323  -0.002129  -0.068355   0.053635   0.022766
   53  O  7  S    0.007698   0.009553   0.523386  -0.413741  -0.186976
   54  O  7  X   -0.002951   0.000637  -0.020233   0.010429  -0.043087
   55  O  7  Y   -0.000110   0.001014  -0.045191   0.034835   0.011170
   56  O  7  Z   -0.000289  -0.000767  -0.070965   0.058284   0.024260
   57  H  8  S   -0.000412   0.022844   0.000710  -0.001359   0.053165
   58  H  8  S   -0.001323  -0.025868   0.013583   0.010527   0.002889
   59  H  9  S    0.000098   0.029844   0.052970   0.082414  -0.061578
   60  H  9  S    0.000704   0.004597   0.005940   0.011838  -0.040735
   61  H 10  S   -0.000475   0.004255   0.021557  -0.009546   0.065696
   62  H 10  S    0.016210  -0.007048  -0.004047   0.009703  -0.000447
   63  H 11  S   -0.000274   0.004218   0.021713  -0.009454   0.058308
   64  H 11  S    0.016925   0.004690  -0.010242  -0.001338  -0.007343
   65  H 12  S   -0.000318   0.002758   0.084716  -0.069791  -0.057479
   66  H 12  S    0.002600  -0.002183   0.017924  -0.017733  -0.032884

                     11         12         13         14         15
                   -0.6565    -0.5829    -0.5317    -0.5069    -0.4748
                     A          A          A          A          A   
    1  O  1  S   -0.062412  -0.051007  -0.001493   0.017434  -0.075137
    2  O  1  S    0.061058   0.050523   0.001677  -0.014228   0.065984
    3  O  1  X   -0.032225  -0.021456   0.079436   0.020736  -0.233938
    4  O  1  Y    0.009821   0.070054   0.138208  -0.106664   0.044469
    5  O  1  Z   -0.023494  -0.020098  -0.049414   0.013587  -0.063195
    6  O  1  S    0.233673   0.194403  -0.000496  -0.069845   0.315889
    7  O  1  X   -0.020025  -0.016524   0.064377   0.019626  -0.207245
    8  O  1  Y    0.007683   0.057934   0.119234  -0.094261   0.041745
    9  O  1  Z   -0.017125  -0.017191  -0.044481   0.010342  -0.054245
   10  C  2  S    0.113434   0.091853   0.016617  -0.012780   0.055725
   11  C  2  S   -0.125414  -0.098457  -0.019042   0.021210  -0.072599
   12  C  2  X   -0.100950   0.012319   0.161167  -0.077184   0.038093
   13  C  2  Y    0.022827   0.161429   0.227965  -0.060421  -0.141440
   14  C  2  Z   -0.067266  -0.030959  -0.071286  -0.052769   0.106301
   15  C  2  S   -0.327621  -0.329986  -0.069592   0.020519  -0.171213
   16  C  2  X   -0.070018  -0.049501   0.094224  -0.044180  -0.057965
   17  C  2  Y    0.015672   0.097586   0.180703  -0.084628  -0.096754
   18  C  2  Z   -0.045470  -0.027903  -0.067339  -0.020125   0.047345
   19  C  3  S    0.048682  -0.107103  -0.014712  -0.015028  -0.022602
   20  C  3  S   -0.043197   0.101349   0.014708   0.011602   0.016064
   21  C  3  X    0.151690   0.066037  -0.166624   0.045132   0.067244
   22  C  3  Y    0.015413   0.086219  -0.074940   0.122641  -0.012535
   23  C  3  Z   -0.067952   0.072249  -0.079482  -0.157184   0.130378
   24  C  3  S   -0.172929   0.410221   0.032322   0.084363   0.137212
   25  C  3  X    0.033557   0.022171  -0.103160   0.020093   0.018162
   26  C  3  Y    0.015372   0.004899  -0.053033   0.069682  -0.052688
   27  C  3  Z   -0.020808   0.047745  -0.067676  -0.125813   0.116640
   28  H  4  S   -0.042145   0.116985  -0.055042  -0.068546   0.098623
   29  H  4  S   -0.011626   0.046924  -0.038611  -0.045995   0.056891
   30  O  5  S   -0.018729   0.033748   0.039996  -0.006995  -0.017584
   31  O  5  S    0.017488  -0.030168  -0.036491   0.007039   0.015812
   32  O  5  X    0.014528   0.104199  -0.095622   0.188211   0.012603
   33  O  5  Y    0.012302  -0.096022  -0.015425  -0.150540   0.052896
   34  O  5  Z   -0.023820   0.094998  -0.043060   0.068356   0.028027
   35  O  5  S    0.071403  -0.143927  -0.159952   0.022810   0.072597
   36  O  5  X    0.016009   0.088869  -0.082260   0.161174   0.022934
   37  O  5  Y    0.001819  -0.074236  -0.013143  -0.123989   0.040750
   38  O  5  Z   -0.017156   0.078932  -0.035500   0.054871   0.032991
   39  C  6  S   -0.146276   0.052623  -0.007311   0.004850  -0.000077
   40  C  6  S    0.138888  -0.048569   0.007793  -0.002775  -0.002907
   41  C  6  X   -0.005640  -0.014239  -0.065628  -0.077615  -0.111797
   42  C  6  Y   -0.013248   0.106461  -0.074909   0.087159  -0.151747
   43  C  6  Z   -0.033605   0.082857  -0.116383  -0.180710  -0.025186
   44  C  6  S    0.484445  -0.206930   0.023095  -0.033739  -0.010014
   45  C  6  X   -0.040312   0.016165  -0.028646  -0.033393  -0.070809
   46  C  6  Y   -0.002609   0.057662  -0.063052   0.061767  -0.098713
   47  C  6  Z   -0.021673   0.043454  -0.078445  -0.139568  -0.032333
   48  O  7  S    0.048901  -0.016003   0.010804   0.014429   0.021484
   49  O  7  S   -0.046287   0.015303  -0.009826  -0.012787  -0.018285
   50  O  7  X   -0.128324  -0.015514   0.164012   0.163601   0.240439
   51  O  7  Y   -0.008830   0.031160  -0.017200   0.044299  -0.030741
   52  O  7  Z    0.007038   0.027427  -0.052828  -0.080289  -0.028978
   53  O  7  S   -0.190641   0.063497  -0.041912  -0.058490  -0.091712
   54  O  7  X   -0.095582  -0.016173   0.139914   0.140303   0.215680
   55  O  7  Y   -0.004653   0.028988  -0.015282   0.042685  -0.027062
   56  O  7  Z    0.009103   0.026228  -0.046098  -0.069374  -0.020313
   57  H  8  S   -0.100680  -0.155166  -0.143155   0.032380   0.045265
   58  H  8  S   -0.028602  -0.082417  -0.074336  -0.000674   0.047884
   59  H  9  S    0.007880  -0.092989   0.057416  -0.143548  -0.003934
   60  H  9  S    0.022743  -0.058758   0.044781  -0.136933   0.034984
   61  H 10  S    0.092004  -0.083937   0.036719  -0.062000   0.100260
   62  H 10  S    0.015636  -0.047521   0.013096  -0.041072   0.094656
   63  H 11  S    0.104506  -0.067552   0.065755   0.110222   0.002950
   64  H 11  S    0.020458  -0.036218   0.040367   0.076903  -0.001872
   65  H 12  S   -0.084325  -0.011084   0.099656   0.102325   0.136947
   66  H 12  S   -0.055002  -0.007372   0.079865   0.086697   0.126871

                     16         17         18         19         20
                   -0.4541    -0.4312    -0.4082    -0.3799    -0.3257
                     A          A          A          A          A   
    1  O  1  S    0.049642   0.028439   0.042119  -0.002283   0.003372
    2  O  1  S   -0.042676  -0.024255  -0.036601   0.001913  -0.001005
    3  O  1  X    0.122155   0.152744   0.151323  -0.103567  -0.008077
    4  O  1  Y   -0.045665  -0.144747  -0.123492   0.132914  -0.023737
    5  O  1  Z    0.204220  -0.070823   0.134983   0.312535  -0.031265
    6  O  1  S   -0.202024  -0.109639  -0.163797   0.011526  -0.034554
    7  O  1  X    0.111514   0.147560   0.152263  -0.106374  -0.017322
    8  O  1  Y   -0.041756  -0.142322  -0.120974   0.134302  -0.018158
    9  O  1  Z    0.195773  -0.068784   0.132915   0.320981  -0.036151
   10  C  2  S   -0.017379   0.001091   0.005325   0.000139   0.007117
   11  C  2  S    0.031023   0.007936   0.007536   0.000415  -0.016570
   12  C  2  X   -0.158424  -0.061889  -0.180528  -0.052288  -0.028607
   13  C  2  Y    0.142207   0.008808   0.065990   0.083758  -0.036222
   14  C  2  Z    0.055276  -0.195997  -0.053825   0.194018  -0.004479
   15  C  2  S    0.013311  -0.038641  -0.083344   0.008720   0.027256
   16  C  2  X   -0.052242   0.020396  -0.070731  -0.053310  -0.008079
   17  C  2  Y    0.071492  -0.040007  -0.006085   0.091624   0.014124
   18  C  2  Z    0.091590  -0.138958   0.012516   0.212798  -0.036696
   19  C  3  S    0.012551  -0.004982  -0.012675   0.003788   0.016548
   20  C  3  S   -0.011524   0.004626   0.008889   0.000362  -0.004740
   21  C  3  X   -0.075857   0.067364   0.185241   0.031143  -0.058470
   22  C  3  Y    0.159511  -0.013788  -0.142316  -0.056743   0.108849
   23  C  3  Z    0.154911  -0.087288   0.120428  -0.173661   0.037059
   24  C  3  S   -0.040332   0.013126   0.053422  -0.053564  -0.177766
   25  C  3  X   -0.069065   0.057781   0.115491   0.035567  -0.041552
   26  C  3  Y    0.135674   0.005248  -0.082396  -0.033757   0.139911
   27  C  3  Z    0.127152  -0.085350   0.085439  -0.164752   0.061936
   28  H  4  S    0.076921  -0.040664   0.117725  -0.120246   0.020886
   29  H  4  S    0.050341  -0.024210   0.095448  -0.098670   0.075877
   30  O  5  S   -0.007785  -0.018654  -0.004380  -0.005912   0.028911
   31  O  5  S    0.005439   0.016351   0.004751   0.005742  -0.026050
   32  O  5  X    0.038484   0.072039  -0.086102   0.052464  -0.119657
   33  O  5  Y   -0.021920  -0.036024   0.183329  -0.058544  -0.067619
   34  O  5  Z    0.133185   0.007497  -0.113469  -0.073864   0.105425
   35  O  5  S    0.038513   0.079487   0.014287   0.024069  -0.126152
   36  O  5  X    0.026527   0.055053  -0.084254   0.046602  -0.131012
   37  O  5  Y   -0.017202  -0.028990   0.187726  -0.054700  -0.075994
   38  O  5  Z    0.118791   0.004133  -0.115486  -0.068528   0.107233
   39  C  6  S   -0.022882   0.010698  -0.009831  -0.005335   0.008974
   40  C  6  S    0.016955  -0.009920   0.010125   0.002161  -0.021429
   41  C  6  X    0.124309  -0.122164  -0.155559  -0.134199  -0.076117
   42  C  6  Y   -0.186979  -0.172800   0.118751  -0.005544  -0.075258
   43  C  6  Z   -0.063938   0.203627  -0.034053   0.095191  -0.164549
   44  C  6  S    0.125730  -0.052167   0.029933   0.021935   0.040304
   45  C  6  X    0.085154  -0.083917  -0.112817  -0.114007  -0.120555
   46  C  6  Y   -0.133505  -0.139411   0.091686   0.003964  -0.030443
   47  C  6  Z   -0.043252   0.177877  -0.021600   0.099907  -0.046170
   48  O  7  S    0.028725  -0.014946   0.005562  -0.023259  -0.078146
   49  O  7  S   -0.026056   0.014741  -0.002509   0.021958   0.067756
   50  O  7  X    0.002700   0.097409   0.127550   0.051501   0.032747
   51  O  7  Y   -0.091471  -0.056204   0.098646   0.032550   0.205444
   52  O  7  Z   -0.044990   0.114847  -0.012531   0.106069   0.324406
   53  O  7  S   -0.123616   0.058517  -0.033918   0.096191   0.355401
   54  O  7  X    0.002206   0.096430   0.125691   0.058032   0.044839
   55  O  7  Y   -0.084056  -0.052166   0.099923   0.033114   0.221841
   56  O  7  Z   -0.040371   0.112323  -0.006327   0.106984   0.348447
   57  H  8  S   -0.044873  -0.048775  -0.063662  -0.001513   0.020478
   58  H  8  S   -0.045920  -0.047885  -0.084815   0.000580   0.049921
   59  H  9  S   -0.056347  -0.046892   0.095376  -0.020268   0.034072
   60  H  9  S   -0.082586  -0.068065   0.077677  -0.022948   0.015983
   61  H 10  S    0.114785   0.139090  -0.064376   0.032353   0.035334
   62  H 10  S    0.087823   0.122607  -0.075955   0.033891   0.047459
   63  H 11  S    0.033781  -0.154542   0.053619  -0.059415   0.118191
   64  H 11  S    0.019038  -0.117598   0.051533  -0.060022   0.146824
   65  H 12  S    0.017148   0.027047   0.064757  -0.007051  -0.120099
   66  H 12  S    0.009895   0.032879   0.072109   0.003022  -0.098376

                     21         22         23         24         25
                   -0.3224    -0.2783    -0.2625    -0.2443    -0.0462
                     A          A          A          A          A   
    1  O  1  S   -0.009598   0.008616  -0.002466   0.000356  -0.000728
    2  O  1  S    0.005364  -0.010250   0.002868  -0.000968  -0.000773
    3  O  1  X    0.095671   0.247004  -0.078275   0.006646   0.103123
    4  O  1  Y    0.165292   0.333820  -0.088598   0.041772  -0.129331
    5  O  1  Z   -0.055570  -0.049982   0.033696   0.028262  -0.321764
    6  O  1  S    0.076672  -0.030100   0.008157   0.002439   0.013179
    7  O  1  X    0.094819   0.270391  -0.092951   0.007664   0.147522
    8  O  1  Y    0.144068   0.366339  -0.098068   0.051687  -0.175935
    9  O  1  Z   -0.047377  -0.052649   0.046981   0.040169  -0.436683
   10  C  2  S   -0.031652   0.007423  -0.003456  -0.002231   0.000492
   11  C  2  S    0.026026  -0.015908   0.002307   0.006692   0.006322
   12  C  2  X    0.115458  -0.105071   0.041296   0.005541  -0.121065
   13  C  2  Y    0.071523  -0.118165   0.037264  -0.021767   0.157597
   14  C  2  Z    0.003112   0.011623  -0.017141  -0.017224   0.389105
   15  C  2  S    0.232431  -0.003190   0.040540   0.006707  -0.054304
   16  C  2  X    0.222351   0.043092   0.032009  -0.000188  -0.178446
   17  C  2  Y    0.059470   0.049958   0.004906  -0.034075   0.181618
   18  C  2  Z    0.033538  -0.014018  -0.026998  -0.012508   0.514996
   19  C  3  S    0.044700   0.026239  -0.000057  -0.005842   0.001909
   20  C  3  S   -0.037381  -0.006716   0.002948   0.008865   0.000528
   21  C  3  X   -0.056985   0.199065  -0.061319   0.065002   0.005925
   22  C  3  Y   -0.088674   0.109677  -0.039570  -0.053049  -0.014990
   23  C  3  Z    0.059766   0.000261  -0.066133  -0.093975  -0.031436
   24  C  3  S   -0.276911  -0.267161  -0.008714   0.021974  -0.007574
   25  C  3  X    0.089326   0.184579  -0.057120   0.001428  -0.088961
   26  C  3  Y    0.058971   0.117865   0.027318   0.036949  -0.019669
   27  C  3  Z    0.061617   0.047171   0.085684  -0.012329   0.027776
   28  H  4  S   -0.017404   0.019704  -0.094257  -0.088076  -0.094314
   29  H  4  S    0.000822   0.011710  -0.194888  -0.143161  -0.194004
   30  O  5  S   -0.077174   0.027150  -0.006907   0.001046  -0.002867
   31  O  5  S    0.072693  -0.023900   0.004348   0.003303   0.001006
   32  O  5  X    0.304145  -0.036722  -0.075540  -0.097158  -0.000257
   33  O  5  Y    0.256139  -0.078181   0.104754   0.175464  -0.004302
   34  O  5  Z    0.011900   0.071357   0.241863   0.352555   0.006048
   35  O  5  S    0.315534  -0.132696   0.044584  -0.027449   0.025669
   36  O  5  X    0.319476  -0.037441  -0.084934  -0.116284   0.009578
   37  O  5  Y    0.279389  -0.115706   0.117785   0.212678  -0.013292
   38  O  5  Z    0.003934   0.090222   0.270144   0.401782   0.006865
   39  C  6  S    0.010310  -0.012777  -0.016481  -0.025183  -0.040266
   40  C  6  S   -0.015574   0.009707   0.010583   0.020758   0.035273
   41  C  6  X    0.006924  -0.040733  -0.038281  -0.083187  -0.067980
   42  C  6  Y   -0.039641   0.011537  -0.031788   0.144849   0.036701
   43  C  6  Z   -0.066345   0.060335   0.089470   0.007484   0.045726
   44  C  6  S   -0.028718   0.083183   0.147330   0.200196   0.294117
   45  C  6  X   -0.020818  -0.065760  -0.103890  -0.114384  -0.018826
   46  C  6  Y    0.004239   0.039290   0.049450   0.008713   0.104822
   47  C  6  Z   -0.040714   0.040324  -0.002391   0.049880   0.082316
   48  O  7  S   -0.025862   0.018631   0.000400   0.007033   0.010946
   49  O  7  S    0.021965  -0.014552  -0.001460  -0.006771  -0.001627
   50  O  7  X   -0.012148   0.032561  -0.047012   0.038571   0.038780
   51  O  7  Y    0.087110   0.088906   0.328438  -0.259782   0.008445
   52  O  7  Z    0.083612  -0.091491  -0.220085   0.109070   0.025507
   53  O  7  S    0.121106  -0.095172   0.008238  -0.028852  -0.107272
   54  O  7  X   -0.006023   0.036093  -0.058348   0.039848   0.079261
   55  O  7  Y    0.093296   0.101050   0.369249  -0.299560   0.017260
   56  O  7  Z    0.085779  -0.100992  -0.256344   0.121034   0.044334
   57  H  8  S   -0.009044   0.156135  -0.048871   0.014657   0.003281
   58  H  8  S   -0.026652   0.289543  -0.069995  -0.002382  -0.002439
   59  H  9  S   -0.132108   0.042600  -0.010101   0.002682  -0.001522
   60  H  9  S   -0.057252   0.130137  -0.039791   0.008550  -0.006249
   61  H 10  S    0.009899   0.039674   0.083237  -0.116266   0.018188
   62  H 10  S    0.035753   0.066987   0.114690  -0.229064  -0.039837
   63  H 11  S    0.037627  -0.042302  -0.093364   0.047660   0.003370
   64  H 11  S    0.064766  -0.068195  -0.198458   0.003669  -0.067498
   65  H 12  S   -0.048699   0.041263   0.008280   0.020149   0.015500
   66  H 12  S   -0.042202   0.053998   0.010596   0.030724   0.022563

                     26         27         28         29         30
                    0.0893     0.1219     0.1258     0.1585     0.1629
                     A          A          A          A          A   
    1  O  1  S    0.010226   0.002228  -0.049675   0.005976  -0.020397
    2  O  1  S   -0.007489   0.005350   0.039941   0.003668   0.021013
    3  O  1  X   -0.046186  -0.021756   0.108924  -0.020663   0.036660
    4  O  1  Y   -0.018875  -0.087605   0.042807   0.037919  -0.005386
    5  O  1  Z    0.010755   0.010595   0.020828  -0.025518   0.048462
    6  O  1  S   -0.091655  -0.053298   0.395213  -0.101486   0.133056
    7  O  1  X   -0.080786  -0.066801   0.206785  -0.049736   0.065522
    8  O  1  Y   -0.021971  -0.152968  -0.008400   0.049767  -0.037640
    9  O  1  Z    0.004247   0.016414   0.069621  -0.057288   0.092810
   10  C  2  S   -0.031999   0.088480   0.055929   0.012324   0.056965
   11  C  2  S    0.026954  -0.066160  -0.026430  -0.012303   0.006025
   12  C  2  X    0.073205  -0.008432  -0.002935  -0.019679   0.057711
   13  C  2  Y    0.017951   0.240276   0.017170   0.040588   0.067759
   14  C  2  Z   -0.015446  -0.058358  -0.009834  -0.049217  -0.098033
   15  C  2  S    0.326215  -1.040493  -0.754947  -0.130823  -0.846759
   16  C  2  X    0.082719  -0.074243   0.156667  -0.155230  -0.024888
   17  C  2  Y    0.083975   0.598163   0.101767   0.146178   0.222181
   18  C  2  Z   -0.030749  -0.221290   0.012919  -0.005086  -0.233503
   19  C  3  S   -0.000369  -0.007398   0.040074   0.044729  -0.109333
   20  C  3  S   -0.006684   0.016659  -0.040599  -0.023019   0.065482
   21  C  3  X    0.021965  -0.098464  -0.050395  -0.099268   0.016448
   22  C  3  Y    0.025776   0.058564  -0.203372   0.026750  -0.007540
   23  C  3  Z   -0.016892  -0.109209   0.069176  -0.198092   0.131069
   24  C  3  S    0.071801  -0.129469  -0.284518  -0.626302   1.352407
   25  C  3  X    0.236183  -0.267566  -0.164130  -0.289914   0.164992
   26  C  3  Y    0.024138   0.048236  -0.486559   0.187299  -0.202945
   27  C  3  Z   -0.027051  -0.204654   0.082591  -0.616790   0.490826
   28  H  4  S   -0.054719   0.009756   0.002976   0.072762  -0.040092
   29  H  4  S   -0.138539   0.373846   0.102466   1.119709  -1.109908
   30  O  5  S    0.017326   0.028427  -0.103005  -0.010855  -0.005954
   31  O  5  S   -0.013729  -0.026896   0.059732   0.013894  -0.000374
   32  O  5  X    0.006152   0.023578  -0.166571  -0.047397  -0.055215
   33  O  5  Y    0.017908   0.120750  -0.131780   0.066356   0.054959
   34  O  5  Z    0.019122  -0.008906   0.029814  -0.045943  -0.080779
   35  O  5  S   -0.121271  -0.179392   0.870144   0.051627   0.095203
   36  O  5  X    0.015014   0.049001  -0.290109  -0.106220  -0.111092
   37  O  5  Y    0.027761   0.189060  -0.259855   0.156208   0.074981
   38  O  5  Z    0.024315  -0.015274   0.054437  -0.058928  -0.133519
   39  C  6  S    0.018704   0.065459   0.023571  -0.101354  -0.061666
   40  C  6  S    0.013093  -0.038842  -0.010534   0.055760   0.060168
   41  C  6  X    0.154972  -0.056894  -0.028658  -0.018423   0.195358
   42  C  6  Y    0.074195   0.173520  -0.012588  -0.054763   0.037284
   43  C  6  Z    0.123510  -0.002361   0.072808  -0.125463  -0.129503
   44  C  6  S   -0.497067  -0.760590  -0.335410   1.284033   0.540451
   45  C  6  X    0.373996  -0.134010  -0.018562  -0.143442   0.580327
   46  C  6  Y    0.095216   0.559258  -0.048512  -0.238453   0.050950
   47  C  6  Z    0.287414   0.058717   0.339736  -0.349755  -0.514692
   48  O  7  S    0.100603  -0.011083   0.003733   0.032551   0.022206
   49  O  7  S   -0.059704   0.005925   0.004934  -0.023922  -0.010432
   50  O  7  X   -0.085814  -0.042242  -0.068132  -0.061224   0.140581
   51  O  7  Y    0.105195  -0.067189   0.028887   0.046649   0.051621
   52  O  7  Z    0.197524  -0.035195  -0.009253   0.070334   0.114575
   53  O  7  S   -0.844211   0.092890  -0.073398  -0.265490  -0.207243
   54  O  7  X   -0.175055  -0.068069  -0.090764  -0.133795   0.265247
   55  O  7  Y    0.188097  -0.127941   0.040508   0.084142   0.085290
   56  O  7  Z    0.346807  -0.053013  -0.019628   0.151562   0.195718
   57  H  8  S   -0.009709   0.047010   0.020391   0.036615   0.077516
   58  H  8  S   -0.079377   1.295016   0.442113   0.287068   0.747608
   59  H  9  S    0.028619  -0.003276  -0.131536  -0.057340  -0.009258
   60  H  9  S    0.126762   0.020627  -0.802366  -0.377548  -0.243832
   61  H 10  S    0.007618   0.038714  -0.065509  -0.028048  -0.007068
   62  H 10  S    0.268288   0.992934  -0.144593  -0.687348  -0.035305
   63  H 11  S    0.013814   0.002412   0.076486  -0.071103  -0.019770
   64  H 11  S    0.461226   0.203257   0.605234  -1.064998  -0.833169
   65  H 12  S    0.119631   0.000879   0.016498   0.055052  -0.041717
   66  H 12  S    1.002100  -0.002356   0.166862   0.436027  -0.156774

                     31         32         33         34         35
                    0.1840     0.2124     0.2312     0.2676     0.3058
                     A          A          A          A          A   
    1  O  1  S   -0.024098  -0.003993   0.035142   0.000389   0.018166
    2  O  1  S    0.008126  -0.006337  -0.010300   0.011662  -0.008320
    3  O  1  X    0.019388   0.001958  -0.087502   0.038817   0.081997
    4  O  1  Y    0.027705  -0.081993   0.120204   0.047047   0.128246
    5  O  1  Z   -0.015588   0.036250  -0.060437  -0.048772  -0.013999
    6  O  1  S    0.274336   0.092244  -0.435919  -0.084469  -0.211066
    7  O  1  X    0.088376   0.037039  -0.197249   0.037421   0.140077
    8  O  1  Y    0.004453  -0.139036   0.214003   0.069550   0.290454
    9  O  1  Z    0.004323   0.031772  -0.129495  -0.101347  -0.061637
   10  C  2  S   -0.065169   0.021410  -0.052772   0.010895   0.074466
   11  C  2  S    0.050813   0.007585   0.040539  -0.004752  -0.025169
   12  C  2  X    0.072123   0.070662  -0.021434  -0.101518  -0.301242
   13  C  2  Y   -0.075674   0.055299   0.012985  -0.008851  -0.283029
   14  C  2  Z    0.067877  -0.026612  -0.055052   0.111897  -0.029811
   15  C  2  S    0.717073  -0.418968   0.525788  -0.002221  -1.101106
   16  C  2  X    0.421981   0.038268  -0.397680  -0.309027  -1.367994
   17  C  2  Y   -0.245325   0.177973   0.045942   0.050130  -0.974644
   18  C  2  Z    0.313880   0.144540  -0.187461   0.165729  -0.052094
   19  C  3  S    0.042143   0.020529  -0.007847  -0.151400  -0.092191
   20  C  3  S   -0.018542  -0.024931   0.013408   0.075336   0.031674
   21  C  3  X    0.146243   0.063513   0.003394   0.161392  -0.312633
   22  C  3  Y   -0.021934  -0.204589   0.177709  -0.034351  -0.202100
   23  C  3  Z   -0.084812  -0.213890  -0.058939  -0.230005  -0.043176
   24  C  3  S   -0.538239  -0.135239   0.029078   1.890461   1.419078
   25  C  3  X    0.304240   0.250626  -0.344007   0.885037  -1.405868
   26  C  3  Y   -0.061265  -0.730984   0.526006  -0.282955  -0.757760
   27  C  3  Z   -0.264276  -0.738815  -0.294497  -0.781639  -0.187901
   28  H  4  S    0.024854   0.003468   0.015478   0.038257   0.031240
   29  H  4  S    0.455422   0.873431   0.191660  -0.026713   0.121377
   30  O  5  S   -0.026863   0.001653   0.004182   0.022990  -0.004058
   31  O  5  S    0.015482  -0.005577  -0.002121  -0.008210   0.003945
   32  O  5  X   -0.145670   0.088235  -0.143246  -0.101644   0.073920
   33  O  5  Y   -0.017191  -0.068670   0.164378   0.163305   0.026319
   34  O  5  Z    0.014085   0.154249  -0.105422  -0.022406   0.038088
   35  O  5  S    0.258275   0.000358  -0.037417  -0.223435   0.000026
   36  O  5  X   -0.234737   0.179842  -0.259345  -0.252296   0.197668
   37  O  5  Y   -0.033681  -0.145326   0.330028   0.350648   0.034406
   38  O  5  Z    0.037245   0.308582  -0.221635  -0.055312   0.075990
   39  C  6  S    0.035150  -0.004567  -0.037545   0.145726   0.005272
   40  C  6  S   -0.014911   0.021535   0.038336  -0.068451  -0.002864
   41  C  6  X    0.082597   0.251571   0.103951  -0.007185   0.026840
   42  C  6  Y    0.262542  -0.081972   0.037045  -0.207636   0.115208
   43  C  6  Z   -0.177532   0.034774   0.260719  -0.097775  -0.021109
   44  C  6  S   -0.507075  -0.269415   0.228959  -1.770009  -0.144527
   45  C  6  X    0.345068   0.970495   0.245583   0.545892   0.329635
   46  C  6  Y    0.706745  -0.276905   0.078147  -1.059797   0.557993
   47  C  6  Z   -0.483031   0.189336   0.834849  -0.545859   0.048615
   48  O  7  S    0.005999   0.020396   0.024414  -0.042319   0.005617
   49  O  7  S   -0.004898  -0.009919  -0.017312   0.024044   0.013881
   50  O  7  X    0.068837   0.201966   0.224403  -0.147891  -0.018721
   51  O  7  Y   -0.051684   0.080266   0.039662  -0.000496   0.038962
   52  O  7  Z    0.029145  -0.002967  -0.031976  -0.044557   0.043678
   53  O  7  S   -0.045796  -0.195138  -0.188830   0.378309  -0.179902
   54  O  7  X    0.142208   0.426351   0.454615  -0.371775   0.059426
   55  O  7  Y   -0.098535   0.159834   0.087740   0.021052   0.034874
   56  O  7  Z    0.078163   0.021349  -0.057860  -0.069137   0.093400
   57  H  8  S   -0.069209   0.007009   0.025677   0.034436  -0.007329
   58  H  8  S   -0.759202   0.321243  -0.142675  -0.046008  -0.659836
   59  H  9  S   -0.014083   0.064148  -0.097708  -0.031358  -0.056753
   60  H  9  S   -0.354875   0.475918  -0.698201  -0.277511   0.174575
   61  H 10  S    0.061342  -0.035124   0.050459  -0.012703   0.022257
   62  H 10  S    1.282433  -0.283132  -0.139860  -0.139546   0.635948
   63  H 11  S   -0.026622   0.018969   0.028777  -0.057442  -0.003631
   64  H 11  S   -0.632275   0.276413   0.790252   0.307492  -0.077587
   65  H 12  S   -0.029015  -0.064041  -0.024908  -0.021419  -0.040925
   66  H 12  S   -0.171750  -0.498747  -0.447196   0.043057   0.047371

                     36         37         38         39         40
                    0.3641     0.6520     0.7142     0.7373     0.7502
                     A          A          A          A          A   
    1  O  1  S   -0.112470   0.000372  -0.022865   0.006190  -0.005523
    2  O  1  S    0.054330  -0.005935   0.036047  -0.019055   0.008156
    3  O  1  X    0.154712  -0.002983   0.036595  -0.115512   0.043527
    4  O  1  Y   -0.102408  -0.005813  -0.058373  -0.010253   0.008903
    5  O  1  Z    0.097267  -0.010929   0.058506  -0.084534   0.040965
    6  O  1  S    1.391897  -0.002417   0.093301   0.197212  -0.044440
    7  O  1  X    0.554945   0.066612   0.098888  -0.075944   0.048816
    8  O  1  Y   -0.280200  -0.021675  -0.038584  -0.037844   0.019925
    9  O  1  Z    0.296439  -0.083152   0.072074  -0.059479   0.055275
   10  C  2  S    0.082742  -0.010658   0.025048  -0.002754   0.010779
   11  C  2  S    0.008254   0.108159   0.062256  -0.036902   0.024983
   12  C  2  X    0.064843   0.348522   0.273862  -0.361851   0.137501
   13  C  2  Y   -0.249857  -0.217973   0.028711  -0.162639   0.088357
   14  C  2  Z    0.082635  -0.661833   0.248946  -0.531045   0.360280
   15  C  2  S   -1.005414  -0.299179  -0.050693   0.311054  -0.206192
   16  C  2  X    1.050256  -0.470410  -0.019566   0.672058  -0.263058
   17  C  2  Y   -1.007275   0.126179  -0.072466   0.215211  -0.253164
   18  C  2  Z    0.730229   0.654628  -0.175939   0.583913  -0.385645
   19  C  3  S   -0.052848  -0.008590   0.031731  -0.012933  -0.014051
   20  C  3  S    0.083847  -0.003160  -0.144798   0.046886   0.094253
   21  C  3  X   -0.183908   0.054825  -0.187021   0.295494  -0.043761
   22  C  3  Y    0.232061   0.131304  -0.622014  -0.599002  -0.113180
   23  C  3  Z   -0.154154  -0.006058   0.258539   0.003015   0.061963
   24  C  3  S    0.003378   0.411259   0.409424  -0.837267  -0.494452
   25  C  3  X   -0.540579  -0.161108   0.216272  -0.349643  -0.484543
   26  C  3  Y    0.775126  -0.405025   0.750718   1.099679   0.101581
   27  C  3  Z   -0.430617  -0.285563  -0.469186   0.142892  -0.069179
   28  H  4  S   -0.022003  -0.103912   0.170837  -0.071408   0.048658
   29  H  4  S    0.247599   0.103224   0.106078  -0.053880   0.040912
   30  O  5  S    0.058016   0.000743   0.002659   0.010876   0.005445
   31  O  5  S   -0.037224  -0.002805   0.046274  -0.003997  -0.023057
   32  O  5  X   -0.024879  -0.001132  -0.012525  -0.032561  -0.073070
   33  O  5  Y    0.127259   0.008142  -0.140757  -0.052294   0.049711
   34  O  5  Z   -0.073001  -0.028468   0.071584   0.001935   0.054593
   35  O  5  S   -0.585210   0.035453  -0.355459  -0.260374   0.008272
   36  O  5  X   -0.000389   0.028858  -0.046438   0.008944   0.034071
   37  O  5  Y    0.316464   0.018312   0.130972   0.058698  -0.012648
   38  O  5  Z   -0.154817   0.045370  -0.056593  -0.089536   0.015183
   39  C  6  S   -0.017850   0.026125   0.000237   0.017329   0.024158
   40  C  6  S    0.009907  -0.050958   0.021039  -0.061263  -0.087928
   41  C  6  X    0.022147  -0.594781  -0.442701   0.442857   0.201574
   42  C  6  Y   -0.041793  -0.138186   0.048632  -0.223115  -0.585776
   43  C  6  Z    0.091676  -0.222282   0.243084   0.062675  -0.589564
   44  C  6  S    0.365917  -0.274886  -0.030547   0.492180   0.105712
   45  C  6  X   -0.015924   0.791855   0.533062  -0.821781  -0.221015
   46  C  6  Y    0.005259   0.209473  -0.116952   0.432317   1.161843
   47  C  6  Z    0.499855   0.362661  -0.333729   0.041393   1.136219
   48  O  7  S    0.012005  -0.007066  -0.001827  -0.003331   0.017810
   49  O  7  S   -0.003977   0.058233   0.009184  -0.004395   0.006882
   50  O  7  X    0.024215  -0.123733   0.014044  -0.011423  -0.101296
   51  O  7  Y    0.013883  -0.037052  -0.072333  -0.048478  -0.067432
   52  O  7  Z    0.002782  -0.081110   0.003207   0.064014  -0.039668
   53  O  7  S   -0.140297  -0.266898  -0.066617   0.119231  -0.318244
   54  O  7  X    0.105320   0.075283   0.015082  -0.023996   0.163811
   55  O  7  Y    0.045867   0.037078   0.026673  -0.064762  -0.042639
   56  O  7  Z   -0.007129   0.027140   0.048070  -0.034360  -0.011202
   57  H  8  S    0.150807   0.058629   0.410051   0.074366   0.057876
   58  H  8  S   -0.595404  -0.079655  -0.189649  -0.029497  -0.080826
   59  H  9  S   -0.019433   0.024917   0.092273   0.026161   0.030873
   60  H  9  S    0.140115   0.010380  -0.197719  -0.151870  -0.068302
   61  H 10  S    0.036222   0.140817   0.216658   0.205943   0.346594
   62  H 10  S   -0.266455   0.106281  -0.079822  -0.002596   0.217566
   63  H 11  S    0.000890   0.214964  -0.212207  -0.088842   0.282092
   64  H 11  S    0.322756   0.089146   0.003129   0.049825   0.239472
   65  H 12  S   -0.006501   0.038775  -0.039436  -0.023594   0.181123
   66  H 12  S   -0.015337  -0.139156  -0.095423   0.153008  -0.049387

                     41         42         43         44         45
                    0.7698     0.8238     0.8482     0.8746     0.8999
                     A          A          A          A          A   
    1  O  1  S    0.028006  -0.002869   0.006965   0.002893  -0.001309
    2  O  1  S   -0.036354   0.031425   0.004614   0.002355   0.007361
    3  O  1  X   -0.237895   0.136731   0.034259  -0.036950   0.079890
    4  O  1  Y    0.049295   0.011307   0.038581  -0.196879  -0.009161
    5  O  1  Z   -0.061786  -0.007863  -0.053763   0.026537   0.035803
    6  O  1  S    0.063110  -0.249106  -0.092907  -0.272466  -0.233916
    7  O  1  X   -0.253978  -0.060650  -0.054004  -0.061499  -0.082476
    8  O  1  Y    0.012457  -0.018317  -0.008252  -0.135977  -0.122651
    9  O  1  Z   -0.061148  -0.032253  -0.115275  -0.020758   0.017165
   10  C  2  S   -0.040376   0.013899  -0.013406   0.014207  -0.004904
   11  C  2  S    0.246057  -0.139431   0.050013  -0.058330  -0.254349
   12  C  2  X   -0.847889   0.217565  -0.001495   0.017581  -0.043301
   13  C  2  Y    0.145968  -0.196171   0.010278  -0.626683  -0.647912
   14  C  2  Z   -0.087610  -0.052442  -0.287332   0.128033   0.213789
   15  C  2  S    0.604088   0.907537   0.367155  -0.147896   0.358826
   16  C  2  X    1.180783  -0.030891  -0.078515   0.085722   0.323794
   17  C  2  Y    0.447670   0.577832   0.365756   1.585696   1.243115
   18  C  2  Z   -0.044754   0.019777   0.555160  -0.172595  -0.370019
   19  C  3  S   -0.004891  -0.020858   0.010914   0.008952  -0.000441
   20  C  3  S    0.055437   0.034051   0.004667   0.000895  -0.046720
   21  C  3  X   -0.417315  -0.550196  -0.561542   0.186061  -0.172877
   22  C  3  Y   -0.014194  -0.320370   0.346217   0.125159  -0.043847
   23  C  3  Z    0.088718  -0.175979   0.353395   0.407179   0.210098
   24  C  3  S   -0.538450   0.137270   0.008243  -0.455345  -0.578650
   25  C  3  X    0.985351   1.519656   1.262260   0.229181   0.628294
   26  C  3  Y    0.157837   0.665052  -0.869145  -0.329861   0.026093
   27  C  3  Z   -0.179640   0.307885  -0.791673  -0.886707   0.067568
   28  H  4  S   -0.062984  -0.323350   0.370551   0.254637  -0.387468
   29  H  4  S    0.000136  -0.146267   0.034851   0.246291   0.237552
   30  O  5  S    0.004808   0.008493  -0.003804  -0.017468   0.008331
   31  O  5  S   -0.013285   0.005224  -0.008495   0.022337  -0.054965
   32  O  5  X    0.016855   0.028431  -0.072161   0.122530  -0.034924
   33  O  5  Y    0.003434  -0.081065   0.067080   0.101427   0.094724
   34  O  5  Z   -0.001112  -0.116248   0.174279   0.056435  -0.023135
   35  O  5  S   -0.005567  -0.150157   0.183715   0.132017   0.143703
   36  O  5  X   -0.068596  -0.157356  -0.073550  -0.088922  -0.023986
   37  O  5  Y   -0.013808   0.047109  -0.061203   0.001953  -0.067081
   38  O  5  Z    0.024313  -0.059269   0.130775   0.070132   0.030310
   39  C  6  S   -0.001552   0.020301  -0.001561   0.001406  -0.027553
   40  C  6  S   -0.042290   0.022537   0.138838   0.067242  -0.037424
   41  C  6  X   -0.328353   0.249475   0.229175   0.178903  -0.150852
   42  C  6  Y    0.014379   0.364136  -0.142109   0.356692  -0.381177
   43  C  6  Z   -0.250694  -0.038090   0.266700  -0.274929  -0.012813
   44  C  6  S   -0.199873  -0.351780  -0.999302  -0.396780  -0.059626
   45  C  6  X    0.625297  -0.461289  -0.043483  -0.082007   0.156309
   46  C  6  Y   -0.270187  -1.147108   0.107737  -0.737489   0.432725
   47  C  6  Z    0.381892  -0.102080  -0.812944   0.535108  -0.248289
   48  O  7  S    0.015378   0.013639   0.002778   0.000014   0.005577
   49  O  7  S   -0.012299  -0.067766  -0.035861  -0.005343  -0.025155
   50  O  7  X    0.012174   0.069300   0.053623  -0.027071   0.103982
   51  O  7  Y   -0.015353   0.019151  -0.080148   0.118724  -0.098093
   52  O  7  Z   -0.077066  -0.039946   0.118906  -0.015543  -0.051278
   53  O  7  S   -0.220477   0.334381   0.238069   0.080914  -0.088563
   54  O  7  X    0.105599  -0.259920  -0.157212  -0.052965   0.060251
   55  O  7  Y    0.063846   0.046541  -0.060006   0.027763  -0.023534
   56  O  7  Z    0.010315  -0.020270   0.007829  -0.051896   0.009295
   57  H  8  S    0.270417  -0.114004  -0.103197   0.409168  -0.577235
   58  H  8  S    0.018849   0.254552   0.113346   0.565987   1.136166
   59  H  9  S    0.058492   0.122758   0.074857  -0.121818   0.148006
   60  H  9  S   -0.013124  -0.141186   0.076958  -0.196562  -0.310473
   61  H 10  S   -0.157071  -0.086492   0.351373   0.005216  -0.333055
   62  H 10  S   -0.066622  -0.393825  -0.031554  -0.322800   0.420056
   63  H 11  S    0.079458   0.352101  -0.193552   0.047764  -0.350006
   64  H 11  S    0.130506  -0.125964  -0.173450   0.297743   0.019363
   65  H 12  S    0.050766   0.518145   0.220520   0.121495  -0.263442
   66  H 12  S   -0.169689  -0.269326  -0.109289  -0.030556   0.110835

                     46         47         48         49         50
                    0.9308     0.9880     1.0109     1.0386     1.0649
                     A          A          A          A          A   
    1  O  1  S    0.011034  -0.015584   0.016889  -0.004786  -0.003694
    2  O  1  S   -0.002525   0.036768  -0.016168   0.004715   0.016390
    3  O  1  X   -0.048001  -0.000028   0.066658  -0.027271   0.050190
    4  O  1  Y   -0.052386   0.062908  -0.078726   0.063738  -0.029573
    5  O  1  Z    0.031513  -0.059762  -0.014480   0.025008  -0.083382
    6  O  1  S   -0.308805   0.073391  -0.280148   0.081058  -0.046899
    7  O  1  X   -0.141330   0.079913  -0.170882   0.015488   0.004186
    8  O  1  Y   -0.046396   0.048549  -0.026196  -0.037021   0.061934
    9  O  1  Z    0.016554  -0.001428  -0.020302   0.027639   0.021346
   10  C  2  S   -0.021367   0.001559  -0.006042  -0.014500   0.009832
   11  C  2  S    0.133640  -0.002209  -0.001118   0.027482  -0.072889
   12  C  2  X   -0.153268   0.080824   0.061614  -0.104137   0.175672
   13  C  2  Y   -0.408445   0.086622  -0.136397  -0.073198   0.078221
   14  C  2  Z    0.203845  -0.058235  -0.055545   0.066811  -0.172082
   15  C  2  S   -0.122979   0.000399   0.678307  -0.202706   0.246892
   16  C  2  X    0.272907  -0.181559   0.181837   0.253745  -0.278294
   17  C  2  Y    1.308324  -0.205795   0.767265   0.061780  -0.201849
   18  C  2  Z   -0.783410   0.182374  -0.135752  -0.226921   0.190606
   19  C  3  S    0.024439  -0.013098   0.037218   0.006854   0.031574
   20  C  3  S    0.033349   0.090064  -0.065214  -0.054867  -0.203101
   21  C  3  X    0.013349  -0.049711  -0.358214   0.068973  -0.072750
   22  C  3  Y    0.063293   0.021971  -0.049333   0.014689  -0.078066
   23  C  3  Z   -0.625371   0.080052  -0.439144  -0.306149  -0.304718
   24  C  3  S   -0.331840  -0.095165  -0.345595   0.085099   0.214093
   25  C  3  X    0.275212  -0.214656   1.099028  -0.177287  -0.213328
   26  C  3  Y   -0.544451   0.255057   0.139136   0.056233   0.378313
   27  C  3  Z    1.418417  -0.414528   0.977479   0.667581   0.484604
   28  H  4  S    0.404245   0.082352   0.379625   0.010232   0.495377
   29  H  4  S   -0.928506   0.178040  -0.991949  -0.418924  -0.820069
   30  O  5  S   -0.018223   0.026983  -0.022551   0.000250   0.009207
   31  O  5  S   -0.013190  -0.039244   0.037714  -0.010260  -0.009214
   32  O  5  X    0.148672   0.262407  -0.141203   0.079642   0.034257
   33  O  5  Y    0.116507   0.080542  -0.072499   0.021524  -0.006166
   34  O  5  Z   -0.008674   0.031336  -0.043467  -0.011774   0.048226
   35  O  5  S    0.557920  -0.023611   0.118171   0.115892  -0.056761
   36  O  5  X    0.029488   0.072238  -0.118848   0.047079   0.022164
   37  O  5  Y   -0.285739   0.026447  -0.086652  -0.078115   0.023746
   38  O  5  Z    0.030357   0.040528  -0.047649  -0.038003  -0.082746
   39  C  6  S    0.015188   0.011781   0.005595  -0.010740  -0.065194
   40  C  6  S   -0.009645  -0.017251   0.035548  -0.009767   0.253048
   41  C  6  X   -0.121939   0.159689   0.131942  -0.131968   0.053901
   42  C  6  Y   -0.229943   0.169035   0.096310   0.401752  -0.275349
   43  C  6  Z    0.440377  -0.113581  -0.207237  -0.439253  -0.318321
   44  C  6  S    0.201414   0.040293  -0.186796   0.294564  -0.309345
   45  C  6  X    0.121868  -0.408499  -0.583143   0.184826  -0.374802
   46  C  6  Y    0.767917  -0.329644  -0.220408  -0.411074   0.362527
   47  C  6  Z   -0.879297   0.501789   0.173620   0.572529   0.554418
   48  O  7  S   -0.001554  -0.018977  -0.020853   0.006856   0.010536
   49  O  7  S    0.023557   0.035738   0.024710  -0.000998  -0.048714
   50  O  7  X   -0.065604   0.062198   0.161698  -0.050184   0.014878
   51  O  7  Y   -0.039856  -0.021969  -0.177196  -0.050577   0.117810
   52  O  7  Z    0.097364  -0.185458  -0.202788   0.161795   0.091704
   53  O  7  S   -0.007769   0.011451   0.083983  -0.072692   0.061510
   54  O  7  X   -0.001066   0.051728  -0.012787   0.046299  -0.031016
   55  O  7  Y   -0.051243  -0.006449   0.001581   0.103924  -0.087458
   56  O  7  Z    0.082000  -0.066958  -0.083993  -0.073411  -0.082220
   57  H  8  S    0.044510   0.066115   0.056261  -0.328632   0.277997
   58  H  8  S    0.852144  -0.197313   0.295069   0.484415  -0.523346
   59  H  9  S    0.324618   1.040669  -0.562727   0.216775   0.241437
   60  H  9  S   -0.316168  -0.891061   0.498995  -0.173714  -0.226437
   61  H 10  S    0.140596   0.075106   0.172813   0.676010  -0.793683
   62  H 10  S    0.412739  -0.305737  -0.312680  -1.083480   0.892257
   63  H 11  S    0.367194   0.146543  -0.060825  -0.771869  -0.514470
   64  H 11  S   -0.753726   0.177322   0.254178   1.156705   0.758929
   65  H 12  S    0.209795  -0.662227  -0.786449   0.275524   0.250715
   66  H 12  S   -0.175699   0.606714   0.727010  -0.314407  -0.201189

                     51         52         53         54         55
                    1.1324     1.3908     1.4844     1.5327     1.5785
                     A          A          A          A          A   
    1  O  1  S    0.033001   0.000440  -0.005740  -0.051403  -0.012066
    2  O  1  S   -0.034954  -0.013379   0.014497   0.174321   0.051252
    3  O  1  X    0.105693   0.087819   0.198307  -0.678527  -0.121704
    4  O  1  Y   -0.138313  -0.120612  -0.328524   0.363433   0.034731
    5  O  1  Z    0.128455   0.110571  -0.875729  -0.176128  -0.341567
    6  O  1  S   -0.674068  -0.018480   0.053683   0.181693  -0.012540
    7  O  1  X   -0.291561  -0.096566  -0.185723   0.954647   0.161369
    8  O  1  Y    0.158768   0.147616   0.359011  -0.471185  -0.055664
    9  O  1  Z   -0.160179  -0.123117   0.973619   0.270884   0.445875
   10  C  2  S    0.041822   0.020039   0.000230  -0.006716  -0.003030
   11  C  2  S   -0.513209  -1.339352  -0.037461  -0.392420   0.147534
   12  C  2  X    0.034592  -0.202861  -0.011889   0.168934   0.088979
   13  C  2  Y    0.094178   0.130399   0.027155  -0.034621  -0.039594
   14  C  2  Z   -0.029566  -0.097977   0.055156   0.049228   0.044985
   15  C  2  S    1.091182   2.211817  -0.149875  -0.235073  -0.490430
   16  C  2  X   -0.440013   0.605703   0.072944  -0.083801  -0.066589
   17  C  2  Y    0.706377  -0.503388  -0.276414  -0.303568   0.059000
   18  C  2  Z   -0.568791   0.386501  -0.304850   0.248436  -0.403622
   19  C  3  S   -0.011627   0.033216   0.003013  -0.008207  -0.004452
   20  C  3  S    0.184777  -0.477196  -0.039213  -0.293670   0.016654
   21  C  3  X   -0.069876   0.015619   0.018521  -0.009910   0.001902
   22  C  3  Y    0.265958  -0.026942   0.038295   0.031157  -0.018989
   23  C  3  Z   -0.157227   0.004383   0.055687   0.010613  -0.178808
   24  C  3  S   -0.591474   0.008822  -0.028402   0.786540   0.094227
   25  C  3  X    0.515683   0.133162  -0.234382   0.049907  -0.161356
   26  C  3  Y   -1.092260   0.589385  -0.095073  -0.044419   0.008726
   27  C  3  Z    1.153782  -0.160329  -0.098607  -0.211616   1.088748
   28  H  4  S   -0.647898   0.385334  -0.005221   0.022339  -0.286678
   29  H  4  S    0.144663  -0.533471   0.130613  -0.107929  -0.300677
   30  O  5  S   -0.033664   0.011929  -0.002097   0.002074  -0.007689
   31  O  5  S    0.007568  -0.024725   0.001454  -0.013877   0.010398
   32  O  5  X    0.015510  -0.087817   0.087420   0.208437  -0.183388
   33  O  5  Y    0.160525   0.126031  -0.046001  -0.003856   0.297843
   34  O  5  Z   -0.092286   0.120315  -0.220061   0.025094   0.672374
   35  O  5  S    0.709296  -0.181325   0.019400  -0.081771   0.131680
   36  O  5  X    0.008621   0.054660  -0.068635  -0.289724   0.217115
   37  O  5  Y   -0.442226  -0.028310   0.042166   0.079889  -0.428015
   38  O  5  Z    0.156182  -0.159625   0.238083  -0.061819  -0.778573
   39  C  6  S    0.000544   0.009866   0.002163   0.006271  -0.016171
   40  C  6  S   -0.077798  -0.689802  -0.309872  -0.083057  -0.096563
   41  C  6  X    0.094988  -0.154846  -0.063526   0.041557   0.042997
   42  C  6  Y   -0.122593   0.084723  -0.017200   0.006208   0.069351
   43  C  6  Z    0.084753  -0.013913   0.002808  -0.021608   0.094943
   44  C  6  S   -0.103485   1.308326   0.554074  -0.095992   0.723386
   45  C  6  X   -0.222487   0.432411   0.214949   0.106308  -0.194876
   46  C  6  Y    0.533728  -0.228287   0.081264  -0.342361   0.183121
   47  C  6  Z   -0.842693   0.283497   0.098295   0.056403  -0.507224
   48  O  7  S   -0.003129   0.023616   0.008428   0.006096   0.014431
   49  O  7  S   -0.007792  -0.049381  -0.018817  -0.021341  -0.053451
   50  O  7  X    0.086323  -0.026936  -0.002375   0.113619  -0.084536
   51  O  7  Y   -0.203756   0.100795  -0.106841  -0.470207   0.131298
   52  O  7  Z    0.066973  -0.053590   0.151898   0.123224  -0.474510
   53  O  7  S    0.123671  -0.285884  -0.127720  -0.006268   0.015092
   54  O  7  X   -0.114508   0.207054   0.099302  -0.149744   0.056153
   55  O  7  Y    0.037181   0.004708   0.136173   0.524774  -0.145834
   56  O  7  Z   -0.002727   0.107729  -0.121377  -0.122184   0.588163
   57  H  8  S    0.830460  -0.168184  -0.023637   0.056732   0.092146
   58  H  8  S   -0.576944  -0.718057  -0.030189  -0.253165   0.155299
   59  H  9  S    0.065477   0.064680  -0.017225  -0.157820  -0.050315
   60  H  9  S   -0.020050  -0.155861   0.016087   0.031860   0.102298
   61  H 10  S    0.121200   0.070651   0.051537  -0.119439   0.034630
   62  H 10  S    0.297352  -0.554658  -0.167786  -0.065742  -0.042765
   63  H 11  S   -0.339437   0.193920   0.020871   0.091896  -0.171637
[...]
    966    3.54450    1.19220    5.96555        -6.513829       6.502914      -0.010915
    967    0.58313    1.19220    7.09670        -6.103960       6.105834       0.001874
    968    2.06381    2.10731    6.53113        -6.226242       6.221139      -0.005103
    969    0.58313    2.66145    6.51263        -6.233636       6.231004      -0.002632
    970    3.20161   -2.34140    5.27312        -6.977456       6.974576      -0.002880
    971    1.49824   -3.03383    5.61601        -6.761399       6.770400       0.009001
    972    3.20161    2.89556    5.27312        -6.652932       6.637609      -0.015323
    973    2.41336    4.15357    4.13533        -7.047911       7.025783      -0.022128
    974    1.49824    3.58800    5.61601        -6.479917       6.469902      -0.010015
    975   -0.33199    3.58800    5.61601        -6.556694       6.551151      -0.005543
    976   -0.89756    2.10731    6.53113        -6.316794       6.318843       0.002049
    977   -2.03535    2.89556    5.27312        -6.868601       6.868874       0.000274
    978   -2.37825    1.19220    5.96555        -6.695153       6.702466       0.007312
    979   -0.89756   -1.55315    6.53113        -6.455738       6.467722       0.011985
    980   -0.33199   -3.03383    5.61601        -6.823601       6.839616       0.016015
    981   -1.03518    0.27708    6.89143        -6.273077       6.280463       0.007386
    982    1.61942    4.76852    4.02073        -6.915717       6.893405      -0.022312
    983   -0.10805    5.41502    3.99915        -6.645051       6.626430      -0.018621
    984    3.75469    6.08819    0.56580        -6.546828       6.514466      -0.032362
    985    2.67372    7.13425   -0.50184        -6.159519       6.130465      -0.029054
    986    2.94684    5.68815    2.55306        -6.674165       6.643805      -0.030360
    987    2.02722    7.15582    1.22563        -6.187657       6.158906      -0.028751
    988    0.95958    6.49599    2.95310        -6.355707       6.330630      -0.025077
    989    3.75469    6.08819   -1.56947        -6.436071       6.406796      -0.029275
    990    4.41452    4.36072   -2.63711        -7.001660       6.976714      -0.024946
    991   -0.10805    5.41502   -5.00283        -6.262482       6.250211      -0.012271
    992    1.61942    4.76852   -5.02441        -6.437940       6.421649      -0.016291
    993    3.34689    3.70089   -4.36457        -6.927939       6.911069      -0.016870
    994   -0.10805    3.70089   -5.68424        -6.635768       6.627663      -0.008105
    995    1.77998    2.63325   -5.44476        -7.045559       7.037253      -0.008306
    996   -0.10805    1.56562   -5.68424        -7.322878       7.322538      -0.000340
    997    2.02722    7.15582   -2.22931        -6.060425       6.035220      -0.025205
    998    2.94684    5.68815   -3.55673        -6.365817       6.342265      -0.023552
    999    0.95958    6.49599   -3.95677        -6.093939       6.075074      -0.018865
   1000    0.95958    7.81566   -0.50184        -5.968880       5.944188      -0.024692
   1001   -1.17568    7.81566   -0.50184        -5.967346       5.950339      -0.017006
   1002   -2.88982    7.13425   -0.50184        -6.154484       6.145722      -0.008762
   1003   -0.10805    7.57618    1.38619        -6.059248       6.036484      -0.022764
   1004   -2.24332    7.15582    1.22563        -6.169020       6.154832      -0.014189
   1005   -1.17568    6.49599    2.95310        -6.336180       6.317934      -0.018246
   1006   -2.24332    7.15582   -2.22931        -6.068460       6.059558      -0.008902
   1007   -0.10805    7.57618   -2.38987        -5.943562       5.925218      -0.018345
   1008   -1.17568    6.49599   -3.95677        -6.101798       6.091165      -0.010633
   1009   -1.83552    4.76852    4.02073        -6.851242       6.840281      -0.010961
   1010   -3.16294    5.68815    2.55306        -6.605601       6.596168      -0.009433
   1011   -3.56299    3.70089    3.36090        -7.363143       7.360690      -0.002453
   1012    2.21414   -4.36500    4.20757        -7.031495       7.040951       0.009457
   1013    3.35804   -5.52319   -4.31664        -6.115059       6.132864       0.017805
   1014    5.48724   -4.65764   -3.88802        -6.088156       6.110770       0.022614
   1015    1.07025   -5.52319   -4.31664        -6.424920       6.442237       0.017318
   1016    4.55908   -3.25530    4.99933        -6.434615       6.428247      -0.006368
   1017    6.28654   -2.60880    5.02091        -5.942691       5.932432      -0.010259
   1018    8.01401   -1.54116    4.36108        -5.611634       5.602270      -0.009363
   1019    9.06007   -0.47353    3.28011        -5.475832       5.470276      -0.005556
   1020    4.55908   -1.54116    5.68075        -6.425631       6.414543      -0.011088
   1021    6.44711   -0.47353    5.44127        -5.915219       5.899588      -0.015631
   1022    8.01401    0.59410    4.36108        -5.636826       5.622674      -0.014153
   1023    4.55908    0.59410    5.68075        -6.488078       6.472038      -0.016040
   1024    6.28654    1.66174    5.02091        -6.020730       6.000716      -0.020014
   1025    4.55908    2.30824    4.99933        -6.600660       6.579539      -0.021122
   1026    9.08165   -2.20100    2.63361        -5.484013       5.485713       0.001700
   1027    6.69434   -4.99610    2.22581        -5.970351       5.975140       0.004789
   1028    7.61397   -3.52843    3.55324        -5.707483       5.704602      -0.002881
   1029    5.62671   -4.33627    3.95328        -6.156170       6.152934      -0.003236
   1030    9.08165    1.25394    2.63361        -5.513139       5.505415      -0.007724
   1031    8.42181    2.98141    1.56598        -5.703776       5.691820      -0.011956
   1032    7.34084    4.02746    0.49834        -6.026745       6.009643      -0.017102
   1033    7.61397    2.58136    3.55324        -5.787031       5.768770      -0.018261
   1034    6.69434    4.04904    2.22581        -6.121054       6.097943      -0.023111
   1035    5.62671    3.38920    3.95328        -6.329014       6.304232      -0.024782
   1036    8.42181    2.98141   -0.56929        -5.790112       5.786033      -0.004079
   1037    6.69434    4.04904   -1.22913        -6.301268       6.285928      -0.015341
   1038    5.62671    3.38920   -2.95659        -6.758739       6.747212      -0.011527
   1039    5.62671    4.70887    0.49834        -6.620222       6.591983      -0.028239
   1040    4.55908    4.46939    2.38637        -6.938524       6.906090      -0.032434
   1041   -2.47867   -5.52046    5.00944        -5.837228       5.853287       0.016059
   1042   -0.99798   -4.96632    5.02793        -6.287963       6.305233       0.017270
   1043    0.48270   -4.05120    4.46236        -7.227284       7.245568       0.018284
   1044   -2.47867   -4.05120    5.59350        -6.168222       6.184284       0.016062
   1045   -0.64844   -7.01258    2.63213        -6.086795       6.105717       0.018922
   1046    0.13981   -5.75457    3.76992        -6.538197       6.556806       0.018610
   1047   -1.56356   -6.44701    4.11282        -5.867159       5.884353       0.017194
   1048   -1.56356   -6.44701   -1.80993        -6.616792       6.636539       0.019746
   1049   -4.86304   -6.99408    1.15144        -5.571894       5.584625       0.012732
   1050   -5.78959   -6.09746    2.06656        -5.603671       5.614265       0.010594
   1051   -6.35516   -4.61678    2.98167        -5.838676       5.846933       0.008258
   1052   -5.78959   -6.09746    0.23633        -5.811317       5.820184       0.008867
   1053   -3.39379   -6.44701   -1.80993        -6.235925       6.250515       0.014590
   1054   -4.30890   -7.01258   -0.32924        -5.778855       5.792067       0.013213
   1055   -3.39379   -7.57815    1.15144        -5.609810       5.625392       0.015582
   1056   -2.47867   -7.37288   -0.46687        -5.963880       5.981038       0.017158
   1057   -1.56356   -7.57815    1.15144        -5.906364       5.924813       0.018449
   1058   -5.44004   -4.05120    4.46236        -5.888214       5.899508       0.011294
   1059   -5.09715   -5.75457    3.76992        -5.570545       5.583169       0.012625
   1060   -4.30890   -7.01258    2.63213        -5.485023       5.499200       0.014177
   1061   -3.95936   -4.96632    5.02793        -5.754652       5.768961       0.014309
   1062   -3.39379   -6.44701    4.11282        -5.577621       5.592949       0.015328
   1063   -2.47867   -7.37288    2.76975        -5.631305       5.648032       0.016726
   1064   -1.91658    5.11510   -4.93512        -6.311859       6.307145      -0.004714
   1065   -1.91658    3.64584   -5.51919        -6.620638       6.618136      -0.002502
   1066   -1.91658    1.81561   -5.51919        -7.234528       7.235227       0.000699
   1067   -2.83169    7.17279   -1.07713        -6.105759       6.097662      -0.008098
   1068   -4.30095    6.58872   -1.07713        -6.030440       6.027123      -0.003316
   1069   -3.74680    6.60722    0.40356        -6.236583       6.230295      -0.006288
   1070   -3.74680    6.60722   -2.55782        -5.957283       5.954315      -0.002968
   1071   -2.83169    6.04164   -4.03850        -6.056182       6.052691      -0.003491
   1072   -5.22749    5.69210   -1.99225        -6.070877       6.068588      -0.002289
   1073   -4.53506    5.34921   -3.69561        -6.048829       6.047488      -0.001341
   1074   -3.39726    4.56096   -4.95362        -6.228218       6.227008      -0.001210
   1075   -4.87795    3.64584   -4.38805        -6.419826       6.416286      -0.003539
   1076   -3.53489    2.73073   -5.31392        -6.698778       6.697501      -0.001277
   1077   -4.53506    5.34921    1.54135        -6.593920       6.589422      -0.004498
   1078   -5.22749    5.69210   -0.16202        -6.246520       6.243195      -0.003326
   1079    1.92661   -5.79908    3.61386        -6.469166       6.482165       0.012999
   1080    3.40729   -5.24494    3.63236        -6.546901       6.553386       0.006485
   1081    4.31098   -7.27270   -0.24413        -5.764163       5.778661       0.014498
   1082    5.23752   -6.37608    0.67099        -6.032897       6.045603       0.012706
   1083    3.75684   -7.29120    1.23656        -5.808139       5.820911       0.012772
   1084    4.54509   -6.03319    2.37435        -6.191012       6.199105       0.008093
   1085    2.84172   -6.72563    2.71724        -6.052692       6.064665       0.011973
   1086    5.23752   -6.37608   -1.15924        -5.988960       6.006143       0.017183
   1087    2.84172   -6.72563   -3.20550        -5.940470       5.957368       0.016898
   1088    3.75684   -7.29120   -1.72482        -5.755716       5.771734       0.016018
   1089   -0.45776   -7.27270   -0.24413        -6.284753       6.304787       0.020034
   1090    1.01149   -6.72563   -3.20550        -6.128401       6.145559       0.017158
   1091    0.09638   -7.29120   -1.72482        -6.130833       6.148934       0.018101
   1092   -0.69187   -6.03319   -2.86261        -6.705088       6.724313       0.019225
   1093    1.01149   -7.85677   -0.24413        -5.866981       5.883956       0.016974
   1094    1.92661   -7.65150   -1.86244        -5.790248       5.806565       0.016317
   1095    2.84172   -7.85677   -0.24413        -5.690603       5.705676       0.015073
   1096    0.09638   -7.29120    1.23656        -6.205647       6.225020       0.019372
   1097    1.01149   -6.72563    2.71724        -6.261507       6.278357       0.016850
   1098    1.92661   -7.65150    1.37418        -5.848005       5.863214       0.015209
   1099    2.08247   -3.42574   -6.51409        -5.987373       6.001454       0.014081
   1100    3.56316   -2.87160   -6.53259        -5.873531       5.888396       0.014865
   1101    5.04384   -1.95648   -5.96701        -5.984210       6.001615       0.017405
   1102    2.99759   -4.35229   -5.61747        -6.064443       6.080974       0.016530
   1103    4.70095   -3.65985   -5.27458        -6.083032       6.102683       0.019651
   1104    2.08247    1.34300   -6.51409        -6.432499       6.434781       0.002283
   1105    3.56316    0.78886   -6.53259        -6.160958       6.167191       0.006233
   1106    5.04384   -0.12626   -5.96701        -6.119528       6.132342       0.012814
   1107    2.08247   -0.12626   -7.09816        -6.102429       6.110172       0.007743
   1108    3.70078   -1.04137   -6.89289        -5.899041       5.910752       0.011711
   1109    2.08247   -1.95648   -7.09816        -5.947880       5.959558       0.011678
   1110    3.91270    2.83512   -4.13679        -7.270767       7.258914      -0.011853
   1111    4.70095    1.57711   -5.27458        -6.525682       6.529807       0.004125
   1112    2.99759    2.26955   -5.61747        -6.710062       6.706648      -0.003414
   1113    0.60178    0.78886   -6.53259        -6.647112       6.650967       0.003855
   1114   -0.87890   -0.12626   -5.96701        -7.146580       7.153254       0.006674
   1115   -0.87890   -1.95648   -5.96701        -6.869882       6.880934       0.011052
   1116    0.46416   -1.04137   -6.89289        -6.336078       6.345175       0.009097
   1117    0.60178   -2.87160   -6.53259        -6.239896       6.252525       0.012630
   1118    1.16736   -4.35229   -5.61747        -6.289174       6.304671       0.015497
   1119   -0.53601   -3.65985   -5.27458        -6.824195       6.839291       0.015096
   1120    9.82983   -0.95050    1.73925        -5.330413       5.335638       0.005225
   1121    8.35621   -4.80849   -0.64512        -5.418779       5.437610       0.018831
   1122    9.28276   -3.91187    0.26999        -5.247196       5.262748       0.015553
   1123    9.84833   -2.43119    1.18511        -5.217415       5.228104       0.010689
   1124    7.80207   -4.82699    0.83556        -5.703198       5.716228       0.013030
   1125    8.59032   -3.56898    1.97336        -5.588472       5.595359       0.006887
   1126    9.84833    0.53019    1.18511        -5.361210       5.364757       0.003547
   1127    9.28276    2.01087    0.26999        -5.546643       5.546971       0.000328
   1128    9.28276    2.01087   -1.56024        -5.413169       5.419962       0.006793
   1129   10.20863    0.66781   -0.64512        -5.149138       5.159541       0.010403
   1130   10.41390   -0.95050    0.26999        -5.081543       5.093424       0.011881
   1131    9.84833    0.53019   -2.47535        -5.128215       5.143141       0.014926
   1132   10.41390   -0.95050   -1.56024        -4.979681       4.996595       0.016915
   1133    9.82983   -0.95050   -3.02949        -5.041498       5.060969       0.019471
   1134    9.28276   -3.91187   -1.56024        -5.141256       5.162002       0.020746
   1135    9.84833   -2.43119   -2.47535        -5.008825       5.029852       0.021027
   1136   10.20863   -2.56881   -0.64512        -5.013877       5.031144       0.017267
   1137    5.97184   -3.33487   -4.50311        -6.118250       6.143437       0.025187
   1138    7.45253   -2.78073   -4.52161        -5.557393       5.581562       0.024169
   1139    8.93322   -1.86561   -3.95604        -5.184533       5.206756       0.022223
   1140    6.88696   -4.26141   -3.60650        -5.749657       5.774516       0.024859
   1141    8.59032   -3.56898   -3.26360        -5.247362       5.270919       0.023557
   1142    7.80207   -4.82699   -2.12581        -5.499245       5.521813       0.022569
   1143    5.97184    1.43387   -4.50311        -6.453040       6.462073       0.009033
   1144    7.45253    0.87973   -4.52161        -5.750997       5.765573       0.014577
   1145    8.93322   -0.03538   -3.95604        -5.263074       5.281324       0.018250
   1146    5.97184   -0.03538   -5.08718        -6.282101       6.299482       0.017381
   1147    7.59015   -0.95050   -4.88191        -5.576721       5.597685       0.020965
   1148    5.97184   -1.86561   -5.08718        -6.159673       6.182828       0.023155
   1149    7.80207    2.92599   -2.12581        -5.943015       5.942685      -0.000330
   1150    8.59032    1.66798   -3.26360        -5.493172       5.504211       0.011039
   1151    6.88696    2.36042   -3.60650        -6.161914       6.166043       0.004130
   1152    6.88696   -5.39256   -0.64512        -5.908375       5.927309       0.018934

 NET CHARGES:
 -------------------------------------
 ATOM                CHARGE    E.S.D.
 -------------------------------------
 O                  -0.3733    0.0077
 C                   0.2886    0.0636
 C                   0.2755    0.1564
 H                   0.0372    0.0139
 O                  -0.6032    0.0146
 C                   0.1263    0.1379
 O                  -0.5865    0.0136
 H                   0.0214    0.0065
 H                   0.3788    0.0047
 H                  -0.0106    0.0133
 H                   0.0433    0.0133
 H                   0.4026    0.0031
 -------------------------------------

 RMS DEVIATION IS            1.068 KCAL/MOLE
 RELATIVE RMS DEVIATION IS   8.375 %

 MULTIPOLE MOMENTS:
 ---------------------------------------------------------
 STATUS  ACTUAL VALUE       QUANTITY        FITTED VALUE 
 ---------------------------------------------------------
 FIXED       0.0000       TOTAL CHARGE         0.0000
             3.0559 D    DIPOLE MOMENT         3.0383 D
 FREE        0.7637 D          DX              0.7766 D
 FREE       -2.9117 D          DY             -2.8887 D
 FREE       -0.5271 D          DZ             -0.5322 D
 FREE        0.0000 BU         QXX            -1.2342 BU
 FREE        0.0000 BU         QYY            -0.7336 BU
 FREE        0.0000 BU         QZZ             1.9678 BU
 FREE        0.0000 BU         QXY            -4.8158 BU
 FREE        0.0000 BU         QXZ            -7.5294 BU
 FREE        0.0000 BU         QYZ             0.0226 BU
 ---------------------------------------------------------
 ...... END OF PROPERTY EVALUATION ......
 CPU     0: STEP CPU TIME=     0.12 TOTAL CPU TIME=          4.7 (      0.1 MIN)
 TOTAL WALL CLOCK TIME=          9.0 SECONDS, CPU UTILIZATION IS    52.05%
               580000  WORDS OF DYNAMIC MEMORY USED
 EXECUTION OF GAMESS TERMINATED NORMALLY Fri May 22 16:26:51 2020
 DDI: 263640 bytes (0.3 MB / 0 MWords) used by master data server.
Note: The following floating-point exceptions are signalling: IEEE_UNDERFLOW_FLAGNote: The following floating-point exceptions are signalling:
 ----------------------------------------
 CPU timing information for all processes
 ========================================
 0: 4.425 + 0.272 = 4.697
 1: 4.454 + 0.32 = 4.487
 2: 4.98 + 0.57 = 4.156
 3: 4.101 + 0.40 = 4.142
 4: 4.79 + 0.55 = 4.135
 5: 4.133 + 0.47 = 4.181
 6: 4.150 + 0.33 = 4.183
 7: 3.760 + 0.24 = 3.784
 ----------------------------------------
Note: The following floating-point exceptions are signalling:Note: The following floating-point exceptions are signalling: IEEE_DENORMAL
Note: The following floating-point exceptions are signalling: IEEE_UNDERFLOW_FLAG IEEE_UNDERFLOW_FLAG IEEE_DENORMALNote: The following floating-point exceptions are signalling: IEEE_UNDERFLOW_FLAG IEEE_UNDERFLOW_FLAG IEEE_DENORMALNote: The following floating-point exceptions are signalling: IEEE_UNDERFLOW_FLAG IEEE_UNDERFLOW_FLAGNote: The following floating-point exceptions are signalling: IEEE_UNDERFLOW_FLAG IEEE_DENORMAL

 IEEE_DENORMAL

 IEEE_DENORMAL
 IEEE_DENORMAL
 IEEE_DENORMAL
 ddikick.x: exited gracefully.
unset echo
----- accounting info -----
Files used on the master node pietdev were:
-rwxr-xr-x 1 piet piet      878 mei 22 16:26 /home/piet/scr/d-glyceraldehyde_charge_geodisk.F05*
-rw-r--r-- 1 piet piet 50790400 mei 22 16:26 /home/piet/scr/d-glyceraldehyde_charge_geodisk.F10
ls: No match.
ls: No match.
ls: No match.
vr 22 mei 2020 16:26:54 CEST
0.124u 0.030s 0:12.17 1.2%	0+0k 0+8io 0pf+0w
