----- GAMESS execution script 'rungms' -----
This job is running on host pietdev
under operating system Linux at zo 24 mei 2020 19:49:34 CEST
Available scratch disk space (Kbyte units) at beginning of the job is
Filesystem     1K-blocks     Used Available Use% Mounted on
/dev/sda2      244568380 31203328 200871996  14% /
GAMESS temporary binary files will be written to /home/piet/scr
GAMESS supplementary output files will be written to /home/piet/gamess/scr
Copying input file sialic_acid_charge_geodisk.inp to your run's scratch directory...
cp sialic_acid_charge_geodisk.inp /home/piet/scr/sialic_acid_charge_geodisk.F05
unset echo
 
Assuming a single but multicore node.
 
/home/piet/gamess/ddikick.x /home/piet/gamess/gamess.03.x sialic_acid_charge_geodisk -ddi 1 6 pietdev:cpus=6 -scr /home/piet/scr

 Distributed Data Interface kickoff program.
 Initiating 6 compute processes on 1 nodes to run the following command:
 /home/piet/gamess/gamess.03.x sialic_acid_charge_geodisk 

          ******************************************************
          *         GAMESS VERSION = 30 SEP 2019 (R2)          *
          *             FROM IOWA STATE UNIVERSITY             *
          * M.W.SCHMIDT, K.K.BALDRIDGE, J.A.BOATZ, S.T.ELBERT, *
          *   M.S.GORDON, J.H.JENSEN, S.KOSEKI, N.MATSUNAGA,   *
          *          K.A.NGUYEN, S.J.SU, T.L.WINDUS,           *
          *       TOGETHER WITH M.DUPUIS, J.A.MONTGOMERY       *
          *         J.COMPUT.CHEM.  14, 1347-1363(1993)        *
          **************** 64 BIT LINUX VERSION ****************

  SINCE 1993, STUDENTS AND POSTDOCS WORKING AT IOWA STATE UNIVERSITY
  AND ALSO IN THEIR VARIOUS JOBS AFTER LEAVING ISU HAVE MADE IMPORTANT
  CONTRIBUTIONS TO THE CODE:
     IVANA ADAMOVIC, CHRISTINE AIKENS, YURI ALEXEEV, POOJA ARORA,
     ANDREY ASADCHEV, ROB BELL, PRADIPTA BANDYOPADHYAY, JONATHAN BENTZ,
     COLLEEN BERTONI, BRETT BODE, KURT BRORSEN, CALEB CARLIN, GALINA CHABAN,
     WEI CHEN, CHEOL HO CHOI, PAUL DAY, ALBERT DEFUSCO, NUWAN DESILVA,
     TIM DUDLEY, DMITRI FEDOROV, ALEX FINDLATER, GRAHAM FLETCHER, 
     MARK FREITAG, KURT GLAESEMANN, EMILIE B GUIDEZ, ANASTASIA GUNINA, 
     DAN KEMP, SAROM SOK LEANG, GRANT MERRILL,
     NORIYUKI MINEZAWA, JONATHAN MULLIN,
     TAKESHI NAGATA, SEAN NEDD, HEATHER NETZLOFF, BOSILJKA NJEGIC, RYAN OLSON,
     MIKE PAK, BUU PHAM, DAVID POOLE,
     SPENCER PRUITT, LUKE ROSKOP, TOSAPORN SATTASATHUCHANA,
     JIM SHOEMAKER, LYUDMILA SLIPCHENKO,
     TONY SMITH, JIE SONG, TETSUYA TAKETSUGU, SIMON WEBB,
     JORGE LUIS GALVEZ VALLEJO, PENG XU, SOOHAENG YOO,
     FEDERICO ZAHARIEV

  ADDITIONAL CODE HAS BEEN PROVIDED BY COLLABORATORS IN OTHER GROUPS:
     IOWA STATE UNIVERSITY:
          JOE IVANIC, AARON WEST, LAIMUTIS BYTAUTAS, KLAUS RUEDENBERG
     UNIVERSITY OF TOKYO: KIMIHIKO HIRAO, TAKAHITO NAKAJIMA,
          TAKAO TSUNEDA, MUNEAKI KAMIYA, SUSUMU YANAGISAWA,
          KIYOSHI YAGI, MAHITO CHIBA, SEIKEN TOKURA, NAOAKI KAWAKAMI
     UNIVERSITY OF AARHUS: FRANK JENSEN
     UNIVERSITY OF IOWA: VISVALDAS KAIRYS, HUI LI
     NATIONAL INST. OF STANDARDS AND TECHNOLOGY: WALT STEVENS, DAVID GARMER
     UNIVERSITY OF PISA: BENEDETTA MENNUCCI, JACOPO TOMASI
     UNIVERSITY OF MEMPHIS: HENRY KURTZ, PRAKASHAN KORAMBATH
     UNIVERSITY OF ALBERTA: TOBY ZENG, MARIUSZ KLOBUKOWSKI
     UNIVERSITY OF NEW ENGLAND: MARK SPACKMAN
     MIE UNIVERSITY: HIROAKI UMEDA
     NAT. INST. OF ADVANCED INDUSTRIAL SCIENCE AND TECHNOLOGY: KAZUO KITAURA
     MICHIGAN STATE UNIVERSITY:
          KAROL KOWALSKI, MARTA WLOCH, JEFFREY GOUR, JESSE LUTZ,
          WEI LI, JUN SHEN, J. EMILIANO DEUSTUA, PIOTR PIECUCH
     UNIVERSITY OF MINNESOTA:
          ANDREW SAND, PRACHI SHARMA, YINAN SHU
     UNIVERSITY OF SILESIA: MONIKA MUSIAL, STANISLAW KUCHARSKI
     FACULTES UNIVERSITAIRES NOTRE-DAME DE LA PAIX:
          OLIVIER QUINET, BENOIT CHAMPAGNE
     UNIVERSITY OF CALIFORNIA - SANTA BARBARA: BERNARD KIRTMAN
     INSTITUTE FOR MOLECULAR SCIENCE:
          KAZUYA ISHIMURA, MICHIO KATOUDA, AND SHIGERU NAGASE
     UNIVERSITY OF NOTRE DAME: ANNA POMOGAEVA, DAN CHIPMAN
     KYUSHU UNIVERSITY:
          HARUYUKI NAKANO,
          FENG LONG GU, JACEK KORCHOWIEC, MARCIN MAKOWSKI, AND YURIKO AOKI,
          HIROTOSHI MORI AND EISAKU MIYOSHI
     PENNSYLVANIA STATE UNIVERSITY:
          TZVETELIN IORDANOV, CHET SWALINA, JONATHAN SKONE,
          SHARON HAMMES-SCHIFFER
     WASEDA UNIVERSITY:
          MASATO KOBAYASHI, TOMOKO AKAMA, TSUGUKI TOUMA,
          TAKESHI YOSHIKAWA, YASUHIRO IKABATA, JUNJI SEINO,
          YUYA NAKAJIMA, HIROMI NAKAI
     NANJING UNIVERSITY: SHUHUA LI
     UNIVERSITY OF NEBRASKA:
          PEIFENG SU, DEJUN SI, NANDUN THELLAMUREGE, YALI WANG, HUI LI
     UNIVERSITY OF ZURICH: ROBERTO PEVERATI, KIM BALDRIDGE
     N. COPERNICUS UNIVERSITY AND JACKSON STATE UNIVERSITY:
          MARIA BARYSZ
     UNIVERSITY OF COPENHAGEN: Jimmy Kromann, CASPER STEINMANN
     TOKYO INSTITUTE OF TECHNOLOGY: HIROYA NAKATA
     NAGOYA UNIVERSITY: YOSHIO NISHIMOTO, STEPHAN IRLE
     MOSCOW STATE UNIVERSITY: VLADIMIR MIRONOV
     A.N.NESMEYANOV INSTITUTE OF ORGANOELEMENT COMPOUNDS OF RUSSIAN ACADEMY OF SCIENCES:
          IGOR S. GERASIMOV
     JOHANNES KEPLER UNIVERSITY LINZ:
          CHRISTIAN FRIEDL


 PARALLEL VERSION RUNNING ON        6 PROCESSORS IN        1 NODES.

 EXECUTION OF GAMESS BEGUN Sun May 24 19:49:34 2020

            ECHO OF THE FIRST FEW INPUT CARDS -
 INPUT CARD> $BASIS GBASIS=N21 NGAUSS=3 $END                                                
 INPUT CARD> $CONTRL SCFTYP=RHF DFTTYP=B3LYP MAXIT=60 MULT=1 ICHARG=0 $END                  
 INPUT CARD> $SYSTEM MEMDDI=1000 MWORDS=30 $END                                             
 INPUT CARD> $SCF DIRSCF=.TRUE. $END                                                        
 INPUT CARD> $ELPOT  IEPOT=1 WHERE=PDC $END                                                 
 INPUT CARD> $PDC PTSEL=GEODESIC CONSTR=CHARGE $END                                         
 INPUT CARD> $DATA                                                                          
 INPUT CARD>                                                                                
 INPUT CARD>C1                                                                              
 INPUT CARD>C 6.0000000 -0.0567767216 0.3166943587 -0.3903106064                            
 INPUT CARD>C 6.0000000 -0.4929439881 -2.1073831749 -0.3903580442                           
 INPUT CARD>C 6.0000000 1.4139005423 0.0593357068 -0.0237152490                             
 INPUT CARD>C 6.0000000 -0.6280138768 1.5194067019 0.3656411139                             
 INPUT CARD>C 6.0000000 1.8727600367 -1.3408196389 -0.4638149704                            
 INPUT CARD>C 6.0000000 -2.0072193318 1.8813322815 -0.1715933959                            
 INPUT CARD>C 6.0000000 -2.6242350105 3.0378186667 0.6081818625                             
 INPUT CARD>C 6.0000000 4.1471753184 2.6262299031 -0.7012361218                             
 INPUT CARD>H 1.0000000 -1.4654330301 -2.3826421815 -2.0651542825                           
 INPUT CARD>H 1.0000000 3.5932596198 -2.3416040466 -0.2942262144                            
 INPUT CARD>H 1.0000000 -1.0109734864 0.2527441895 1.7924617858                             
 INPUT CARD>H 1.0000000 -2.6572035577 2.8225726105 -1.7405904575                            
 INPUT CARD>H 1.0000000 -4.1641034438 4.2588757918 0.1291663418                             
 INPUT CARD>H 1.0000000 2.2704959094 1.1832933612 -1.6278627422                             
 INPUT CARD>O 8.0000000 -2.4806691772 -3.4885939867 -0.5228675262                           
 INPUT CARD>O 8.0000000 3.3052754542 1.6250757375 1.3653604039                              
 INPUT CARD>C 6.0000000 0.9159539635 -2.4107945888 0.0893242630                             
 INPUT CARD>O 8.0000000 -0.5203779350 -2.1765533528 -1.8072342144                           
 INPUT CARD>O 8.0000000 3.2147279318 -1.4985560725 0.0764637406                             
 INPUT CARD>O 8.0000000 -0.7097394884 1.2074586568 1.7876968027                             
 INPUT CARD>O 8.0000000 -1.4424943051 -3.2224374031 1.5074543147                            
 INPUT CARD>O 8.0000000 -1.8229447185 2.3005990426 -1.5547704917                            
 INPUT CARD>O 8.0000000 -3.8022134051 3.3949675366 -0.1997023468                            
 INPUT CARD>C 6.0000000 -1.5798126887 -3.0217116326 0.1679176644                            
 INPUT CARD>C 6.0000000 3.2160208227 1.7499967113 0.1382849312                              
 INPUT CARD>H 1.0000000 -2.1894460849 -3.7954779239 1.8392570086                            
 INPUT CARD>O 8.0000000 -0.9067397253 -0.7979998050 0.1101851348                            
 INPUT CARD>N 7.0000000 2.2578049350 1.0969642173 -0.6156975782                             
 INPUT CARD>H 1.0000000 -0.2052419378 0.4343881430 -1.4661192558                            
 INPUT CARD>H 1.0000000 1.5369573804 0.1562213853 1.0588882878                              
 INPUT CARD>H 1.0000000 0.0390303234 2.3749185931 0.2401859325                              
 INPUT CARD>H 1.0000000 1.8544489212 -1.3917596973 -1.5623366257                            
 INPUT CARD>H 1.0000000 0.9341283230 -2.3856380397 1.1800174871                             
 INPUT CARD>H 1.0000000 1.2108871484 -3.4051050778 -0.2637419522                            
 INPUT CARD>H 1.0000000 -2.6636733820 1.0032430845 -0.0970993014                            
 INPUT CARD>H 1.0000000 -2.8712744309 2.7192242879 1.6246860411                             
 INPUT CARD>H 1.0000000 -1.9031971733 3.8661881698 0.6483801094                             
 INPUT CARD>H 1.0000000 4.9093799330 1.9960905757 -1.1764968960                             
 INPUT CARD>H 1.0000000 3.5993469140 3.1623606953 -1.4831127328                             
 INPUT CARD>H 1.0000000 4.6443732220 3.3386761135 -0.0418121202                             
 INPUT CARD> $END                                                                           
   30000000 WORDS OF MEMORY AVAILABLE

     BASIS OPTIONS
     -------------
     GBASIS=N21          IGAUSS=       3      POLAR=NONE    
     NDFUNC=       0     NFFUNC=       0     DIFFSP=       F
     NPFUNC=       0      DIFFS=       F     BASNAM=        


     RUN TITLE
     ---------
                                                                                 

 THE POINT GROUP OF THE MOLECULE IS C1      
 THE ORDER OF THE PRINCIPAL AXIS IS     0

 ATOM      ATOMIC                      COORDINATES (BOHR)
           CHARGE         X                   Y                   Z
 C           6.0    -0.1072924463        0.5984655598       -0.7375800962
 C           6.0    -0.9315290648       -3.9823767517       -0.7376697406
 C           6.0     2.6718845988        0.1121282271       -0.0448153223
 C           6.0    -1.1867741436        2.8712623305        0.6909615151
 C           6.0     3.5390033101       -2.5337817165       -0.8764832031
 C           6.0    -3.7930945344        3.5552025039       -0.3242644996
 C           6.0    -4.9590850972        5.7406448804        1.1492970708
 C           6.0     7.8370249748        4.9628548976       -1.3251441229
 H           1.0    -2.7692668802       -4.5025408498       -3.9025757163
 H           1.0     6.7902760842       -4.4249900198       -0.5560069236
 H           1.0    -1.9104628701        0.4776172631        3.3872616186
 H           1.0    -5.0213866177        5.3338888143       -3.2892390215
 H           1.0    -7.8690144933        8.0481082622        0.2440889928
 H           1.0     4.2906151250        2.2361002158       -3.0762145284
 O           8.0    -4.6877850111       -6.5924867173       -0.9880763524
 O           8.0     6.2460649224        3.0709478532        2.5801570379
 C           6.0     1.7309020084       -4.5557411855        0.1687983811
 O           8.0    -0.9833717072       -4.1130894344       -3.4151774609
 O           8.0     6.0749549162       -2.8318603543        0.1444955177
 O           8.0    -1.3412131557        2.2817660029        3.3782571062
 O           8.0    -2.7259189755       -6.0895237044        2.8486755938
 O           8.0    -3.4448660087        4.3475017981       -2.9380902031
 O           8.0    -7.1851414825        6.4155583814       -0.3773827146
 C           6.0    -2.9854130936       -5.7102069995        0.3173183742
 C           6.0     6.0773981257        3.3070142638        0.2613206282
 H           1.0    -4.1374531654       -7.1724132686        3.4756917673
 O           8.0    -1.7134896230       -1.5080009697        0.2082197127
 N           7.0     4.2666326609        2.0729617890       -1.1634997141
 H           1.0    -0.3878510236        0.8208745626       -2.7705636588
 H           1.0     2.9044283038        0.2952156116        2.0010087155
 H           1.0     0.0737566164        4.4879453841        0.4538855985
 H           1.0     3.5044003193       -2.6300444687       -2.9523881232
 H           1.0     1.7652465678       -4.5082022009        2.2299097113
 H           1.0     2.2882449125       -6.4347155564       -0.4984000211
 H           1.0    -5.0336128128        1.8958545288       -0.1834910732
 H           1.0    -5.4259219100        5.1385888033        3.0702114338
 H           1.0    -3.5965211581        7.3060362579        1.2252607427
 H           1.0     9.2773828430        3.7720642347       -2.2232567588
 H           1.0     6.8017794022        5.9759951885       -2.8026766739
 H           1.0     8.7765927743        6.3091830163       -0.0790134501

          INTERNUCLEAR DISTANCES (ANGS.)
          ------------------------------

                1 C          2 C          3 C          4 C          5 C     

   1 C       0.0000000    2.4630050 *  1.5373735 *  1.5311081 *  2.5447726 *
   2 C       2.4630050 *  0.0000000    2.9094937 *  3.7072070    2.4878849 *
   3 C       1.5373735 *  2.9094937 *  0.0000000    2.5402402 *  1.5377499 *
   4 C       1.5311081 *  3.7072070    2.5402402 *  0.0000000    3.8887996  
   5 C       2.5447726 *  2.4878849 *  1.5377499 *  3.8887996    0.0000000  
   6 C       2.5100110 *  4.2720883    3.8788659    1.5237515 *  5.0519201  
   7 C       3.8721243    5.6579665    5.0573900    2.5197817 *  6.3674654  
   8 C       4.8066456    6.6358455    3.8103506    5.0165443    4.5789536  
   9 H       3.4750297    1.9561301 *  4.2920032    4.6729030    3.8461948  
  10 H       4.5164752    4.0940397    3.2538122    5.7586438    1.9976107 *
  11 H       2.3830813 *  3.2562644    3.0357734    1.9459983 *  3.9932630  
  12 H       3.8555027    5.5508208    5.2112405    3.2018844    6.2836742  
  13 H       5.7167109    7.3672634    6.9838126    4.4793460    8.2554186  
  14 H       2.7746580 *  4.4717525    2.1378320 *  3.5338915    2.8079080 *
  15 O       4.5136510    2.4241191 *  5.2919402    5.4131183    4.8547675  
  16 O       4.0121861    5.6071622    2.8210587 *  4.0597253    3.7675613  
  17 C       2.9352088 *  1.5189296 *  2.5223545 *  4.2316273    1.5382741 *
  18 O       2.9049755 *  1.4188288 *  3.4527631    4.2887170    2.8688561 *
  19 O       3.7703786    3.7862150    2.3832839 *  4.8947306    1.4552181 *
  20 O       2.4420356 *  3.9722915    3.0181529    1.4581608 *  4.2699334  
  21 O       4.2481971    2.3972241 *  4.6123212    4.9449167    4.2915381  
  22 O       2.9002059 *  4.7492174    4.2242820    2.3929275 *  5.3017306  
  23 O       4.8518443    6.4236654    6.1939693    3.7299979    7.3961314  
  24 C       3.7116320    1.5260904 *  4.3002203    4.6440038    3.8916247  
  25 C       3.6117825    5.3772914    2.4763312 *  3.8576502    3.4234514  
  26 H       5.1409349    3.2709275    5.5959236    5.7321560    5.2755101  
  27 O       1.4884476 *  1.4615934 *  2.4775643 *  2.3480457 *  2.8895931 *
  28 N       2.4529388 *  4.2290944    1.4626314 *  3.0772445    2.4726743 *
  29 H       1.0923635 *  2.7750020 *  2.2006399 *  2.1705639 *  2.9110254 *
  30 H       2.1600735 *  3.3681924    1.0938740 *  2.6506540 *  2.1616014 *
  31 H       2.1547603 *  4.5575883    2.7058891 *  1.0920566 *  4.2029624  
  32 H       2.8187309 *  2.7195412 *  2.1603510 *  4.2842280    1.0998545 *
  33 H       3.2787838    2.1401029 *  2.7671376 *  4.2840252    2.1621425 *
  34 H       3.9338000    2.1454963 *  3.4786746    5.2941946    2.1770116 *
  35 H       2.7116844 *  3.8044793    4.1860429    2.1504565 *  5.1194080  
  36 H       4.2135210    5.7456939    5.3061246    2.8384810 *  6.5841975  
  37 H       4.1336489    6.2250579    5.0938173    2.6857805 *  6.5274621  
  38 H       5.3010539    6.8294667    4.1591226    5.7678547    4.5677068  
  39 H       4.7601758    6.7610027    4.0662982    4.8977309    4.9293715  
  40 H       5.5995210    7.4948699    4.6032982    5.5923005    5.4550533  

                6 C          7 C          8 C          9 H         10 H     

   1 C       2.5100110 *  3.8721243    4.8066456    3.4750297    4.5164752  
   2 C       4.2720883    5.6579665    6.6358455    1.9561301 *  4.0940397  
   3 C       3.8788659    5.0573900    3.8103506    4.2920032    3.2538122  
   4 C       1.5237515 *  2.5197817 *  5.0165443    4.6729030    5.7586438  
   5 C       5.0519201    6.3674654    4.5789536    3.8461948    1.9976107 *
   6 C       0.0000000    1.5251946 *  6.2218942    4.6968695    7.0152402  
   7 C       1.5251946 *  0.0000000    6.9091229    6.1539373    8.2710198  
   8 C       6.2218942    6.9091229    0.0000000    7.6452891    5.0151624  
   9 H       4.6968695    6.1539373    7.6452891    0.0000000    5.3598733  
  10 H       7.0152402    8.2710198    5.0151624    5.3598733    0.0000000  
  11 H       2.7390359 *  3.4295439    6.2014888    4.6939319    5.6818898  
  12 H       1.9416912 *  2.3588449 *  6.8861005    5.3497588    8.2358351  
  13 H       3.2241772    2.0227781 *  8.5107259    7.4971745   10.1942276  
  14 H       4.5723983    5.6918846    2.5421700 *  5.1830768    3.9941447  
  15 O       5.4021900    6.6252506    9.0194905    2.1523202 *  6.1855051  
  16 O       5.5362889    6.1423331    2.4457977 *  7.1126573    4.3094908  
  17 C       5.1995551    6.5183999    6.0363394    3.2114754    2.7055247 *
  18 O       4.6208716    6.1196507    6.7879314    1.0010617 *  4.3861656  
  19 O       6.2252639    7.4131578    4.2997831    5.2222641    0.9957044 *
  20 O       2.4446631 *  2.8994424 *  5.6389113    5.3201840    5.9536586  
  21 O       5.4024606    6.4339730    8.3862762    3.6700565    5.4204001  
  22 O       1.4570246 *  2.4215536 *  6.0396101    4.7245163    7.2439141  
  23 O       2.3481664 *  1.4723672 *  8.0022044    6.5054767    9.3600326  
  24 C       4.9333339    6.1646215    8.0903068    2.3255328 *  5.2380149  
  25 C       5.2340722    5.9989896    1.5295846 *  6.6219226    4.1316548  
  26 H       6.0251888    6.9569052    9.3725774    4.2148223    6.3328655  
  27 O       2.9102019 *  4.2321737    6.1583935    2.7486963 *  4.7745426  
  28 N       4.3592309    5.3943592    2.4322193 *  5.2982154    3.7027739  
  29 H       2.6488803 *  4.1148637    4.9328240    3.1436578    4.8485132  
  30 H       4.1293197    5.0815609    4.0015269    5.0219337    3.5069117  
  31 H       2.1448374 *  2.7690864 *  4.2221189    5.4965797    5.9299012  
  32 H       5.2497409    6.6626515    4.7055636    3.5008984    2.3523969 *
  33 H       5.3558766    6.5117454    6.2435252    4.0359687    3.0407750  
  34 H       6.1895978    7.5484886    6.7223650    3.3842586    2.6091497 *
  35 H       1.0988730 *  2.1537118 *  7.0275691    4.0955145    7.0976103  
  36 H       2.1622382 *  1.0935317 *  7.3944032    6.4513838    8.4311570  
  37 H       2.1500768 *  1.0989575 *  6.3218643    6.8266234    8.3448324  
  38 H       6.9901606    7.8118903    1.0972257 *  7.7846807    4.6180265  
  39 H       5.8987034    6.5667340    1.0949353 *  7.5324515    5.6309072  
  40 H       6.8106077    7.3038122    1.0906995 *  8.6114534    5.7822258  

               11 H         12 H         13 H         14 H         15 O     

   1 C       2.3830813 *  3.8555027    5.7167109    2.7746580 *  4.5136510  
   2 C       3.2562644    5.5508208    7.3672634    4.4717525    2.4241191 *
   3 C       3.0357734    5.2112405    6.9838126    2.1378320 *  5.2919402  
   4 C       1.9459983 *  3.2018844    4.4793460    3.5338915    5.4131183  
   5 C       3.9932630    6.2836742    8.2554186    2.8079080 *  4.8547675  
   6 C       2.7390359 *  1.9416912 *  3.2241772    4.5723983    5.4021900  
   7 C       3.4295439    2.3588449 *  2.0227781 *  5.6918846    6.6252506  
   8 C       6.2014888    6.8861005    8.5107259    2.5421700 *  9.0194905  
   9 H       4.6939319    5.3497588    7.4971745    5.1830768    2.1523202 *
  10 H       5.6818898    8.2358351   10.1942276    3.9941447    6.1855051  
  11 H       0.0000000    4.6686775    5.3626365    4.8303813    4.6387893  
  12 H       4.6686775    0.0000000    2.7981609 *  5.1944361    6.4299951  
  13 H       5.3626365    2.7981609 *  0.0000000    7.3450955    7.9550228  
  14 H       4.8303813    5.1944361    7.3450955    0.0000000    6.7543405  
  15 O       4.6387893    6.4299951    7.9550228    6.7543405    0.0000000  
  16 O       4.5492543    6.8287690    8.0160277    3.1977062    7.9493508  
  17 C       3.7024540    6.5957695    8.3840965    4.2072537    3.6157266  
  18 O       4.3703526    5.4370696    7.6446799    4.3714667    2.6858500 *
  19 O       4.8855148    7.5135490    9.3593777    3.3149086    6.0627549  
  20 O       1.0011215 *  4.3416610    4.8984181    4.5330381    5.5251977  
  21 O       3.5134494    6.9690358    8.0794109    6.5594949    2.2958339 *
  22 O       4.0071150    1.0014855 *  3.4859024    4.2438156    5.9171092  
  23 O       4.6511618    2.0032523 *  0.9927016 *  6.6188325    7.0167182  
  24 C       3.6992949    6.2417011    7.7257371    5.9776058    1.2274794 *
  25 C       4.7797016    6.2590220    7.7949209    2.0819336 *  7.7673826  
  26 H       4.2165258    7.5387464    8.4673665    7.5299512    2.3997127 *
  27 O       1.9861980 *  4.4269672    6.0152115    4.1280939    3.1807714  
  28 N       4.1469086    5.3292041    7.1967642    1.0159193 *  6.5946265  
  29 H       3.3616288    3.4337844    5.7309883    2.5915821 *  4.6321789  
  30 H       2.6531865 *  5.7041648    7.0850724    2.9684317 *  5.6504826  
  31 H       2.8311998 *  3.3754328    4.6073803    3.1446805    6.4274346  
  32 H       4.7084723    6.1763565    8.4269708    2.6092694 *  4.9265058  
  33 H       3.3346019    6.9680036    8.4407239    4.7336393    3.9720487  
  34 H       4.7481049    7.4784475    9.3691784    4.9027540    3.7015814  
  35 H       2.6201349 *  2.4517473 *  3.5918840    5.1693018    4.5156804  
  36 H       3.0939283    3.3736617    2.5056961 *  6.2750267    6.5803926  
  37 H       3.8938366    2.7138238 *  2.3527609 *  5.4588387    7.4698136  
  38 H       6.8486902    7.6324609    9.4420895    2.7978705 *  9.2261488  
  39 H       6.3600559    6.2710585    8.0045581    2.3882012 *  9.0622218  
  40 H       6.6985433    7.5143352    8.8580620    3.5772231    9.8797399  

               16 O         17 C         18 O         19 O         20 O     

   1 C       4.0121861    2.9352088 *  2.9049755 *  3.7703786    2.4420356 *
   2 C       5.6071622    1.5189296 *  1.4188288 *  3.7862150    3.9722915  
   3 C       2.8210587 *  2.5223545 *  3.4527631    2.3832839 *  3.0181529  
   4 C       4.0597253    4.2316273    4.2887170    4.8947306    1.4581608 *
   5 C       3.7675613    1.5382741 *  2.8688561 *  1.4552181 *  4.2699334  
   6 C       5.5362889    5.1995551    4.6208716    6.2252639    2.4446631 *
   7 C       6.1423331    6.5183999    6.1196507    7.4131578    2.8994424 *
   8 C       2.4457977 *  6.0363394    6.7879314    4.2997831    5.6389113  
   9 H       7.1126573    3.2114754    1.0010617 *  5.2222641    5.3201840  
  10 H       4.3094908    2.7055247 *  4.3861656    0.9957044 *  5.9536586  
  11 H       4.5492543    3.7024540    4.3703526    4.8855148    1.0011215 *
  12 H       6.8287690    6.5957695    5.4370696    7.5135490    4.3416610  
  13 H       8.0160277    8.3840965    7.6446799    9.3593777    4.8984181  
  14 H       3.1977062    4.2072537    4.3714667    3.3149086    4.5330381  
  15 O       7.9493508    3.6157266    2.6858500 *  6.0627549    5.5251977  
  16 O       0.0000000    4.8605941    6.2572649    3.3803149    4.0587088  
  17 C       4.8605941    0.0000000    2.3905757 *  2.4731976 *  4.3149861  
  18 O       6.2572649    2.3905757 *  0.0000000    4.2378077    4.9407412  
  19 O       3.3803149    2.4731976 *  4.2378077    0.0000000    5.0648079  
  20 O       4.0587088    4.3149861    4.9407412    5.0648079    0.0000000  
  21 O       6.7867438    2.8691698 *  3.5960161    5.1680963    4.4988270  
  22 O       5.9398770    5.6922617    4.6696158    6.5171045    3.6886677  
  23 O       7.4898823    7.4867559    6.6630659    8.5592235    4.2776565  
  24 C       6.8476703    2.5706512 *  2.3953955 *  5.0314994    4.6115717  
  25 C       1.2366430 *  4.7544599    5.7587773    3.2491412    4.2926101  
  26 H       7.7329777    3.8240191    4.3247663    6.1309369    5.2174289  
  27 O       5.0187480    2.4338764 *  2.3929443 *  4.1807191    2.6219684 *
  28 N       2.3023221 *  3.8212552    4.4557802    2.8515811 *  3.8203185  
  29 H       4.6646271    3.4309692    2.6519211 *  4.2204300    3.3822293  
  30 H       2.3191393 *  2.8134091 *  4.2295537    2.5531080 *  2.5853256 *
  31 H       3.5350586    4.8677310    5.0220279    5.0115533    2.0780782 *
  32 H       4.4472018    2.1557339 *  2.5131014 *  2.1324707 *  4.9551713  
  33 H       4.6628871    1.0911347 *  3.3291106    2.6843770 *  3.9977393  
  34 H       5.6871044    1.0955796 *  2.6246879 *  2.7867628 *  5.4011991  
  35 H       6.1768774    4.9501655    4.1987358    6.3909878    2.7225022 *
  36 H       6.2780713    6.5587749    6.4244400    7.5647927    2.6427715 *
  37 H       5.7153156    6.9036707    6.6676050    7.4364458    3.1290935  
  38 H       3.0285049    6.0803282    6.8768494    4.0809694    6.4017878  
  39 H       3.2501573    6.3822579    6.7513844    4.9299448    5.7522224  
  40 H       2.5903173 *  6.8538106    7.7594540    5.0454623    6.0461321  

               21 O         22 O         23 O         24 C         25 C     

   1 C       4.2481971    2.9002059 *  4.8518443    3.7116320    3.6117825  
   2 C       2.3972241 *  4.7492174    6.4236654    1.5260904 *  5.3772914  
   3 C       4.6123212    4.2242820    6.1939693    4.3002203    2.4763312 *
   4 C       4.9449167    2.3929275 *  3.7299979    4.6440038    3.8576502  
   5 C       4.2915381    5.3017306    7.3961314    3.8916247    3.4234514  
   6 C       5.4024606    1.4570246 *  2.3481664 *  4.9333339    5.2340722  
   7 C       6.4339730    2.4215536 *  1.4723672 *  6.1646215    5.9989896  
   8 C       8.3862762    6.0396101    8.0022044    8.0903068    1.5295846 *
   9 H       3.6700565    4.7245163    6.5054767    2.3255328 *  6.6219226  
  10 H       5.4204001    7.2439141    9.3600326    5.2380149    4.1316548  
  11 H       3.5134494    4.0071150    4.6511618    3.6992949    4.7797016  
  12 H       6.9690358    1.0014855 *  2.0032523 *  6.2417011    6.2590220  
  13 H       8.0794109    3.4859024    0.9927016 *  7.7257371    7.7949209  
  14 H       6.5594949    4.2438156    6.6188325    5.9776058    2.0819336 *
  15 O       2.2958339 *  5.9171092    7.0167182    1.2274794 *  7.7673826  
  16 O       6.7867438    5.9398770    7.4898823    6.8476703    1.2366430 *
  17 C       2.8691698 *  5.6922617    7.4867559    2.5706512 *  4.7544599  
  18 O       3.5960161    4.6696158    6.6630659    2.3953955 *  5.7587773  
  19 O       5.1680963    6.5171045    8.5592235    5.0314994    3.2491412  
  20 O       4.4988270    3.6886677    4.2776565    4.6115717    4.2926101  
  21 O       0.0000000    6.3266022    7.2299866    1.3614351 *  6.9499273  
  22 O       6.3266022    0.0000000    2.6365425 *  5.5994427    5.3442280  
  23 O       7.2299866    2.6365425 *  0.0000000    6.8005868    7.2163548  
  24 C       1.3614351 *  5.5994427    6.8005868    0.0000000    6.7653601  
  25 C       6.9499273    5.3442280    7.2163548    6.7653601    0.0000000  
  26 H       0.9982011 *  6.9868376    7.6459715    1.9400367 *  7.9287242  
  27 O       2.8490861 *  3.6349448    5.1049753    2.3240599 *  4.8466721  
  28 N       6.0710146    4.3569614    6.4944356    5.6837358    1.3831554 *
  29 H       4.8729156    2.4713487 *  4.8277371    4.0625296    4.0012470  
  30 H       4.5269945    4.7663938    6.3702646    4.5395311    2.4913620 *
  31 H       5.9271645    2.5873428 *  3.9986441    5.6346689    3.2394721  
  32 H       4.8625952    5.2112181    7.5344116    4.1766824    3.8231695  
  33 H       2.5408233 *  6.0861593    7.5994711    2.7836729 *  4.8369117  
  34 H       3.1954557    6.5898369    8.4484475    2.8497941 *  5.5459229  
  35 H       4.6821198    2.1247970 *  2.6508766 *  4.1767509    5.9315976  
  36 H       6.1121600    3.3738978    2.1567729 *  6.0620453    6.3406588  
  37 H       7.1553384    2.7039568 *  2.1324998 *  6.9122055    5.5628101  
  38 H       8.6477127    6.7498157    8.8770965    8.3123649    2.1579339 *
  39 H       8.6677160    5.4908118    7.5156067    8.2336108    2.1841798 *
  40 H       9.0828626    6.7225626    8.4482497    8.9016296    2.1439514 *

               26 H         27 O         28 N         29 H         30 H     

   1 C       5.1409349    1.4884476 *  2.4529388 *  1.0923635 *  2.1600735 *
   2 C       3.2709275    1.4615934 *  4.2290944    2.7750020 *  3.3681924  
   3 C       5.5959236    2.4775643 *  1.4626314 *  2.2006399 *  1.0938740 *
   4 C       5.7321560    2.3480457 *  3.0772445    2.1705639 *  2.6506540 *
   5 C       5.2755101    2.8895931 *  2.4726743 *  2.9110254 *  2.1616014 *
   6 C       6.0251888    2.9102019 *  4.3592309    2.6488803 *  4.1293197  
   7 C       6.9569052    4.2321737    5.3943592    4.1148637    5.0815609  
   8 C       9.3725774    6.1583935    2.4322193 *  4.9328240    4.0015269  
   9 H       4.2148223    2.7486963 *  5.2982154    3.1436578    5.0219337  
  10 H       6.3328655    4.7745426    3.7027739    4.8485132    3.5069117  
  11 H       4.2165258    1.9861980 *  4.1469086    3.3616288    2.6531865 *
  12 H       7.5387464    4.4269672    5.3292041    3.4337844    5.7041648  
  13 H       8.4673665    6.0152115    7.1967642    5.7309883    7.0850724  
  14 H       7.5299512    4.1280939    1.0159193 *  2.5915821 *  2.9684317 *
  15 O       2.3997127 *  3.1807714    6.5946265    4.6321789    5.6504826  
  16 O       7.7329777    5.0187480    2.3023221 *  4.6646271    2.3191393 *
  17 C       3.8240191    2.4338764 *  3.8212552    3.4309692    2.8134091 *
  18 O       4.3247663    2.3929443 *  4.4557802    2.6519211 *  4.2295537  
  19 O       6.1309369    4.1807191    2.8515811 *  4.2204300    2.5531080 *
  20 O       5.2174289    2.6219684 *  3.8203185    3.3822293    2.5853256 *
  21 O       0.9982011 *  2.8490861 *  6.0710146    4.8729156    4.5269945  
  22 O       6.9868376    3.6349448    4.3569614    2.4713487 *  4.7663938  
  23 O       7.6459715    5.1049753    6.4944356    4.8277371    6.3702646  
  24 C       1.9400367 *  2.3240599 *  5.6837358    4.0625296    4.5395311  
  25 C       7.9287242    4.8466721    1.3831554 *  4.0012470    2.4913620 *
  26 H       0.0000000    3.6905149    7.0527182    5.7231412    5.4873478  
  27 O       3.6905149    0.0000000    3.7592735    2.1202865 *  2.7896651 *
  28 N       7.0527182    3.7592735    0.0000000    2.6886472 *  2.0515497 *
  29 H       5.7231412    2.1202865 *  2.6886472 *  0.0000000    3.0803082  
  30 H       5.4873478    2.7896651 *  2.0515497 *  3.0803082    0.0000000  
  31 H       6.7525498    3.3134261    2.6997527 *  2.5955355 *  2.7994064 *
  32 H       5.8053241    3.2823837    2.6930593 *  2.7543421 *  3.0606970  
  33 H       3.4898370    2.6559239 *  4.1358471    4.0314702    2.6151720 *
  34 H       4.0171211    3.3795211    4.6355731    4.2653067    3.8129672  
  35 H       5.1963536    2.5247294 *  4.9496138    2.8708355 *  4.4383614  
  36 H       6.5537986    4.3039488    5.8273924    4.6777433    5.1304599  
  37 H       7.7589467    4.7997115    5.1556214    4.3739468    5.0761239  
  38 H       9.6452251    6.5794939    2.8554814 *  5.3555721    4.4446934  
  39 H       9.6415654    6.2070823    2.6111313 *  4.6815616    4.4443327  
  40 H      10.0566228    6.9245972    3.3242029    5.8294345    4.5820948  

               31 H         32 H         33 H         34 H         35 H     

   1 C       2.1547603 *  2.8187309 *  3.2787838    3.9338000    2.7116844 *
   2 C       4.5575883    2.7195412 *  2.1401029 *  2.1454963 *  3.8044793  
   3 C       2.7058891 *  2.1603510 *  2.7671376 *  3.4786746    4.1860429  
   4 C       1.0920566 *  4.2842280    4.2840252    5.2941946    2.1504565 *
   5 C       4.2029624    1.0998545 *  2.1621425 *  2.1770116 *  5.1194080  
   6 C       2.1448374 *  5.2497409    5.3558766    6.1895978    1.0988730 *
   7 C       2.7690864 *  6.6626515    6.5117454    7.5484886    2.1537118 *
   8 C       4.2221189    4.7055636    6.2435252    6.7223650    7.0275691  
   9 H       5.4965797    3.5008984    4.0359687    3.3842586    4.0955145  
  10 H       5.9299012    2.3523969 *  3.0407750    2.6091497 *  7.0976103  
  11 H       2.8311998 *  4.7084723    3.3346019    4.7481049    2.6201349 *
  12 H       3.3754328    6.1763565    6.9680036    7.4784475    2.4517473 *
  13 H       4.6073803    8.4269708    8.4407239    9.3691784    3.5918840  
  14 H       3.1446805    2.6092694 *  4.7336393    4.9027540    5.1693018  
  15 O       6.4274346    4.9265058    3.9720487    3.7015814    4.5156804  
  16 O       3.5350586    4.4472018    4.6628871    5.6871044    6.1768774  
  17 C       4.8677310    2.1557339 *  1.0911347 *  1.0955796 *  4.9501655  
  18 O       5.0220279    2.5131014 *  3.3291106    2.6246879 *  4.1987358  
  19 O       5.0115533    2.1324707 *  2.6843770 *  2.7867628 *  6.3909878  
  20 O       2.0780782 *  4.9551713    3.9977393    5.4011991    2.7225022 *
  21 O       5.9271645    4.8625952    2.5408233 *  3.1954557    4.6821198  
  22 O       2.5873428 *  5.2112181    6.0861593    6.5898369    2.1247970 *
  23 O       3.9986441    7.5344116    7.5994711    8.4484475    2.6508766 *
  24 C       5.6346689    4.1766824    2.7836729 *  2.8497941 *  4.1767509  
  25 C       3.2394721    3.8231695    4.8369117    5.5459229    5.9315976  
  26 H       6.7525498    5.8053241    3.4898370    4.0171211    5.1963536  
  27 O       3.3134261    3.2823837    2.6559239 *  3.3795211    2.5247294 *
  28 N       2.6997527 *  2.6930593 *  4.1358471    4.6355731    4.9496138  
  29 H       2.5955355 *  2.7543421 *  4.0314702    4.2653067    2.8708355 *
  30 H       2.7994064 *  3.0606970    2.6151720 *  3.8129672    4.4383614  
  31 H       0.0000000    4.5533172    4.9343068    5.9191102    3.0495676  
  32 H       4.5533172    0.0000000    3.0586419    2.4807417 *  5.3194349  
  33 H       4.9343068    3.0586419    0.0000000    1.7889522 *  5.1048722  
  34 H       5.9191102    2.4807417 *  1.7889522 *  0.0000000    5.8714157  
  35 H       3.0495676    5.3194349    5.1048722    5.8714157    0.0000000  
  36 H       3.2411820    7.0277851    6.3826671    7.5985271    2.4397202 *
  37 H       2.4824897 *  6.8303139    6.8861009    7.9624866    3.0545897  
  38 H       5.0863352    4.5781006    6.3683068    6.6094542    7.7137528  
  39 H       4.0330730    4.8775976    6.7064106    7.0938855    6.7681789  
  40 H       4.7135480    5.6984818    6.9301196    7.5707770    7.6723431  

               36 H         37 H         38 H         39 H         40 H     

   1 C       4.2135210    4.1336489    5.3010539    4.7601758    5.5995210  
   2 C       5.7456939    6.2250579    6.8294667    6.7610027    7.4948699  
   3 C       5.3061246    5.0938173    4.1591226    4.0662982    4.6032982  
   4 C       2.8384810 *  2.6857805 *  5.7678547    4.8977309    5.5923005  
   5 C       6.5841975    6.5274621    4.5677068    4.9293715    5.4550533  
   6 C       2.1622382 *  2.1500768 *  6.9901606    5.8987034    6.8106077  
   7 C       1.0935317 *  1.0989575 *  7.8118903    6.5667340    7.3038122  
   8 C       7.3944032    6.3218643    1.0972257 *  1.0949353 *  1.0906995 *
   9 H       6.4513838    6.8266234    7.7846807    7.5324515    8.6114534  
  10 H       8.4311570    8.3448324    4.6180265    5.6309072    5.7822258  
  11 H       3.0939283    3.8938366    6.8486902    6.3600559    6.6985433  
  12 H       3.3736617    2.7138238 *  7.6324609    6.2710585    7.5143352  
  13 H       2.5056961 *  2.3527609 *  9.4420895    8.0045581    8.8580620  
  14 H       6.2750267    5.4588387    2.7978705 *  2.3882012 *  3.5772231  
  15 O       6.5803926    7.4698136    9.2261488    9.0622218    9.8797399  
  16 O       6.2780713    5.7153156    3.0285049    3.2501573    2.5903173 *
  17 C       6.5587749    6.9036707    6.0803282    6.3822579    6.8538106  
  18 O       6.4244400    6.6676050    6.8768494    6.7513844    7.7594540  
  19 O       7.5647927    7.4364458    4.0809694    4.9299448    5.0454623  
  20 O       2.6427715 *  3.1290935    6.4017878    5.7522224    6.0461321  
  21 O       6.1121600    7.1553384    8.6477127    8.6677160    9.0828626  
  22 O       3.3738978    2.7039568 *  6.7498157    5.4908118    6.7225626  
  23 O       2.1567729 *  2.1324998 *  8.8770965    7.5156067    8.4482497  
  24 C       6.0620453    6.9122055    8.3123649    8.2336108    8.9016296  
  25 C       6.3406588    5.5628101    2.1579339 *  2.1841798 *  2.1439514 *
  26 H       6.5537986    7.7589467    9.6452251    9.6415654   10.0566228  
  27 O       4.3039488    4.7997115    6.5794939    6.2070823    6.9245972  
  28 N       5.8273924    5.1556214    2.8554814 *  2.6111313 *  3.3242029  
  29 H       4.6777433    4.3739468    5.3555721    4.6815616    5.8294345  
  30 H       5.1304599    5.0761239    4.4446934    4.4443327    4.5820948  
  31 H       3.2411820    2.4824897 *  5.0863352    4.0330730    4.7135480  
  32 H       7.0277851    6.8303139    4.5781006    4.8775976    5.6984818  
  33 H       6.3826671    6.8861009    6.3683068    6.7064106    6.9301196  
  34 H       7.5985271    7.9624866    6.6094542    7.0938855    7.5707770  
  35 H       2.4397202 *  3.0545897    7.7137528    6.7681789    7.6723431  
  36 H       0.0000000    1.7904952 *  8.3010921    7.1919207    7.7230756  
  37 H       1.7904952 *  0.0000000    7.2964819    5.9427793    6.6049461  
  38 H       8.3010921    7.2964819    0.0000000    1.7805577 *  1.7777160 *
  39 H       7.1919207    5.9427793    1.7805577 *  0.0000000    1.7889982 *
  40 H       7.7230756    6.6049461    1.7777160 *  1.7889982 *  0.0000000  

  * ... LESS THAN  3.000


     ATOMIC BASIS SET
     ----------------
 THE CONTRACTED PRIMITIVE FUNCTIONS HAVE BEEN UNNORMALIZED
 THE CONTRACTED BASIS FUNCTIONS ARE NOW NORMALIZED TO UNITY

  SHELL TYPE  PRIMITIVE        EXPONENT          CONTRACTION COEFFICIENT(S)

 C         

      1   S       1           172.2560000    0.061766907377
      1   S       2            25.9109000    0.358794042852
      1   S       3             5.5333500    0.700713083689

      2   L       4             3.6649800   -0.395895162119    0.236459946619
      2   L       5             0.7705450    1.215834355681    0.860618805716

      3   L       6             0.1958570    1.000000000000    1.000000000000

 C         

      4   S       7           172.2560000    0.061766907377
      4   S       8            25.9109000    0.358794042852
      4   S       9             5.5333500    0.700713083689

      5   L      10             3.6649800   -0.395895162119    0.236459946619
      5   L      11             0.7705450    1.215834355681    0.860618805716

      6   L      12             0.1958570    1.000000000000    1.000000000000

 C         

      7   S      13           172.2560000    0.061766907377
      7   S      14            25.9109000    0.358794042852
      7   S      15             5.5333500    0.700713083689

      8   L      16             3.6649800   -0.395895162119    0.236459946619
      8   L      17             0.7705450    1.215834355681    0.860618805716

      9   L      18             0.1958570    1.000000000000    1.000000000000

 C         

     10   S      19           172.2560000    0.061766907377
     10   S      20            25.9109000    0.358794042852
     10   S      21             5.5333500    0.700713083689

     11   L      22             3.6649800   -0.395895162119    0.236459946619
     11   L      23             0.7705450    1.215834355681    0.860618805716

     12   L      24             0.1958570    1.000000000000    1.000000000000

 C         

     13   S      25           172.2560000    0.061766907377
     13   S      26            25.9109000    0.358794042852
     13   S      27             5.5333500    0.700713083689

     14   L      28             3.6649800   -0.395895162119    0.236459946619
     14   L      29             0.7705450    1.215834355681    0.860618805716

     15   L      30             0.1958570    1.000000000000    1.000000000000

 C         

     16   S      31           172.2560000    0.061766907377
     16   S      32            25.9109000    0.358794042852
     16   S      33             5.5333500    0.700713083689

     17   L      34             3.6649800   -0.395895162119    0.236459946619
     17   L      35             0.7705450    1.215834355681    0.860618805716

     18   L      36             0.1958570    1.000000000000    1.000000000000

 C         

     19   S      37           172.2560000    0.061766907377
     19   S      38            25.9109000    0.358794042852
     19   S      39             5.5333500    0.700713083689

     20   L      40             3.6649800   -0.395895162119    0.236459946619
     20   L      41             0.7705450    1.215834355681    0.860618805716

     21   L      42             0.1958570    1.000000000000    1.000000000000

 C         

     22   S      43           172.2560000    0.061766907377
     22   S      44            25.9109000    0.358794042852
     22   S      45             5.5333500    0.700713083689

     23   L      46             3.6649800   -0.395895162119    0.236459946619
     23   L      47             0.7705450    1.215834355681    0.860618805716

     24   L      48             0.1958570    1.000000000000    1.000000000000

 H         

     25   S      49             5.4471780    0.156284978695
     25   S      50             0.8245472    0.904690876670

     26   S      51             0.1831916    1.000000000000

 H         

     27   S      52             5.4471780    0.156284978695
     27   S      53             0.8245472    0.904690876670

     28   S      54             0.1831916    1.000000000000

 H         

     29   S      55             5.4471780    0.156284978695
     29   S      56             0.8245472    0.904690876670

     30   S      57             0.1831916    1.000000000000

 H         

     31   S      58             5.4471780    0.156284978695
     31   S      59             0.8245472    0.904690876670

     32   S      60             0.1831916    1.000000000000

 H         

     33   S      61             5.4471780    0.156284978695
     33   S      62             0.8245472    0.904690876670

     34   S      63             0.1831916    1.000000000000

 H         

     35   S      64             5.4471780    0.156284978695
     35   S      65             0.8245472    0.904690876670

     36   S      66             0.1831916    1.000000000000

 O         

     37   S      67           322.0370000    0.059239393389
     37   S      68            48.4308000    0.351499960776
     37   S      69            10.4206000    0.707657921031

     38   L      70             7.4029400   -0.404453583190    0.244586106967
     38   L      71             1.5762000    1.221561761397    0.853955373466

     39   L      72             0.3736840    1.000000000000    1.000000000000

 O         

     40   S      73           322.0370000    0.059239393389
     40   S      74            48.4308000    0.351499960776
     40   S      75            10.4206000    0.707657921031

     41   L      76             7.4029400   -0.404453583190    0.244586106967
     41   L      77             1.5762000    1.221561761397    0.853955373466

     42   L      78             0.3736840    1.000000000000    1.000000000000

 C         

     43   S      79           172.2560000    0.061766907377
     43   S      80            25.9109000    0.358794042852
     43   S      81             5.5333500    0.700713083689

     44   L      82             3.6649800   -0.395895162119    0.236459946619
     44   L      83             0.7705450    1.215834355681    0.860618805716

     45   L      84             0.1958570    1.000000000000    1.000000000000

 O         

     46   S      85           322.0370000    0.059239393389
     46   S      86            48.4308000    0.351499960776
     46   S      87            10.4206000    0.707657921031

     47   L      88             7.4029400   -0.404453583190    0.244586106967
     47   L      89             1.5762000    1.221561761397    0.853955373466

     48   L      90             0.3736840    1.000000000000    1.000000000000

 O         

     49   S      91           322.0370000    0.059239393389
     49   S      92            48.4308000    0.351499960776
     49   S      93            10.4206000    0.707657921031

     50   L      94             7.4029400   -0.404453583190    0.244586106967
     50   L      95             1.5762000    1.221561761397    0.853955373466

     51   L      96             0.3736840    1.000000000000    1.000000000000

 O         

     52   S      97           322.0370000    0.059239393389
     52   S      98            48.4308000    0.351499960776
     52   S      99            10.4206000    0.707657921031

     53   L     100             7.4029400   -0.404453583190    0.244586106967
     53   L     101             1.5762000    1.221561761397    0.853955373466

     54   L     102             0.3736840    1.000000000000    1.000000000000

 O         

     55   S     103           322.0370000    0.059239393389
     55   S     104            48.4308000    0.351499960776
     55   S     105            10.4206000    0.707657921031

     56   L     106             7.4029400   -0.404453583190    0.244586106967
     56   L     107             1.5762000    1.221561761397    0.853955373466

     57   L     108             0.3736840    1.000000000000    1.000000000000

 O         

     58   S     109           322.0370000    0.059239393389
     58   S     110            48.4308000    0.351499960776
     58   S     111            10.4206000    0.707657921031

     59   L     112             7.4029400   -0.404453583190    0.244586106967
     59   L     113             1.5762000    1.221561761397    0.853955373466

     60   L     114             0.3736840    1.000000000000    1.000000000000

 O         

     61   S     115           322.0370000    0.059239393389
     61   S     116            48.4308000    0.351499960776
     61   S     117            10.4206000    0.707657921031

     62   L     118             7.4029400   -0.404453583190    0.244586106967
     62   L     119             1.5762000    1.221561761397    0.853955373466

     63   L     120             0.3736840    1.000000000000    1.000000000000

 C         

     64   S     121           172.2560000    0.061766907377
     64   S     122            25.9109000    0.358794042852
     64   S     123             5.5333500    0.700713083689

     65   L     124             3.6649800   -0.395895162119    0.236459946619
     65   L     125             0.7705450    1.215834355681    0.860618805716

     66   L     126             0.1958570    1.000000000000    1.000000000000

 C         

     67   S     127           172.2560000    0.061766907377
     67   S     128            25.9109000    0.358794042852
     67   S     129             5.5333500    0.700713083689

     68   L     130             3.6649800   -0.395895162119    0.236459946619
     68   L     131             0.7705450    1.215834355681    0.860618805716

     69   L     132             0.1958570    1.000000000000    1.000000000000

 H         

     70   S     133             5.4471780    0.156284978695
     70   S     134             0.8245472    0.904690876670

     71   S     135             0.1831916    1.000000000000

 O         

     72   S     136           322.0370000    0.059239393389
     72   S     137            48.4308000    0.351499960776
     72   S     138            10.4206000    0.707657921031

     73   L     139             7.4029400   -0.404453583190    0.244586106967
     73   L     140             1.5762000    1.221561761397    0.853955373466

     74   L     141             0.3736840    1.000000000000    1.000000000000

 N         

     75   S     142           242.7660000    0.059865700508
     75   S     143            36.4851000    0.352955002994
     75   S     144             7.8144900    0.706513005993

     76   L     145             5.4252200   -0.413300077430    0.237972016222
     76   L     146             1.1491500    1.224417266851    0.858953058551

     77   L     147             0.2832050    1.000000000000    1.000000000000

 H         

     78   S     148             5.4471780    0.156284978695
     78   S     149             0.8245472    0.904690876670

     79   S     150             0.1831916    1.000000000000

 H         

     80   S     151             5.4471780    0.156284978695
     80   S     152             0.8245472    0.904690876670

     81   S     153             0.1831916    1.000000000000

 H         

     82   S     154             5.4471780    0.156284978695
     82   S     155             0.8245472    0.904690876670

     83   S     156             0.1831916    1.000000000000

 H         

     84   S     157             5.4471780    0.156284978695
     84   S     158             0.8245472    0.904690876670

     85   S     159             0.1831916    1.000000000000

 H         

     86   S     160             5.4471780    0.156284978695
     86   S     161             0.8245472    0.904690876670

     87   S     162             0.1831916    1.000000000000

 H         

     88   S     163             5.4471780    0.156284978695
     88   S     164             0.8245472    0.904690876670

     89   S     165             0.1831916    1.000000000000

 H         

     90   S     166             5.4471780    0.156284978695
     90   S     167             0.8245472    0.904690876670

     91   S     168             0.1831916    1.000000000000

 H         

     92   S     169             5.4471780    0.156284978695
     92   S     170             0.8245472    0.904690876670

     93   S     171             0.1831916    1.000000000000

 H         

     94   S     172             5.4471780    0.156284978695
     94   S     173             0.8245472    0.904690876670

     95   S     174             0.1831916    1.000000000000

 H         

     96   S     175             5.4471780    0.156284978695
     96   S     176             0.8245472    0.904690876670

     97   S     177             0.1831916    1.000000000000

 H         

     98   S     178             5.4471780    0.156284978695
     98   S     179             0.8245472    0.904690876670

     99   S     180             0.1831916    1.000000000000

 H         

    100   S     181             5.4471780    0.156284978695
    100   S     182             0.8245472    0.904690876670

    101   S     183             0.1831916    1.000000000000

 TOTAL NUMBER OF BASIS SET SHELLS             =  101
 NUMBER OF CARTESIAN GAUSSIAN BASIS FUNCTIONS =  227
 NUMBER OF ELECTRONS                          =  164
 CHARGE OF MOLECULE                           =    0
 SPIN MULTIPLICITY                            =    1
 NUMBER OF OCCUPIED ORBITALS (ALPHA)          =   82
 NUMBER OF OCCUPIED ORBITALS (BETA )          =   82
 TOTAL NUMBER OF ATOMS                        =   40
 THE NUCLEAR REPULSION ENERGY IS     1940.8619847971

 SELECTED MURRAY-HANDY-LAMING RADIAL GRID

 LEGACY BECKE'S FUZZY CELL METHOD

 SELECTED ORIGINAL BECKE'S PARTITION FUNCTION

     LEBEDEV GRID-BASED DFT OPTIONS
     ------------------------------
     DFTTYP=B3LYP   
     NRAD  =      96     NLEB  =     302
     NRAD0 =      24     NLEB0 =     110
     SWOFF =    5.00E-03 (PURE SCF -> DFT)
     SWITCH=    3.00E-04 (COARSE -> TIGHT GRID)
     THRESH=    0.00E+00 GTHRE=    1.00E+00

 GRIMME'S EMPIRICAL DISPERSION CORRECTION= F

     $CONTRL OPTIONS
     ---------------
 SCFTYP=RHF          RUNTYP=ENERGY       EXETYP=RUN     
 MPLEVL=       0     CITYP =NONE         CCTYP =NONE         VBTYP =NONE    
 DFTTYP=B3LYP        TDDFT =NONE    
 MULT  =       1     ICHARG=       0     NZVAR =       0     COORD =UNIQUE  
 PP    =NONE         RELWFN=NONE         LOCAL =NONE         NUMGRD=       F
 ISPHER=      -1     NOSYM =       0     MAXIT =      60     UNITS =ANGS    
 PLTORB=       F     MOLPLT=       F     AIMPAC=       F     FRIEND=        
 NPRINT=       7     IREST =       0     GEOM  =INPUT   
 NORMF =       0     NORMP =       0     ITOL  =      20     ICUT  =       9
 INTTYP=BEST         GRDTYP=BEST         QMTTOL= 1.0E-06

     $SYSTEM OPTIONS
     ---------------
  REPLICATED MEMORY=    30000000 WORDS (ON EVERY NODE).
 DISTRIBUTED MEMDDI=        1000 MILLION WORDS IN AGGREGATE,
 MEMDDI DISTRIBUTED OVER   6 PROCESSORS IS   166666666 WORDS/PROCESSOR.
 TOTAL MEMORY REQUESTED ON EACH PROCESSOR=   196666666 WORDS.
 TIMLIM=      525600.00 MINUTES, OR     365.0 DAYS.
 PARALL= T  BALTYP=  DLB     KDIAG=    0  COREFL= F
 MXSEQ2=     300 MXSEQ3=     150  mem10=         0

     INPUT FOR POTENTIAL-DERIVED CHARGES 
     -----------------------------------
     VDWSCL=    1.40   RMAX=    3.00   DELR=    0.80
     VDWINC=    0.20 PTDENS=    0.28
     LAYER =       4  NFREQ=      30 MAXPDC=   10000
     CONSTR=CHARGE    UNITS=ANGS      PTSEL=GEODESIC
     CENTER=  0.0000  0.0000  0.0000
     DPOLE =  0.0000  0.0000  0.0000
     QPOLE =  0.0000  0.0000  0.0000  0.0000  0.0000  0.0000


          ----------------
          PROPERTIES INPUT
          ----------------

     MOMENTS            FIELD           POTENTIAL          DENSITY
 IEMOM =       1   IEFLD =       0   IEPOT =       1   IEDEN =       0
 WHERE =COMASS     WHERE =NUCLEI     WHERE =PDC        WHERE =NUCLEI  
 OUTPUT=BOTH       OUTPUT=BOTH       OUTPUT=BOTH       OUTPUT=BOTH    
 IEMINT=       0   IEFINT=       0                     IEDINT=       0
                                                       MORB  =       0
          EXTRAPOLATION IN EFFECT
          DIIS IN EFFECT
 ORBITAL PRINTING OPTION: NPREO=     1   227     2     1

     -------------------------------
     INTEGRAL TRANSFORMATION OPTIONS
     -------------------------------
     NWORD  =            0
     CUTOFF = 1.0E-09     MPTRAN =       0
     DIRTRF =       T     AOINTS =DUP     

          ----------------------
          INTEGRAL INPUT OPTIONS
          ----------------------
 NOPK  =       1 NORDER=       0 SCHWRZ=       T

     ------------------------------------------
     THE POINT GROUP IS C1 , NAXIS= 0, ORDER= 1
     ------------------------------------------

     DIMENSIONS OF THE SYMMETRY SUBSPACES ARE
 A   =  227

 ..... DONE SETTING UP THE RUN .....
 CPU     0: STEP CPU TIME=     0.03 TOTAL CPU TIME=          0.0 (      0.0 MIN)
 TOTAL WALL CLOCK TIME=          0.1 SECONDS, CPU UTILIZATION IS    42.86%

          ********************
          1 ELECTRON INTEGRALS
          ********************
 ...... END OF ONE-ELECTRON INTEGRALS ......
 CPU     0: STEP CPU TIME=     0.02 TOTAL CPU TIME=          0.0 (      0.0 MIN)
 TOTAL WALL CLOCK TIME=          0.1 SECONDS, CPU UTILIZATION IS    55.56%

          -------------
          GUESS OPTIONS
          -------------
          GUESS =HUCKEL            NORB  =       0          NORDER=       0
          MIX   =       F          PRTMO =       F          PUNMO =       F
          TOLZ  = 1.0E-08          TOLE  = 1.0E-05
          SYMDEN=       F          PURIFY=       F

 INITIAL GUESS ORBITALS GENERATED BY HUCKEL   ROUTINE.
 HUCKEL GUESS REQUIRES    464965 WORDS.

 SYMMETRIES FOR INITIAL GUESS ORBITALS FOLLOW.   BOTH SET(S).
    82 ORBITALS ARE OCCUPIED (   21 CORE ORBITALS).
    22=A       23=A       24=A       25=A       26=A       27=A       28=A   
    29=A       30=A       31=A       32=A       33=A       34=A       35=A   
    36=A       37=A       38=A       39=A       40=A       41=A       42=A   
    43=A       44=A       45=A       46=A       47=A       48=A       49=A   
    50=A       51=A       52=A       53=A       54=A       55=A       56=A   
    57=A       58=A       59=A       60=A       61=A       62=A       63=A   
    64=A       65=A       66=A       67=A       68=A       69=A       70=A   
    71=A       72=A       73=A       74=A       75=A       76=A       77=A   
    78=A       79=A       80=A       81=A       82=A       83=A       84=A   
    85=A       86=A       87=A       88=A       89=A       90=A       91=A   
    92=A   
 ...... END OF INITIAL ORBITAL SELECTION ......
 CPU     0: STEP CPU TIME=     0.07 TOTAL CPU TIME=          0.1 (      0.0 MIN)
 TOTAL WALL CLOCK TIME=          0.2 SECONDS, CPU UTILIZATION IS    57.14%

                    ----------------------
                    AO INTEGRAL TECHNOLOGY
                    ----------------------
     S,P,L SHELL ROTATED AXIS INTEGRALS, REPROGRAMMED BY
        KAZUYA ISHIMURA (IMS) AND JOSE SIERRA (SYNSTAR).
     S,P,D,L SHELL ROTATED AXIS INTEGRALS PROGRAMMED BY
        KAZUYA ISHIMURA (INSTITUTE FOR MOLECULAR SCIENCE).
     S,P,D,F,G SHELL TO TOTAL QUARTET ANGULAR MOMENTUM SUM 5,
        ERIC PROGRAM BY GRAHAM FLETCHER (ELORET AND NASA ADVANCED
        SUPERCOMPUTING DIVISION, AMES RESEARCH CENTER).
     S,P,D,F,G,L SHELL GENERAL RYS QUADRATURE PROGRAMMED BY
        MICHEL DUPUIS (PACIFIC NORTHWEST NATIONAL LABORATORY).

          --------------------
          2 ELECTRON INTEGRALS
          --------------------

 DIRECT SCF METHOD SKIPS INTEGRAL STORAGE ON DISK.
 DIRECT TRANSFORMATION SKIPS AO INTEGRAL STORAGE ON DISK.
  ...... END OF TWO-ELECTRON INTEGRALS .....
 CPU     0: STEP CPU TIME=     0.02 TOTAL CPU TIME=          0.1 (      0.0 MIN)
 TOTAL WALL CLOCK TIME=          0.2 SECONDS, CPU UTILIZATION IS    63.64%

          --------------------------
             R-B3LYP SCF CALCULATION
          --------------------------

     NUCLEAR ENERGY =      1940.8619847971
     MAXIT =   60     NPUNCH=    2
     EXTRAP=T  DAMP=F  SHIFT=F  RSTRCT=F  DIIS=T  DEM=F  SOSCF=F
         DENSITY MATRIX CONVERGENCE THRESHOLD=  2.00E-05
     COARSE -> FINE DFT GRID SWITCH THRESHOLD=  3.00E-04 (SWITCH IN $DFT)
                   HF -> DFT SWITCH THRESHOLD=  5.00E-03 (SWOFF IN $DFT)
     MEMORY REQUIRED FOR RHF ITERS=   1710512 WORDS.

 DIRECT SCF CALCULATION, SCHWRZ=T   FDIFF=T,  DIRTHR=  0.00E+00 NITDIR=10
 SCHWARZ INEQUALITY OVERHEAD:     20839 INTEGRALS, T=        0.00

 DFT CODE IS SWITCHING FROM THE FINE GRID NRAD= 96,  NLEB=  302
                      TO THE COARSE GRID NRAD0= 24, NLEB0=  110

     EXCHANGE FUNCTIONAL   =B88&HFX   
     CORRELATION FUNCTIONAL=LYP88&VWN5
     DFT THRESHOLD         =.345E-08
     GRID CHANGE THRESHOLD =.300E-03
 FOR AN EULER-MACLAURIN QUADRATURE USING  96 RADIAL POINTS:
 SMALLEST GAUSSIAN PRIMITIVE EXPONENT=        0.1831915800 OF TYPE -S-
 ON ATOM NUMBER   9 HAS RADIAL NORMALIZATION=  1.000000
  LARGEST GAUSSIAN PRIMITIVE EXPONENT=      322.0370000000 OF TYPE -S-
 ON ATOM NUMBER  15 HAS RADIAL NORMALIZATION=  1.000000
 DFT IS SWITCHED OFF, PERFORMING PURE SCF UNTIL SWOFF THRESHOLD IS REACHED.

                                                                                   NONZERO     BLOCKS
 ITER EX DEM     TOTAL ENERGY        E CHANGE  DENSITY CHANGE    DIIS ERROR      INTEGRALS    SKIPPED
   1  0  0    -1146.1983549587 -1146.1983549587   0.917652726   0.536571647       92998813   10165037
          * * *   INITIATING DIIS PROCEDURE   * * *
   2  1  0    -1149.0713501709    -2.8729952122   0.168317020   0.141536181       92906738   10219423
   3  2  0    -1149.2578829603    -0.1865327894   0.132989580   0.140714265       91534542   10438285
   4  3  0    -1149.3986083630    -0.1407254027   0.037200344   0.011508471       89319008   10636900
   5  4  0    -1149.4034621909    -0.0048538279   0.004575091   0.003385615       86527355   10796537
 CONVERGED TO SWOFF, SO DFT CALCULATION IS NOW SWITCHED ON.
          * * *   INITIATING DIIS PROCEDURE   * * *
   6  5  0    -1155.2291417090    -5.8256795181   0.137987785   0.070202078       93227051   10097323
   7  6  0    -1155.3166658474    -0.0875241384   0.149808840   0.038485010       91899846   10411394
   8  7  0    -1155.3101438876     0.0065219598   0.078720524   0.054117421       89967513   10575084
   9  8  0    -1155.3397779345    -0.0296340469   0.023123064   0.021049345       88034356   10716257
  10  9  0    -1155.3421392420    -0.0023613075   0.005632332   0.005960120       83281590   10943056
  11 10  0    -1155.3423099529    -0.0001707109   0.000577207   0.000584226       76658399   11210973
  12 11  0    -1155.3423133112    -0.0000033583   0.000305437   0.000299211       70096265   11409434
  13 12  0    -1155.3423137949    -0.0000004837   0.000186898   0.000219525       63533291   11642234
 DFT CODE IS SWITCHING BACK TO THE FINE GRID
          * * *   INITIATING DIIS PROCEDURE   * * *
  14 13  0    -1155.3490306644    -0.0067168695   0.003355679   0.001233523       93298612   10068804
  15 14  0    -1155.3491074384    -0.0000767739   0.001482595   0.000888060       80722583   11067872
  16 15  0    -1155.3491047591     0.0000026792   0.000634621   0.001208236       73853211   11307600
  17 16  0    -1155.3491135445    -0.0000087854   0.000305983   0.000288600       69694113   11454550
  18 17  0    -1155.3491137816    -0.0000002370   0.000096423   0.000140605       61214729   11710230
  19 18  0    -1155.3491138456    -0.0000000640   0.000029505   0.000031552       55623497   11887060
  20 19  0    -1155.3491138514    -0.0000000058   0.000007670   0.000006265       50217896   12030223
  21 20  0    -1155.3491138514     0.0000000000   0.000001721   0.000002488       42819472   12250166

          -----------------
          DENSITY CONVERGED
          -----------------
     TIME TO FORM FOCK OPERATORS=     128.6 SECONDS (       6.1 SEC/ITER)
     FOCK TIME ON FIRST ITERATION=       1.5, LAST ITERATION=      13.2
     TIME TO SOLVE SCF EQUATIONS=       0.7 SECONDS (       0.0 SEC/ITER)

 FINAL R-B3LYP ENERGY IS    -1155.3491138514 AFTER  21 ITERATIONS
 DFT EXCHANGE + CORRELATION ENERGY =      -121.2605227272
 TOTAL ELECTRON NUMBER             =       164.0010381729

          ------------
          EIGENVECTORS
          ------------

                      1          2          3          4          5
                  -19.1107   -19.0618   -19.0582   -19.0533   -19.0362
                     A          A          A          A          A   
    1  C  1  S    0.000063  -0.000059  -0.000930   0.000154  -0.000048
    2  C  1  S    0.000263  -0.000286  -0.003926   0.001124  -0.000293
    3  C  1  X    0.000013   0.000067  -0.000664   0.000010  -0.000229
    4  C  1  Y    0.000097   0.000120  -0.001389  -0.000463   0.000064
    5  C  1  Z   -0.000074   0.000172  -0.000351   0.000029  -0.000086
    6  C  1  S   -0.001377   0.001132   0.019549  -0.002884   0.002734
    7  C  1  X    0.000535   0.000255  -0.006780  -0.002191   0.001231
    8  C  1  Y    0.000512  -0.001276  -0.006546   0.002574   0.000462
    9  C  1  Z   -0.000598  -0.000386   0.009227  -0.000038   0.001340
   10  C  2  S   -0.000040  -0.000001  -0.001118  -0.001182  -0.000005
   11  C  2  S   -0.000454  -0.000299  -0.004897  -0.005359  -0.000035
   12  C  2  X    0.000876  -0.000547  -0.000342  -0.000113   0.000014
   13  C  2  Y    0.000551  -0.000084   0.001215   0.000113  -0.000026
   14  C  2  Z    0.000438  -0.001012  -0.000246  -0.000747   0.000008
   15  C  2  S    0.001523   0.005422   0.024165   0.028298   0.000147
   16  C  2  X   -0.007198   0.005155  -0.004526  -0.003568   0.000037
   17  C  2  Y   -0.002470   0.001222   0.012167  -0.002626   0.000055
   18  C  2  Z   -0.009102   0.016233   0.004195  -0.022299   0.000035
   19  C  3  S   -0.000076   0.000118   0.000171  -0.000224   0.000033
   20  C  3  S   -0.000360   0.000577   0.000442  -0.001084   0.000133
   21  C  3  X   -0.000009  -0.000034   0.000610  -0.000226   0.000129
   22  C  3  Y   -0.000082   0.000110  -0.000198  -0.000305  -0.000175
   23  C  3  Z   -0.000004  -0.000076   0.000325  -0.000054  -0.000064
   24  C  3  S    0.002747  -0.004264  -0.005014   0.008645  -0.001872
   25  C  3  X    0.000499  -0.000401   0.001909   0.000451   0.000475
   26  C  3  Y   -0.001013   0.001673   0.002502  -0.001778   0.000963
   27  C  3  Z    0.000041   0.001040  -0.003724  -0.001434   0.000518
   28  C  4  S   -0.000018   0.000004   0.000245   0.000049  -0.000170
   29  C  4  S   -0.000081   0.000030   0.000978   0.000363  -0.001045
   30  C  4  X    0.000018  -0.000011  -0.000301  -0.000101   0.000387
   31  C  4  Y   -0.000037  -0.000036   0.000557  -0.000149  -0.000424
   32  C  4  Z   -0.000010  -0.000015   0.000538  -0.000018  -0.000272
   33  C  4  S    0.000434   0.000471  -0.007610  -0.001819   0.003828
   34  C  4  X    0.000121   0.000082   0.000439   0.000908  -0.003878
   35  C  4  Y   -0.000376   0.000076   0.005740   0.000798   0.003706
   36  C  4  Z    0.000142  -0.000343  -0.002776   0.000735   0.001148
   37  C  5  S    0.000120  -0.000213   0.000008   0.000222  -0.000036
   38  C  5  S    0.000625  -0.001190   0.000437   0.001546  -0.000196
   39  C  5  X    0.000146  -0.000073  -0.000612  -0.000297  -0.000004
   40  C  5  Y    0.000147  -0.000129   0.000060   0.000235   0.000025
   41  C  5  Z    0.000242  -0.000197  -0.000672   0.000357   0.000012
   42  C  5  S   -0.004327   0.007097   0.001791  -0.005265   0.001278
   43  C  5  X    0.000650  -0.001982   0.002331   0.001910  -0.000301
   44  C  5  Y   -0.000450   0.000659  -0.000418  -0.004339   0.000521
   45  C  5  Z   -0.003010   0.003403   0.006181  -0.002860   0.000171
   46  C  6  S   -0.000002  -0.000005   0.000086  -0.000028   0.000360
   47  C  6  S   -0.000029  -0.000029   0.000722  -0.000141   0.001610
   48  C  6  X   -0.000068   0.000063   0.000342   0.000069   0.000606
   49  C  6  Y    0.000060  -0.000039  -0.000090  -0.000025  -0.000242
   50  C  6  Z    0.000014  -0.000002  -0.000193  -0.000073  -0.000048
   51  C  6  S   -0.000109   0.000213  -0.001028   0.001278  -0.011913
   52  C  6  X    0.000352  -0.000377  -0.001513   0.000255  -0.000012
   53  C  6  Y   -0.000199   0.000060  -0.000600  -0.000050  -0.004780
   54  C  6  Z   -0.000179   0.000068   0.002851   0.000687  -0.001956
   55  C  7  S   -0.000009   0.000004   0.000022   0.000022  -0.000931
   56  C  7  S   -0.000053   0.000020   0.000157   0.000124  -0.003795
   57  C  7  X   -0.000002  -0.000004  -0.000011  -0.000006  -0.001302
   58  C  7  Y   -0.000004   0.000014  -0.000144  -0.000003   0.000582
   59  C  7  Z   -0.000001   0.000000   0.000026   0.000019  -0.000634
   60  C  7  S    0.000322  -0.000199  -0.000762  -0.000648   0.021967
   61  C  7  X    0.000046   0.000020   0.000173  -0.000141  -0.006193
   62  C  7  Y   -0.000141   0.000060   0.001439   0.000331   0.000049
   63  C  7  Z   -0.000090   0.000083  -0.000440  -0.000014  -0.008586
   64  C  8  S    0.000001   0.000003  -0.000003   0.000007   0.000004
   65  C  8  S    0.000010   0.000007  -0.000040   0.000055   0.000022
   66  C  8  X   -0.000009   0.000014   0.000021  -0.000027  -0.000004
   67  C  8  Y   -0.000007   0.000013   0.000017  -0.000017   0.000005
   68  C  8  Z    0.000002  -0.000007  -0.000004   0.000000  -0.000003
   69  C  8  S    0.000021  -0.000163   0.000013  -0.000099  -0.000126
   70  C  8  X   -0.000013   0.000071   0.000019   0.000065   0.000076
   71  C  8  Y    0.000003   0.000019   0.000102   0.000041   0.000010
   72  C  8  Z   -0.000016  -0.000001   0.000037  -0.000021  -0.000011
   73  H  9  S   -0.000104  -0.000686   0.000589   0.003508  -0.000014
   74  H  9  S    0.000866   0.001666  -0.000798   0.005144   0.000023
   75  H 10  S    0.000010  -0.000031   0.000027   0.000260  -0.000014
   76  H 10  S    0.000162  -0.000064  -0.000582  -0.000356   0.000029
   77  H 11  S    0.000064  -0.000100  -0.000554   0.000010  -0.000122
   78  H 11  S   -0.000268   0.000417   0.002367  -0.000789  -0.000017
   79  H 12  S   -0.000001   0.000008  -0.000117  -0.000044  -0.000599
   80  H 12  S   -0.000009   0.000005   0.000304   0.000025   0.002742
   81  H 13  S    0.000008  -0.000014   0.000073   0.000024   0.003058
   82  H 13  S    0.000014  -0.000004  -0.000092  -0.000022   0.005603
   83  H 14  S    0.000044  -0.000115  -0.000224   0.000042  -0.000018
   84  H 14  S   -0.000024  -0.000011   0.000425  -0.000125  -0.000054
   85  O 15  S   -0.003679   0.982487  -0.015286   0.021581   0.000031
   86  O 15  S   -0.001125   0.108046  -0.001455   0.001401   0.000000
   87  O 15  X   -0.000396   0.003472  -0.000006  -0.000010  -0.000001
   88  O 15  Y   -0.000388   0.001804  -0.000077   0.000146  -0.000003
   89  O 15  Z    0.000666   0.002613   0.000042  -0.000054   0.000000
   90  O 15  S    0.005041  -0.066208   0.000155   0.004585   0.000007
   91  O 15  X    0.002515  -0.013409  -0.000066   0.001593   0.000005
   92  O 15  Y    0.002526  -0.006958   0.000626   0.000520   0.000014
   93  O 15  Z   -0.004034  -0.009941  -0.000329   0.000556  -0.000002
   94  O 16  S    0.000023  -0.000074  -0.000068   0.000079   0.000052
   95  O 16  S    0.000015  -0.000034  -0.000030   0.000033   0.000014
   96  O 16  X    0.000009  -0.000011  -0.000003   0.000009  -0.000013
   97  O 16  Y    0.000000   0.000004  -0.000031  -0.000002  -0.000005
   98  O 16  Z   -0.000006   0.000004   0.000006  -0.000004  -0.000001
   99  O 16  S   -0.000064   0.000131   0.000135  -0.000109   0.000015
  100  O 16  X   -0.000036   0.000041   0.000039  -0.000045   0.000039
  101  O 16  Y   -0.000010  -0.000010   0.000154  -0.000023   0.000006
  102  O 16  Z    0.000031  -0.000036  -0.000040   0.000041  -0.000002
  103  C 17  S   -0.000061   0.000102   0.000167   0.000128   0.000006
  104  C 17  S   -0.000131   0.000275   0.000348   0.000370   0.000024
  105  C 17  X   -0.000484   0.000764   0.001060   0.000680  -0.000016
  106  C 17  Y   -0.000491   0.000652  -0.000377  -0.000538  -0.000021
  107  C 17  Z   -0.000264   0.000222   0.000359   0.000034   0.000004
  108  C 17  S    0.005479  -0.007962  -0.004984  -0.001625  -0.000256
  109  C 17  X   -0.000840   0.001022  -0.000668  -0.000792   0.000026
  110  C 17  Y    0.005256  -0.007327  -0.003248   0.004307  -0.000110
  111  C 17  Z    0.001206  -0.002316  -0.002620   0.007025   0.000043
  112  O 18  S    0.002123  -0.021189   0.041573   0.981597   0.000236
  113  O 18  S    0.000932  -0.003307   0.005543   0.106658   0.000011
  114  O 18  X    0.000100  -0.000206  -0.000177  -0.002417   0.000003
  115  O 18  Y    0.000305  -0.000325   0.000594  -0.000119  -0.000008
  116  O 18  Z   -0.000128  -0.000246   0.000363   0.003204  -0.000004
  117  O 18  S   -0.004679   0.007295  -0.005533  -0.058008   0.000010
  118  O 18  X    0.000069   0.000659   0.000772   0.005051  -0.000011
  119  O 18  Y   -0.001007   0.001244  -0.003154  -0.000218   0.000019
  120  O 18  Z   -0.001176   0.003099  -0.002960  -0.013200   0.000010
  121  O 19  S   -0.000588   0.001206   0.003928   0.000137   0.000583
  122  O 19  S   -0.000303   0.000361   0.001034  -0.000010   0.000096
  123  O 19  X    0.000085  -0.000086  -0.000200  -0.000006  -0.000008
  124  O 19  Y   -0.000025   0.000016   0.000082  -0.000102   0.000013
  125  O 19  Z   -0.000055   0.000075   0.000067  -0.000101   0.000003
  126  O 19  S    0.001064  -0.001047  -0.002836   0.000311  -0.000147
  127  O 19  X   -0.000754   0.000808   0.001631  -0.000277   0.000080
  128  O 19  Y    0.000175  -0.000151  -0.000433   0.000627  -0.000076
  129  O 19  Z    0.000197  -0.000292  -0.000184   0.000451  -0.000005
  130  O 20  S   -0.000068   0.000165   0.000396  -0.000846   0.000806
  131  O 20  S   -0.000026   0.000046  -0.000040  -0.000255   0.000237
  132  O 20  X   -0.000007  -0.000001   0.000040   0.000018   0.000051
  133  O 20  Y    0.000022  -0.000026  -0.000284   0.000079   0.000055
  134  O 20  Z   -0.000016   0.000027   0.000087  -0.000036  -0.000035
  135  O 20  S    0.000001  -0.000086   0.001485   0.000611  -0.000954
  136  O 20  X    0.000003   0.000013  -0.000024  -0.000149   0.000100
  137  O 20  Y   -0.000097   0.000119   0.001170  -0.000423  -0.000578
  138  O 20  Z    0.000110  -0.000121  -0.001464   0.000008   0.000517
  139  O 21  S    0.982661   0.003530  -0.000940  -0.001813  -0.000002
  140  O 21  S    0.106713  -0.000413   0.000019   0.000423   0.000000
  141  O 21  X   -0.002297  -0.000822   0.000195  -0.000252   0.000001
  142  O 21  Y   -0.000867  -0.000587   0.000073  -0.000216  -0.000002
  143  O 21  Z   -0.003202   0.000109  -0.000169   0.000028  -0.000001
  144  O 21  S   -0.057603   0.005748   0.000332  -0.003790  -0.000001
  145  O 21  X    0.005014   0.004742  -0.000580   0.001024  -0.000002
  146  O 21  Y    0.000624   0.003610   0.000051   0.000511   0.000009
  147  O 21  Z    0.012586  -0.001609   0.000309   0.001026   0.000001
  148  O 22  S    0.000035  -0.000023  -0.001602  -0.000005   0.003090
  149  O 22  S    0.000020  -0.000007  -0.000583  -0.000009   0.000623
  150  O 22  X    0.000003  -0.000008   0.000015   0.000032  -0.000170
  151  O 22  Y   -0.000006   0.000008   0.000028  -0.000031   0.000196
  152  O 22  Z    0.000006  -0.000002  -0.000079  -0.000009  -0.000099
  153  O 22  S   -0.000072   0.000015   0.001868   0.000102  -0.000396
  154  O 22  X   -0.000029   0.000047  -0.000061  -0.000109   0.000753
  155  O 22  Y    0.000046  -0.000035  -0.000330   0.000069  -0.000746
  156  O 22  Z   -0.000038   0.000007   0.000857   0.000043   0.001135
  157  O 23  S    0.000003  -0.000026   0.000127  -0.000244   0.982426
  158  O 23  S    0.000004  -0.000008   0.000028  -0.000044   0.104533
  159  O 23  X   -0.000004   0.000005   0.000012  -0.000005   0.001889
  160  O 23  Y    0.000006  -0.000007   0.000048   0.000017   0.001511
  161  O 23  Z    0.000003  -0.000005  -0.000008   0.000003   0.002521
  162  O 23  S   -0.000029   0.000040  -0.000085   0.000060  -0.048325
  163  O 23  X    0.000000  -0.000001  -0.000087   0.000034  -0.006576
  164  O 23  Y   -0.000013   0.000022  -0.000222  -0.000080  -0.001945
  165  O 23  Z   -0.000016   0.000027   0.000027  -0.000006  -0.006573
  166  C 24  S   -0.000412   0.000221   0.000119   0.000185   0.000002
  167  C 24  S   -0.000848   0.001612   0.000120   0.000321   0.000014
  168  C 24  X   -0.000298  -0.001353  -0.000419  -0.000513   0.000001
  169  C 24  Y   -0.000599  -0.000776  -0.000699  -0.000283   0.000007
  170  C 24  Z    0.001509  -0.000946   0.000312   0.000241  -0.000004
  171  C 24  S    0.013634   0.019681  -0.004293  -0.006168  -0.000037
  172  C 24  X    0.003373  -0.023756  -0.001024   0.001492  -0.000007
  173  C 24  Y   -0.003083  -0.011926  -0.003809  -0.000528  -0.000038
  174  C 24  Z    0.024663  -0.020921  -0.000014   0.010608   0.000013
  175  C 25  S    0.000002  -0.000002  -0.000003   0.000002   0.000001
  176  C 25  S    0.000016  -0.000010   0.000028   0.000031   0.000011
  177  C 25  X    0.000010  -0.000043  -0.000070  -0.000005  -0.000010
  178  C 25  Y   -0.000002  -0.000016  -0.000064  -0.000038  -0.000031
  179  C 25  Z    0.000010  -0.000014  -0.000076   0.000035   0.000010
  180  C 25  S   -0.000140   0.000328   0.000599  -0.000164   0.000087
  181  C 25  X    0.000089  -0.000099  -0.000166   0.000159  -0.000004
  182  C 25  Y    0.000027   0.000048  -0.000352   0.000131   0.000102
  183  C 25  Z    0.000151  -0.000309  -0.000510   0.000211  -0.000110
  184  H 26  S    0.003455   0.001494  -0.000160   0.000583   0.000001
  185  H 26  S    0.003602  -0.000237  -0.000414  -0.000613  -0.000003
  186  O 27  S    0.000791   0.016255   0.981760  -0.040969  -0.000130
  187  O 27  S    0.000134   0.002106   0.107252  -0.003488   0.000005
  188  O 27  X   -0.000403   0.000222   0.002766  -0.000293   0.000022
  189  O 27  Y   -0.000400  -0.000032  -0.000646  -0.000003   0.000017
  190  O 27  Z   -0.000056   0.000139  -0.002150  -0.000775   0.000039
  191  O 27  S    0.001094  -0.003343  -0.059148  -0.000185  -0.000079
  192  O 27  X    0.001998  -0.001745  -0.008781   0.001106  -0.000175
  193  O 27  Y    0.001087   0.000794   0.002548   0.001172  -0.000042
  194  O 27  Z    0.000480  -0.000944   0.006955   0.004536  -0.000160
  195  N 28  S    0.000016  -0.000027   0.000008   0.000041   0.000006
  196  N 28  S    0.000090  -0.000149  -0.000001   0.000203   0.000036
  197  N 28  X   -0.000037   0.000041   0.000431  -0.000052   0.000002
  198  N 28  Y   -0.000040   0.000084   0.000044  -0.000019  -0.000013
  199  N 28  Z   -0.000013   0.000050   0.000015   0.000021   0.000019
  200  N 28  S   -0.000290   0.000555  -0.001427  -0.001183  -0.000157
  201  N 28  X    0.000231  -0.000392  -0.001301   0.000706   0.000020
  202  N 28  Y    0.000404  -0.000768   0.000142   0.000894  -0.000046
  203  N 28  Z    0.000001  -0.000202  -0.000182  -0.000248  -0.000167
  204  H 29  S    0.000131  -0.000224  -0.000858  -0.000088   0.000094
  205  H 29  S   -0.000285   0.000068   0.000930   0.000335   0.000223
  206  H 30  S   -0.000121   0.000108   0.000894  -0.000369  -0.000044
  207  H 30  S   -0.000370  -0.000029   0.001287  -0.000235   0.000051
  208  H 31  S   -0.000013  -0.000015  -0.000334  -0.000033  -0.000534
  209  H 31  S    0.000033  -0.000127  -0.000333  -0.000329  -0.000241
  210  H 32  S   -0.000071  -0.000141   0.000825  -0.000344  -0.000079
  211  H 32  S   -0.000990   0.001053   0.002434  -0.000042   0.000004
  212  H 33  S   -0.000871   0.000736   0.000763  -0.000994   0.000011
  213  H 33  S   -0.000073   0.001528   0.001178  -0.001442   0.000006
  214  H 34  S    0.000656  -0.000603  -0.000453   0.001210  -0.000002
  215  H 34  S    0.001327  -0.002467   0.000334   0.002148   0.000036
  216  H 35  S   -0.000070   0.000100  -0.000404  -0.000083   0.000545
  217  H 35  S    0.000214  -0.000406   0.000186  -0.000029  -0.001027
  218  H 36  S   -0.000019   0.000005   0.000240   0.000053  -0.001147
  219  H 36  S   -0.000001  -0.000003   0.000256   0.000109  -0.000327
  220  H 37  S   -0.000017  -0.000001   0.000003   0.000030  -0.001308
  221  H 37  S    0.000013   0.000018  -0.000738  -0.000011  -0.001756
  222  H 38  S   -0.000003   0.000009   0.000017   0.000000   0.000002
  223  H 38  S    0.000011  -0.000018  -0.000025   0.000024  -0.000009
  224  H 39  S    0.000002   0.000003   0.000030   0.000019   0.000011
  225  H 39  S   -0.000016   0.000042  -0.000115   0.000006   0.000028
  226  H 40  S    0.000004   0.000002  -0.000030   0.000011   0.000006
  227  H 40  S   -0.000009   0.000014   0.000019  -0.000039  -0.000005

                      6          7          8          9         10
                  -19.0241   -19.0096   -19.0032   -18.9827   -14.2616
                     A          A          A          A          A   
    1  C  1  S   -0.000056   0.000159   0.000142   0.000021  -0.000121
    2  C  1  S   -0.000380   0.000401   0.001035  -0.000002  -0.001126
[...]
   2584    1.42374   -1.53501    5.87750       -20.272134      20.257883      -0.014251
   2585    2.45813    8.34594    0.45389       -17.880530      17.874136      -0.006394
   2586    2.69224    7.10643    3.07237       -18.612394      18.588578      -0.023816
   2587    1.90399    8.36443    1.93457       -17.615245      17.605226      -0.010020
   2588    0.98887    7.79886    3.41526       -17.821227      17.805334      -0.015893
   2589    1.90399    8.36443   -1.02680       -17.903373      17.899707      -0.003665
   2590    0.98887    7.79886   -2.50749       -18.413489      18.405943      -0.007546
   2591    0.98887    8.93001    0.45389       -17.388877      17.385669      -0.003208
   2592    0.07376    8.72474   -1.16442       -17.832567      17.828753      -0.003814
   2593    7.36239   -2.63004   -5.33676       -16.801727      16.813307       0.011580
   2594    3.50440   -5.01442   -6.81038       -16.712884      16.713807       0.000923
   2595    4.98509   -4.46027   -6.82888       -16.112758      16.120382       0.007624
   2596    6.46577   -3.54516   -6.26330       -16.151241      16.162759       0.011518
   2597    4.41951   -5.94096   -5.91376       -16.546433      16.553862       0.007429
   2598    6.12288   -5.24853   -5.57087       -16.182089      16.196574       0.014485
   2599    3.50440   -0.24567   -6.81038       -18.307523      18.321661       0.014138
   2600    4.98509   -0.79982   -6.82888       -17.365318      17.379627       0.014309
   2601    6.46577   -1.71493   -6.26330       -16.826934      16.839133       0.012199
   2602    3.50440   -1.71493   -7.39445       -17.257895      17.264332       0.006437
   2603    5.12271   -2.63004   -7.18918       -16.373593      16.382564       0.008972
   2604    3.50440   -3.54516   -7.39445       -16.709372      16.711542       0.002171
   2605    2.02371   -0.79982   -6.82888       -18.923312      18.926981       0.003669
   2606    1.76525   -6.89257    6.08790       -16.469920      16.468104      -0.001815
   2607    3.24593   -6.33843    6.10640       -16.237540      16.234325      -0.003215
   2608    4.72662   -5.42332    5.54083       -16.741984      16.733015      -0.008969
   2609    1.76525   -5.42332    6.67197       -16.852955      16.848190      -0.004765
   2610    3.38356   -4.50820    6.46670       -17.009993      17.001018      -0.008974
   2611    4.72662   -3.59309    5.54083       -18.028431      18.009329      -0.019102
   2612    1.76525   -3.59309    6.67197       -17.918637      17.909924      -0.008713
   2613    3.24593   -2.67797    6.10640       -18.599020      18.583108      -0.015912
   2614    1.76525   -2.12383    6.08790       -19.542795      19.529931      -0.012864
   2615    4.38373   -7.12668    4.84839       -16.212447      16.211429      -0.001018
   2616    2.68036   -7.81912    5.19128       -16.159800      16.160895       0.001095
   2617    0.28456   -2.67797    6.10640       -19.677973      19.670181      -0.007793
   2618    4.67262  -10.29271   -0.49840       -14.655737      14.671025       0.015288
   2619    5.59916   -9.39609    0.41671       -15.111992      15.128845       0.016853
   2620    4.11847  -10.31120    0.98229       -14.859923      14.872800       0.012877
   2621    4.90673   -9.05320    2.12008       -15.589829      15.600670       0.010840
   2622    3.20336   -9.74563    2.46297       -15.612500      15.622146       0.009646
   2623    5.59916   -9.39609   -1.41351       -15.007633      15.027250       0.019617
   2624    2.28824   -8.81909   -4.35639       -16.239850      16.246011       0.006161
   2625    3.76893   -8.26494   -4.37489       -16.109802      16.120628       0.010826
   2626    5.24962   -7.34983   -3.80932       -16.577562      16.598349       0.020788
   2627    3.20336   -9.74563   -3.45977       -15.247554      15.259229       0.011675
   2628    4.90673   -9.05320   -3.11688       -15.279104      15.296249       0.017145
   2629    4.11847  -10.31120   -1.97909       -14.699042      14.713773       0.014731
   2630    1.37313   -9.74563   -3.45977       -16.009220      16.017482       0.008262
   2631    0.45802  -10.31120   -1.97909       -16.206580      16.218148       0.011568
   2632    1.37313  -10.87678   -0.49840       -15.418173      15.431485       0.013312
   2633    2.28824  -10.67151   -2.11671       -15.048228      15.060517       0.012289
   2634    3.20336  -10.87678   -0.49840       -14.700430      14.713936       0.013506
   2635    0.45802  -10.31120    0.98229       -16.505131      16.519874       0.014742
   2636    1.37313   -9.74563    2.46297       -16.506644      16.516921       0.010278
   2637    2.28824  -10.67151    1.11991       -15.259173      15.271620       0.012447
   2638   -8.89161    1.89585   -2.56786       -17.115608      17.102263      -0.013345
   2639   -7.99499    0.98074   -3.49441       -17.619371      17.609420      -0.009951
   2640   -6.51430    0.06563   -4.05998       -18.985569      18.975557      -0.010012
   2641   -7.41798   -1.96214   -0.18349       -19.347748      19.344674      -0.003073
   2642   -8.34453   -1.06552    0.73162       -17.899807      17.897673      -0.002134
   2643   -8.91010    0.41517    1.64674       -17.108565      17.105216      -0.003349
   2644   -8.34453   -1.06552   -1.09861       -17.870117      17.865261      -0.004857
   2645   -9.27040    0.27754   -0.18349       -16.875925      16.869647      -0.006277
   2646   -8.91010    0.41517   -2.01372       -17.061323      17.053118      -0.008206
   2647   -7.65209   -0.72263   -2.80197       -18.258808      18.252568      -0.006240
   2648   -7.99499    0.98074    3.12742       -17.715284      17.714228      -0.001056
   2649   -7.65209   -0.72263    2.43499       -18.362003      18.362692       0.000690
   2650   -6.51430    0.06563    3.69300       -19.191377      19.193262       0.001885
   2651   -5.42592    2.75422    6.92820       -16.391032      16.381976      -0.009055
   2652   -5.42592    4.22347    7.51227       -15.253515      15.245528      -0.007987
   2653   -3.80761    5.13859    7.30700       -15.907052      15.890251      -0.016801
   2654   -5.42592    6.05370    7.51227       -14.450226      14.445706      -0.004520
   2655   -3.94524    6.96882    6.94670       -15.074019      15.065585      -0.008434
   2656   -5.42592    7.52296    6.92820       -14.161393      14.160814      -0.000579
   2657   -6.34104    8.44950    6.03158       -13.900573      13.906807       0.006234
   2658   -6.90661    6.96882    6.94670       -13.751073      13.753599       0.002526
   2659   -8.04440    7.75707    5.68869       -13.664694      13.674052       0.009358
   2660   -8.38730    6.05370    6.38113       -13.712213      13.716379       0.004167
   2661   -9.30241    6.61928    4.90044       -13.909732      13.918149       0.008416
   2662   -9.28391    5.13859    5.45458       -14.046880      14.050299       0.003418
   2663   -8.73684    2.17722    3.98533       -16.197234      16.195852      -0.001382
   2664   -9.30241    3.65790    4.90044       -14.772351      14.772878       0.000527
   2665   -8.38730    4.22347    6.38113       -14.288950      14.290276       0.001326
   2666   -8.04440    2.52011    5.68869       -15.484166      15.484051      -0.000115
   2667   -7.25615    1.26210    4.55090       -17.468994      17.468827      -0.000168
   2668   -6.90661    3.30836    6.94670       -15.121655      15.119205      -0.002451
   2669   -6.34104    1.82767    6.03158       -16.835921      16.832615      -0.003306
   2670   -7.04423    5.13859    7.30700       -14.150279      14.149751      -0.000527
   2671   -0.63515    8.22115    4.53618       -16.653780      16.641243      -0.012538
   2672   -2.11583    9.13627    5.10175       -15.181456      15.176845      -0.004610
   2673   -3.59652    9.69041    5.08325       -14.467361      14.469444       0.002082
   2674    0.27997    8.78672    3.05549       -16.854525      16.846705      -0.007819
   2675   -0.28561   10.26741    2.14038       -15.417745      15.416754      -0.000991
   2676   -1.21215   11.16403    1.22526       -14.636330      14.639263       0.002933
   2677   -0.97804    9.92452    3.84374       -15.137641      15.134638      -0.003003
   2678   -1.76629   11.18252    2.70595       -14.253025      14.256097       0.003072
   2679   -2.68141   10.61695    4.18663       -14.185648      14.188274       0.002626
   2680   -0.28561   10.26741    0.31015       -15.774098      15.774483       0.000385
   2681    0.64027    8.92435    1.22526       -17.359187      17.355893      -0.003294
   2682   -1.76629   11.18252   -0.25543       -14.752391      14.756364       0.003973
   2683   -0.97804    9.92452   -1.39322       -16.206116      16.205185      -0.000931
   2684   -2.68141   10.61695   -1.73611       -15.292998      15.296297       0.003299
   2685   -2.68141   11.74810    1.22526       -13.977302      13.984411       0.007109
   2686   -4.51164   11.74810    1.22526       -13.790481      13.805020       0.014539
   2687   -3.59652   11.54283    2.84357       -13.717874      13.726609       0.008734
   2688   -5.42675   11.18252    2.70595       -13.810037      13.828354       0.018317
   2689   -4.51164   10.61695    4.18663       -13.926893      13.935960       0.009067
   2690   -3.59652   11.54283   -0.39305       -14.264935      14.274460       0.009524
   2691   11.66175   -0.08593   -2.22326       -14.656152      14.654736      -0.001415
   2692   12.58830    0.81069   -1.30814       -13.869245      13.865858      -0.003387
   2693   13.15387    2.29138   -0.39303       -13.329389      13.323999      -0.005390
   2694   11.10761   -0.10442   -0.74257       -15.792303      15.781476      -0.010827
   2695   11.89586    1.15358    0.39522       -14.888132      14.875346      -0.012786
   2696   13.51417    5.39037   -2.22326       -12.161878      12.162144       0.000266
   2697   13.71944    3.77206   -1.30814       -12.486904      12.485249      -0.001656
   2698   13.15387    5.25275   -4.05349       -11.999895      12.003000       0.003104
   2699   13.71944    3.77206   -3.13837       -12.117227      12.119468       0.002241
   2700   13.13538    3.77206   -4.60763       -12.123364      12.127944       0.004580
   2701   12.58830    0.81069   -3.13837       -13.374775      13.377293       0.002518
   2702   13.15387    2.29138   -4.05349       -12.485752      12.490046       0.004293
   2703   13.51417    2.15375   -2.22326       -12.702764      12.703255       0.000490
   2704    9.27738    1.38769   -6.08125       -14.865765      14.876682       0.010917
   2705   10.75807    1.94183   -6.09974       -13.532055      13.540608       0.008553
   2706   12.23876    2.85695   -5.53417       -12.561423      12.567905       0.006483
   2707   10.19250    0.46115   -5.18463       -14.716492      14.724541       0.008050
   2708   11.89586    1.15358   -4.84174       -13.307513      13.313753       0.006240
   2709   11.10761   -0.10442   -3.70394       -14.646599      14.650293       0.003694
   2710   12.23876    4.68718   -5.53417       -12.244495      12.249911       0.005416
   2711   10.89569    3.77206   -6.46005       -12.939233      12.946935       0.007702
   2712    9.27738    2.85695   -6.66532       -14.198387      14.209080       0.010693
   2713    8.36227    0.46115   -5.18463       -16.657468      16.669069       0.011601
   2714    9.27738   -0.46473   -3.84157       -16.755051      16.758533       0.003483
   2715    6.80178    8.36037   -6.66067       -13.096597      13.103552       0.006954
   2716    8.28247    7.80622   -6.67916       -12.801350      12.807925       0.006575
   2717    6.80178    6.89111   -7.24474       -13.572956      13.581939       0.008983
   2718    8.42009    5.97600   -7.03947       -13.437076      13.445688       0.008612
   2719    6.80178    5.06088   -7.24474       -14.540047      14.552541       0.012494
   2720    8.63201    9.85248   -4.28336       -12.554146      12.556992       0.002846
   2721    9.42026    8.59448   -5.42116       -12.499604      12.503757       0.004153
   2722    7.71689    9.28691   -5.76405       -12.653993      12.659087       0.005094
   2723    5.88666   10.41806   -2.80268       -13.710058      13.711306       0.001248
   2724    4.41741    9.83399   -2.80268       -14.758555      14.759703       0.001148
   2725    4.97155    9.85248   -4.28336       -13.928469      13.931999       0.003529
   2726    6.80178   10.21279   -4.42099       -12.961614      12.965108       0.003494
   2727    5.88666    9.28691   -5.76405       -13.320720      13.326361       0.005642
   2728    3.49086    8.93737   -3.71779       -15.566510      15.568579       0.002069
   2729    4.18330    8.59448   -5.42116       -14.624413      14.629667       0.005254
   2730    5.32109    7.80622   -6.67916       -13.981419      13.989280       0.007861
   2731    2.92529    7.45668   -4.63291       -16.715925      16.718949       0.003024
   2732    3.84041    6.89111   -6.11359       -15.635839      15.643944       0.008105
   2733    5.18347    5.97600   -7.03947       -14.948578      14.960311       0.011732
   2734    3.49086    8.93737   -1.88756       -16.433032      16.432033      -0.000999
   2735    2.56499    7.59431   -2.80268       -18.086808      18.085597      -0.001211
   2736   11.73797    5.39407    3.23190       -13.444649      13.426488      -0.018160
   2737   12.63459    6.30918    2.30536       -12.493158      12.483598      -0.009561
   2738   10.39490    6.30918    4.15778       -13.799904      13.775918      -0.023987
   2739   11.73797    7.22430    3.23190       -12.528579      12.517078      -0.011501
   2740   10.25728    8.13941    3.79747       -12.879030      12.865291      -0.013739
   2741    8.77659    8.69355    3.77898       -13.456773      13.441453      -0.015320
   2742   12.65308    4.82850    1.75122       -13.202812      13.191394      -0.011417
   2743   12.65308    7.78987    1.75122       -11.892896      11.887577      -0.005319
   2744   12.08751    9.27056    0.83610       -11.610767      11.608420      -0.002348
   2745   11.16096   10.16718   -0.07901       -11.687799      11.686795      -0.001003
   2746   11.39507    8.92766    2.53947       -11.996430      11.990182      -0.006248
   2747   10.60682   10.18567    1.40167       -11.884101      11.880950      -0.003151
   2748    9.69171    9.62010    2.88236       -12.506462      12.498573      -0.007889
   2749   12.08751    9.27056   -0.99413       -11.646931      11.646567      -0.000364
   2750   13.01338    7.92749   -0.07901       -11.727237      11.725225      -0.002012
   2751   13.21865    6.30918    0.83610       -12.237841      12.232571      -0.005270
   2752   10.60682   10.18567   -1.55970       -11.942403      11.942544       0.000140
   2753    9.69171   10.75124   -0.07901       -12.097924      12.096565      -0.001360
   2754    7.86148   10.75124   -0.07901       -13.007639      13.005148      -0.002491
   2755    8.77659   10.54597    1.53930       -12.585383      12.580814      -0.004569
   2756    6.94636   10.18567    1.40167       -13.824489      13.817749      -0.006740
   2757    7.86148    9.62010    2.88236       -13.526503      13.515645      -0.010858
   2758    8.77659   10.54597   -1.69732       -12.654320      12.654229      -0.000092
   2759    7.29591    8.13941    3.79747       -14.883489      14.860326      -0.023163
   2760    6.15811    8.92766    2.53947       -15.247612      15.232589      -0.015023

 NET CHARGES:
 -------------------------------------
 ATOM                CHARGE    E.S.D.
 -------------------------------------
 C                   0.1191    0.5669
 C                   0.3858    0.1734
 C                   0.3231    0.5034
 C                   0.0305    0.2698
 C                   0.3642    0.1982
 C                   0.2452    0.1783
 C                   0.1210    0.0984
 C                  -0.6306    0.1569
 H                   0.4148    0.0040
 H                   0.3969    0.0035
 H                   0.3926    0.0056
 H                   0.4222    0.0051
 H                   0.4233    0.0027
 H                   0.4030    0.0138
 O                  -0.5098    0.0057
 O                  -0.5289    0.0062
 C                  -0.5222    0.2744
 O                  -0.5935    0.0169
 O                  -0.6164    0.0145
 O                  -0.5951    0.0183
 O                  -0.6140    0.0109
 O                  -0.6593    0.0160
 O                  -0.6483    0.0113
 C                   0.7078    0.0496
 C                   0.8436    0.0763
 H                   0.4599    0.0031
 O                  -0.4650    0.0604
 N                  -0.9281    0.1487
 H                   0.0902    0.0401
 H                   0.0934    0.0371
 H                   0.1332    0.0253
 H                   0.0066    0.0191
 H                   0.1628    0.0230
 H                   0.1511    0.0213
 H                   0.0452    0.0186
 H                   0.0405    0.0095
 H                   0.0347    0.0092
 H                   0.1740    0.0098
 H                   0.1592    0.0107
 H                   0.1675    0.0107
 -------------------------------------

 RMS DEVIATION IS            0.614 KCAL/MOLE
 RELATIVE RMS DEVIATION IS   4.652 %

 MULTIPOLE MOMENTS:
 ---------------------------------------------------------
 STATUS  ACTUAL VALUE       QUANTITY        FITTED VALUE 
 ---------------------------------------------------------
 FIXED       0.0000       TOTAL CHARGE         0.0000
             3.2989 D    DIPOLE MOMENT         3.2868 D
 FREE       -2.0084 D          DX             -1.9979 D
 FREE       -1.6241 D          DY             -1.6066 D
 FREE       -2.0521 D          DZ             -2.0568 D
 FREE        0.0000 BU         QXX            -5.9744 BU
 FREE        0.0000 BU         QYY            25.1821 BU
 FREE        0.0000 BU         QZZ           -19.2077 BU
 FREE        0.0000 BU         QXY           -15.0625 BU
 FREE        0.0000 BU         QXZ           -31.6424 BU
 FREE        0.0000 BU         QYZ           -13.7973 BU
 ---------------------------------------------------------
 ...... END OF PROPERTY EVALUATION ......
 CPU     0: STEP CPU TIME=     3.99 TOTAL CPU TIME=        138.4 (      2.3 MIN)
 TOTAL WALL CLOCK TIME=        203.3 SECONDS, CPU UTILIZATION IS    68.08%
              1711193  WORDS OF DYNAMIC MEMORY USED
 EXECUTION OF GAMESS TERMINATED NORMALLY Sun May 24 19:52:58 2020
 DDI: 263640 bytes (0.3 MB / 0 MWords) used by master data server.
Note: The following floating-point exceptions are signalling: IEEE_UNDERFLOW_FLAGNote: The following floating-point exceptions are signalling: IEEE_UNDERFLOW_FLAGNote: The following floating-point exceptions are signalling:
 ----------------------------------------
 CPU timing information for all processes
 ========================================
 0: 137.789 + 0.625 = 138.414
 1: 136.184 + 0.352 = 136.537
 2: 133.665 + 0.220 = 133.885
 3: 136.700 + 0.343 = 137.44
 4: 134.75 + 0.322 = 134.397
 5: 132.62 + 0.224 = 132.287
 ----------------------------------------
 IEEE_DENORMAL
 IEEE_DENORMAL
 IEEE_UNDERFLOW_FLAGNote: The following floating-point exceptions are signalling: IEEE_UNDERFLOW_FLAGNote: The following floating-point exceptions are signalling: IEEE_UNDERFLOW_FLAGNote: The following floating-point exceptions are signalling: IEEE_DENORMAL
 IEEE_DENORMAL
 IEEE_DENORMAL
 IEEE_UNDERFLOW_FLAG IEEE_DENORMAL
 ddikick.x: exited gracefully.
unset echo
----- accounting info -----
Files used on the master node pietdev were:
-rwxr-xr-x 1 piet piet     2345 mei 24 19:49 /home/piet/scr/sialic_acid_charge_geodisk.F05*
-rw-r--r-- 1 piet piet 50790400 mei 24 19:53 /home/piet/scr/sialic_acid_charge_geodisk.F10
ls: No match.
ls: No match.
ls: No match.
zo 24 mei 2020 19:53:01 CEST
0.119u 0.032s 3:26.51 0.0%	0+0k 184+8io 1pf+0w
