----- GAMESS execution script 'rungms' -----
This job is running on host pietdev
under operating system Linux at zo 24 mei 2020 19:53:17 CEST
Available scratch disk space (Kbyte units) at beginning of the job is
Filesystem     1K-blocks     Used Available Use% Mounted on
/dev/sda2      244568380 31203396 200871928  14% /
GAMESS temporary binary files will be written to /home/piet/scr
GAMESS supplementary output files will be written to /home/piet/gamess/scr
Copying input file sialic_acid_fukui_neu.inp to your run's scratch directory...
cp sialic_acid_fukui_neu.inp /home/piet/scr/sialic_acid_fukui_neu.F05
unset echo
 
Assuming a single but multicore node.
 
/home/piet/gamess/ddikick.x /home/piet/gamess/gamess.03.x sialic_acid_fukui_neu -ddi 1 6 pietdev:cpus=6 -scr /home/piet/scr

 Distributed Data Interface kickoff program.
 Initiating 6 compute processes on 1 nodes to run the following command:
 /home/piet/gamess/gamess.03.x sialic_acid_fukui_neu 

          ******************************************************
          *         GAMESS VERSION = 30 SEP 2019 (R2)          *
          *             FROM IOWA STATE UNIVERSITY             *
          * M.W.SCHMIDT, K.K.BALDRIDGE, J.A.BOATZ, S.T.ELBERT, *
          *   M.S.GORDON, J.H.JENSEN, S.KOSEKI, N.MATSUNAGA,   *
          *          K.A.NGUYEN, S.J.SU, T.L.WINDUS,           *
          *       TOGETHER WITH M.DUPUIS, J.A.MONTGOMERY       *
          *         J.COMPUT.CHEM.  14, 1347-1363(1993)        *
          **************** 64 BIT LINUX VERSION ****************

  SINCE 1993, STUDENTS AND POSTDOCS WORKING AT IOWA STATE UNIVERSITY
  AND ALSO IN THEIR VARIOUS JOBS AFTER LEAVING ISU HAVE MADE IMPORTANT
  CONTRIBUTIONS TO THE CODE:
     IVANA ADAMOVIC, CHRISTINE AIKENS, YURI ALEXEEV, POOJA ARORA,
     ANDREY ASADCHEV, ROB BELL, PRADIPTA BANDYOPADHYAY, JONATHAN BENTZ,
     COLLEEN BERTONI, BRETT BODE, KURT BRORSEN, CALEB CARLIN, GALINA CHABAN,
     WEI CHEN, CHEOL HO CHOI, PAUL DAY, ALBERT DEFUSCO, NUWAN DESILVA,
     TIM DUDLEY, DMITRI FEDOROV, ALEX FINDLATER, GRAHAM FLETCHER, 
     MARK FREITAG, KURT GLAESEMANN, EMILIE B GUIDEZ, ANASTASIA GUNINA, 
     DAN KEMP, SAROM SOK LEANG, GRANT MERRILL,
     NORIYUKI MINEZAWA, JONATHAN MULLIN,
     TAKESHI NAGATA, SEAN NEDD, HEATHER NETZLOFF, BOSILJKA NJEGIC, RYAN OLSON,
     MIKE PAK, BUU PHAM, DAVID POOLE,
     SPENCER PRUITT, LUKE ROSKOP, TOSAPORN SATTASATHUCHANA,
     JIM SHOEMAKER, LYUDMILA SLIPCHENKO,
     TONY SMITH, JIE SONG, TETSUYA TAKETSUGU, SIMON WEBB,
     JORGE LUIS GALVEZ VALLEJO, PENG XU, SOOHAENG YOO,
     FEDERICO ZAHARIEV

  ADDITIONAL CODE HAS BEEN PROVIDED BY COLLABORATORS IN OTHER GROUPS:
     IOWA STATE UNIVERSITY:
          JOE IVANIC, AARON WEST, LAIMUTIS BYTAUTAS, KLAUS RUEDENBERG
     UNIVERSITY OF TOKYO: KIMIHIKO HIRAO, TAKAHITO NAKAJIMA,
          TAKAO TSUNEDA, MUNEAKI KAMIYA, SUSUMU YANAGISAWA,
          KIYOSHI YAGI, MAHITO CHIBA, SEIKEN TOKURA, NAOAKI KAWAKAMI
     UNIVERSITY OF AARHUS: FRANK JENSEN
     UNIVERSITY OF IOWA: VISVALDAS KAIRYS, HUI LI
     NATIONAL INST. OF STANDARDS AND TECHNOLOGY: WALT STEVENS, DAVID GARMER
     UNIVERSITY OF PISA: BENEDETTA MENNUCCI, JACOPO TOMASI
     UNIVERSITY OF MEMPHIS: HENRY KURTZ, PRAKASHAN KORAMBATH
     UNIVERSITY OF ALBERTA: TOBY ZENG, MARIUSZ KLOBUKOWSKI
     UNIVERSITY OF NEW ENGLAND: MARK SPACKMAN
     MIE UNIVERSITY: HIROAKI UMEDA
     NAT. INST. OF ADVANCED INDUSTRIAL SCIENCE AND TECHNOLOGY: KAZUO KITAURA
     MICHIGAN STATE UNIVERSITY:
          KAROL KOWALSKI, MARTA WLOCH, JEFFREY GOUR, JESSE LUTZ,
          WEI LI, JUN SHEN, J. EMILIANO DEUSTUA, PIOTR PIECUCH
     UNIVERSITY OF MINNESOTA:
          ANDREW SAND, PRACHI SHARMA, YINAN SHU
     UNIVERSITY OF SILESIA: MONIKA MUSIAL, STANISLAW KUCHARSKI
     FACULTES UNIVERSITAIRES NOTRE-DAME DE LA PAIX:
          OLIVIER QUINET, BENOIT CHAMPAGNE
     UNIVERSITY OF CALIFORNIA - SANTA BARBARA: BERNARD KIRTMAN
     INSTITUTE FOR MOLECULAR SCIENCE:
          KAZUYA ISHIMURA, MICHIO KATOUDA, AND SHIGERU NAGASE
     UNIVERSITY OF NOTRE DAME: ANNA POMOGAEVA, DAN CHIPMAN
     KYUSHU UNIVERSITY:
          HARUYUKI NAKANO,
          FENG LONG GU, JACEK KORCHOWIEC, MARCIN MAKOWSKI, AND YURIKO AOKI,
          HIROTOSHI MORI AND EISAKU MIYOSHI
     PENNSYLVANIA STATE UNIVERSITY:
          TZVETELIN IORDANOV, CHET SWALINA, JONATHAN SKONE,
          SHARON HAMMES-SCHIFFER
     WASEDA UNIVERSITY:
          MASATO KOBAYASHI, TOMOKO AKAMA, TSUGUKI TOUMA,
          TAKESHI YOSHIKAWA, YASUHIRO IKABATA, JUNJI SEINO,
          YUYA NAKAJIMA, HIROMI NAKAI
     NANJING UNIVERSITY: SHUHUA LI
     UNIVERSITY OF NEBRASKA:
          PEIFENG SU, DEJUN SI, NANDUN THELLAMUREGE, YALI WANG, HUI LI
     UNIVERSITY OF ZURICH: ROBERTO PEVERATI, KIM BALDRIDGE
     N. COPERNICUS UNIVERSITY AND JACKSON STATE UNIVERSITY:
          MARIA BARYSZ
     UNIVERSITY OF COPENHAGEN: Jimmy Kromann, CASPER STEINMANN
     TOKYO INSTITUTE OF TECHNOLOGY: HIROYA NAKATA
     NAGOYA UNIVERSITY: YOSHIO NISHIMOTO, STEPHAN IRLE
     MOSCOW STATE UNIVERSITY: VLADIMIR MIRONOV
     A.N.NESMEYANOV INSTITUTE OF ORGANOELEMENT COMPOUNDS OF RUSSIAN ACADEMY OF SCIENCES:
          IGOR S. GERASIMOV
     JOHANNES KEPLER UNIVERSITY LINZ:
          CHRISTIAN FRIEDL


 PARALLEL VERSION RUNNING ON        6 PROCESSORS IN        1 NODES.

 EXECUTION OF GAMESS BEGUN Sun May 24 19:53:17 2020

            ECHO OF THE FIRST FEW INPUT CARDS -
 INPUT CARD> $BASIS GBASIS=N21 NGAUSS=3 $END                                                
 INPUT CARD> $CONTRL SCFTYP=RHF MAXIT=60 MULT=1 ICHARG=0 $END                               
 INPUT CARD> $SYSTEM MEMDDI=1000 MWORDS=30 $END                                             
 INPUT CARD> $SCF DIRSCF=.TRUE. $END                                                        
 INPUT CARD> $DATA                                                                          
 INPUT CARD>                                                                                
 INPUT CARD>C1                                                                              
 INPUT CARD>C 6.0000000 -0.0567767216 0.3166943587 -0.3903106064                            
 INPUT CARD>C 6.0000000 -0.4929439881 -2.1073831749 -0.3903580442                           
 INPUT CARD>C 6.0000000 1.4139005423 0.0593357068 -0.0237152490                             
 INPUT CARD>C 6.0000000 -0.6280138768 1.5194067019 0.3656411139                             
 INPUT CARD>C 6.0000000 1.8727600367 -1.3408196389 -0.4638149704                            
 INPUT CARD>C 6.0000000 -2.0072193318 1.8813322815 -0.1715933959                            
 INPUT CARD>C 6.0000000 -2.6242350105 3.0378186667 0.6081818625                             
 INPUT CARD>C 6.0000000 4.1471753184 2.6262299031 -0.7012361218                             
 INPUT CARD>H 1.0000000 -1.4654330301 -2.3826421815 -2.0651542825                           
 INPUT CARD>H 1.0000000 3.5932596198 -2.3416040466 -0.2942262144                            
 INPUT CARD>H 1.0000000 -1.0109734864 0.2527441895 1.7924617858                             
 INPUT CARD>H 1.0000000 -2.6572035577 2.8225726105 -1.7405904575                            
 INPUT CARD>H 1.0000000 -4.1641034438 4.2588757918 0.1291663418                             
 INPUT CARD>H 1.0000000 2.2704959094 1.1832933612 -1.6278627422                             
 INPUT CARD>O 8.0000000 -2.4806691772 -3.4885939867 -0.5228675262                           
 INPUT CARD>O 8.0000000 3.3052754542 1.6250757375 1.3653604039                              
 INPUT CARD>C 6.0000000 0.9159539635 -2.4107945888 0.0893242630                             
 INPUT CARD>O 8.0000000 -0.5203779350 -2.1765533528 -1.8072342144                           
 INPUT CARD>O 8.0000000 3.2147279318 -1.4985560725 0.0764637406                             
 INPUT CARD>O 8.0000000 -0.7097394884 1.2074586568 1.7876968027                             
 INPUT CARD>O 8.0000000 -1.4424943051 -3.2224374031 1.5074543147                            
 INPUT CARD>O 8.0000000 -1.8229447185 2.3005990426 -1.5547704917                            
 INPUT CARD>O 8.0000000 -3.8022134051 3.3949675366 -0.1997023468                            
 INPUT CARD>C 6.0000000 -1.5798126887 -3.0217116326 0.1679176644                            
 INPUT CARD>C 6.0000000 3.2160208227 1.7499967113 0.1382849312                              
 INPUT CARD>H 1.0000000 -2.1894460849 -3.7954779239 1.8392570086                            
 INPUT CARD>O 8.0000000 -0.9067397253 -0.7979998050 0.1101851348                            
 INPUT CARD>N 7.0000000 2.2578049350 1.0969642173 -0.6156975782                             
 INPUT CARD>H 1.0000000 -0.2052419378 0.4343881430 -1.4661192558                            
 INPUT CARD>H 1.0000000 1.5369573804 0.1562213853 1.0588882878                              
 INPUT CARD>H 1.0000000 0.0390303234 2.3749185931 0.2401859325                              
 INPUT CARD>H 1.0000000 1.8544489212 -1.3917596973 -1.5623366257                            
 INPUT CARD>H 1.0000000 0.9341283230 -2.3856380397 1.1800174871                             
 INPUT CARD>H 1.0000000 1.2108871484 -3.4051050778 -0.2637419522                            
 INPUT CARD>H 1.0000000 -2.6636733820 1.0032430845 -0.0970993014                            
 INPUT CARD>H 1.0000000 -2.8712744309 2.7192242879 1.6246860411                             
 INPUT CARD>H 1.0000000 -1.9031971733 3.8661881698 0.6483801094                             
 INPUT CARD>H 1.0000000 4.9093799330 1.9960905757 -1.1764968960                             
 INPUT CARD>H 1.0000000 3.5993469140 3.1623606953 -1.4831127328                             
 INPUT CARD>H 1.0000000 4.6443732220 3.3386761135 -0.0418121202                             
 INPUT CARD> $END                                                                           
   30000000 WORDS OF MEMORY AVAILABLE

     BASIS OPTIONS
     -------------
     GBASIS=N21          IGAUSS=       3      POLAR=NONE    
     NDFUNC=       0     NFFUNC=       0     DIFFSP=       F
     NPFUNC=       0      DIFFS=       F     BASNAM=        


     RUN TITLE
     ---------
                                                                                 

 THE POINT GROUP OF THE MOLECULE IS C1      
 THE ORDER OF THE PRINCIPAL AXIS IS     0

 ATOM      ATOMIC                      COORDINATES (BOHR)
           CHARGE         X                   Y                   Z
 C           6.0    -0.1072924463        0.5984655598       -0.7375800962
 C           6.0    -0.9315290648       -3.9823767517       -0.7376697406
 C           6.0     2.6718845988        0.1121282271       -0.0448153223
 C           6.0    -1.1867741436        2.8712623305        0.6909615151
 C           6.0     3.5390033101       -2.5337817165       -0.8764832031
 C           6.0    -3.7930945344        3.5552025039       -0.3242644996
 C           6.0    -4.9590850972        5.7406448804        1.1492970708
 C           6.0     7.8370249748        4.9628548976       -1.3251441229
 H           1.0    -2.7692668802       -4.5025408498       -3.9025757163
 H           1.0     6.7902760842       -4.4249900198       -0.5560069236
 H           1.0    -1.9104628701        0.4776172631        3.3872616186
 H           1.0    -5.0213866177        5.3338888143       -3.2892390215
 H           1.0    -7.8690144933        8.0481082622        0.2440889928
 H           1.0     4.2906151250        2.2361002158       -3.0762145284
 O           8.0    -4.6877850111       -6.5924867173       -0.9880763524
 O           8.0     6.2460649224        3.0709478532        2.5801570379
 C           6.0     1.7309020084       -4.5557411855        0.1687983811
 O           8.0    -0.9833717072       -4.1130894344       -3.4151774609
 O           8.0     6.0749549162       -2.8318603543        0.1444955177
 O           8.0    -1.3412131557        2.2817660029        3.3782571062
 O           8.0    -2.7259189755       -6.0895237044        2.8486755938
 O           8.0    -3.4448660087        4.3475017981       -2.9380902031
 O           8.0    -7.1851414825        6.4155583814       -0.3773827146
 C           6.0    -2.9854130936       -5.7102069995        0.3173183742
 C           6.0     6.0773981257        3.3070142638        0.2613206282
 H           1.0    -4.1374531654       -7.1724132686        3.4756917673
 O           8.0    -1.7134896230       -1.5080009697        0.2082197127
 N           7.0     4.2666326609        2.0729617890       -1.1634997141
 H           1.0    -0.3878510236        0.8208745626       -2.7705636588
 H           1.0     2.9044283038        0.2952156116        2.0010087155
 H           1.0     0.0737566164        4.4879453841        0.4538855985
 H           1.0     3.5044003193       -2.6300444687       -2.9523881232
 H           1.0     1.7652465678       -4.5082022009        2.2299097113
 H           1.0     2.2882449125       -6.4347155564       -0.4984000211
 H           1.0    -5.0336128128        1.8958545288       -0.1834910732
 H           1.0    -5.4259219100        5.1385888033        3.0702114338
 H           1.0    -3.5965211581        7.3060362579        1.2252607427
 H           1.0     9.2773828430        3.7720642347       -2.2232567588
 H           1.0     6.8017794022        5.9759951885       -2.8026766739
 H           1.0     8.7765927743        6.3091830163       -0.0790134501

          INTERNUCLEAR DISTANCES (ANGS.)
          ------------------------------

                1 C          2 C          3 C          4 C          5 C     

   1 C       0.0000000    2.4630050 *  1.5373735 *  1.5311081 *  2.5447726 *
   2 C       2.4630050 *  0.0000000    2.9094937 *  3.7072070    2.4878849 *
   3 C       1.5373735 *  2.9094937 *  0.0000000    2.5402402 *  1.5377499 *
   4 C       1.5311081 *  3.7072070    2.5402402 *  0.0000000    3.8887996  
   5 C       2.5447726 *  2.4878849 *  1.5377499 *  3.8887996    0.0000000  
   6 C       2.5100110 *  4.2720883    3.8788659    1.5237515 *  5.0519201  
   7 C       3.8721243    5.6579665    5.0573900    2.5197817 *  6.3674654  
   8 C       4.8066456    6.6358455    3.8103506    5.0165443    4.5789536  
   9 H       3.4750297    1.9561301 *  4.2920032    4.6729030    3.8461948  
  10 H       4.5164752    4.0940397    3.2538122    5.7586438    1.9976107 *
  11 H       2.3830813 *  3.2562644    3.0357734    1.9459983 *  3.9932630  
  12 H       3.8555027    5.5508208    5.2112405    3.2018844    6.2836742  
  13 H       5.7167109    7.3672634    6.9838126    4.4793460    8.2554186  
  14 H       2.7746580 *  4.4717525    2.1378320 *  3.5338915    2.8079080 *
  15 O       4.5136510    2.4241191 *  5.2919402    5.4131183    4.8547675  
  16 O       4.0121861    5.6071622    2.8210587 *  4.0597253    3.7675613  
  17 C       2.9352088 *  1.5189296 *  2.5223545 *  4.2316273    1.5382741 *
  18 O       2.9049755 *  1.4188288 *  3.4527631    4.2887170    2.8688561 *
  19 O       3.7703786    3.7862150    2.3832839 *  4.8947306    1.4552181 *
  20 O       2.4420356 *  3.9722915    3.0181529    1.4581608 *  4.2699334  
  21 O       4.2481971    2.3972241 *  4.6123212    4.9449167    4.2915381  
  22 O       2.9002059 *  4.7492174    4.2242820    2.3929275 *  5.3017306  
  23 O       4.8518443    6.4236654    6.1939693    3.7299979    7.3961314  
  24 C       3.7116320    1.5260904 *  4.3002203    4.6440038    3.8916247  
  25 C       3.6117825    5.3772914    2.4763312 *  3.8576502    3.4234514  
  26 H       5.1409349    3.2709275    5.5959236    5.7321560    5.2755101  
  27 O       1.4884476 *  1.4615934 *  2.4775643 *  2.3480457 *  2.8895931 *
  28 N       2.4529388 *  4.2290944    1.4626314 *  3.0772445    2.4726743 *
  29 H       1.0923635 *  2.7750020 *  2.2006399 *  2.1705639 *  2.9110254 *
  30 H       2.1600735 *  3.3681924    1.0938740 *  2.6506540 *  2.1616014 *
  31 H       2.1547603 *  4.5575883    2.7058891 *  1.0920566 *  4.2029624  
  32 H       2.8187309 *  2.7195412 *  2.1603510 *  4.2842280    1.0998545 *
  33 H       3.2787838    2.1401029 *  2.7671376 *  4.2840252    2.1621425 *
  34 H       3.9338000    2.1454963 *  3.4786746    5.2941946    2.1770116 *
  35 H       2.7116844 *  3.8044793    4.1860429    2.1504565 *  5.1194080  
  36 H       4.2135210    5.7456939    5.3061246    2.8384810 *  6.5841975  
  37 H       4.1336489    6.2250579    5.0938173    2.6857805 *  6.5274621  
  38 H       5.3010539    6.8294667    4.1591226    5.7678547    4.5677068  
  39 H       4.7601758    6.7610027    4.0662982    4.8977309    4.9293715  
  40 H       5.5995210    7.4948699    4.6032982    5.5923005    5.4550533  

                6 C          7 C          8 C          9 H         10 H     

   1 C       2.5100110 *  3.8721243    4.8066456    3.4750297    4.5164752  
   2 C       4.2720883    5.6579665    6.6358455    1.9561301 *  4.0940397  
   3 C       3.8788659    5.0573900    3.8103506    4.2920032    3.2538122  
   4 C       1.5237515 *  2.5197817 *  5.0165443    4.6729030    5.7586438  
   5 C       5.0519201    6.3674654    4.5789536    3.8461948    1.9976107 *
   6 C       0.0000000    1.5251946 *  6.2218942    4.6968695    7.0152402  
   7 C       1.5251946 *  0.0000000    6.9091229    6.1539373    8.2710198  
   8 C       6.2218942    6.9091229    0.0000000    7.6452891    5.0151624  
   9 H       4.6968695    6.1539373    7.6452891    0.0000000    5.3598733  
  10 H       7.0152402    8.2710198    5.0151624    5.3598733    0.0000000  
  11 H       2.7390359 *  3.4295439    6.2014888    4.6939319    5.6818898  
  12 H       1.9416912 *  2.3588449 *  6.8861005    5.3497588    8.2358351  
  13 H       3.2241772    2.0227781 *  8.5107259    7.4971745   10.1942276  
  14 H       4.5723983    5.6918846    2.5421700 *  5.1830768    3.9941447  
  15 O       5.4021900    6.6252506    9.0194905    2.1523202 *  6.1855051  
  16 O       5.5362889    6.1423331    2.4457977 *  7.1126573    4.3094908  
  17 C       5.1995551    6.5183999    6.0363394    3.2114754    2.7055247 *
  18 O       4.6208716    6.1196507    6.7879314    1.0010617 *  4.3861656  
  19 O       6.2252639    7.4131578    4.2997831    5.2222641    0.9957044 *
  20 O       2.4446631 *  2.8994424 *  5.6389113    5.3201840    5.9536586  
  21 O       5.4024606    6.4339730    8.3862762    3.6700565    5.4204001  
  22 O       1.4570246 *  2.4215536 *  6.0396101    4.7245163    7.2439141  
  23 O       2.3481664 *  1.4723672 *  8.0022044    6.5054767    9.3600326  
  24 C       4.9333339    6.1646215    8.0903068    2.3255328 *  5.2380149  
  25 C       5.2340722    5.9989896    1.5295846 *  6.6219226    4.1316548  
  26 H       6.0251888    6.9569052    9.3725774    4.2148223    6.3328655  
  27 O       2.9102019 *  4.2321737    6.1583935    2.7486963 *  4.7745426  
  28 N       4.3592309    5.3943592    2.4322193 *  5.2982154    3.7027739  
  29 H       2.6488803 *  4.1148637    4.9328240    3.1436578    4.8485132  
  30 H       4.1293197    5.0815609    4.0015269    5.0219337    3.5069117  
  31 H       2.1448374 *  2.7690864 *  4.2221189    5.4965797    5.9299012  
  32 H       5.2497409    6.6626515    4.7055636    3.5008984    2.3523969 *
  33 H       5.3558766    6.5117454    6.2435252    4.0359687    3.0407750  
  34 H       6.1895978    7.5484886    6.7223650    3.3842586    2.6091497 *
  35 H       1.0988730 *  2.1537118 *  7.0275691    4.0955145    7.0976103  
  36 H       2.1622382 *  1.0935317 *  7.3944032    6.4513838    8.4311570  
  37 H       2.1500768 *  1.0989575 *  6.3218643    6.8266234    8.3448324  
  38 H       6.9901606    7.8118903    1.0972257 *  7.7846807    4.6180265  
  39 H       5.8987034    6.5667340    1.0949353 *  7.5324515    5.6309072  
  40 H       6.8106077    7.3038122    1.0906995 *  8.6114534    5.7822258  

               11 H         12 H         13 H         14 H         15 O     

   1 C       2.3830813 *  3.8555027    5.7167109    2.7746580 *  4.5136510  
   2 C       3.2562644    5.5508208    7.3672634    4.4717525    2.4241191 *
   3 C       3.0357734    5.2112405    6.9838126    2.1378320 *  5.2919402  
   4 C       1.9459983 *  3.2018844    4.4793460    3.5338915    5.4131183  
   5 C       3.9932630    6.2836742    8.2554186    2.8079080 *  4.8547675  
   6 C       2.7390359 *  1.9416912 *  3.2241772    4.5723983    5.4021900  
   7 C       3.4295439    2.3588449 *  2.0227781 *  5.6918846    6.6252506  
   8 C       6.2014888    6.8861005    8.5107259    2.5421700 *  9.0194905  
   9 H       4.6939319    5.3497588    7.4971745    5.1830768    2.1523202 *
  10 H       5.6818898    8.2358351   10.1942276    3.9941447    6.1855051  
  11 H       0.0000000    4.6686775    5.3626365    4.8303813    4.6387893  
  12 H       4.6686775    0.0000000    2.7981609 *  5.1944361    6.4299951  
  13 H       5.3626365    2.7981609 *  0.0000000    7.3450955    7.9550228  
  14 H       4.8303813    5.1944361    7.3450955    0.0000000    6.7543405  
  15 O       4.6387893    6.4299951    7.9550228    6.7543405    0.0000000  
  16 O       4.5492543    6.8287690    8.0160277    3.1977062    7.9493508  
  17 C       3.7024540    6.5957695    8.3840965    4.2072537    3.6157266  
  18 O       4.3703526    5.4370696    7.6446799    4.3714667    2.6858500 *
  19 O       4.8855148    7.5135490    9.3593777    3.3149086    6.0627549  
  20 O       1.0011215 *  4.3416610    4.8984181    4.5330381    5.5251977  
  21 O       3.5134494    6.9690358    8.0794109    6.5594949    2.2958339 *
  22 O       4.0071150    1.0014855 *  3.4859024    4.2438156    5.9171092  
  23 O       4.6511618    2.0032523 *  0.9927016 *  6.6188325    7.0167182  
  24 C       3.6992949    6.2417011    7.7257371    5.9776058    1.2274794 *
  25 C       4.7797016    6.2590220    7.7949209    2.0819336 *  7.7673826  
  26 H       4.2165258    7.5387464    8.4673665    7.5299512    2.3997127 *
  27 O       1.9861980 *  4.4269672    6.0152115    4.1280939    3.1807714  
  28 N       4.1469086    5.3292041    7.1967642    1.0159193 *  6.5946265  
  29 H       3.3616288    3.4337844    5.7309883    2.5915821 *  4.6321789  
  30 H       2.6531865 *  5.7041648    7.0850724    2.9684317 *  5.6504826  
  31 H       2.8311998 *  3.3754328    4.6073803    3.1446805    6.4274346  
  32 H       4.7084723    6.1763565    8.4269708    2.6092694 *  4.9265058  
  33 H       3.3346019    6.9680036    8.4407239    4.7336393    3.9720487  
  34 H       4.7481049    7.4784475    9.3691784    4.9027540    3.7015814  
  35 H       2.6201349 *  2.4517473 *  3.5918840    5.1693018    4.5156804  
  36 H       3.0939283    3.3736617    2.5056961 *  6.2750267    6.5803926  
  37 H       3.8938366    2.7138238 *  2.3527609 *  5.4588387    7.4698136  
  38 H       6.8486902    7.6324609    9.4420895    2.7978705 *  9.2261488  
  39 H       6.3600559    6.2710585    8.0045581    2.3882012 *  9.0622218  
  40 H       6.6985433    7.5143352    8.8580620    3.5772231    9.8797399  

               16 O         17 C         18 O         19 O         20 O     

   1 C       4.0121861    2.9352088 *  2.9049755 *  3.7703786    2.4420356 *
   2 C       5.6071622    1.5189296 *  1.4188288 *  3.7862150    3.9722915  
   3 C       2.8210587 *  2.5223545 *  3.4527631    2.3832839 *  3.0181529  
   4 C       4.0597253    4.2316273    4.2887170    4.8947306    1.4581608 *
   5 C       3.7675613    1.5382741 *  2.8688561 *  1.4552181 *  4.2699334  
   6 C       5.5362889    5.1995551    4.6208716    6.2252639    2.4446631 *
   7 C       6.1423331    6.5183999    6.1196507    7.4131578    2.8994424 *
   8 C       2.4457977 *  6.0363394    6.7879314    4.2997831    5.6389113  
   9 H       7.1126573    3.2114754    1.0010617 *  5.2222641    5.3201840  
  10 H       4.3094908    2.7055247 *  4.3861656    0.9957044 *  5.9536586  
  11 H       4.5492543    3.7024540    4.3703526    4.8855148    1.0011215 *
  12 H       6.8287690    6.5957695    5.4370696    7.5135490    4.3416610  
  13 H       8.0160277    8.3840965    7.6446799    9.3593777    4.8984181  
  14 H       3.1977062    4.2072537    4.3714667    3.3149086    4.5330381  
  15 O       7.9493508    3.6157266    2.6858500 *  6.0627549    5.5251977  
  16 O       0.0000000    4.8605941    6.2572649    3.3803149    4.0587088  
  17 C       4.8605941    0.0000000    2.3905757 *  2.4731976 *  4.3149861  
  18 O       6.2572649    2.3905757 *  0.0000000    4.2378077    4.9407412  
  19 O       3.3803149    2.4731976 *  4.2378077    0.0000000    5.0648079  
  20 O       4.0587088    4.3149861    4.9407412    5.0648079    0.0000000  
  21 O       6.7867438    2.8691698 *  3.5960161    5.1680963    4.4988270  
  22 O       5.9398770    5.6922617    4.6696158    6.5171045    3.6886677  
  23 O       7.4898823    7.4867559    6.6630659    8.5592235    4.2776565  
  24 C       6.8476703    2.5706512 *  2.3953955 *  5.0314994    4.6115717  
  25 C       1.2366430 *  4.7544599    5.7587773    3.2491412    4.2926101  
  26 H       7.7329777    3.8240191    4.3247663    6.1309369    5.2174289  
  27 O       5.0187480    2.4338764 *  2.3929443 *  4.1807191    2.6219684 *
  28 N       2.3023221 *  3.8212552    4.4557802    2.8515811 *  3.8203185  
  29 H       4.6646271    3.4309692    2.6519211 *  4.2204300    3.3822293  
  30 H       2.3191393 *  2.8134091 *  4.2295537    2.5531080 *  2.5853256 *
  31 H       3.5350586    4.8677310    5.0220279    5.0115533    2.0780782 *
  32 H       4.4472018    2.1557339 *  2.5131014 *  2.1324707 *  4.9551713  
  33 H       4.6628871    1.0911347 *  3.3291106    2.6843770 *  3.9977393  
  34 H       5.6871044    1.0955796 *  2.6246879 *  2.7867628 *  5.4011991  
  35 H       6.1768774    4.9501655    4.1987358    6.3909878    2.7225022 *
  36 H       6.2780713    6.5587749    6.4244400    7.5647927    2.6427715 *
  37 H       5.7153156    6.9036707    6.6676050    7.4364458    3.1290935  
  38 H       3.0285049    6.0803282    6.8768494    4.0809694    6.4017878  
  39 H       3.2501573    6.3822579    6.7513844    4.9299448    5.7522224  
  40 H       2.5903173 *  6.8538106    7.7594540    5.0454623    6.0461321  

               21 O         22 O         23 O         24 C         25 C     

   1 C       4.2481971    2.9002059 *  4.8518443    3.7116320    3.6117825  
   2 C       2.3972241 *  4.7492174    6.4236654    1.5260904 *  5.3772914  
   3 C       4.6123212    4.2242820    6.1939693    4.3002203    2.4763312 *
   4 C       4.9449167    2.3929275 *  3.7299979    4.6440038    3.8576502  
   5 C       4.2915381    5.3017306    7.3961314    3.8916247    3.4234514  
   6 C       5.4024606    1.4570246 *  2.3481664 *  4.9333339    5.2340722  
   7 C       6.4339730    2.4215536 *  1.4723672 *  6.1646215    5.9989896  
   8 C       8.3862762    6.0396101    8.0022044    8.0903068    1.5295846 *
   9 H       3.6700565    4.7245163    6.5054767    2.3255328 *  6.6219226  
  10 H       5.4204001    7.2439141    9.3600326    5.2380149    4.1316548  
  11 H       3.5134494    4.0071150    4.6511618    3.6992949    4.7797016  
  12 H       6.9690358    1.0014855 *  2.0032523 *  6.2417011    6.2590220  
  13 H       8.0794109    3.4859024    0.9927016 *  7.7257371    7.7949209  
  14 H       6.5594949    4.2438156    6.6188325    5.9776058    2.0819336 *
  15 O       2.2958339 *  5.9171092    7.0167182    1.2274794 *  7.7673826  
  16 O       6.7867438    5.9398770    7.4898823    6.8476703    1.2366430 *
  17 C       2.8691698 *  5.6922617    7.4867559    2.5706512 *  4.7544599  
  18 O       3.5960161    4.6696158    6.6630659    2.3953955 *  5.7587773  
  19 O       5.1680963    6.5171045    8.5592235    5.0314994    3.2491412  
  20 O       4.4988270    3.6886677    4.2776565    4.6115717    4.2926101  
  21 O       0.0000000    6.3266022    7.2299866    1.3614351 *  6.9499273  
  22 O       6.3266022    0.0000000    2.6365425 *  5.5994427    5.3442280  
  23 O       7.2299866    2.6365425 *  0.0000000    6.8005868    7.2163548  
  24 C       1.3614351 *  5.5994427    6.8005868    0.0000000    6.7653601  
  25 C       6.9499273    5.3442280    7.2163548    6.7653601    0.0000000  
  26 H       0.9982011 *  6.9868376    7.6459715    1.9400367 *  7.9287242  
  27 O       2.8490861 *  3.6349448    5.1049753    2.3240599 *  4.8466721  
  28 N       6.0710146    4.3569614    6.4944356    5.6837358    1.3831554 *
  29 H       4.8729156    2.4713487 *  4.8277371    4.0625296    4.0012470  
  30 H       4.5269945    4.7663938    6.3702646    4.5395311    2.4913620 *
  31 H       5.9271645    2.5873428 *  3.9986441    5.6346689    3.2394721  
  32 H       4.8625952    5.2112181    7.5344116    4.1766824    3.8231695  
  33 H       2.5408233 *  6.0861593    7.5994711    2.7836729 *  4.8369117  
  34 H       3.1954557    6.5898369    8.4484475    2.8497941 *  5.5459229  
  35 H       4.6821198    2.1247970 *  2.6508766 *  4.1767509    5.9315976  
  36 H       6.1121600    3.3738978    2.1567729 *  6.0620453    6.3406588  
  37 H       7.1553384    2.7039568 *  2.1324998 *  6.9122055    5.5628101  
  38 H       8.6477127    6.7498157    8.8770965    8.3123649    2.1579339 *
  39 H       8.6677160    5.4908118    7.5156067    8.2336108    2.1841798 *
  40 H       9.0828626    6.7225626    8.4482497    8.9016296    2.1439514 *

               26 H         27 O         28 N         29 H         30 H     

   1 C       5.1409349    1.4884476 *  2.4529388 *  1.0923635 *  2.1600735 *
   2 C       3.2709275    1.4615934 *  4.2290944    2.7750020 *  3.3681924  
   3 C       5.5959236    2.4775643 *  1.4626314 *  2.2006399 *  1.0938740 *
   4 C       5.7321560    2.3480457 *  3.0772445    2.1705639 *  2.6506540 *
   5 C       5.2755101    2.8895931 *  2.4726743 *  2.9110254 *  2.1616014 *
   6 C       6.0251888    2.9102019 *  4.3592309    2.6488803 *  4.1293197  
   7 C       6.9569052    4.2321737    5.3943592    4.1148637    5.0815609  
   8 C       9.3725774    6.1583935    2.4322193 *  4.9328240    4.0015269  
   9 H       4.2148223    2.7486963 *  5.2982154    3.1436578    5.0219337  
  10 H       6.3328655    4.7745426    3.7027739    4.8485132    3.5069117  
  11 H       4.2165258    1.9861980 *  4.1469086    3.3616288    2.6531865 *
  12 H       7.5387464    4.4269672    5.3292041    3.4337844    5.7041648  
  13 H       8.4673665    6.0152115    7.1967642    5.7309883    7.0850724  
  14 H       7.5299512    4.1280939    1.0159193 *  2.5915821 *  2.9684317 *
  15 O       2.3997127 *  3.1807714    6.5946265    4.6321789    5.6504826  
  16 O       7.7329777    5.0187480    2.3023221 *  4.6646271    2.3191393 *
  17 C       3.8240191    2.4338764 *  3.8212552    3.4309692    2.8134091 *
  18 O       4.3247663    2.3929443 *  4.4557802    2.6519211 *  4.2295537  
  19 O       6.1309369    4.1807191    2.8515811 *  4.2204300    2.5531080 *
  20 O       5.2174289    2.6219684 *  3.8203185    3.3822293    2.5853256 *
  21 O       0.9982011 *  2.8490861 *  6.0710146    4.8729156    4.5269945  
  22 O       6.9868376    3.6349448    4.3569614    2.4713487 *  4.7663938  
  23 O       7.6459715    5.1049753    6.4944356    4.8277371    6.3702646  
  24 C       1.9400367 *  2.3240599 *  5.6837358    4.0625296    4.5395311  
  25 C       7.9287242    4.8466721    1.3831554 *  4.0012470    2.4913620 *
  26 H       0.0000000    3.6905149    7.0527182    5.7231412    5.4873478  
  27 O       3.6905149    0.0000000    3.7592735    2.1202865 *  2.7896651 *
  28 N       7.0527182    3.7592735    0.0000000    2.6886472 *  2.0515497 *
  29 H       5.7231412    2.1202865 *  2.6886472 *  0.0000000    3.0803082  
  30 H       5.4873478    2.7896651 *  2.0515497 *  3.0803082    0.0000000  
  31 H       6.7525498    3.3134261    2.6997527 *  2.5955355 *  2.7994064 *
  32 H       5.8053241    3.2823837    2.6930593 *  2.7543421 *  3.0606970  
  33 H       3.4898370    2.6559239 *  4.1358471    4.0314702    2.6151720 *
  34 H       4.0171211    3.3795211    4.6355731    4.2653067    3.8129672  
  35 H       5.1963536    2.5247294 *  4.9496138    2.8708355 *  4.4383614  
  36 H       6.5537986    4.3039488    5.8273924    4.6777433    5.1304599  
  37 H       7.7589467    4.7997115    5.1556214    4.3739468    5.0761239  
  38 H       9.6452251    6.5794939    2.8554814 *  5.3555721    4.4446934  
  39 H       9.6415654    6.2070823    2.6111313 *  4.6815616    4.4443327  
  40 H      10.0566228    6.9245972    3.3242029    5.8294345    4.5820948  

               31 H         32 H         33 H         34 H         35 H     

   1 C       2.1547603 *  2.8187309 *  3.2787838    3.9338000    2.7116844 *
   2 C       4.5575883    2.7195412 *  2.1401029 *  2.1454963 *  3.8044793  
   3 C       2.7058891 *  2.1603510 *  2.7671376 *  3.4786746    4.1860429  
   4 C       1.0920566 *  4.2842280    4.2840252    5.2941946    2.1504565 *
   5 C       4.2029624    1.0998545 *  2.1621425 *  2.1770116 *  5.1194080  
   6 C       2.1448374 *  5.2497409    5.3558766    6.1895978    1.0988730 *
   7 C       2.7690864 *  6.6626515    6.5117454    7.5484886    2.1537118 *
   8 C       4.2221189    4.7055636    6.2435252    6.7223650    7.0275691  
   9 H       5.4965797    3.5008984    4.0359687    3.3842586    4.0955145  
  10 H       5.9299012    2.3523969 *  3.0407750    2.6091497 *  7.0976103  
  11 H       2.8311998 *  4.7084723    3.3346019    4.7481049    2.6201349 *
  12 H       3.3754328    6.1763565    6.9680036    7.4784475    2.4517473 *
  13 H       4.6073803    8.4269708    8.4407239    9.3691784    3.5918840  
  14 H       3.1446805    2.6092694 *  4.7336393    4.9027540    5.1693018  
  15 O       6.4274346    4.9265058    3.9720487    3.7015814    4.5156804  
  16 O       3.5350586    4.4472018    4.6628871    5.6871044    6.1768774  
  17 C       4.8677310    2.1557339 *  1.0911347 *  1.0955796 *  4.9501655  
  18 O       5.0220279    2.5131014 *  3.3291106    2.6246879 *  4.1987358  
  19 O       5.0115533    2.1324707 *  2.6843770 *  2.7867628 *  6.3909878  
  20 O       2.0780782 *  4.9551713    3.9977393    5.4011991    2.7225022 *
  21 O       5.9271645    4.8625952    2.5408233 *  3.1954557    4.6821198  
  22 O       2.5873428 *  5.2112181    6.0861593    6.5898369    2.1247970 *
  23 O       3.9986441    7.5344116    7.5994711    8.4484475    2.6508766 *
  24 C       5.6346689    4.1766824    2.7836729 *  2.8497941 *  4.1767509  
  25 C       3.2394721    3.8231695    4.8369117    5.5459229    5.9315976  
  26 H       6.7525498    5.8053241    3.4898370    4.0171211    5.1963536  
  27 O       3.3134261    3.2823837    2.6559239 *  3.3795211    2.5247294 *
  28 N       2.6997527 *  2.6930593 *  4.1358471    4.6355731    4.9496138  
  29 H       2.5955355 *  2.7543421 *  4.0314702    4.2653067    2.8708355 *
  30 H       2.7994064 *  3.0606970    2.6151720 *  3.8129672    4.4383614  
  31 H       0.0000000    4.5533172    4.9343068    5.9191102    3.0495676  
  32 H       4.5533172    0.0000000    3.0586419    2.4807417 *  5.3194349  
  33 H       4.9343068    3.0586419    0.0000000    1.7889522 *  5.1048722  
  34 H       5.9191102    2.4807417 *  1.7889522 *  0.0000000    5.8714157  
  35 H       3.0495676    5.3194349    5.1048722    5.8714157    0.0000000  
  36 H       3.2411820    7.0277851    6.3826671    7.5985271    2.4397202 *
  37 H       2.4824897 *  6.8303139    6.8861009    7.9624866    3.0545897  
  38 H       5.0863352    4.5781006    6.3683068    6.6094542    7.7137528  
  39 H       4.0330730    4.8775976    6.7064106    7.0938855    6.7681789  
  40 H       4.7135480    5.6984818    6.9301196    7.5707770    7.6723431  

               36 H         37 H         38 H         39 H         40 H     

   1 C       4.2135210    4.1336489    5.3010539    4.7601758    5.5995210  
   2 C       5.7456939    6.2250579    6.8294667    6.7610027    7.4948699  
   3 C       5.3061246    5.0938173    4.1591226    4.0662982    4.6032982  
   4 C       2.8384810 *  2.6857805 *  5.7678547    4.8977309    5.5923005  
   5 C       6.5841975    6.5274621    4.5677068    4.9293715    5.4550533  
   6 C       2.1622382 *  2.1500768 *  6.9901606    5.8987034    6.8106077  
   7 C       1.0935317 *  1.0989575 *  7.8118903    6.5667340    7.3038122  
   8 C       7.3944032    6.3218643    1.0972257 *  1.0949353 *  1.0906995 *
   9 H       6.4513838    6.8266234    7.7846807    7.5324515    8.6114534  
  10 H       8.4311570    8.3448324    4.6180265    5.6309072    5.7822258  
  11 H       3.0939283    3.8938366    6.8486902    6.3600559    6.6985433  
  12 H       3.3736617    2.7138238 *  7.6324609    6.2710585    7.5143352  
  13 H       2.5056961 *  2.3527609 *  9.4420895    8.0045581    8.8580620  
  14 H       6.2750267    5.4588387    2.7978705 *  2.3882012 *  3.5772231  
  15 O       6.5803926    7.4698136    9.2261488    9.0622218    9.8797399  
  16 O       6.2780713    5.7153156    3.0285049    3.2501573    2.5903173 *
  17 C       6.5587749    6.9036707    6.0803282    6.3822579    6.8538106  
  18 O       6.4244400    6.6676050    6.8768494    6.7513844    7.7594540  
  19 O       7.5647927    7.4364458    4.0809694    4.9299448    5.0454623  
  20 O       2.6427715 *  3.1290935    6.4017878    5.7522224    6.0461321  
  21 O       6.1121600    7.1553384    8.6477127    8.6677160    9.0828626  
  22 O       3.3738978    2.7039568 *  6.7498157    5.4908118    6.7225626  
  23 O       2.1567729 *  2.1324998 *  8.8770965    7.5156067    8.4482497  
  24 C       6.0620453    6.9122055    8.3123649    8.2336108    8.9016296  
  25 C       6.3406588    5.5628101    2.1579339 *  2.1841798 *  2.1439514 *
  26 H       6.5537986    7.7589467    9.6452251    9.6415654   10.0566228  
  27 O       4.3039488    4.7997115    6.5794939    6.2070823    6.9245972  
  28 N       5.8273924    5.1556214    2.8554814 *  2.6111313 *  3.3242029  
  29 H       4.6777433    4.3739468    5.3555721    4.6815616    5.8294345  
  30 H       5.1304599    5.0761239    4.4446934    4.4443327    4.5820948  
  31 H       3.2411820    2.4824897 *  5.0863352    4.0330730    4.7135480  
  32 H       7.0277851    6.8303139    4.5781006    4.8775976    5.6984818  
  33 H       6.3826671    6.8861009    6.3683068    6.7064106    6.9301196  
  34 H       7.5985271    7.9624866    6.6094542    7.0938855    7.5707770  
  35 H       2.4397202 *  3.0545897    7.7137528    6.7681789    7.6723431  
  36 H       0.0000000    1.7904952 *  8.3010921    7.1919207    7.7230756  
  37 H       1.7904952 *  0.0000000    7.2964819    5.9427793    6.6049461  
  38 H       8.3010921    7.2964819    0.0000000    1.7805577 *  1.7777160 *
  39 H       7.1919207    5.9427793    1.7805577 *  0.0000000    1.7889982 *
  40 H       7.7230756    6.6049461    1.7777160 *  1.7889982 *  0.0000000  

  * ... LESS THAN  3.000


     ATOMIC BASIS SET
     ----------------
 THE CONTRACTED PRIMITIVE FUNCTIONS HAVE BEEN UNNORMALIZED
 THE CONTRACTED BASIS FUNCTIONS ARE NOW NORMALIZED TO UNITY

  SHELL TYPE  PRIMITIVE        EXPONENT          CONTRACTION COEFFICIENT(S)

 C         

      1   S       1           172.2560000    0.061766907377
      1   S       2            25.9109000    0.358794042852
      1   S       3             5.5333500    0.700713083689

      2   L       4             3.6649800   -0.395895162119    0.236459946619
      2   L       5             0.7705450    1.215834355681    0.860618805716

      3   L       6             0.1958570    1.000000000000    1.000000000000

 C         

      4   S       7           172.2560000    0.061766907377
      4   S       8            25.9109000    0.358794042852
      4   S       9             5.5333500    0.700713083689

      5   L      10             3.6649800   -0.395895162119    0.236459946619
      5   L      11             0.7705450    1.215834355681    0.860618805716

      6   L      12             0.1958570    1.000000000000    1.000000000000

 C         

      7   S      13           172.2560000    0.061766907377
      7   S      14            25.9109000    0.358794042852
      7   S      15             5.5333500    0.700713083689

      8   L      16             3.6649800   -0.395895162119    0.236459946619
      8   L      17             0.7705450    1.215834355681    0.860618805716

      9   L      18             0.1958570    1.000000000000    1.000000000000

 C         

     10   S      19           172.2560000    0.061766907377
     10   S      20            25.9109000    0.358794042852
     10   S      21             5.5333500    0.700713083689

     11   L      22             3.6649800   -0.395895162119    0.236459946619
     11   L      23             0.7705450    1.215834355681    0.860618805716

     12   L      24             0.1958570    1.000000000000    1.000000000000

 C         

     13   S      25           172.2560000    0.061766907377
     13   S      26            25.9109000    0.358794042852
     13   S      27             5.5333500    0.700713083689

     14   L      28             3.6649800   -0.395895162119    0.236459946619
     14   L      29             0.7705450    1.215834355681    0.860618805716

     15   L      30             0.1958570    1.000000000000    1.000000000000

 C         

     16   S      31           172.2560000    0.061766907377
     16   S      32            25.9109000    0.358794042852
     16   S      33             5.5333500    0.700713083689

     17   L      34             3.6649800   -0.395895162119    0.236459946619
     17   L      35             0.7705450    1.215834355681    0.860618805716

     18   L      36             0.1958570    1.000000000000    1.000000000000

 C         

     19   S      37           172.2560000    0.061766907377
     19   S      38            25.9109000    0.358794042852
     19   S      39             5.5333500    0.700713083689

     20   L      40             3.6649800   -0.395895162119    0.236459946619
     20   L      41             0.7705450    1.215834355681    0.860618805716

     21   L      42             0.1958570    1.000000000000    1.000000000000

 C         

     22   S      43           172.2560000    0.061766907377
     22   S      44            25.9109000    0.358794042852
     22   S      45             5.5333500    0.700713083689

     23   L      46             3.6649800   -0.395895162119    0.236459946619
     23   L      47             0.7705450    1.215834355681    0.860618805716

     24   L      48             0.1958570    1.000000000000    1.000000000000

 H         

     25   S      49             5.4471780    0.156284978695
     25   S      50             0.8245472    0.904690876670

     26   S      51             0.1831916    1.000000000000

 H         

     27   S      52             5.4471780    0.156284978695
     27   S      53             0.8245472    0.904690876670

     28   S      54             0.1831916    1.000000000000

 H         

     29   S      55             5.4471780    0.156284978695
     29   S      56             0.8245472    0.904690876670

     30   S      57             0.1831916    1.000000000000

 H         

     31   S      58             5.4471780    0.156284978695
     31   S      59             0.8245472    0.904690876670

     32   S      60             0.1831916    1.000000000000

 H         

     33   S      61             5.4471780    0.156284978695
     33   S      62             0.8245472    0.904690876670

     34   S      63             0.1831916    1.000000000000

 H         

     35   S      64             5.4471780    0.156284978695
     35   S      65             0.8245472    0.904690876670

     36   S      66             0.1831916    1.000000000000

 O         

     37   S      67           322.0370000    0.059239393389
     37   S      68            48.4308000    0.351499960776
     37   S      69            10.4206000    0.707657921031

     38   L      70             7.4029400   -0.404453583190    0.244586106967
     38   L      71             1.5762000    1.221561761397    0.853955373466

     39   L      72             0.3736840    1.000000000000    1.000000000000

 O         

     40   S      73           322.0370000    0.059239393389
     40   S      74            48.4308000    0.351499960776
     40   S      75            10.4206000    0.707657921031

     41   L      76             7.4029400   -0.404453583190    0.244586106967
     41   L      77             1.5762000    1.221561761397    0.853955373466

     42   L      78             0.3736840    1.000000000000    1.000000000000

 C         

     43   S      79           172.2560000    0.061766907377
     43   S      80            25.9109000    0.358794042852
     43   S      81             5.5333500    0.700713083689

     44   L      82             3.6649800   -0.395895162119    0.236459946619
     44   L      83             0.7705450    1.215834355681    0.860618805716

     45   L      84             0.1958570    1.000000000000    1.000000000000

 O         

     46   S      85           322.0370000    0.059239393389
     46   S      86            48.4308000    0.351499960776
     46   S      87            10.4206000    0.707657921031

     47   L      88             7.4029400   -0.404453583190    0.244586106967
     47   L      89             1.5762000    1.221561761397    0.853955373466

     48   L      90             0.3736840    1.000000000000    1.000000000000

 O         

     49   S      91           322.0370000    0.059239393389
     49   S      92            48.4308000    0.351499960776
     49   S      93            10.4206000    0.707657921031

     50   L      94             7.4029400   -0.404453583190    0.244586106967
     50   L      95             1.5762000    1.221561761397    0.853955373466

     51   L      96             0.3736840    1.000000000000    1.000000000000

 O         

     52   S      97           322.0370000    0.059239393389
     52   S      98            48.4308000    0.351499960776
     52   S      99            10.4206000    0.707657921031

     53   L     100             7.4029400   -0.404453583190    0.244586106967
     53   L     101             1.5762000    1.221561761397    0.853955373466

     54   L     102             0.3736840    1.000000000000    1.000000000000

 O         

     55   S     103           322.0370000    0.059239393389
     55   S     104            48.4308000    0.351499960776
     55   S     105            10.4206000    0.707657921031

     56   L     106             7.4029400   -0.404453583190    0.244586106967
     56   L     107             1.5762000    1.221561761397    0.853955373466

     57   L     108             0.3736840    1.000000000000    1.000000000000

 O         

     58   S     109           322.0370000    0.059239393389
     58   S     110            48.4308000    0.351499960776
     58   S     111            10.4206000    0.707657921031

     59   L     112             7.4029400   -0.404453583190    0.244586106967
     59   L     113             1.5762000    1.221561761397    0.853955373466

     60   L     114             0.3736840    1.000000000000    1.000000000000

 O         

     61   S     115           322.0370000    0.059239393389
     61   S     116            48.4308000    0.351499960776
     61   S     117            10.4206000    0.707657921031

     62   L     118             7.4029400   -0.404453583190    0.244586106967
     62   L     119             1.5762000    1.221561761397    0.853955373466

     63   L     120             0.3736840    1.000000000000    1.000000000000

 C         

     64   S     121           172.2560000    0.061766907377
     64   S     122            25.9109000    0.358794042852
     64   S     123             5.5333500    0.700713083689

     65   L     124             3.6649800   -0.395895162119    0.236459946619
     65   L     125             0.7705450    1.215834355681    0.860618805716

     66   L     126             0.1958570    1.000000000000    1.000000000000

 C         

     67   S     127           172.2560000    0.061766907377
     67   S     128            25.9109000    0.358794042852
     67   S     129             5.5333500    0.700713083689

     68   L     130             3.6649800   -0.395895162119    0.236459946619
     68   L     131             0.7705450    1.215834355681    0.860618805716

     69   L     132             0.1958570    1.000000000000    1.000000000000

 H         

     70   S     133             5.4471780    0.156284978695
     70   S     134             0.8245472    0.904690876670

     71   S     135             0.1831916    1.000000000000

 O         

     72   S     136           322.0370000    0.059239393389
     72   S     137            48.4308000    0.351499960776
     72   S     138            10.4206000    0.707657921031

     73   L     139             7.4029400   -0.404453583190    0.244586106967
     73   L     140             1.5762000    1.221561761397    0.853955373466

     74   L     141             0.3736840    1.000000000000    1.000000000000

 N         

     75   S     142           242.7660000    0.059865700508
     75   S     143            36.4851000    0.352955002994
     75   S     144             7.8144900    0.706513005993

     76   L     145             5.4252200   -0.413300077430    0.237972016222
     76   L     146             1.1491500    1.224417266851    0.858953058551

     77   L     147             0.2832050    1.000000000000    1.000000000000

 H         

     78   S     148             5.4471780    0.156284978695
     78   S     149             0.8245472    0.904690876670

     79   S     150             0.1831916    1.000000000000

 H         

     80   S     151             5.4471780    0.156284978695
     80   S     152             0.8245472    0.904690876670

     81   S     153             0.1831916    1.000000000000

 H         

     82   S     154             5.4471780    0.156284978695
     82   S     155             0.8245472    0.904690876670

     83   S     156             0.1831916    1.000000000000

 H         

     84   S     157             5.4471780    0.156284978695
     84   S     158             0.8245472    0.904690876670

     85   S     159             0.1831916    1.000000000000

 H         

     86   S     160             5.4471780    0.156284978695
     86   S     161             0.8245472    0.904690876670

     87   S     162             0.1831916    1.000000000000

 H         

     88   S     163             5.4471780    0.156284978695
     88   S     164             0.8245472    0.904690876670

     89   S     165             0.1831916    1.000000000000

 H         

     90   S     166             5.4471780    0.156284978695
     90   S     167             0.8245472    0.904690876670

     91   S     168             0.1831916    1.000000000000

 H         

     92   S     169             5.4471780    0.156284978695
     92   S     170             0.8245472    0.904690876670

     93   S     171             0.1831916    1.000000000000

 H         

     94   S     172             5.4471780    0.156284978695
     94   S     173             0.8245472    0.904690876670

     95   S     174             0.1831916    1.000000000000

 H         

     96   S     175             5.4471780    0.156284978695
     96   S     176             0.8245472    0.904690876670

     97   S     177             0.1831916    1.000000000000

 H         

     98   S     178             5.4471780    0.156284978695
     98   S     179             0.8245472    0.904690876670

     99   S     180             0.1831916    1.000000000000

 H         

    100   S     181             5.4471780    0.156284978695
    100   S     182             0.8245472    0.904690876670

    101   S     183             0.1831916    1.000000000000

 TOTAL NUMBER OF BASIS SET SHELLS             =  101
 NUMBER OF CARTESIAN GAUSSIAN BASIS FUNCTIONS =  227
 NUMBER OF ELECTRONS                          =  164
 CHARGE OF MOLECULE                           =    0
 SPIN MULTIPLICITY                            =    1
 NUMBER OF OCCUPIED ORBITALS (ALPHA)          =   82
 NUMBER OF OCCUPIED ORBITALS (BETA )          =   82
 TOTAL NUMBER OF ATOMS                        =   40
 THE NUCLEAR REPULSION ENERGY IS     1940.8619847971

     $CONTRL OPTIONS
     ---------------
 SCFTYP=RHF          RUNTYP=ENERGY       EXETYP=RUN     
 MPLEVL=       0     CITYP =NONE         CCTYP =NONE         VBTYP =NONE    
 DFTTYP=NONE         TDDFT =NONE    
 MULT  =       1     ICHARG=       0     NZVAR =       0     COORD =UNIQUE  
 PP    =NONE         RELWFN=NONE         LOCAL =NONE         NUMGRD=       F
 ISPHER=      -1     NOSYM =       0     MAXIT =      60     UNITS =ANGS    
 PLTORB=       F     MOLPLT=       F     AIMPAC=       F     FRIEND=        
 NPRINT=       7     IREST =       0     GEOM  =INPUT   
 NORMF =       0     NORMP =       0     ITOL  =      20     ICUT  =       9
 INTTYP=BEST         GRDTYP=BEST         QMTTOL= 1.0E-06

     $SYSTEM OPTIONS
     ---------------
  REPLICATED MEMORY=    30000000 WORDS (ON EVERY NODE).
 DISTRIBUTED MEMDDI=        1000 MILLION WORDS IN AGGREGATE,
 MEMDDI DISTRIBUTED OVER   6 PROCESSORS IS   166666666 WORDS/PROCESSOR.
 TOTAL MEMORY REQUESTED ON EACH PROCESSOR=   196666666 WORDS.
 TIMLIM=      525600.00 MINUTES, OR     365.0 DAYS.
 PARALL= T  BALTYP=  DLB     KDIAG=    0  COREFL= F
 MXSEQ2=     300 MXSEQ3=     150  mem10=         0

          ----------------
          PROPERTIES INPUT
          ----------------

     MOMENTS            FIELD           POTENTIAL          DENSITY
 IEMOM =       1   IEFLD =       0   IEPOT =       0   IEDEN =       0
 WHERE =COMASS     WHERE =NUCLEI     WHERE =NUCLEI     WHERE =NUCLEI  
 OUTPUT=BOTH       OUTPUT=BOTH       OUTPUT=BOTH       OUTPUT=BOTH    
 IEMINT=       0   IEFINT=       0                     IEDINT=       0
                                                       MORB  =       0
          EXTRAPOLATION IN EFFECT
          SOSCF IN EFFECT
 ORBITAL PRINTING OPTION: NPREO=     1   227     2     1

     -------------------------------
     INTEGRAL TRANSFORMATION OPTIONS
     -------------------------------
     NWORD  =            0
     CUTOFF = 1.0E-09     MPTRAN =       0
     DIRTRF =       T     AOINTS =DUP     

          ----------------------
          INTEGRAL INPUT OPTIONS
          ----------------------
 NOPK  =       1 NORDER=       0 SCHWRZ=       T

     ------------------------------------------
     THE POINT GROUP IS C1 , NAXIS= 0, ORDER= 1
     ------------------------------------------

     DIMENSIONS OF THE SYMMETRY SUBSPACES ARE
 A   =  227

 ..... DONE SETTING UP THE RUN .....
 CPU     0: STEP CPU TIME=     0.03 TOTAL CPU TIME=          0.0 (      0.0 MIN)
 TOTAL WALL CLOCK TIME=          0.0 SECONDS, CPU UTILIZATION IS    60.00%

          ********************
          1 ELECTRON INTEGRALS
          ********************
 ...... END OF ONE-ELECTRON INTEGRALS ......
 CPU     0: STEP CPU TIME=     0.02 TOTAL CPU TIME=          0.0 (      0.0 MIN)
 TOTAL WALL CLOCK TIME=          0.1 SECONDS, CPU UTILIZATION IS    62.50%

          -------------
          GUESS OPTIONS
          -------------
          GUESS =HUCKEL            NORB  =       0          NORDER=       0
          MIX   =       F          PRTMO =       F          PUNMO =       F
          TOLZ  = 1.0E-08          TOLE  = 1.0E-05
          SYMDEN=       F          PURIFY=       F

 INITIAL GUESS ORBITALS GENERATED BY HUCKEL   ROUTINE.
 HUCKEL GUESS REQUIRES    464965 WORDS.

 SYMMETRIES FOR INITIAL GUESS ORBITALS FOLLOW.   BOTH SET(S).
    82 ORBITALS ARE OCCUPIED (   21 CORE ORBITALS).
    22=A       23=A       24=A       25=A       26=A       27=A       28=A   
    29=A       30=A       31=A       32=A       33=A       34=A       35=A   
    36=A       37=A       38=A       39=A       40=A       41=A       42=A   
    43=A       44=A       45=A       46=A       47=A       48=A       49=A   
    50=A       51=A       52=A       53=A       54=A       55=A       56=A   
    57=A       58=A       59=A       60=A       61=A       62=A       63=A   
    64=A       65=A       66=A       67=A       68=A       69=A       70=A   
    71=A       72=A       73=A       74=A       75=A       76=A       77=A   
    78=A       79=A       80=A       81=A       82=A       83=A       84=A   
    85=A       86=A       87=A       88=A       89=A       90=A       91=A   
    92=A   
 ...... END OF INITIAL ORBITAL SELECTION ......
 CPU     0: STEP CPU TIME=     0.08 TOTAL CPU TIME=          0.1 (      0.0 MIN)
 TOTAL WALL CLOCK TIME=          0.2 SECONDS, CPU UTILIZATION IS    56.52%

                    ----------------------
                    AO INTEGRAL TECHNOLOGY
                    ----------------------
     S,P,L SHELL ROTATED AXIS INTEGRALS, REPROGRAMMED BY
        KAZUYA ISHIMURA (IMS) AND JOSE SIERRA (SYNSTAR).
     S,P,D,L SHELL ROTATED AXIS INTEGRALS PROGRAMMED BY
        KAZUYA ISHIMURA (INSTITUTE FOR MOLECULAR SCIENCE).
     S,P,D,F,G SHELL TO TOTAL QUARTET ANGULAR MOMENTUM SUM 5,
        ERIC PROGRAM BY GRAHAM FLETCHER (ELORET AND NASA ADVANCED
        SUPERCOMPUTING DIVISION, AMES RESEARCH CENTER).
     S,P,D,F,G,L SHELL GENERAL RYS QUADRATURE PROGRAMMED BY
        MICHEL DUPUIS (PACIFIC NORTHWEST NATIONAL LABORATORY).

          --------------------
          2 ELECTRON INTEGRALS
          --------------------

 DIRECT SCF METHOD SKIPS INTEGRAL STORAGE ON DISK.
 DIRECT TRANSFORMATION SKIPS AO INTEGRAL STORAGE ON DISK.
  ...... END OF TWO-ELECTRON INTEGRALS .....
 CPU     0: STEP CPU TIME=     0.02 TOTAL CPU TIME=          0.2 (      0.0 MIN)
 TOTAL WALL CLOCK TIME=          0.2 SECONDS, CPU UTILIZATION IS    60.00%

          --------------------------
                 RHF SCF CALCULATION
          --------------------------

     NUCLEAR ENERGY =      1940.8619847971
     MAXIT =   60     NPUNCH=    2
     EXTRAP=T  DAMP=F  SHIFT=F  RSTRCT=F  DIIS=F  DEM=F  SOSCF=T
     DENSITY MATRIX CONV=  2.00E-05
     SOSCF WILL OPTIMIZE   11890 ORBITAL ROTATIONS, SOGTOL=   0.250
     MEMORY REQUIRED FOR RHF ITERS=    466099 WORDS.

 DIRECT SCF CALCULATION, SCHWRZ=T   FDIFF=T,  DIRTHR=  0.00E+00 NITDIR=10
 SCHWARZ INEQUALITY OVERHEAD:     20839 INTEGRALS, T=        0.00

                                                                                   NONZERO     BLOCKS
 ITER EX DEM     TOTAL ENERGY        E CHANGE  DENSITY CHANGE     ORB. GRAD      INTEGRALS    SKIPPED
   1  0  0    -1146.1983549587 -1146.1983549587   0.917652726   0.000000000       92998813   10165037
          ---------------START SECOND ORDER SCF---------------
   2  1  0    -1149.0713501709    -2.8729952122   0.200546708   0.123526718       92906738   10219423
   3  2  0    -1149.2032749655    -0.1319247946   0.155505060   0.104624020       91592355   10432838
   4  3  0    -1149.3991797718    -0.1959048063   0.052527560   0.014254960       89585603   10615167
   5  4  0    -1149.4034878750    -0.0043081032   0.006118228   0.002367316       87003288   10780148
   6  5  0    -1149.4038438665    -0.0003559915   0.001931875   0.001292316       81522462   11017248
   7  6  0    -1149.4038956454    -0.0000517789   0.000929733   0.000626671       76538240   11211651
   8  7  0    -1149.4039037528    -0.0000081074   0.000414899   0.000291492       70973566   11405015
   9  8  0    -1149.4039049027    -0.0000011500   0.000189996   0.000058154       66133027   11564355
  10  9  0    -1149.4039050698    -0.0000001671   0.000071618   0.000017422       59349674   11773403
  11 10  0    -1149.4039050909    -0.0000000211   0.000014753   0.000007592       54650544   11911295
  12 11  0    -1149.4039050944    -0.0000000035   0.000003883   0.000002604       49079610   12083735

          -----------------
          DENSITY CONVERGED
          -----------------
     TIME TO FORM FOCK OPERATORS=      16.1 SECONDS (       1.3 SEC/ITER)
     FOCK TIME ON FIRST ITERATION=       1.7, LAST ITERATION=       0.9
     TIME TO SOLVE SCF EQUATIONS=       0.3 SECONDS (       0.0 SEC/ITER)

 FINAL RHF ENERGY IS    -1149.4039050944 AFTER  12 ITERATIONS

          ------------
          EIGENVECTORS
          ------------

                      1          2          3          4          5
                  -20.5407   -20.4944   -20.4912   -20.4880   -20.4650
                     A          A          A          A          A   
    1  C  1  S    0.000057  -0.000053  -0.000849   0.000150  -0.000044
    2  C  1  S    0.000237  -0.000262  -0.003516   0.001060  -0.000269
    3  C  1  X    0.000011   0.000061  -0.000652   0.000021  -0.000209
    4  C  1  Y    0.000086   0.000111  -0.001323  -0.000393   0.000059
    5  C  1  Z   -0.000066   0.000156  -0.000287   0.000033  -0.000079
    6  C  1  S   -0.001239   0.001032   0.017790  -0.002855   0.002508
    7  C  1  X    0.000483   0.000241  -0.006165  -0.001907   0.001117
    8  C  1  Y    0.000464  -0.001165  -0.005942   0.002379   0.000422
    9  C  1  Z   -0.000544  -0.000357   0.008356  -0.000166   0.001232
   10  C  2  S   -0.000036   0.000007  -0.001040  -0.001072  -0.000004
   11  C  2  S   -0.000420  -0.000253  -0.004476  -0.004784  -0.000032
   12  C  2  X    0.000796  -0.000482  -0.000344  -0.000087   0.000013
   13  C  2  Y    0.000501  -0.000065   0.001190   0.000088  -0.000023
   14  C  2  Z    0.000402  -0.000912  -0.000207  -0.000784   0.000008
   15  C  2  S    0.001466   0.004776   0.022415   0.025596   0.000135
   16  C  2  X   -0.006573   0.004703  -0.004135  -0.003332   0.000033
   17  C  2  Y   -0.002280   0.001127   0.011050  -0.002555   0.000050
   18  C  2  Z   -0.008294   0.014817   0.003513  -0.020243   0.000032
   19  C  3  S   -0.000069   0.000107   0.000155  -0.000205   0.000030
   20  C  3  S   -0.000328   0.000528   0.000387  -0.000988   0.000124
   21  C  3  X   -0.000008  -0.000030   0.000563  -0.000211   0.000116
   22  C  3  Y   -0.000074   0.000100  -0.000182  -0.000273  -0.000157
   23  C  3  Z   -0.000004  -0.000068   0.000289  -0.000052  -0.000057
   24  C  3  S    0.002496  -0.003898  -0.004477   0.007889  -0.001711
   25  C  3  X    0.000456  -0.000366   0.001734   0.000379   0.000441
   26  C  3  Y   -0.000925   0.001525   0.002230  -0.001633   0.000866
   27  C  3  Z    0.000040   0.000951  -0.003359  -0.001247   0.000463
   28  C  4  S   -0.000016   0.000004   0.000228   0.000041  -0.000152
   29  C  4  S   -0.000074   0.000026   0.000918   0.000314  -0.000937
   30  C  4  X    0.000016  -0.000009  -0.000283  -0.000088   0.000348
   31  C  4  Y   -0.000033  -0.000033   0.000487  -0.000142  -0.000387
   32  C  4  Z   -0.000009  -0.000014   0.000489  -0.000022  -0.000246
   33  C  4  S    0.000393   0.000435  -0.006997  -0.001528   0.003400
   34  C  4  X    0.000110   0.000073   0.000479   0.000826  -0.003481
   35  C  4  Y   -0.000341   0.000065   0.005298   0.000647   0.003382
   36  C  4  Z    0.000129  -0.000313  -0.002523   0.000690   0.001048
   37  C  5  S    0.000109  -0.000194   0.000011   0.000198  -0.000033
   38  C  5  S    0.000569  -0.001085   0.000423   0.001387  -0.000179
   39  C  5  X    0.000133  -0.000065  -0.000561  -0.000264  -0.000003
   40  C  5  Y    0.000133  -0.000117   0.000058   0.000212   0.000023
   41  C  5  Z    0.000219  -0.000179  -0.000603   0.000333   0.000011
   42  C  5  S   -0.003939   0.006452   0.001556  -0.004745   0.001159
   43  C  5  X    0.000588  -0.001804   0.002160   0.001705  -0.000274
   44  C  5  Y   -0.000409   0.000615  -0.000438  -0.003928   0.000468
   45  C  5  Z   -0.002743   0.003093   0.005557  -0.002675   0.000157
   46  C  6  S   -0.000002  -0.000004   0.000075  -0.000026   0.000328
   47  C  6  S   -0.000026  -0.000026   0.000639  -0.000135   0.001468
   48  C  6  X   -0.000061   0.000057   0.000314   0.000058   0.000539
   49  C  6  Y    0.000054  -0.000036  -0.000078  -0.000022  -0.000216
   50  C  6  Z    0.000013  -0.000001  -0.000176  -0.000064  -0.000048
   51  C  6  S   -0.000099   0.000191  -0.000835   0.001165  -0.010804
   52  C  6  X    0.000319  -0.000342  -0.001361   0.000246   0.000059
   53  C  6  Y   -0.000181   0.000055  -0.000590  -0.000037  -0.004374
   54  C  6  Z   -0.000161   0.000059   0.002618   0.000591  -0.001732
   55  C  7  S   -0.000008   0.000003   0.000020   0.000019  -0.000853
   56  C  7  S   -0.000048   0.000017   0.000146   0.000110  -0.003407
   57  C  7  X   -0.000002  -0.000004  -0.000011  -0.000006  -0.001249
   58  C  7  Y   -0.000003   0.000013  -0.000130  -0.000001   0.000545
   59  C  7  Z   -0.000001   0.000000   0.000025   0.000016  -0.000620
   60  C  7  S    0.000292  -0.000178  -0.000708  -0.000576   0.020012
   61  C  7  X    0.000042   0.000019   0.000156  -0.000127  -0.005644
   62  C  7  Y   -0.000128   0.000053   0.001317   0.000283   0.000091
   63  C  7  Z   -0.000082   0.000075  -0.000409  -0.000007  -0.007801
   64  C  8  S    0.000001   0.000002  -0.000003   0.000006   0.000003
   65  C  8  S    0.000009   0.000006  -0.000035   0.000051   0.000020
   66  C  8  X   -0.000008   0.000013   0.000019  -0.000024  -0.000003
   67  C  8  Y   -0.000006   0.000012   0.000015  -0.000015   0.000004
   68  C  8  Z    0.000002  -0.000006  -0.000003  -0.000000  -0.000003
   69  C  8  S    0.000018  -0.000148   0.000009  -0.000092  -0.000114
   70  C  8  X   -0.000011   0.000065   0.000020   0.000059   0.000069
   71  C  8  Y    0.000003   0.000017   0.000092   0.000037   0.000009
   72  C  8  Z   -0.000015  -0.000001   0.000034  -0.000019  -0.000010
   73  H  9  S   -0.000090  -0.000640   0.000583   0.003325  -0.000013
   74  H  9  S    0.000775   0.001503  -0.000670   0.004675   0.000020
   75  H 10  S    0.000009  -0.000029   0.000029   0.000236  -0.000012
   76  H 10  S    0.000148  -0.000058  -0.000538  -0.000315   0.000027
   77  H 11  S    0.000059  -0.000091  -0.000505   0.000015  -0.000110
   78  H 11  S   -0.000245   0.000380   0.002114  -0.000739  -0.000017
   79  H 12  S   -0.000001   0.000008  -0.000107  -0.000039  -0.000546
   80  H 12  S   -0.000008   0.000004   0.000280   0.000020   0.002477
   81  H 13  S    0.000008  -0.000013   0.000067   0.000021   0.002913
   82  H 13  S    0.000012  -0.000004  -0.000085  -0.000018   0.005096
   83  H 14  S    0.000040  -0.000104  -0.000205   0.000039  -0.000016
   84  H 14  S   -0.000021  -0.000010   0.000385  -0.000115  -0.000048
   85  O 15  S   -0.003555   0.983405  -0.014746   0.025471   0.000025
   86  O 15  S   -0.000995   0.100671  -0.001314   0.001721  -0.000000
   87  O 15  X   -0.000360   0.003486  -0.000007   0.000010  -0.000001
   88  O 15  Y   -0.000351   0.001810  -0.000074   0.000141  -0.000003
   89  O 15  Z    0.000597   0.002626   0.000034  -0.000030   0.000000
   90  O 15  S    0.004451  -0.059721   0.000164   0.003942   0.000007
   91  O 15  X    0.002268  -0.012374  -0.000043   0.001395   0.000004
   92  O 15  Y    0.002295  -0.006420   0.000582   0.000445   0.000013
   93  O 15  Z   -0.003721  -0.009178  -0.000294   0.000467  -0.000002
   94  O 16  S    0.000020  -0.000063  -0.000058   0.000065   0.000046
   95  O 16  S    0.000014  -0.000030  -0.000027   0.000029   0.000012
   96  O 16  X    0.000008  -0.000010  -0.000002   0.000008  -0.000012
   97  O 16  Y    0.000000   0.000004  -0.000028  -0.000001  -0.000005
   98  O 16  Z   -0.000005   0.000004   0.000005  -0.000004  -0.000001
   99  O 16  S   -0.000057   0.000119   0.000122  -0.000098   0.000014
  100  O 16  X   -0.000032   0.000037   0.000036  -0.000041   0.000035
  101  O 16  Y   -0.000009  -0.000009   0.000138  -0.000023   0.000006
  102  O 16  Z    0.000028  -0.000033  -0.000036   0.000037  -0.000002
  103  C 17  S   -0.000056   0.000092   0.000155   0.000115   0.000006
  104  C 17  S   -0.000127   0.000246   0.000313   0.000331   0.000022
  105  C 17  X   -0.000440   0.000687   0.000983   0.000608  -0.000015
  106  C 17  Y   -0.000446   0.000592  -0.000354  -0.000480  -0.000019
  107  C 17  Z   -0.000242   0.000201   0.000323   0.000023   0.000003
  108  C 17  S    0.005011  -0.007204  -0.004560  -0.001401  -0.000237
  109  C 17  X   -0.000761   0.000928  -0.000616  -0.000724   0.000022
  110  C 17  Y    0.004785  -0.006660  -0.002895   0.003943  -0.000101
  111  C 17  Z    0.001120  -0.002127  -0.002264   0.006415   0.000040
  112  O 18  S    0.002055  -0.024871   0.053897   0.981904   0.000154
  113  O 18  S    0.000852  -0.003433   0.006400   0.099358   0.000003
  114  O 18  X    0.000090  -0.000170  -0.000196  -0.002423   0.000003
  115  O 18  Y    0.000275  -0.000292   0.000528  -0.000141  -0.000008
  116  O 18  Z   -0.000112  -0.000242   0.000377   0.003188  -0.000003
  117  O 18  S   -0.004272   0.006809  -0.005718  -0.052026   0.000011
  118  O 18  X    0.000064   0.000584   0.000760   0.004733  -0.000010
  119  O 18  Y   -0.000912   0.001132  -0.002877  -0.000142   0.000017
  120  O 18  Z   -0.001082   0.002867  -0.002876  -0.012087   0.000009
  121  O 19  S   -0.000534   0.001046   0.003399   0.000103   0.000704
  122  O 19  S   -0.000273   0.000315   0.000900  -0.000017   0.000101
  123  O 19  X    0.000077  -0.000077  -0.000181  -0.000004  -0.000008
  124  O 19  Y   -0.000023   0.000014   0.000073  -0.000093   0.000012
  125  O 19  Z   -0.000050   0.000068   0.000058  -0.000093   0.000002
  126  O 19  S    0.000969  -0.000944  -0.002557   0.000307  -0.000138
  127  O 19  X   -0.000686   0.000732   0.001477  -0.000266   0.000074
  128  O 19  Y    0.000160  -0.000140  -0.000386   0.000573  -0.000069
  129  O 19  Z    0.000179  -0.000266  -0.000157   0.000414  -0.000004
  130  O 20  S   -0.000061   0.000140   0.000225  -0.000681   0.000710
  131  O 20  S   -0.000023   0.000041  -0.000069  -0.000216   0.000206
  132  O 20  X   -0.000006  -0.000001   0.000039   0.000016   0.000046
  133  O 20  Y    0.000020  -0.000024  -0.000250   0.000074   0.000051
  134  O 20  Z   -0.000014   0.000025   0.000080  -0.000034  -0.000032
  135  O 20  S    0.000001  -0.000079   0.001413   0.000529  -0.000850
  136  O 20  X    0.000002   0.000012  -0.000034  -0.000135   0.000087
  137  O 20  Y   -0.000088   0.000108   0.001041  -0.000395  -0.000526
  138  O 20  Z    0.000100  -0.000109  -0.001345   0.000026   0.000463
  139  O 21  S    0.983655   0.003438  -0.000878  -0.001744  -0.000002
  140  O 21  S    0.099510  -0.000371   0.000023   0.000381   0.000000
  141  O 21  X   -0.002313  -0.000740   0.000173  -0.000232   0.000001
  142  O 21  Y   -0.000877  -0.000530   0.000060  -0.000199  -0.000002
  143  O 21  Z   -0.003210   0.000105  -0.000152   0.000027  -0.000001
  144  O 21  S   -0.051779   0.005194   0.000272  -0.003412  -0.000001
  145  O 21  X    0.004704   0.004323  -0.000508   0.000955  -0.000002
  146  O 21  Y    0.000634   0.003285   0.000065   0.000486   0.000008
  147  O 21  Z    0.011590  -0.001442   0.000283   0.000916   0.000001
  148  O 22  S    0.000031  -0.000018  -0.001366   0.000010   0.002781
  149  O 22  S    0.000018  -0.000006  -0.000511  -0.000002   0.000534
  150  O 22  X    0.000003  -0.000007   0.000014   0.000029  -0.000148
  151  O 22  Y   -0.000005   0.000008   0.000024  -0.000028   0.000176
  152  O 22  Z    0.000006  -0.000002  -0.000071  -0.000007  -0.000090
  153  O 22  S   -0.000065   0.000012   0.001690   0.000073  -0.000315
  154  O 22  X   -0.000027   0.000043  -0.000058  -0.000098   0.000668
  155  O 22  Y    0.000042  -0.000031  -0.000294   0.000065  -0.000677
  156  O 22  Z   -0.000034   0.000005   0.000778   0.000030   0.001038
  157  O 23  S    0.000003  -0.000021   0.000095  -0.000163   0.983443
  158  O 23  S    0.000003  -0.000007   0.000022  -0.000033   0.097485
  159  O 23  X   -0.000003   0.000004   0.000011  -0.000004   0.001854
  160  O 23  Y    0.000005  -0.000007   0.000044   0.000015   0.001514
  161  O 23  Z    0.000003  -0.000005  -0.000007   0.000003   0.002532
  162  O 23  S   -0.000026   0.000036  -0.000075   0.000053  -0.043284
  163  O 23  X    0.000000  -0.000001  -0.000078   0.000031  -0.006032
  164  O 23  Y   -0.000012   0.000020  -0.000206  -0.000070  -0.001860
  165  O 23  Z   -0.000015   0.000025   0.000024  -0.000006  -0.006101
  166  C 24  S   -0.000384   0.000192   0.000114   0.000172   0.000002
  167  C 24  S   -0.000692   0.001577   0.000124   0.000299   0.000013
  168  C 24  X   -0.000263  -0.001356  -0.000387  -0.000479   0.000001
  169  C 24  Y   -0.000560  -0.000773  -0.000630  -0.000262   0.000006
  170  C 24  Z    0.001473  -0.000951   0.000291   0.000222  -0.000004
  171  C 24  S    0.012465   0.018111  -0.004011  -0.005605  -0.000035
  172  C 24  X    0.002932  -0.021633  -0.000933   0.001241  -0.000007
  173  C 24  Y   -0.002902  -0.010856  -0.003505  -0.000535  -0.000035
  174  C 24  Z    0.022454  -0.019076   0.000099   0.009570   0.000012
  175  C 25  S    0.000002  -0.000002  -0.000003   0.000001   0.000000
  176  C 25  S    0.000014  -0.000009   0.000024   0.000028   0.000010
  177  C 25  X    0.000009  -0.000039  -0.000063  -0.000004  -0.000009
  178  C 25  Y   -0.000002  -0.000015  -0.000058  -0.000034  -0.000028
  179  C 25  Z    0.000009  -0.000012  -0.000068   0.000032   0.000009
  180  C 25  S   -0.000126   0.000298   0.000548  -0.000153   0.000079
  181  C 25  X    0.000082  -0.000089  -0.000153   0.000146  -0.000003
  182  C 25  Y    0.000025   0.000044  -0.000315   0.000123   0.000093
  183  C 25  Z    0.000135  -0.000280  -0.000464   0.000194  -0.000100
  184  H 26  S    0.003290   0.001357  -0.000135   0.000536   0.000001
  185  H 26  S    0.003248  -0.000210  -0.000381  -0.000554  -0.000003
  186  O 27  S    0.000712   0.016180   0.982167  -0.053259  -0.000097
  187  O 27  S    0.000114   0.001943   0.099897  -0.004509   0.000008
  188  O 27  X   -0.000364   0.000205   0.002758  -0.000313   0.000020
  189  O 27  Y   -0.000358  -0.000032  -0.000693   0.000012   0.000015
  190  O 27  Z   -0.000054   0.000126  -0.002180  -0.000657   0.000034
  191  O 27  S    0.001003  -0.003008  -0.053123   0.000411  -0.000078
  192  O 27  X    0.001815  -0.001584  -0.008107   0.001120  -0.000160
  193  O 27  Y    0.000976   0.000720   0.002403   0.001063  -0.000038
  194  O 27  Z    0.000444  -0.000872   0.006505   0.004047  -0.000143
  195  N 28  S    0.000014  -0.000025   0.000007   0.000037   0.000005
  196  N 28  S    0.000081  -0.000136  -0.000001   0.000184   0.000032
  197  N 28  X   -0.000033   0.000037   0.000388  -0.000051   0.000001
  198  N 28  Y   -0.000036   0.000076   0.000041  -0.000018  -0.000011
  199  N 28  Z   -0.000012   0.000045   0.000015   0.000019   0.000017
  200  N 28  S   -0.000262   0.000509  -0.001286  -0.001055  -0.000142
  201  N 28  X    0.000208  -0.000357  -0.001184   0.000652   0.000017
  202  N 28  Y    0.000366  -0.000699   0.000124   0.000805  -0.000041
  203  N 28  Z    0.000001  -0.000182  -0.000169  -0.000223  -0.000149
  204  H 29  S    0.000118  -0.000203  -0.000796  -0.000074   0.000085
  205  H 29  S   -0.000262   0.000059   0.000834   0.000288   0.000206
  206  H 30  S   -0.000112   0.000099   0.000801  -0.000345  -0.000038
  207  H 30  S   -0.000333  -0.000026   0.001157  -0.000230   0.000049
  208  H 31  S   -0.000012  -0.000013  -0.000308  -0.000028  -0.000484
  209  H 31  S    0.000030  -0.000114  -0.000348  -0.000296  -0.000227
  210  H 32  S   -0.000065  -0.000127   0.000745  -0.000317  -0.000072
  211  H 32  S   -0.000901   0.000954   0.002198  -0.000098   0.000004
  212  H 33  S   -0.000787   0.000669   0.000674  -0.000909   0.000010
  213  H 33  S   -0.000102   0.001391   0.001043  -0.001331   0.000005
  214  H 34  S    0.000594  -0.000550  -0.000392   0.001100  -0.000001
  215  H 34  S    0.001210  -0.002248   0.000337   0.001950   0.000033
  216  H 35  S   -0.000063   0.000091  -0.000372  -0.000070   0.000495
  217  H 35  S    0.000195  -0.000368   0.000136  -0.000028  -0.000920
  218  H 36  S   -0.000017   0.000004   0.000220   0.000045  -0.001052
  219  H 36  S   -0.000001  -0.000003   0.000242   0.000096  -0.000298
  220  H 37  S   -0.000015  -0.000001   0.000003   0.000026  -0.001205
  221  H 37  S    0.000011   0.000016  -0.000670  -0.000002  -0.001612
  222  H 38  S   -0.000002   0.000008   0.000016   0.000000   0.000002
  223  H 38  S    0.000010  -0.000017  -0.000023   0.000022  -0.000008
  224  H 39  S    0.000002   0.000003   0.000027   0.000017   0.000010
  225  H 39  S   -0.000014   0.000038  -0.000103   0.000007   0.000025
  226  H 40  S    0.000003   0.000002  -0.000027   0.000010   0.000005
  227  H 40  S   -0.000008   0.000012   0.000017  -0.000036  -0.000004

                      6          7          8          9         10
                  -20.4562   -20.4393   -20.4341   -20.4111   -15.5029
                     A          A          A          A          A   
    1  C  1  S   -0.000050   0.000145   0.000128   0.000019  -0.000105
    2  C  1  S   -0.000336   0.000356   0.000931  -0.000002  -0.001017
    3  C  1  X   -0.000476   0.000277  -0.000367  -0.000137  -0.000693
    4  C  1  Y    0.000237  -0.000979  -0.000129  -0.000106  -0.000257
    5  C  1  Z   -0.000115  -0.000344   0.000164  -0.000134  -0.000281
    6  C  1  S   -0.000471  -0.004249  -0.002398  -0.001407   0.002292
    7  C  1  X    0.000566   0.002357   0.002812  -0.001419  -0.000861
    8  C  1  Y   -0.002150   0.002320   0.001551   0.000687  -0.000531
    9  C  1  Z    0.001478  -0.005083  -0.001905   0.001027   0.002925
   10  C  2  S   -0.000096   0.000081  -0.000018   0.000004   0.000054
   11  C  2  S   -0.000661   0.000235  -0.000167  -0.000011   0.000186
   12  C  2  X   -0.000864   0.000060  -0.000011  -0.000071  -0.000251
   13  C  2  Y   -0.000483  -0.000310  -0.000089  -0.000102  -0.000230
   14  C  2  Z    0.000120  -0.000105  -0.000021   0.000058   0.000121
   15  C  2  S    0.000201  -0.002239   0.000404  -0.000554  -0.002847
   16  C  2  X    0.005005   0.000717   0.000243   0.000247   0.000128
   17  C  2  Y    0.004400  -0.000487   0.000405   0.000545   0.000598
   18  C  2  Z   -0.000546   0.000180   0.000170  -0.000572  -0.002025
   19  C  3  S    0.000209   0.000110   0.000036  -0.000035  -0.000517
   20  C  3  S    0.000753   0.000866   0.000260   0.000351  -0.002155
   21  C  3  X   -0.000129  -0.000233  -0.000073   0.000912   0.000871
   22  C  3  Y    0.000491   0.000429   0.000140   0.000734   0.000657
   23  C  3  Z    0.000429  -0.000089  -0.000135  -0.000082  -0.000408
   24  C  3  S   -0.006818  -0.001930  -0.001078   0.004856   0.017153
   25  C  3  X   -0.003110  -0.000798   0.000135  -0.000708   0.007895
   26  C  3  Y    0.004136  -0.003911  -0.001518   0.001928   0.009946
   27  C  3  Z   -0.003523   0.001595   0.001433  -0.002729  -0.003324
   28  C  4  S   -0.000007  -0.000958   0.000157   0.000009   0.000156
   29  C  4  S   -0.000051  -0.004255   0.000412   0.000036   0.000904
   30  C  4  X    0.000159   0.000079   0.000657   0.000086   0.000164
   31  C  4  Y   -0.000104   0.000365   0.000164  -0.000136  -0.000115
   32  C  4  Z    0.000094   0.001328   0.000176   0.000123   0.000236
   33  C  4  S    0.001055   0.020947  -0.005062  -0.000038  -0.003375
   34  C  4  X   -0.000877  -0.003023   0.000960  -0.000600  -0.001768
   35  C  4  Y    0.000665  -0.007713  -0.005301   0.001313   0.002062
   36  C  4  Z   -0.001346   0.012354   0.004037  -0.000711  -0.001809
   37  C  5  S   -0.000965   0.000038   0.000008  -0.000001  -0.000019
   38  C  5  S   -0.004064   0.000208   0.000051  -0.000031  -0.000532
   39  C  5  X    0.000967   0.000049   0.000010   0.000007  -0.000253
   40  C  5  Y   -0.000451  -0.000056  -0.000048  -0.000016  -0.000837
   41  C  5  Z   -0.000279   0.000153   0.000059  -0.000072   0.000097
   42  C  5  S    0.023932  -0.001771  -0.000433  -0.000165  -0.000710
   43  C  5  X    0.010883   0.000378   0.000078   0.000450   0.001330
   44  C  5  Y   -0.000789   0.000112   0.000208  -0.000394   0.000936
   45  C  5  Z    0.010650  -0.001785  -0.000758   0.000973  -0.000353
   46  C  6  S    0.000028   0.000119  -0.000995   0.000031   0.000032
[...]
    5   -0.0872289  -0.0653170   0.2341719   0.0038841   5.2278246
    6   -0.0881046  -0.0002003   0.0046829   0.1444913  -0.0000764
    7    0.0055125   0.0000006  -0.0000613  -0.0776603   0.0000002
    8   -0.0000235   0.0000000   0.0034138  -0.0000028  -0.0001003
    9   -0.0000528  -0.0615807   0.0000502  -0.0000068  -0.0002013
   10   -0.0001736  -0.0000153   0.0064157   0.0000012  -0.0487138
   11   -0.0145256  -0.0007482   0.0007512  -0.0666129  -0.0001239
   12   -0.0002421  -0.0000003   0.0000029   0.0061198  -0.0000000
   13    0.0000017   0.0000000  -0.0000000  -0.0001558   0.0000000
   14   -0.0000255  -0.0000143  -0.0380460   0.0000291   0.0005907
   15   -0.0000317  -0.0861087   0.0000007  -0.0000000  -0.0000157
   16    0.0001350  -0.0000000  -0.0047993  -0.0000002  -0.0000733
   17    0.0099925   0.0640176  -0.1055922  -0.0005445   0.1878590
   18    0.0008572   0.2174390  -0.0012693   0.0000331   0.0000825
   19    0.0013805   0.0017830  -0.0465708  -0.0000103   0.2419146
   20   -0.0420350   0.0000626  -0.0032182   0.2312680   0.0000215
   21   -0.0000311  -0.0874029   0.0000006  -0.0000017   0.0000442
   22   -0.0000868   0.0000021  -0.0000098  -0.0405634  -0.0000000
   23   -0.0000143  -0.0000000   0.0000000   0.0016065  -0.0000000
   24    0.0039268   0.1386746  -0.0002966  -0.0001299   0.0023461
   25    0.0026317  -0.0000061  -0.0546909   0.0001819   0.0013048
   26    0.0000057   0.0065817  -0.0000004  -0.0000001   0.0000018
   27    0.1799880   0.1962772  -0.0372877  -0.0460504  -0.0016617
   28   -0.0526032  -0.0000715   0.1586834   0.0016062  -0.0574039
   29    0.3585491  -0.0041487  -0.0469052  -0.0363602  -0.0001928
   30   -0.0336688   0.0004950   0.3601629  -0.0039921  -0.0371831
   31   -0.0495868  -0.0000578  -0.0034742   0.3780336   0.0001359
   32    0.0030386   0.0016695  -0.0515698  -0.0000799   0.3681310
   33    0.0007478  -0.0442898  -0.0022288  -0.0000458  -0.0372785
   34   -0.0001818  -0.0408038   0.0036446   0.0000052  -0.0362712
   35   -0.0075296  -0.0001220   0.0000943  -0.0506610  -0.0000031
   36   -0.0000624  -0.0000001   0.0000009   0.0006131  -0.0000000
   37   -0.0000972   0.0000000  -0.0000014   0.0002540  -0.0000000
   38   -0.0000008  -0.0000000  -0.0001553   0.0000000   0.0000274
   39   -0.0000018   0.0000000  -0.0000405   0.0000010  -0.0000005
   40    0.0000007   0.0000000  -0.0000608   0.0000001   0.0000004

             6           7           8           9          10

    6    5.4222932
    7    0.2102439   5.2139943
    8   -0.0000001   0.0000000   5.5853794
    9   -0.0000000  -0.0000000   0.0000000   0.3572508
   10   -0.0000000   0.0000000   0.0000020  -0.0000002   0.4151846
   11    0.0012182  -0.0003410  -0.0000000  -0.0000010  -0.0000000
   12   -0.0593052  -0.0110279  -0.0000000   0.0000000  -0.0000000
   13    0.0056135  -0.0421065   0.0000000  -0.0000000   0.0000000
   14   -0.0000149   0.0000000  -0.0012477   0.0000002   0.0000014
   15   -0.0000001   0.0000000   0.0000000   0.0204613  -0.0000000
   16   -0.0000000   0.0000000  -0.0749279  -0.0000000   0.0000094
   17    0.0000070   0.0000000   0.0000006   0.0062138  -0.0003553
   18   -0.0000032   0.0000000  -0.0000000   0.2625442   0.0000015
   19    0.0000000  -0.0000000  -0.0000233   0.0000001   0.2621294
   20   -0.0504514   0.0017326  -0.0000000   0.0000000  -0.0000000
   21    0.0000001  -0.0000000   0.0000000   0.0003011  -0.0000000
   22    0.2045669  -0.0418981   0.0000000  -0.0000002   0.0000000
   23   -0.0477284   0.2145317  -0.0000000   0.0000000  -0.0000000
   24    0.0000074   0.0000000  -0.0000000  -0.0014955   0.0000004
   25   -0.0000002   0.0000001   0.2091127  -0.0000000  -0.0000750
   26    0.0000000  -0.0000000  -0.0000000  -0.0000217   0.0000000
   27   -0.0004049   0.0000389   0.0000000   0.0019107   0.0000015
   28    0.0000019   0.0000005  -0.1170923  -0.0000003  -0.0001081
   29   -0.0035748   0.0001869  -0.0000025  -0.0000901   0.0000010
   30    0.0003458  -0.0000048   0.0006392   0.0000011  -0.0000743
   31   -0.0547708  -0.0035292  -0.0000109  -0.0000000   0.0000000
   32    0.0000008  -0.0000000  -0.0000098  -0.0000535  -0.0037760
   33    0.0000008  -0.0000000  -0.0000001  -0.0001108  -0.0003311
   34   -0.0000001  -0.0000000  -0.0000000  -0.0001614   0.0021618
   35    0.3631318  -0.0546899  -0.0000000   0.0000142  -0.0000000
   36   -0.0448698   0.3408788   0.0000000   0.0000000  -0.0000000
   37   -0.0518495   0.3562878  -0.0000000   0.0000000   0.0000000
   38    0.0000000  -0.0000000   0.3623328  -0.0000000  -0.0000012
   39   -0.0000000  -0.0000000   0.3553626  -0.0000000   0.0000000
   40    0.0000000  -0.0000000   0.3608850   0.0000000  -0.0000000

            11          12          13          14          15

   11    0.3888426
   12    0.0000022   0.3727327
   13   -0.0000000  -0.0011305   0.3951072
   14    0.0000013   0.0000000   0.0000000   0.3681546
   15   -0.0000001  -0.0000000  -0.0000000   0.0000000   8.2182995
   16   -0.0000018  -0.0000000  -0.0000000   0.0012414  -0.0000000
   17    0.0001658   0.0000000  -0.0000000   0.0000100   0.0012288
   18    0.0000162  -0.0000000   0.0000000  -0.0000055  -0.0040804
   19   -0.0000000   0.0000000  -0.0000000  -0.0000098   0.0000000
   20    0.2604316  -0.0000281   0.0000010  -0.0000011   0.0000000
   21    0.0001712   0.0000000  -0.0000000   0.0000000  -0.0535279
   22   -0.0000138   0.2597750   0.0001433  -0.0000016   0.0000000
   23   -0.0000010   0.0288923   0.2623089  -0.0000000  -0.0000000
   24   -0.0000658  -0.0000000  -0.0000000  -0.0000001   0.5075203
   25   -0.0000027   0.0000000   0.0000000  -0.0243784  -0.0000000
   26   -0.0000043  -0.0000000  -0.0000000  -0.0000000   0.0013088
   27    0.0270828  -0.0000029  -0.0000000   0.0000015   0.0000418
   28   -0.0000185   0.0000000   0.0000000   0.3365658  -0.0000000
   29    0.0006919  -0.0001990  -0.0000000   0.0018533   0.0000007
   30    0.0004457   0.0000001  -0.0000000   0.0019216   0.0000000
   31    0.0045623  -0.0001132  -0.0000006   0.0001305   0.0000000
   32    0.0000009   0.0000000  -0.0000000   0.0017709   0.0000004
   33    0.0001646   0.0000000  -0.0000000   0.0000015   0.0000224
   34   -0.0000005   0.0000000   0.0000000   0.0000008   0.0000573
   35    0.0021725   0.0001963  -0.0001253   0.0000002   0.0000016
   36    0.0000871   0.0007403  -0.0006909   0.0000000   0.0000000
   37    0.0000068   0.0000480  -0.0032697   0.0000000  -0.0000000
   38    0.0000000   0.0000000   0.0000000   0.0002341  -0.0000000
   39    0.0000000   0.0000000   0.0000000   0.0009943  -0.0000000
   40    0.0000000   0.0000000  -0.0000000   0.0000740   0.0000000

            16          17          18          19          20

   16    8.1881197
   17   -0.0000025   5.8238384
   18    0.0000000  -0.0587307   8.3392450
   19   -0.0001542  -0.0415143   0.0000010   8.2564666
   20   -0.0000028  -0.0000144  -0.0000001   0.0000000   8.2909562
   21    0.0000000   0.0059576   0.0003053  -0.0000000  -0.0000002
   22    0.0000000  -0.0000000  -0.0000000   0.0000000   0.0002138
   23    0.0000000   0.0000000   0.0000000   0.0000000   0.0000019
   24   -0.0000000  -0.0609721  -0.0420475  -0.0000075  -0.0000065
   25    0.5608190   0.0000168  -0.0000000   0.0031963  -0.0000145
   26    0.0000000  -0.0004200  -0.0000257  -0.0000000   0.0000000
   27    0.0000000  -0.0537082  -0.0339438  -0.0000007  -0.0056461
   28   -0.0732180   0.0030521   0.0000016   0.0001542   0.0000565
   29   -0.0000017   0.0001043   0.0060136  -0.0000084   0.0012550
   30    0.0161523  -0.0010754  -0.0000014   0.0015762   0.0102718
   31   -0.0001033   0.0000007   0.0000002  -0.0000001  -0.0228226
   32   -0.0000065  -0.0641682   0.0071713  -0.0290302  -0.0000003
   33   -0.0000030   0.3667022   0.0015797   0.0014284   0.0000012
   34    0.0000000   0.3672379   0.0028909  -0.0002177  -0.0000000
   35    0.0000000   0.0000163   0.0000000   0.0000000   0.0016482
   36    0.0000000   0.0000000   0.0000000   0.0000000   0.0071086
   37    0.0000000  -0.0000000  -0.0000000  -0.0000000  -0.0000782
   38    0.0004713  -0.0000000   0.0000000   0.0000239  -0.0000000
   39    0.0011814  -0.0000000   0.0000000  -0.0000000   0.0000000
   40    0.0029330  -0.0000000  -0.0000000  -0.0000001  -0.0000000

            21          22          23          24          25

   21    8.3536448
   22    0.0000000   8.3359074
   23    0.0000000  -0.0052916   8.2853231
   24    0.2070964   0.0000000   0.0000000   4.4260024
   25    0.0000000  -0.0000000   0.0000000  -0.0000000   4.4546058
   26    0.2601238   0.0000000   0.0000000  -0.0289709  -0.0000000
   27    0.0009671   0.0000161   0.0000000  -0.0412042  -0.0000034
   28   -0.0000000  -0.0000006  -0.0000000   0.0000004   0.1218127
   29   -0.0000008   0.0105688   0.0000001   0.0000038  -0.0000775
   30    0.0000003  -0.0000022   0.0000000  -0.0000394   0.0003715
   31   -0.0000000   0.0044445  -0.0000169   0.0000006   0.0005896
   32   -0.0000008  -0.0000001   0.0000000  -0.0000051  -0.0001054
   33    0.0052646  -0.0000000   0.0000000  -0.0015608  -0.0000039
   34   -0.0000405  -0.0000000  -0.0000000   0.0000851   0.0000002
   35   -0.0000005  -0.0298851   0.0010904   0.0000138  -0.0000000
   36   -0.0000000   0.0016644  -0.0265787   0.0000000  -0.0000000
   37   -0.0000000   0.0013546  -0.0301456  -0.0000000  -0.0000001
   38   -0.0000000   0.0000000  -0.0000000   0.0000000  -0.0394227
   39   -0.0000000  -0.0000000   0.0000000   0.0000000  -0.0357574
   40   -0.0000000   0.0000000   0.0000000  -0.0000000  -0.0399707

            26          27          28          29          30

   26    0.3359205
   27   -0.0001230   8.4889297
   28    0.0000000   0.0005739   7.5746154
   29    0.0000001  -0.0251701   0.0010197   0.4578193
   30   -0.0000001   0.0004792  -0.0293582   0.0019502   0.3883401
   31    0.0000000   0.0013709   0.0067977   0.0021189  -0.0007975
   32    0.0000001  -0.0001436  -0.0010500   0.0011312   0.0025990
   33   -0.0000683   0.0020691  -0.0000168   0.0000264   0.0017830
   34   -0.0000133   0.0017216  -0.0000230   0.0000102  -0.0000519
   35   -0.0000002   0.0084270  -0.0000039   0.0005057  -0.0000046
   36    0.0000000   0.0000017  -0.0000000  -0.0000138  -0.0000013
   37    0.0000000  -0.0000009  -0.0000008   0.0000036   0.0000000
   38   -0.0000000   0.0000000   0.0018328  -0.0000000  -0.0000138
   39    0.0000000   0.0000000   0.0031021   0.0000011  -0.0000223
   40   -0.0000000  -0.0000000   0.0031334   0.0000000  -0.0000036

            31          32          33          34          35

   31    0.4731278
   32   -0.0000027   0.5436072
   33    0.0000000   0.0032757   0.4425624
   34    0.0000000  -0.0025883  -0.0151872   0.4906906
   35    0.0035105   0.0000001  -0.0000001  -0.0000001   0.5335081
   36    0.0003976   0.0000000  -0.0000000  -0.0000000   0.0002390
   37    0.0031324   0.0000000   0.0000000   0.0000000   0.0038152
   38    0.0000003   0.0000006   0.0000000   0.0000000   0.0000000
   39    0.0000127  -0.0000002   0.0000000   0.0000000   0.0000000
   40   -0.0000025   0.0000001   0.0000000   0.0000000   0.0000000

            36          37          38          39          40

   36    0.5294246
   37   -0.0334869   0.5518563
   38   -0.0000000  -0.0000000   0.4705413
   39   -0.0000000   0.0000000  -0.0213212   0.4984012
   40    0.0000000   0.0000000  -0.0165944  -0.0189266   0.4540465

          TOTAL MULLIKEN AND LOWDIN ATOMIC POPULATIONS
       ATOM         MULL.POP.    CHARGE          LOW.POP.     CHARGE
    1 C             5.957551    0.042449         5.926637    0.073363
    2 C             5.518049    0.481951         5.752694    0.247306
    3 C             6.030109   -0.030109         5.990443    0.009557
    4 C             5.928198    0.071802         5.925339    0.074661
    5 C             5.896495    0.103505         5.913663    0.086337
    6 C             5.955251    0.044749         5.942295    0.057705
    7 C             6.112090   -0.112090         5.996221    0.003779
    8 C             6.683687   -0.683687         6.317204   -0.317204
    9 H             0.584971    0.415029         0.723226    0.276774
   10 H             0.632286    0.367714         0.754121    0.245879
   11 H             0.604353    0.395647         0.746845    0.253155
   12 H             0.596461    0.403539         0.739859    0.260141
   13 H             0.615696    0.384304         0.745660    0.254340
   14 H             0.649832    0.350168         0.792734    0.207266
   15 O             8.605179   -0.605179         8.314084   -0.314084
   16 O             8.617768   -0.617768         8.346698   -0.346698
   17 C             6.449323   -0.449323         6.206794   -0.206794
   18 O             8.698075   -0.698075         8.386962   -0.386962
   19 O             8.652507   -0.652507         8.383995   -0.383995
   20 O             8.680711   -0.680711         8.404315   -0.404315
   21 O             8.692871   -0.692871         8.330451   -0.330451
   22 O             8.700903   -0.700903         8.422631   -0.422631
   23 O             8.683978   -0.683978         8.407901   -0.407901
   24 C             5.108876    0.891124         5.669420    0.330580
   25 C             5.160134    0.839866         5.672346    0.327654
   26 H             0.574294    0.425706         0.704013    0.295987
   27 O             8.664547   -0.664547         8.361897   -0.361897
   28 N             7.882041   -0.882041         7.333957   -0.333957
   29 H             0.727069    0.272931         0.895405    0.104595
   30 H             0.681240    0.318760         0.866476    0.133524
   31 H             0.743078    0.256922         0.901489    0.098511
   32 H             0.779807    0.220193         0.926260    0.073740
   33 H             0.724505    0.275495         0.878761    0.121239
   34 H             0.772965    0.227035         0.901386    0.098614
   35 H             0.775360    0.224640         0.922256    0.077744
   36 H             0.775452    0.224548         0.911783    0.088217
   37 H             0.797829    0.202171         0.926435    0.073565
   38 H             0.757955    0.242045         0.881302    0.118698
   39 H             0.782986    0.217014         0.896930    0.103070
   40 H             0.745514    0.254486         0.879111    0.120889

          -------------------------------
          BOND ORDER AND VALENCE ANALYSIS     BOND ORDER THRESHOLD=0.050
          -------------------------------

                   BOND                       BOND                       BOND
  ATOM PAIR DIST  ORDER      ATOM PAIR DIST  ORDER      ATOM PAIR DIST  ORDER
    1   3  1.537  0.856        1   4  1.531  0.882        1  27  1.488  0.753
    1  29  1.092  0.869        2  17  1.519  0.818        2  18  1.419  0.875
    2  24  1.526  0.840        2  27  1.462  0.827        3   5  1.538  0.886
    3  28  1.463  0.815        3  30  1.094  0.856        4   6  1.524  0.851
    4  20  1.458  0.877        4  31  1.092  0.886        5  17  1.538  0.880
    5  19  1.455  0.875        5  32  1.100  0.882        6   7  1.525  0.895
    6  22  1.457  0.863        6  35  1.099  0.882        7  23  1.472  0.841
    7  36  1.094  0.881        7  37  1.099  0.899        8  25  1.530  0.871
    8  38  1.097  0.907        8  39  1.095  0.914        8  40  1.091  0.908
    9  18  1.001  0.761       10  19  0.996  0.819       11  20  1.001  0.770
   12  22  1.001  0.764       12  23  2.003  0.054       13  23  0.993  0.811
   14  28  1.016  0.840       15  21  2.296  0.087       15  24  1.227  1.767
   16  25  1.237  1.763       16  28  2.302  0.086       17  33  1.091  0.886
   17  34  1.096  0.914       21  24  1.361  0.924       21  26  0.998  0.773
   25  28  1.383  0.896

                       TOTAL       BONDED        FREE
      ATOM            VALENCE     VALENCE     VALENCE
    1 C                 3.339       3.339      -0.000
    2 C                 3.346       3.346      -0.000
    3 C                 3.359       3.359      -0.000
    4 C                 3.446       3.446      -0.000
    5 C                 3.472       3.472      -0.000
    6 C                 3.460       3.460      -0.000
    7 C                 3.508       3.508      -0.000
    8 C                 3.603       3.603      -0.000
    9 H                 0.819       0.819       0.000
   10 H                 0.839       0.839       0.000
   11 H                 0.831       0.831      -0.000
   12 H                 0.829       0.829      -0.000
   13 H                 0.826       0.826       0.000
   14 H                 0.851       0.851       0.000
   15 O                 1.939       1.939      -0.000
   16 O                 1.932       1.932      -0.000
   17 C                 3.495       3.495      -0.000
   18 O                 1.745       1.745       0.000
   19 O                 1.757       1.757      -0.000
   20 O                 1.749       1.749      -0.000
   21 O                 1.799       1.799      -0.000
   22 O                 1.719       1.719      -0.000
   23 O                 1.750       1.750       0.000
   24 C                 3.558       3.558       0.000
   25 C                 3.495       3.495       0.000
   26 H                 0.807       0.807      -0.000
   27 O                 1.749       1.749      -0.000
   28 N                 2.653       2.653      -0.000
   29 H                 0.898       0.898      -0.000
   30 H                 0.893       0.893      -0.000
   31 H                 0.898       0.898       0.000
   32 H                 0.904       0.904       0.000
   33 H                 0.892       0.892      -0.000
   34 H                 0.912       0.912      -0.000
   35 H                 0.907       0.907      -0.000
   36 H                 0.907       0.907       0.000
   37 H                 0.910       0.910       0.000
   38 H                 0.902       0.902       0.000
   39 H                 0.914       0.914       0.000
   40 H                 0.903       0.903       0.000

          ---------------------
          ELECTROSTATIC MOMENTS
          ---------------------

 POINT   1           X           Y           Z (BOHR)    CHARGE
                 0.028281    0.076776   -0.055118       -0.00 (A.U.)
         DX          DY          DZ         /D/  (DEBYE)
    -1.548031   -1.261935   -2.468631    3.175377
 ...... END OF PROPERTY EVALUATION ......
 CPU     0: STEP CPU TIME=     0.10 TOTAL CPU TIME=         16.9 (      0.3 MIN)
 TOTAL WALL CLOCK TIME=         38.9 SECONDS, CPU UTILIZATION IS    43.42%
               580000  WORDS OF DYNAMIC MEMORY USED
 EXECUTION OF GAMESS TERMINATED NORMALLY Sun May 24 19:53:56 2020
 DDI: 263640 bytes (0.3 MB / 0 MWords) used by master data server.
Note: The following floating-point exceptions are signalling: IEEE_DENORMALNote: The following floating-point exceptions are signalling: IEEE_DENORMAL

Note: The following floating-point exceptions are signalling: IEEE_DENORMALNote: The following floating-point exceptions are signalling: IEEE_DENORMAL
 ----------------------------------------
 CPU timing information for all processes
 ========================================
 0: 16.596 + 0.290 = 16.886
 1: 15.693 + 0.103 = 15.797
 2: 16.74 + 0.84 = 16.158
 3: 15.626 + 0.100 = 15.727
 4: 16.57 + 0.76 = 16.134
 5: 16.547 + 0.121 = 16.668
 ----------------------------------------
Note: The following floating-point exceptions are signalling: IEEE_DENORMAL


Note: The following floating-point exceptions are signalling: IEEE_DENORMAL
 ddikick.x: exited gracefully.
unset echo
----- accounting info -----
Files used on the master node pietdev were:
-rwxr-xr-x 1 piet piet     2260 mei 24 19:53 /home/piet/scr/sialic_acid_fukui_neu.F05*
-rw-r--r-- 1 piet piet 49152000 mei 24 19:53 /home/piet/scr/sialic_acid_fukui_neu.F10
ls: No match.
ls: No match.
ls: No match.
zo 24 mei 2020 19:53:59 CEST
0.152u 0.023s 0:42.25 0.4%	0+0k 0+8io 0pf+0w
