----- GAMESS execution script 'rungms' -----
This job is running on host pietdev
under operating system Linux at ma 25 mei 2020 19:18:15 CEST
Available scratch disk space (Kbyte units) at beginning of the job is
Filesystem     1K-blocks     Used Available Use% Mounted on
/dev/sda2      244568380 31071508 201003816  14% /
GAMESS temporary binary files will be written to /home/piet/scr
GAMESS supplementary output files will be written to /home/piet/gamess/scr
Copying input file methyl_cinnamate_charge_chelpg.inp to your run's scratch directory...
cp methyl_cinnamate_charge_chelpg.inp /home/piet/scr/methyl_cinnamate_charge_chelpg.F05
unset echo
 
Assuming a single but multicore node.
 
/home/piet/gamess/ddikick.x /home/piet/gamess/gamess.03.x methyl_cinnamate_charge_chelpg -ddi 1 6 pietdev:cpus=6 -scr /home/piet/scr

 Distributed Data Interface kickoff program.
 Initiating 6 compute processes on 1 nodes to run the following command:
 /home/piet/gamess/gamess.03.x methyl_cinnamate_charge_chelpg 

          ******************************************************
          *         GAMESS VERSION = 30 SEP 2019 (R2)          *
          *             FROM IOWA STATE UNIVERSITY             *
          * M.W.SCHMIDT, K.K.BALDRIDGE, J.A.BOATZ, S.T.ELBERT, *
          *   M.S.GORDON, J.H.JENSEN, S.KOSEKI, N.MATSUNAGA,   *
          *          K.A.NGUYEN, S.J.SU, T.L.WINDUS,           *
          *       TOGETHER WITH M.DUPUIS, J.A.MONTGOMERY       *
          *         J.COMPUT.CHEM.  14, 1347-1363(1993)        *
          **************** 64 BIT LINUX VERSION ****************

  SINCE 1993, STUDENTS AND POSTDOCS WORKING AT IOWA STATE UNIVERSITY
  AND ALSO IN THEIR VARIOUS JOBS AFTER LEAVING ISU HAVE MADE IMPORTANT
  CONTRIBUTIONS TO THE CODE:
     IVANA ADAMOVIC, CHRISTINE AIKENS, YURI ALEXEEV, POOJA ARORA,
     ANDREY ASADCHEV, ROB BELL, PRADIPTA BANDYOPADHYAY, JONATHAN BENTZ,
     COLLEEN BERTONI, BRETT BODE, KURT BRORSEN, CALEB CARLIN, GALINA CHABAN,
     WEI CHEN, CHEOL HO CHOI, PAUL DAY, ALBERT DEFUSCO, NUWAN DESILVA,
     TIM DUDLEY, DMITRI FEDOROV, ALEX FINDLATER, GRAHAM FLETCHER, 
     MARK FREITAG, KURT GLAESEMANN, EMILIE B GUIDEZ, ANASTASIA GUNINA, 
     DAN KEMP, SAROM SOK LEANG, GRANT MERRILL,
     NORIYUKI MINEZAWA, JONATHAN MULLIN,
     TAKESHI NAGATA, SEAN NEDD, HEATHER NETZLOFF, BOSILJKA NJEGIC, RYAN OLSON,
     MIKE PAK, BUU PHAM, DAVID POOLE,
     SPENCER PRUITT, LUKE ROSKOP, TOSAPORN SATTASATHUCHANA,
     JIM SHOEMAKER, LYUDMILA SLIPCHENKO,
     TONY SMITH, JIE SONG, TETSUYA TAKETSUGU, SIMON WEBB,
     JORGE LUIS GALVEZ VALLEJO, PENG XU, SOOHAENG YOO,
     FEDERICO ZAHARIEV

  ADDITIONAL CODE HAS BEEN PROVIDED BY COLLABORATORS IN OTHER GROUPS:
     IOWA STATE UNIVERSITY:
          JOE IVANIC, AARON WEST, LAIMUTIS BYTAUTAS, KLAUS RUEDENBERG
     UNIVERSITY OF TOKYO: KIMIHIKO HIRAO, TAKAHITO NAKAJIMA,
          TAKAO TSUNEDA, MUNEAKI KAMIYA, SUSUMU YANAGISAWA,
          KIYOSHI YAGI, MAHITO CHIBA, SEIKEN TOKURA, NAOAKI KAWAKAMI
     UNIVERSITY OF AARHUS: FRANK JENSEN
     UNIVERSITY OF IOWA: VISVALDAS KAIRYS, HUI LI
     NATIONAL INST. OF STANDARDS AND TECHNOLOGY: WALT STEVENS, DAVID GARMER
     UNIVERSITY OF PISA: BENEDETTA MENNUCCI, JACOPO TOMASI
     UNIVERSITY OF MEMPHIS: HENRY KURTZ, PRAKASHAN KORAMBATH
     UNIVERSITY OF ALBERTA: TOBY ZENG, MARIUSZ KLOBUKOWSKI
     UNIVERSITY OF NEW ENGLAND: MARK SPACKMAN
     MIE UNIVERSITY: HIROAKI UMEDA
     NAT. INST. OF ADVANCED INDUSTRIAL SCIENCE AND TECHNOLOGY: KAZUO KITAURA
     MICHIGAN STATE UNIVERSITY:
          KAROL KOWALSKI, MARTA WLOCH, JEFFREY GOUR, JESSE LUTZ,
          WEI LI, JUN SHEN, J. EMILIANO DEUSTUA, PIOTR PIECUCH
     UNIVERSITY OF MINNESOTA:
          ANDREW SAND, PRACHI SHARMA, YINAN SHU
     UNIVERSITY OF SILESIA: MONIKA MUSIAL, STANISLAW KUCHARSKI
     FACULTES UNIVERSITAIRES NOTRE-DAME DE LA PAIX:
          OLIVIER QUINET, BENOIT CHAMPAGNE
     UNIVERSITY OF CALIFORNIA - SANTA BARBARA: BERNARD KIRTMAN
     INSTITUTE FOR MOLECULAR SCIENCE:
          KAZUYA ISHIMURA, MICHIO KATOUDA, AND SHIGERU NAGASE
     UNIVERSITY OF NOTRE DAME: ANNA POMOGAEVA, DAN CHIPMAN
     KYUSHU UNIVERSITY:
          HARUYUKI NAKANO,
          FENG LONG GU, JACEK KORCHOWIEC, MARCIN MAKOWSKI, AND YURIKO AOKI,
          HIROTOSHI MORI AND EISAKU MIYOSHI
     PENNSYLVANIA STATE UNIVERSITY:
          TZVETELIN IORDANOV, CHET SWALINA, JONATHAN SKONE,
          SHARON HAMMES-SCHIFFER
     WASEDA UNIVERSITY:
          MASATO KOBAYASHI, TOMOKO AKAMA, TSUGUKI TOUMA,
          TAKESHI YOSHIKAWA, YASUHIRO IKABATA, JUNJI SEINO,
          YUYA NAKAJIMA, HIROMI NAKAI
     NANJING UNIVERSITY: SHUHUA LI
     UNIVERSITY OF NEBRASKA:
          PEIFENG SU, DEJUN SI, NANDUN THELLAMUREGE, YALI WANG, HUI LI
     UNIVERSITY OF ZURICH: ROBERTO PEVERATI, KIM BALDRIDGE
     N. COPERNICUS UNIVERSITY AND JACKSON STATE UNIVERSITY:
          MARIA BARYSZ
     UNIVERSITY OF COPENHAGEN: Jimmy Kromann, CASPER STEINMANN
     TOKYO INSTITUTE OF TECHNOLOGY: HIROYA NAKATA
     NAGOYA UNIVERSITY: YOSHIO NISHIMOTO, STEPHAN IRLE
     MOSCOW STATE UNIVERSITY: VLADIMIR MIRONOV
     A.N.NESMEYANOV INSTITUTE OF ORGANOELEMENT COMPOUNDS OF RUSSIAN ACADEMY OF SCIENCES:
          IGOR S. GERASIMOV
     JOHANNES KEPLER UNIVERSITY LINZ:
          CHRISTIAN FRIEDL


 PARALLEL VERSION RUNNING ON        6 PROCESSORS IN        1 NODES.

 EXECUTION OF GAMESS BEGUN Mon May 25 19:18:15 2020

            ECHO OF THE FIRST FEW INPUT CARDS -
 INPUT CARD> $BASIS GBASIS=N21 NGAUSS=3 $END                                                
 INPUT CARD> $CONTRL SCFTYP=RHF DFTTYP=B3LYP MAXIT=60 MULT=1 ICHARG=0 $END                  
 INPUT CARD> $SYSTEM MEMDDI=1000 MWORDS=30 $END                                             
 INPUT CARD> $SCF DIRSCF=.TRUE. $END                                                        
 INPUT CARD> $ELPOT  IEPOT=1 WHERE=PDC $END                                                 
 INPUT CARD> $PDC PTSEL=CHELPG CONSTR=CHARGE $END                                           
 INPUT CARD> $DATA                                                                          
 INPUT CARD>                                                                                
 INPUT CARD>C1                                                                              
 INPUT CARD>C 6.0000000 2.47269 0.25561 0.01418                                             
 INPUT CARD>C 6.0000000 1.09703 -0.27882 0.01248                                            
 INPUT CARD>C 6.0000000 0.03633 0.55222 0.01447                                             
 INPUT CARD>C 6.0000000 -1.38232 0.18473 0.00835                                            
 INPUT CARD>C 6.0000000 -2.34734 1.21011 -0.01303                                           
 INPUT CARD>C 6.0000000 -3.71178 0.91487 -0.02295                                           
 INPUT CARD>C 6.0000000 -4.13852 -0.41503 -0.01037                                          
 INPUT CARD>C 6.0000000 -3.19135 -1.44684 0.01250                                           
 INPUT CARD>C 6.0000000 -1.83068 -1.15168 0.02169                                           
 INPUT CARD>O 8.0000000 2.79331 1.43195 0.03167                                             
 INPUT CARD>O 8.0000000 3.37759 -0.75774 -0.00976                                           
 INPUT CARD>C 6.0000000 4.76138 -0.36502 -0.01454                                           
 INPUT CARD>H 1.0000000 1.00332 -1.35958 0.00514                                            
 INPUT CARD>H 1.0000000 0.25330 1.61974 0.01800                                             
 INPUT CARD>H 1.0000000 -2.01881 2.24633 -0.02293                                           
 INPUT CARD>H 1.0000000 -4.43906 1.72158 -0.04038                                           
 INPUT CARD>H 1.0000000 -5.19932 -0.64898 -0.01783                                          
 INPUT CARD>H 1.0000000 -3.51685 -2.48319 0.02350                                           
 INPUT CARD>H 1.0000000 -1.11149 -1.96449 0.04044                                           
 INPUT CARD>H 1.0000000 4.97132 0.28723 -0.86613                                            
 INPUT CARD>H 1.0000000 5.01183 0.16243 0.90985                                             
 INPUT CARD>H 1.0000000 5.32600 -1.29438 -0.09113                                           
 INPUT CARD> $END                                                                           
   30000000 WORDS OF MEMORY AVAILABLE

     BASIS OPTIONS
     -------------
     GBASIS=N21          IGAUSS=       3      POLAR=NONE    
     NDFUNC=       0     NFFUNC=       0     DIFFSP=       F
     NPFUNC=       0      DIFFS=       F     BASNAM=        


     RUN TITLE
     ---------
                                                                                 

 THE POINT GROUP OF THE MOLECULE IS C1      
 THE ORDER OF THE PRINCIPAL AXIS IS     0

 ATOM      ATOMIC                      COORDINATES (BOHR)
           CHARGE         X                   Y                   Z
 C           6.0     4.6727065526        0.4830328597        0.0267963145
 C           6.0     2.0730861003       -0.5268933999        0.0235837803
 C           6.0     0.0686537451        1.0435444849        0.0273443350
 C           6.0    -2.6122060273        0.3490890817        0.0157792120
 C           6.0    -4.4358294000        2.2867763150       -0.0246231296
 C           6.0    -7.0142471267        1.7288536144       -0.0433692114
 C           6.0    -7.8206687947       -0.7842929767       -0.0195964585
 C           6.0    -6.0307770309       -2.7341311481        0.0236215748
 C           6.0    -3.4594835712       -2.1763596255        0.0409881567
 O           8.0     5.2785904988        2.7059931281        0.0598476220
 O           8.0     6.3827195989       -1.4319209699       -0.0184437256
 C           6.0     8.9977035234       -0.6897877800       -0.0274766159
 H           1.0     1.8959998780       -2.5692336584        0.0097131916
 H           1.0     0.4786675927        3.0608647714        0.0340150678
 H           1.0    -3.8149977213        4.2449481780       -0.0433314169
 H           1.0    -8.3886070431        3.2533144659       -0.0763071354
 H           1.0    -9.8252901225       -1.2263943715       -0.0336938144
 H           1.0    -6.6458828399       -4.6925486755        0.0444085607
 H           1.0    -2.1004115381       -3.7123478056        0.0764205189
 H           1.0     9.3944325973        0.5427859955       -1.6367483697
 H           1.0     9.4709853970        0.3069481922        1.7193671899
 H           1.0    10.0646806106       -2.4460235240       -0.1722107293

          INTERNUCLEAR DISTANCES (ANGS.)
          ------------------------------

                1 C          2 C          3 C          4 C          5 C     

   1 C       0.0000000    1.4758248 *  2.4543487 *  3.8556660    4.9137053  
   2 C       1.4758248 *  0.0000000    1.3474850 *  2.5223148 *  3.7524989  
   3 C       2.4543487 *  1.3474850 *  0.0000000    1.4654877 *  2.4729452 *
   4 C       3.8556660    2.5223148 *  1.4654877 *  0.0000000    1.4082347 *
   5 C       4.9137053    3.7524989    2.4729452 *  1.4082347 *  0.0000000  
   6 C       6.2196199    4.9548769    3.7657992    2.4414070 *  1.3960521 *
   7 C       6.6451831    5.2373714    4.2855061    2.8207625 *  2.4185560 *
   8 C       5.9143629    4.4446005    3.7965989    2.4361091 *  2.7879003 *
   9 C       4.5276390    3.0550704    2.5276577 *  1.4096795 *  2.4178906 *
  10 O       1.2193764 *  2.4092464 *  2.8939868 *  4.3579797    5.1456286  
  11 O       1.3587845 *  2.3304105 *  3.5889554    4.8523521    6.0536987  
  12 C       2.3715203 *  3.6654633    4.8133427    6.1682898    7.2811357  
  13 H       2.1835679 *  1.0848399 *  2.1424603 *  2.8418624 *  4.2226247  
  14 H       2.6051022 *  2.0776046 *  1.0893518 *  2.1759135 *  2.6328859 *
  15 H       4.9130353    4.0107475    2.6636456 *  2.1578444 *  1.0870979 *
  16 H       7.0657153    5.8866533    4.6259623    3.4216870    2.1535185 *
  17 H       7.7252214    6.3072942    5.3717740    3.9070765    3.4044131  
  18 H       6.5860232    5.1134389    4.6732091    3.4167594    3.8742164  
  19 H       4.2161451    2.7784574 *  2.7662239 *  2.1664545 *  3.4070911  
  20 H       2.6493579 *  4.0127909    5.0199405    6.4143560    7.4257842  
  21 H       2.6940934 *  4.0404992    5.0704282    6.4574262    7.4904422  
  22 H       3.2488363    4.3504350    5.6037212    6.8701688    8.0720949  

                6 C          7 C          8 C          9 C         10 O     

   1 C       6.2196199    6.6451831    5.9143629    4.5276390    1.2193764 *
   2 C       4.9548769    5.2373714    4.4446005    3.0550704    2.4092464 *
   3 C       3.7657992    4.2855061    3.7965989    2.5276577 *  2.8939868 *
   4 C       2.4414070 *  2.8207625 *  2.4361091 *  1.4096795 *  4.3579797  
   5 C       1.3960521 *  2.4185560 *  2.7879003 *  2.4178906 *  5.1456286  
   6 C       0.0000000    1.3967460 *  2.4186315 *  2.7948450 *  6.5258372  
   7 C       1.3967460 *  0.0000000    1.4008162 *  2.4227684 *  7.1737974  
   8 C       2.4186315 *  1.4008162 *  0.0000000    1.3923458 *  6.6410808  
   9 C       2.7948450 *  2.4227684 *  1.3923458 *  0.0000000    5.2968412  
  10 O       6.5258372    7.1737974    6.6410808    5.2968412    0.0000000  
  11 O       7.2840212    7.5239192    6.6050229    5.2232417    2.2666808 *
  12 C       8.5692841    8.9000415    8.0260189    6.6389308    2.6654336 *
  13 H       5.2350816    5.2278996    4.1955840    2.8416637 *  3.3162340  
  14 H       4.0274530    4.8403695    4.6118930    3.4675287    2.5469791 *
  15 H       2.1538183 *  3.4023764    3.8749981    3.4035064    4.8808498  
  16 H       1.0862877 *  2.1578524 *  3.4056515    3.8811238    7.2385256  
  17 H       2.1583392 *  1.0863171 *  2.1608896 *  3.4061715    8.2592284  
  18 H       3.4039634    2.1598395 *  1.0863207 *  2.1485091 *  7.4260694  
  19 H       3.8802372    3.4009291    2.1434924 *  1.0854704 *  5.1752628  
  20 H       8.7464913    9.1768556    8.3909577    7.0089864    2.6191900 *
  21 H       8.8055467    9.2146172    8.4075650    7.0239345    2.7027231 *
  22 H       9.3041336    9.5056256    8.5193447    7.1589916    3.7232343  

               11 O         12 C         13 H         14 H         15 H     

   1 C       1.3587845 *  2.3715203 *  2.1835679 *  2.6051022 *  4.9130353  
   2 C       2.3304105 *  3.6654633    1.0848399 *  2.0776046 *  4.0107475  
   3 C       3.5889554    4.8133427    2.1424603 *  1.0893518 *  2.6636456 *
   4 C       4.8523521    6.1682898    2.8418624 *  2.1759135 *  2.1578444 *
   5 C       6.0536987    7.2811357    4.2226247    2.6328859 *  1.0870979 *
   6 C       7.2840212    8.5692841    5.2350816    4.0274530    2.1538183 *
   7 C       7.5239192    8.9000415    5.2278996    4.8403695    3.4023764  
   8 C       6.6050229    8.0260189    4.1955840    4.6118930    3.8749981  
   9 C       5.2232417    6.6389308    2.8416637 *  3.4675287    3.4035064  
  10 O       2.2666808 *  2.6654336 *  3.3162340    2.5469791 *  4.8808498  
  11 O       0.0000000    1.4384459 *  2.4494063 *  3.9261138    6.1762240  
  12 C       1.4384459 *  0.0000000    3.8874866    4.9257605    7.2656862  
  13 H       2.4494063 *  3.8874866    0.0000000    3.0723026    4.7049596  
  14 H       3.9261138    4.9257605    3.0723026    0.0000000    2.3572811 *
  15 H       6.1762240    7.2656862    4.7049596    2.3572811 *  0.0000000  
  16 H       8.2004867    9.4341223    6.2542081    4.6938281    2.4765454 *
  17 H       8.5776033    9.9647473    6.2432542    5.9058817    4.3009871  
  18 H       7.1071504    8.5450093    4.6577648    5.5720818    4.9613142  
  19 H       4.6487208    6.0870296    2.1999053 *  3.8353435    4.3079288  
  20 H       2.0893318 *  1.0930281 *  4.3836193    4.9816645    7.3082814  
  21 H       2.0888120 *  1.0933552 *  4.3821418    5.0559625    7.3920644  
  22 H       2.0225986 *  1.0901247 *  4.3242434    5.8511785    8.1539875  

               16 H         17 H         18 H         19 H         20 H     

   1 C       7.0657153    7.7252214    6.5860232    4.2161451    2.6493579 *
   2 C       5.8866533    6.3072942    5.1134389    2.7784574 *  4.0127909  
   3 C       4.6259623    5.3717740    4.6732091    2.7662239 *  5.0199405  
   4 C       3.4216870    3.9070765    3.4167594    2.1664545 *  6.4143560  
   5 C       2.1535185 *  3.4044131    3.8742164    3.4070911    7.4257842  
   6 C       1.0862877 *  2.1583392 *  3.4039634    3.8802372    8.7464913  
   7 C       2.1578524 *  1.0863171 *  2.1598395 *  3.4009291    9.1768556  
   8 C       3.4056515    2.1608896 *  1.0863207 *  2.1434924 *  8.3909577  
   9 C       3.8811238    3.4061715    2.1485091 *  1.0854704 *  7.0089864  
  10 O       7.2385256    8.2592284    7.4260694    5.1752628    2.6191900 *
  11 O       8.2004867    8.5776033    7.1071504    4.6487208    2.0893318 *
  12 C       9.4341223    9.9647473    8.5450093    6.0870296    1.0930281 *
  13 H       6.2542081    6.2432542    4.6577648    2.1999053 *  4.3836193  
  14 H       4.6938281    5.9058817    5.5720818    3.8353435    4.9816645  
  15 H       2.4765454 *  4.3009871    4.9613142    4.3079288    7.3082814  
  16 H       0.0000000    2.4895900 *  4.3051879    4.9665245    9.5548142  
  17 H       2.4895900 *  0.0000000    2.4893252 *  4.2946846   10.2488058  
  18 H       4.3051879    2.4893252 *  0.0000000    2.4607099 *  8.9730540  
  19 H       4.9665245    4.2946846    2.4607099 *  0.0000000    6.5492511  
  20 H       9.5548142   10.2488058    8.9730540    6.5492511    0.0000000  
  21 H       9.6256536   10.2852594    8.9734778    6.5402378    1.7808203 *
  22 H      10.2203223   10.5453438    8.9231388    6.4736107    1.7966394 *

               21 H         22 H     

   1 C       2.6940934 *  3.2488363  
   2 C       4.0404992    4.3504350  
   3 C       5.0704282    5.6037212  
   4 C       6.4574262    6.8701688  
   5 C       7.4904422    8.0720949  
   6 C       8.8055467    9.3041336  
   7 C       9.2146172    9.5056256  
   8 C       8.4075650    8.5193447  
   9 C       7.0239345    7.1589916  
  10 O       2.7027231 *  3.7232343  
  11 O       2.0888120 *  2.0225986 *
  12 C       1.0933552 *  1.0901247 *
  13 H       4.3821418    4.3242434  
  14 H       5.0559625    5.8511785  
  15 H       7.3920644    8.1539875  
  16 H       9.6256536   10.2203223  
  17 H      10.2852594   10.5453438  
  18 H       8.9734778    8.9231388  
  19 H       6.5402378    6.4736107  
  20 H       1.7808203 *  1.7966394 *
  21 H       0.0000000    1.7952602 *
  22 H       1.7952602 *  0.0000000  

  * ... LESS THAN  3.000


     ATOMIC BASIS SET
     ----------------
 THE CONTRACTED PRIMITIVE FUNCTIONS HAVE BEEN UNNORMALIZED
 THE CONTRACTED BASIS FUNCTIONS ARE NOW NORMALIZED TO UNITY

  SHELL TYPE  PRIMITIVE        EXPONENT          CONTRACTION COEFFICIENT(S)

 C         

      1   S       1           172.2560000    0.061766907377
      1   S       2            25.9109000    0.358794042852
      1   S       3             5.5333500    0.700713083689

      2   L       4             3.6649800   -0.395895162119    0.236459946619
      2   L       5             0.7705450    1.215834355681    0.860618805716

      3   L       6             0.1958570    1.000000000000    1.000000000000

 C         

      4   S       7           172.2560000    0.061766907377
      4   S       8            25.9109000    0.358794042852
      4   S       9             5.5333500    0.700713083689

      5   L      10             3.6649800   -0.395895162119    0.236459946619
      5   L      11             0.7705450    1.215834355681    0.860618805716

      6   L      12             0.1958570    1.000000000000    1.000000000000

 C         

      7   S      13           172.2560000    0.061766907377
      7   S      14            25.9109000    0.358794042852
      7   S      15             5.5333500    0.700713083689

      8   L      16             3.6649800   -0.395895162119    0.236459946619
      8   L      17             0.7705450    1.215834355681    0.860618805716

      9   L      18             0.1958570    1.000000000000    1.000000000000

 C         

     10   S      19           172.2560000    0.061766907377
     10   S      20            25.9109000    0.358794042852
     10   S      21             5.5333500    0.700713083689

     11   L      22             3.6649800   -0.395895162119    0.236459946619
     11   L      23             0.7705450    1.215834355681    0.860618805716

     12   L      24             0.1958570    1.000000000000    1.000000000000

 C         

     13   S      25           172.2560000    0.061766907377
     13   S      26            25.9109000    0.358794042852
     13   S      27             5.5333500    0.700713083689

     14   L      28             3.6649800   -0.395895162119    0.236459946619
     14   L      29             0.7705450    1.215834355681    0.860618805716

     15   L      30             0.1958570    1.000000000000    1.000000000000

 C         

     16   S      31           172.2560000    0.061766907377
     16   S      32            25.9109000    0.358794042852
     16   S      33             5.5333500    0.700713083689

     17   L      34             3.6649800   -0.395895162119    0.236459946619
     17   L      35             0.7705450    1.215834355681    0.860618805716

     18   L      36             0.1958570    1.000000000000    1.000000000000

 C         

     19   S      37           172.2560000    0.061766907377
     19   S      38            25.9109000    0.358794042852
     19   S      39             5.5333500    0.700713083689

     20   L      40             3.6649800   -0.395895162119    0.236459946619
     20   L      41             0.7705450    1.215834355681    0.860618805716

     21   L      42             0.1958570    1.000000000000    1.000000000000

 C         

     22   S      43           172.2560000    0.061766907377
     22   S      44            25.9109000    0.358794042852
     22   S      45             5.5333500    0.700713083689

     23   L      46             3.6649800   -0.395895162119    0.236459946619
     23   L      47             0.7705450    1.215834355681    0.860618805716

     24   L      48             0.1958570    1.000000000000    1.000000000000

 C         

     25   S      49           172.2560000    0.061766907377
     25   S      50            25.9109000    0.358794042852
     25   S      51             5.5333500    0.700713083689

     26   L      52             3.6649800   -0.395895162119    0.236459946619
     26   L      53             0.7705450    1.215834355681    0.860618805716

     27   L      54             0.1958570    1.000000000000    1.000000000000

 O         

     28   S      55           322.0370000    0.059239393389
     28   S      56            48.4308000    0.351499960776
     28   S      57            10.4206000    0.707657921031

     29   L      58             7.4029400   -0.404453583190    0.244586106967
     29   L      59             1.5762000    1.221561761397    0.853955373466

     30   L      60             0.3736840    1.000000000000    1.000000000000

 O         

     31   S      61           322.0370000    0.059239393389
     31   S      62            48.4308000    0.351499960776
     31   S      63            10.4206000    0.707657921031

     32   L      64             7.4029400   -0.404453583190    0.244586106967
     32   L      65             1.5762000    1.221561761397    0.853955373466

     33   L      66             0.3736840    1.000000000000    1.000000000000

 C         

     34   S      67           172.2560000    0.061766907377
     34   S      68            25.9109000    0.358794042852
     34   S      69             5.5333500    0.700713083689

     35   L      70             3.6649800   -0.395895162119    0.236459946619
     35   L      71             0.7705450    1.215834355681    0.860618805716

     36   L      72             0.1958570    1.000000000000    1.000000000000

 H         

     37   S      73             5.4471780    0.156284978695
     37   S      74             0.8245472    0.904690876670

     38   S      75             0.1831916    1.000000000000

 H         

     39   S      76             5.4471780    0.156284978695
     39   S      77             0.8245472    0.904690876670

     40   S      78             0.1831916    1.000000000000

 H         

     41   S      79             5.4471780    0.156284978695
     41   S      80             0.8245472    0.904690876670

     42   S      81             0.1831916    1.000000000000

 H         

     43   S      82             5.4471780    0.156284978695
     43   S      83             0.8245472    0.904690876670

     44   S      84             0.1831916    1.000000000000

 H         

     45   S      85             5.4471780    0.156284978695
     45   S      86             0.8245472    0.904690876670

     46   S      87             0.1831916    1.000000000000

 H         

     47   S      88             5.4471780    0.156284978695
     47   S      89             0.8245472    0.904690876670

     48   S      90             0.1831916    1.000000000000

 H         

     49   S      91             5.4471780    0.156284978695
     49   S      92             0.8245472    0.904690876670

     50   S      93             0.1831916    1.000000000000

 H         

     51   S      94             5.4471780    0.156284978695
     51   S      95             0.8245472    0.904690876670

     52   S      96             0.1831916    1.000000000000

 H         

     53   S      97             5.4471780    0.156284978695
     53   S      98             0.8245472    0.904690876670

     54   S      99             0.1831916    1.000000000000

 H         

     55   S     100             5.4471780    0.156284978695
     55   S     101             0.8245472    0.904690876670

     56   S     102             0.1831916    1.000000000000

 TOTAL NUMBER OF BASIS SET SHELLS             =   56
 NUMBER OF CARTESIAN GAUSSIAN BASIS FUNCTIONS =  128
 NUMBER OF ELECTRONS                          =   86
 CHARGE OF MOLECULE                           =    0
 SPIN MULTIPLICITY                            =    1
 NUMBER OF OCCUPIED ORBITALS (ALPHA)          =   43
 NUMBER OF OCCUPIED ORBITALS (BETA )          =   43
 TOTAL NUMBER OF ATOMS                        =   22
 THE NUCLEAR REPULSION ENERGY IS      613.5617949296

 SELECTED MURRAY-HANDY-LAMING RADIAL GRID

 LEGACY BECKE'S FUZZY CELL METHOD

 SELECTED ORIGINAL BECKE'S PARTITION FUNCTION

     LEBEDEV GRID-BASED DFT OPTIONS
     ------------------------------
     DFTTYP=B3LYP   
     NRAD  =      96     NLEB  =     302
     NRAD0 =      24     NLEB0 =     110
     SWOFF =    5.00E-03 (PURE SCF -> DFT)
     SWITCH=    3.00E-04 (COARSE -> TIGHT GRID)
     THRESH=    0.00E+00 GTHRE=    1.00E+00

 GRIMME'S EMPIRICAL DISPERSION CORRECTION= F

     $CONTRL OPTIONS
     ---------------
 SCFTYP=RHF          RUNTYP=ENERGY       EXETYP=RUN     
 MPLEVL=       0     CITYP =NONE         CCTYP =NONE         VBTYP =NONE    
 DFTTYP=B3LYP        TDDFT =NONE    
 MULT  =       1     ICHARG=       0     NZVAR =       0     COORD =UNIQUE  
 PP    =NONE         RELWFN=NONE         LOCAL =NONE         NUMGRD=       F
 ISPHER=      -1     NOSYM =       0     MAXIT =      60     UNITS =ANGS    
 PLTORB=       F     MOLPLT=       F     AIMPAC=       F     FRIEND=        
 NPRINT=       7     IREST =       0     GEOM  =INPUT   
 NORMF =       0     NORMP =       0     ITOL  =      20     ICUT  =       9
 INTTYP=BEST         GRDTYP=BEST         QMTTOL= 1.0E-06

     $SYSTEM OPTIONS
     ---------------
  REPLICATED MEMORY=    30000000 WORDS (ON EVERY NODE).
 DISTRIBUTED MEMDDI=        1000 MILLION WORDS IN AGGREGATE,
 MEMDDI DISTRIBUTED OVER   6 PROCESSORS IS   166666666 WORDS/PROCESSOR.
 TOTAL MEMORY REQUESTED ON EACH PROCESSOR=   196666666 WORDS.
 TIMLIM=      525600.00 MINUTES, OR     365.0 DAYS.
 PARALL= T  BALTYP=  DLB     KDIAG=    0  COREFL= F
 MXSEQ2=     300 MXSEQ3=     150  mem10=         0

     INPUT FOR POTENTIAL-DERIVED CHARGES 
     -----------------------------------
     VDWSCL=    1.00   RMAX=    3.00   DELR=    0.80
     VDWINC=    0.20 PTDENS=    0.28
     LAYER =       4  NFREQ=      30 MAXPDC=   10000
     CONSTR=CHARGE    UNITS=ANGS      PTSEL=CHELPG  
     CENTER=  0.0000  0.0000  0.0000
     DPOLE =  0.0000  0.0000  0.0000
     QPOLE =  0.0000  0.0000  0.0000  0.0000  0.0000  0.0000


          ----------------
          PROPERTIES INPUT
          ----------------

     MOMENTS            FIELD           POTENTIAL          DENSITY
 IEMOM =       1   IEFLD =       0   IEPOT =       1   IEDEN =       0
 WHERE =COMASS     WHERE =NUCLEI     WHERE =PDC        WHERE =NUCLEI  
 OUTPUT=BOTH       OUTPUT=BOTH       OUTPUT=BOTH       OUTPUT=BOTH    
 IEMINT=       0   IEFINT=       0                     IEDINT=       0
                                                       MORB  =       0
          EXTRAPOLATION IN EFFECT
          DIIS IN EFFECT
 ORBITAL PRINTING OPTION: NPREO=     1   128     2     1

     -------------------------------
     INTEGRAL TRANSFORMATION OPTIONS
     -------------------------------
     NWORD  =            0
     CUTOFF = 1.0E-09     MPTRAN =       0
     DIRTRF =       T     AOINTS =DUP     

          ----------------------
          INTEGRAL INPUT OPTIONS
          ----------------------
 NOPK  =       1 NORDER=       0 SCHWRZ=       T

     ------------------------------------------
     THE POINT GROUP IS C1 , NAXIS= 0, ORDER= 1
     ------------------------------------------

     DIMENSIONS OF THE SYMMETRY SUBSPACES ARE
 A   =  128

 ..... DONE SETTING UP THE RUN .....
 CPU     0: STEP CPU TIME=     0.02 TOTAL CPU TIME=          0.0 (      0.0 MIN)
 TOTAL WALL CLOCK TIME=          0.0 SECONDS, CPU UTILIZATION IS    66.67%

          ********************
          1 ELECTRON INTEGRALS
          ********************
 ...... END OF ONE-ELECTRON INTEGRALS ......
 CPU     0: STEP CPU TIME=     0.01 TOTAL CPU TIME=          0.0 (      0.0 MIN)
 TOTAL WALL CLOCK TIME=          0.1 SECONDS, CPU UTILIZATION IS    60.00%

          -------------
          GUESS OPTIONS
          -------------
          GUESS =HUCKEL            NORB  =       0          NORDER=       0
          MIX   =       F          PRTMO =       F          PUNMO =       F
          TOLZ  = 1.0E-08          TOLE  = 1.0E-05
          SYMDEN=       F          PURIFY=       F

 INITIAL GUESS ORBITALS GENERATED BY HUCKEL   ROUTINE.
 HUCKEL GUESS REQUIRES    154906 WORDS.

 SYMMETRIES FOR INITIAL GUESS ORBITALS FOLLOW.   BOTH SET(S).
    43 ORBITALS ARE OCCUPIED (   12 CORE ORBITALS).
    13=A       14=A       15=A       16=A       17=A       18=A       19=A   
    20=A       21=A       22=A       23=A       24=A       25=A       26=A   
    27=A       28=A       29=A       30=A       31=A       32=A       33=A   
    34=A       35=A       36=A       37=A       38=A       39=A       40=A   
    41=A       42=A       43=A       44=A       45=A       46=A       47=A   
    48=A       49=A       50=A       51=A       52=A       53=A   
 ...... END OF INITIAL ORBITAL SELECTION ......
 CPU     0: STEP CPU TIME=     0.04 TOTAL CPU TIME=          0.1 (      0.0 MIN)
 TOTAL WALL CLOCK TIME=          0.1 SECONDS, CPU UTILIZATION IS    87.50%

                    ----------------------
                    AO INTEGRAL TECHNOLOGY
                    ----------------------
     S,P,L SHELL ROTATED AXIS INTEGRALS, REPROGRAMMED BY
        KAZUYA ISHIMURA (IMS) AND JOSE SIERRA (SYNSTAR).
     S,P,D,L SHELL ROTATED AXIS INTEGRALS PROGRAMMED BY
        KAZUYA ISHIMURA (INSTITUTE FOR MOLECULAR SCIENCE).
     S,P,D,F,G SHELL TO TOTAL QUARTET ANGULAR MOMENTUM SUM 5,
        ERIC PROGRAM BY GRAHAM FLETCHER (ELORET AND NASA ADVANCED
        SUPERCOMPUTING DIVISION, AMES RESEARCH CENTER).
     S,P,D,F,G,L SHELL GENERAL RYS QUADRATURE PROGRAMMED BY
        MICHEL DUPUIS (PACIFIC NORTHWEST NATIONAL LABORATORY).

          --------------------
          2 ELECTRON INTEGRALS
          --------------------

 DIRECT SCF METHOD SKIPS INTEGRAL STORAGE ON DISK.
 DIRECT TRANSFORMATION SKIPS AO INTEGRAL STORAGE ON DISK.
  ...... END OF TWO-ELECTRON INTEGRALS .....
 CPU     0: STEP CPU TIME=     0.01 TOTAL CPU TIME=          0.1 (      0.0 MIN)
 TOTAL WALL CLOCK TIME=          0.1 SECONDS, CPU UTILIZATION IS    80.00%

          --------------------------
             R-B3LYP SCF CALCULATION
          --------------------------

     NUCLEAR ENERGY =       613.5617949296
     MAXIT =   60     NPUNCH=    2
     EXTRAP=T  DAMP=F  SHIFT=F  RSTRCT=F  DIIS=T  DEM=F  SOSCF=F
         DENSITY MATRIX CONVERGENCE THRESHOLD=  2.00E-05
     COARSE -> FINE DFT GRID SWITCH THRESHOLD=  3.00E-04 (SWITCH IN $DFT)
                   HF -> DFT SWITCH THRESHOLD=  5.00E-03 (SWOFF IN $DFT)
     MEMORY REQUIRED FOR RHF ITERS=    886283 WORDS.

 DIRECT SCF CALCULATION, SCHWRZ=T   FDIFF=T,  DIRTHR=  0.00E+00 NITDIR=10
 SCHWARZ INEQUALITY OVERHEAD:      7019 INTEGRALS, T=        0.00

 DFT CODE IS SWITCHING FROM THE FINE GRID NRAD= 96,  NLEB=  302
                      TO THE COARSE GRID NRAD0= 24, NLEB0=  110

     EXCHANGE FUNCTIONAL   =B88&HFX   
     CORRELATION FUNCTIONAL=LYP88&VWN5
     DFT THRESHOLD         =.627E-08
     GRID CHANGE THRESHOLD =.300E-03
 FOR AN EULER-MACLAURIN QUADRATURE USING  96 RADIAL POINTS:
 SMALLEST GAUSSIAN PRIMITIVE EXPONENT=        0.1831915800 OF TYPE -S-
 ON ATOM NUMBER  13 HAS RADIAL NORMALIZATION=  1.000000
  LARGEST GAUSSIAN PRIMITIVE EXPONENT=      322.0370000000 OF TYPE -S-
 ON ATOM NUMBER  10 HAS RADIAL NORMALIZATION=  1.000000
 DFT IS SWITCHED OFF, PERFORMING PURE SCF UNTIL SWOFF THRESHOLD IS REACHED.

                                                                                   NONZERO     BLOCKS
 ITER EX DEM     TOTAL ENERGY        E CHANGE  DENSITY CHANGE    DIIS ERROR      INTEGRALS    SKIPPED
   1  0  0     -530.0269113364  -530.0269113364   0.779255990   0.664988374       13468783     829783
          * * *   INITIATING DIIS PROCEDURE   * * *
   2  1  0     -531.1376928630    -1.1107815265   0.149531041   0.152793955       13451338     841346
   3  2  0     -531.1998609666    -0.0621681036   0.076615378   0.113539769       13378590     863038
   4  3  0     -531.2507550949    -0.0508941283   0.022226967   0.014760130       13242955     884937
   5  4  0     -531.2521960653    -0.0014409704   0.004912571   0.004409163       13094656     900953
 CONVERGED TO SWOFF, SO DFT CALCULATION IS NOW SWITCHED ON.
          * * *   INITIATING DIIS PROCEDURE   * * *
   6  5  0     -534.2007554422    -2.9485593769   0.137359642   0.092506711       13471539     827194
   7  6  0     -534.2436058528    -0.0428504105   0.055853851   0.030583192       13421611     854264
   8  7  0     -534.2450898202    -0.0014839675   0.041466124   0.039420527       13315033     873927
   9  8  0     -534.2542874371    -0.0091976169   0.014194240   0.014769289       13211442     888654
  10  9  0     -534.2552507167    -0.0009632796   0.003503528   0.006525058       12995824     909828
  11 10  0     -534.2553465172    -0.0000958005   0.000625131   0.000482893       12514357     943600
  12 11  0     -534.2553481962    -0.0000016790   0.000334228   0.000389442       12224189     956768
  13 12  0     -534.2553489538    -0.0000007577   0.000110534   0.000079628       11772667     980721
 DFT CODE IS SWITCHING BACK TO THE FINE GRID
          * * *   INITIATING DIIS PROCEDURE   * * *
  14 13  0     -534.2544635722     0.0008853816   0.001865467   0.001900902       13475161     824382
  15 14  0     -534.2544918390    -0.0000282668   0.001584951   0.001105832       12786967     926065
  16 15  0     -534.2544889617     0.0000028773   0.000747864   0.001743884       12247898     957870
  17 16  0     -534.2544954340    -0.0000064722   0.000243650   0.000209126       11984110     971053
  18 17  0     -534.2544956830    -0.0000002490   0.000064892   0.000049848       11297734     999513
  19 18  0     -534.2544956947    -0.0000000117   0.000015839   0.000013115       10644180    1022288
  20 19  0     -534.2544956960    -0.0000000013   0.000005807   0.000007140       10116221    1039567

          -----------------
          DENSITY CONVERGED
          -----------------
     TIME TO FORM FOCK OPERATORS=      29.8 SECONDS (       1.5 SEC/ITER)
     FOCK TIME ON FIRST ITERATION=       0.2, LAST ITERATION=       3.8
     TIME TO SOLVE SCF EQUATIONS=       0.4 SECONDS (       0.0 SEC/ITER)

 FINAL R-B3LYP ENERGY IS     -534.2544956960 AFTER  20 ITERATIONS
 DFT EXCHANGE + CORRELATION ENERGY =       -60.2842936401
 TOTAL ELECTRON NUMBER             =        86.0005886125

          ------------
          EIGENVECTORS
          ------------

                      1          2          3          4          5
                  -19.0721   -19.0148   -10.2436   -10.1712   -10.1477
                     A          A          A          A          A   
    1  C  1  S   -0.000420   0.000355   0.985262   0.000334   0.000086
    2  C  1  S   -0.000695   0.002255   0.105133  -0.000468  -0.000156
    3  C  1  X    0.001338   0.000332   0.000370  -0.001749   0.000193
    4  C  1  Y   -0.000699   0.001741   0.000565  -0.000074  -0.000086
    5  C  1  Z   -0.000026   0.000030   0.000003  -0.000005  -0.000005
    6  C  1  S    0.016906   0.014932  -0.054746  -0.001857  -0.000498
    7  C  1  X    0.011775   0.010383   0.018729   0.017589  -0.001231
    8  C  1  Y   -0.019508   0.040144   0.015282   0.002860   0.003853
    9  C  1  Z   -0.000389   0.000551   0.000140  -0.000024   0.000069
   10  C  2  S    0.000016   0.000165  -0.004789  -0.002214   0.006099
   11  C  2  S   -0.000159   0.001004  -0.003238  -0.001660   0.001916
   12  C  2  X   -0.000033  -0.000580  -0.001567   0.000429  -0.000149
   13  C  2  Y   -0.000666   0.001307  -0.000029  -0.000463   0.000458
   14  C  2  Z   -0.000006   0.000017   0.000002  -0.000004   0.000020
   15  C  2  S   -0.000531  -0.001945   0.019704   0.015596  -0.012862
   16  C  2  X   -0.008202   0.020907   0.021911   0.003857   0.009292
   17  C  2  Y    0.008860  -0.018401  -0.002770   0.007936  -0.003886
   18  C  2  Z    0.000126  -0.000220  -0.000046   0.000046  -0.000065
   19  C  3  S    0.000079  -0.000223  -0.001387   0.000176  -0.255502
   20  C  3  S    0.000147  -0.000927  -0.001216   0.000268  -0.031621
   21  C  3  X   -0.001158   0.001033  -0.001185  -0.000312   0.001393
   22  C  3  Y   -0.000104   0.000279  -0.000018   0.000021   0.000932
   23  C  3  Z   -0.000005  -0.000005   0.000002   0.000002   0.000004
   24  C  3  S   -0.012856   0.024074   0.004720  -0.006388   0.048961
   25  C  3  X    0.004846   0.003402   0.010799  -0.002475  -0.010693
   26  C  3  Y    0.005091  -0.012020  -0.003933   0.001353  -0.011724
   27  C  3  Z    0.000012   0.000033   0.000014  -0.000011  -0.000058
   28  C  4  S   -0.000111   0.000124  -0.000520  -0.000850   0.950001
   29  C  4  S   -0.000627   0.000651  -0.000487  -0.000259   0.108224
   30  C  4  X   -0.000272   0.000175  -0.000509  -0.000254   0.000126
   31  C  4  Y   -0.000034  -0.000296  -0.000097   0.000169  -0.000152
   32  C  4  Z   -0.000002   0.000007  -0.000003  -0.000002   0.000001
   33  C  4  S    0.005728  -0.006352   0.001069  -0.000361  -0.115370
   34  C  4  X    0.007739  -0.006846   0.007484   0.002272   0.003684
   35  C  4  Y    0.000447   0.005191   0.003989  -0.001743   0.005416
   36  C  4  Z    0.000050  -0.000102   0.000028   0.000028   0.000011
   37  C  5  S   -0.000035   0.000041  -0.000369  -0.000358  -0.051481
   38  C  5  S   -0.000215   0.000186  -0.000398  -0.000220  -0.009593
   39  C  5  X    0.000072  -0.000337  -0.000152   0.000122  -0.000983
   40  C  5  Y    0.000063  -0.000030   0.000091   0.000018   0.001555
   41  C  5  Z    0.000000  -0.000004  -0.000005   0.000001  -0.000032
   42  C  5  S    0.002655  -0.005078   0.001620   0.002562   0.034758
   43  C  5  X   -0.001321   0.001298  -0.000157  -0.000212   0.007121
   44  C  5  Y   -0.002480   0.002953  -0.002511  -0.001427  -0.017403
   45  C  5  Z    0.000020  -0.000024   0.000032   0.000019   0.000278
   46  C  6  S    0.000013  -0.000039  -0.000158   0.000118   0.000255
   47  C  6  S    0.000023  -0.000190  -0.000134   0.000091   0.000588
   48  C  6  X   -0.000132   0.000110  -0.000139  -0.000046  -0.000505
   49  C  6  Y    0.000018   0.000024  -0.000006  -0.000037  -0.000131
   50  C  6  Z   -0.000002   0.000001  -0.000001  -0.000000  -0.000001
   51  C  6  S   -0.002083   0.003078  -0.000476  -0.001074  -0.010768
   52  C  6  X   -0.000738   0.001336  -0.000112  -0.000615  -0.004754
   53  C  6  Y    0.000399  -0.000752   0.000372   0.000420   0.007458
   54  C  6  Z   -0.000013   0.000023  -0.000007  -0.000012  -0.000146
   55  C  7  S   -0.000017   0.000012  -0.000069  -0.000063  -0.004636
   56  C  7  S   -0.000105   0.000080  -0.000092  -0.000037  -0.001329
   57  C  7  X   -0.000081   0.000106  -0.000013  -0.000021  -0.000105
   58  C  7  Y   -0.000006  -0.000046   0.000009   0.000045  -0.000046
   59  C  7  Z   -0.000001   0.000002   0.000000  -0.000001   0.000001
   60  C  7  S    0.000586  -0.000129   0.001174   0.000357   0.013210
   61  C  7  X    0.000763  -0.000774   0.000327   0.000233   0.007277
   62  C  7  Y    0.000416  -0.000847  -0.000388   0.000037   0.000990
   63  C  7  Z    0.000004  -0.000000   0.000005   0.000002   0.000057
   64  C  8  S    0.000014  -0.000017  -0.000244  -0.000273   0.000553
   65  C  8  S    0.000024  -0.000053  -0.000235  -0.000110   0.000644
   66  C  8  X   -0.000100   0.000023  -0.000147  -0.000018  -0.000572
   67  C  8  Y   -0.000098   0.000147  -0.000046  -0.000050  -0.000009
   68  C  8  Z    0.000001  -0.000003  -0.000003   0.000000  -0.000006
   69  C  8  S   -0.002255   0.002619   0.000435   0.000055  -0.010506
   70  C  8  X   -0.001029   0.001890   0.001348   0.000213   0.000038
   71  C  8  Y   -0.000100  -0.000850  -0.000836   0.000165  -0.010011
   72  C  8  Z   -0.000013   0.000040   0.000036   0.000001   0.000141
   73  C  9  S   -0.000035  -0.000012  -0.000280  -0.000106  -0.050562
   74  C  9  S   -0.000246   0.000007  -0.000314   0.000004  -0.009642
   75  C  9  X    0.000083  -0.000097  -0.000231  -0.000119  -0.000180
   76  C  9  Y    0.000052  -0.000090  -0.000194  -0.000054  -0.001760
   77  C  9  Z   -0.000002   0.000006   0.000008   0.000001   0.000028
   78  C  9  S    0.002167   0.000977   0.002246  -0.000911   0.038729
   79  C  9  X   -0.002659   0.003826   0.000455  -0.000259   0.001227
   80  C  9  Y    0.000154   0.003080   0.004375   0.000023   0.022442
   81  C  9  Z   -0.000016  -0.000029  -0.000079  -0.000002  -0.000314
   82  O 10  S   -0.003288   0.982961   0.000448   0.000098   0.000041
   83  O 10  S   -0.001081   0.109074   0.002106   0.000710   0.000308
   84  O 10  X    0.000794  -0.001245   0.000853   0.000135   0.000056
   85  O 10  Y   -0.000120  -0.004633   0.000768   0.000044  -0.000025
   86  O 10  Z   -0.000005  -0.000075   0.000007  -0.000019   0.000001
   87  O 10  S    0.004803  -0.070846  -0.007330  -0.004567  -0.002011
   88  O 10  X   -0.004811   0.005145  -0.001682  -0.002067   0.000230
   89  O 10  Y    0.000888   0.018612   0.007431   0.001581   0.000528
   90  O 10  Z    0.000040   0.000291   0.000135   0.000092   0.000002
   91  O 11  S    0.982764   0.003091   0.000215   0.000042  -0.000030
   92  O 11  S    0.107766  -0.000566   0.001441   0.000699  -0.000230
   93  O 11  X    0.000504   0.001034   0.000340   0.000795  -0.000057
   94  O 11  Y    0.003777   0.000438   0.000876   0.000784  -0.000060
   95  O 11  Z    0.000062  -0.000008   0.000010   0.000002  -0.000001
   96  O 11  S   -0.060949   0.006826   0.001797   0.003441   0.001536
   97  O 11  X    0.001377  -0.006670  -0.002425   0.000959  -0.000185
   98  O 11  Y   -0.011921  -0.002111  -0.005037  -0.003246   0.000537
   99  O 11  Z   -0.000214   0.000045  -0.000055  -0.000040   0.000012
  100  C 12  S   -0.000594   0.000031  -0.000602   0.985957   0.000810
  101  C 12  S   -0.001770   0.000516  -0.000909   0.109724  -0.000026
  102  C 12  X   -0.002390  -0.000949  -0.000104  -0.001274   0.000110
  103  C 12  Y   -0.000356  -0.000171  -0.000362   0.000525   0.000015
  104  C 12  Z    0.000013   0.000004   0.000007   0.000050   0.000000
  105  C 12  S    0.013630   0.001949   0.003223  -0.076252   0.000089
  106  C 12  X   -0.005254   0.000912  -0.002546   0.000170  -0.000225
  107  C 12  Y   -0.001545  -0.002197   0.001672  -0.004252   0.000019
  108  C 12  Z   -0.000001  -0.000090  -0.000025  -0.000243  -0.000004
  109  H 13  S    0.000818  -0.001954  -0.001723   0.000210   0.000692
  110  H 13  S    0.004156  -0.006653  -0.001755   0.001983  -0.000847
  111  H 14  S   -0.000535   0.000248  -0.000540   0.000082   0.000098
  112  H 14  S   -0.000297   0.002019   0.001235   0.000656  -0.001620
  113  H 15  S    0.000205  -0.000242   0.000079   0.000093  -0.000390
  114  H 15  S    0.000937  -0.000696   0.001152   0.000208   0.002147
  115  H 16  S    0.000003   0.000009  -0.000047  -0.000035  -0.000548
  116  H 16  S   -0.000041   0.000240   0.000021  -0.000151  -0.001598
  117  H 17  S    0.000064  -0.000113  -0.000058   0.000006   0.000155
  118  H 17  S    0.000272  -0.000315   0.000048   0.000062   0.001594
  119  H 18  S    0.000054  -0.000165  -0.000100   0.000017  -0.000663
  120  H 18  S    0.000150  -0.000382  -0.000076   0.000106  -0.001902
  121  H 19  S    0.000335  -0.000493  -0.000161   0.000006  -0.000631
  122  H 19  S   -0.000145   0.001169   0.002292   0.000314   0.003000
  123  H 20  S   -0.001151   0.000148  -0.000753  -0.000501  -0.000016
  124  H 20  S   -0.001648  -0.000549  -0.000385   0.016140   0.000030
  125  H 21  S   -0.001112   0.000190  -0.000684  -0.000544  -0.000017
  126  H 21  S   -0.001642  -0.000583  -0.000217   0.016266   0.000046
  127  H 22  S   -0.001164  -0.000519   0.000254  -0.001504  -0.000008
  128  H 22  S   -0.001578  -0.001410   0.000405   0.013883   0.000075

                      6          7          8          9         10
                  -10.1454   -10.1372   -10.1370   -10.1367   -10.1351
                     A          A          A          A          A   
    1  C  1  S    0.001070   0.000095   0.000069   0.000235   0.000110
    2  C  1  S   -0.000713  -0.000044  -0.000237  -0.000200  -0.000177
    3  C  1  X    0.000502   0.000117   0.000016   0.000185   0.000098
    4  C  1  Y    0.000065  -0.000034  -0.000026  -0.000028   0.000005
    5  C  1  Z    0.000001  -0.000001   0.000002  -0.000001  -0.000000
    6  C  1  S    0.003144  -0.000744   0.002364   0.000117   0.001158
    7  C  1  X   -0.002576  -0.000113  -0.001737  -0.000817  -0.001332
    8  C  1  Y   -0.002473   0.001443  -0.000449   0.000944   0.000510
    9  C  1  Z    0.000004   0.000025  -0.000008   0.000020   0.000013
   10  C  2  S   -0.042935  -0.003805  -0.003807  -0.011191  -0.004291
   11  C  2  S   -0.009117  -0.000527  -0.000426  -0.001540  -0.000344
   12  C  2  X    0.002358  -0.000031   0.000521   0.000143   0.000298
   13  C  2  Y   -0.001675  -0.000010  -0.000104   0.000056   0.000131
   14  C  2  Z   -0.000003   0.000005  -0.000006   0.000004   0.000003
   15  C  2  S    0.034786   0.000715  -0.004788   0.003076  -0.002867
   16  C  2  X   -0.020688   0.001784  -0.001399  -0.000432   0.000355
   17  C  2  Y    0.008359  -0.000089  -0.001383   0.000474  -0.001710
   18  C  2  Z    0.000002  -0.000018  -0.000002  -0.000010  -0.000019
   19  C  3  S    0.951112   0.007261   0.004559   0.013516   0.005501
   20  C  3  S    0.104859   0.000169   0.000057   0.000480   0.000030
   21  C  3  X    0.000471  -0.000054  -0.000008   0.000454   0.000041
   22  C  3  Y   -0.001090   0.000041  -0.000169   0.000072   0.000522
   23  C  3  Z   -0.000010  -0.000001   0.000005   0.000002  -0.000004
   24  C  3  S   -0.090830   0.013291   0.002344   0.009388   0.004035
   25  C  3  X   -0.002613  -0.006387   0.002184  -0.007893  -0.000219
   26  C  3  Y    0.018201  -0.002170  -0.004666  -0.000473  -0.003225
   27  C  3  Z    0.000081  -0.000021   0.000039  -0.000027   0.000003
   28  C  4  S    0.252786   0.040262   0.012983   0.060427   0.012068
   29  C  4  S    0.025288   0.000662   0.000334   0.002373   0.000475
   30  C  4  X   -0.002111   0.001225   0.000879   0.001684   0.000410
   31  C  4  Y    0.000266   0.000459  -0.002121   0.000709   0.001507
   32  C  4  Z   -0.000017   0.000005   0.000031   0.000006  -0.000018
   33  C  4  S   -0.003651   0.039398   0.009068   0.028460   0.003101
   34  C  4  X    0.025019  -0.034005  -0.010649  -0.025835  -0.003936
   35  C  4  Y   -0.007271  -0.010221   0.022334  -0.009838  -0.004179
   36  C  4  Z    0.000212  -0.000166  -0.000360  -0.000106   0.000040
   37  C  5  S   -0.029333   0.274490   0.756839   0.491398  -0.126443
   38  C  5  S   -0.005225   0.032582   0.085569   0.054529  -0.012471
   39  C  5  X   -0.000596  -0.000291  -0.000594  -0.001211  -0.000857
   40  C  5  Y    0.000342  -0.000161  -0.001629  -0.000287   0.000426
   41  C  5  Z    0.000003  -0.000002   0.000013  -0.000010  -0.000013
   42  C  5  S    0.018789  -0.062360  -0.084332  -0.050893  -0.004643
   43  C  5  X    0.004946   0.013592   0.005269   0.007546   0.006718
   44  C  5  Y   -0.008875   0.027261   0.019955   0.013601   0.004012
   45  C  5  Z    0.000141  -0.000197  -0.000189  -0.000085   0.000008
   46  C  6  S   -0.002910  -0.284209  -0.239648   0.004564  -0.472090
   47  C  6  S   -0.000550  -0.037198  -0.030155   0.000195  -0.052979
   48  C  6  X   -0.000479  -0.000992  -0.001643  -0.001226  -0.000157
   49  C  6  Y   -0.000062   0.001475   0.000636  -0.001029   0.001807
   50  C  6  Z   -0.000007  -0.000028  -0.000024   0.000001  -0.000025
   51  C  6  S   -0.002292   0.083398   0.047157   0.006479   0.043734
   52  C  6  X    0.000316   0.023099   0.018339   0.012443   0.003470
   53  C  6  Y    0.002039  -0.031598  -0.009229   0.005366  -0.009769
   54  C  6  Z   -0.000011   0.000629   0.000298   0.000054   0.000163
   55  C  7  S   -0.003381   0.703126   0.025733  -0.575966   0.144370
   56  C  7  S   -0.000638   0.082018   0.003090  -0.063559   0.014634
   57  C  7  X   -0.000261   0.001596   0.000060  -0.001509  -0.000829
   58  C  7  Y    0.000044   0.000295  -0.000634  -0.000280   0.001967
   59  C  7  Z   -0.000004   0.000013   0.000008  -0.000013  -0.000033
   60  C  7  S    0.001342  -0.112867  -0.007686   0.040579  -0.005944
   61  C  7  X    0.000670  -0.042350  -0.002612   0.002987   0.004128
   62  C  7  Y    0.001307  -0.008020  -0.005077   0.001484  -0.014500
   63  C  7  Z   -0.000005  -0.000324   0.000040   0.000017   0.000223
   64  C  8  S   -0.005847  -0.416505   0.198654  -0.068834   0.780445
   65  C  8  S   -0.001175  -0.052388   0.023996  -0.008663   0.084640
   66  C  8  X   -0.000310  -0.000470   0.000827  -0.001729  -0.000397
   67  C  8  Y   -0.000386  -0.002141   0.000787   0.000075   0.000991
   68  C  8  Z    0.000005   0.000023  -0.000002  -0.000018  -0.000016
   69  C  8  S   -0.001257   0.098520  -0.028871   0.017648  -0.056829
   70  C  8  X   -0.000475   0.010469  -0.008298   0.016173   0.000371
   71  C  8  Y    0.001535   0.041874  -0.007194   0.003621  -0.007908
   72  C  8  Z   -0.000048  -0.000451   0.000014   0.000107   0.000111
   73  C  9  S   -0.026835   0.385147  -0.549477   0.624661   0.320620
   74  C  9  S   -0.004193   0.045646  -0.062380   0.069887   0.032187
   75  C  9  X   -0.000733  -0.000752   0.000930  -0.001593   0.001460
   76  C  9  Y   -0.000967   0.000149  -0.001250  -0.000093   0.000507
   77  C  9  Z   -0.000007  -0.000008   0.000022  -0.000014   0.000009
   78  C  9  S    0.004410  -0.078613   0.057318  -0.068723  -0.006538
   79  C  9  X   -0.003490   0.027113  -0.006021   0.015042  -0.009026
   80  C  9  Y    0.002264  -0.021780   0.009179  -0.012532  -0.001827
   81  C  9  Z    0.000000   0.000544  -0.000175   0.000310  -0.000074
   82  O 10  S   -0.000011   0.000014   0.000000   0.000009   0.000010
   83  O 10  S   -0.000064   0.000108  -0.000002   0.000058   0.000082
   84  O 10  X   -0.000143   0.000025  -0.000031   0.000014  -0.000036
   85  O 10  Y    0.000068  -0.000008   0.000004  -0.000002   0.000012
   86  O 10  Z    0.000003   0.000000  -0.000000   0.000001   0.000000
   87  O 10  S    0.000870  -0.000689   0.000006  -0.000448  -0.000416
   88  O 10  X    0.000710   0.000043   0.000274   0.000129   0.000304
   89  O 10  Y   -0.000459   0.000163  -0.000002   0.000095   0.000056
   90  O 10  Z   -0.000016   0.000000   0.000001  -0.000001   0.000000
   91  O 11  S   -0.000019  -0.000015   0.000002  -0.000015  -0.000007
   92  O 11  S   -0.000247  -0.000128   0.000011  -0.000135  -0.000065
   93  O 11  X    0.000342   0.000030  -0.000018   0.000054  -0.000010
   94  O 11  Y    0.000061  -0.000008  -0.000023  -0.000006  -0.000019
   95  O 11  Z   -0.000004  -0.000001  -0.000000  -0.000001  -0.000001
   96  O 11  S    0.000217   0.000671  -0.000066   0.000607   0.000352
   97  O 11  X   -0.001349  -0.000307   0.000135  -0.000364  -0.000027
   98  O 11  Y   -0.000199   0.000156   0.000086   0.000145   0.000160
   99  O 11  Z    0.000009   0.000007   0.000002   0.000007   0.000004
  100  C 12  S   -0.000039   0.000116   0.000257   0.000197   0.000254
  101  C 12  S   -0.000183  -0.000022  -0.000059  -0.000059  -0.000054
  102  C 12  X   -0.000116   0.000009   0.000050   0.000017   0.000049
  103  C 12  Y   -0.000108   0.000002  -0.000026  -0.000020  -0.000013
  104  C 12  Z   -0.000002   0.000001  -0.000002  -0.000001  -0.000001
  105  C 12  S    0.001072   0.000130   0.000132   0.000266   0.000141
  106  C 12  X   -0.000626  -0.000089  -0.000205  -0.000217  -0.000192
  107  C 12  Y    0.000261  -0.000050   0.000223   0.000063   0.000137
  108  C 12  Z    0.000020  -0.000005   0.000014   0.000003   0.000007
  109  H 13  S   -0.001499   0.000195  -0.000235   0.000064  -0.000013
  110  H 13  S   -0.000787  -0.000770   0.000802  -0.000877  -0.000715
  111  H 14  S   -0.002466  -0.000129   0.000453  -0.000335   0.000202
  112  H 14  S    0.009131   0.000109   0.000569   0.000275   0.001134
  113  H 15  S   -0.000007  -0.001730  -0.001898  -0.001667   0.000305
  114  H 15  S    0.000038  -0.002805   0.005238   0.002374  -0.002406
  115  H 16  S   -0.000113   0.001210   0.000632   0.000156   0.001144
  116  H 16  S    0.000267   0.005270   0.001701   0.001157  -0.003025
  117  H 17  S   -0.000001  -0.002591  -0.000179   0.001123  -0.000547
  118  H 17  S    0.000383  -0.000334  -0.000260  -0.005690   0.002412
  119  H 18  S    0.000175   0.001537  -0.000392   0.000358  -0.002160
  120  H 18  S    0.001048   0.004602   0.000280   0.001188   0.008103
  121  H 19  S    0.000356  -0.002044   0.001162  -0.002046  -0.001202
  122  H 19  S    0.000277  -0.001793  -0.005020   0.003725   0.005299
  123  H 20  S   -0.000122  -0.000007  -0.000038  -0.000033  -0.000029
  124  H 20  S   -0.000098   0.000003  -0.000015  -0.000012  -0.000005
  125  H 21  S   -0.000116  -0.000007  -0.000036  -0.000032  -0.000028
  126  H 21  S   -0.000111   0.000009  -0.000017  -0.000009  -0.000003
  127  H 22  S   -0.000029  -0.000015   0.000018  -0.000010   0.000008
  128  H 22  S    0.000112  -0.000014   0.000141   0.000052   0.000097

                     11         12         13         14         15
                  -10.1343   -10.1331    -1.1012    -1.0136    -0.8701
                     A          A          A          A          A   
    1  C  1  S    0.000188   0.004427  -0.123543  -0.057944  -0.003569
    2  C  1  S   -0.000146  -0.002871   0.138964   0.061355   0.005698
    3  C  1  X    0.000189   0.001429   0.079663  -0.012735  -0.014222
    4  C  1  Y   -0.000064   0.000798   0.024202   0.200925  -0.008888
    5  C  1  Z   -0.000000   0.000006  -0.000217   0.003438  -0.000104
    6  C  1  S   -0.000928   0.030526   0.125413   0.081831  -0.001758
    7  C  1  X   -0.000082  -0.020800  -0.058285  -0.010439   0.005886
    8  C  1  Y    0.000587  -0.000125  -0.036293  -0.085669  -0.002067
    9  C  1  Z    0.000007   0.000054  -0.000230  -0.001200  -0.000082
   10  C  2  S   -0.035587   0.984349  -0.018453  -0.007854  -0.029399
   11  C  2  S   -0.004387   0.109641   0.020254   0.005941   0.032020
   12  C  2  X    0.000098   0.000404   0.021110   0.003652  -0.020185
   13  C  2  Y   -0.000052   0.001458   0.007381   0.012286   0.011895
   14  C  2  Z   -0.000002   0.000001  -0.000015   0.000158  -0.000022
   15  C  2  S    0.007558  -0.099973  -0.004071   0.017812   0.056175
   16  C  2  X   -0.001380  -0.001846  -0.017955  -0.076858   0.004406
   17  C  2  Y    0.002883  -0.022763   0.002553   0.067753   0.005857
   18  C  2  Z    0.000020  -0.000070  -0.000035   0.000873   0.000061
   19  C  3  S    0.009437   0.043286  -0.004055  -0.005030  -0.055985
   20  C  3  S   -0.000030   0.000029   0.005324   0.009726   0.062768
   21  C  3  X    0.000770  -0.002406   0.006756   0.002038  -0.025057
   22  C  3  Y   -0.000090   0.001687  -0.000999  -0.001074  -0.016996
   23  C  3  Z    0.000003  -0.000004  -0.000003   0.000029  -0.000217
   24  C  3  S    0.003193   0.033274   0.005937  -0.087214   0.092166
   25  C  3  X   -0.009523   0.022903  -0.016176   0.001124   0.004433
   26  C  3  Y    0.001120  -0.008310  -0.000404   0.041476  -0.003888
   27  C  3  Z   -0.000036   0.000012  -0.000013  -0.000051  -0.000053
   28  C  4  S    0.026369   0.007149  -0.000269  -0.001455  -0.115045
   29  C  4  S    0.001362   0.000362   0.001152  -0.001239   0.125067
   30  C  4  X    0.001953  -0.000344   0.001278   0.000054  -0.037646
   31  C  4  Y    0.000256   0.000128   0.000020   0.000614  -0.007922
   32  C  4  Z    0.000016   0.000001   0.000007  -0.000013  -0.000295
   33  C  4  S   -0.002415   0.003597  -0.003772   0.027810   0.216013
   34  C  4  X   -0.007533   0.001987  -0.015570   0.034942   0.005398
   35  C  4  Y   -0.003904   0.000486  -0.003349  -0.008906   0.010960
   36  C  4  Z   -0.000026   0.000034  -0.000098   0.000339  -0.000089
   37  C  5  S    0.251082   0.017090   0.000044  -0.000448  -0.097216
   38  C  5  S    0.023565   0.001380   0.000583  -0.000440   0.106692
   39  C  5  X    0.001826  -0.000578   0.000184   0.001322  -0.006291
   40  C  5  Y    0.000950   0.000111  -0.000203   0.000064  -0.056722
   41  C  5  Z    0.000005  -0.000013   0.000006   0.000016   0.000587
   42  C  5  S    0.005146  -0.002286  -0.004778   0.019784   0.181591
   43  C  5  X   -0.010597   0.005088  -0.000043  -0.009073  -0.012159
   44  C  5  Y   -0.005696  -0.000226   0.005938  -0.012821  -0.017730
   45  C  5  Z   -0.000031   0.000065  -0.000080   0.000069   0.000086
   46  C  6  S    0.781472   0.023966  -0.000000   0.000104  -0.087034
   47  C  6  S    0.084010   0.002159   0.000072   0.000698   0.096209
   48  C  6  X    0.000314  -0.000031   0.000201  -0.000335   0.040071
   49  C  6  Y    0.000412   0.000010   0.000020  -0.000006  -0.039370
   50  C  6  Z   -0.000002   0.000002   0.000001  -0.000004   0.000894
   51  C  6  S   -0.060495   0.002467   0.001963  -0.014252   0.149257
   52  C  6  X   -0.007983   0.002944   0.000554  -0.007071   0.002442
   53  C  6  Y    0.006336   0.000972  -0.001480   0.002188  -0.007735
   54  C  6  Z   -0.000160   0.000008   0.000027  -0.000098   0.000118
   55  C  7  S    0.352986   0.009546   0.000031  -0.000104  -0.084841
   56  C  7  S    0.033603   0.000859   0.000153  -0.000228   0.092860
   57  C  7  X   -0.001424  -0.000079   0.000044  -0.000289   0.053732
   58  C  7  Y   -0.000935  -0.000076  -0.000006   0.000043   0.011991
   59  C  7  Z   -0.000002   0.000000   0.000000  -0.000004   0.000397
   60  C  7  S    0.003787  -0.000402  -0.002285   0.002145   0.160258
   61  C  7  X    0.011581  -0.000760  -0.001076   0.004613   0.016853
   62  C  7  Y    0.007556   0.001010  -0.000156   0.002488   0.002690
   63  C  7  Z    0.000019  -0.000016  -0.000007   0.000021   0.000138
   64  C  8  S    0.381189   0.015307   0.000011   0.000034  -0.087326
   65  C  8  S    0.039700   0.001396   0.000146   0.000449   0.096741
   66  C  8  X    0.000726  -0.000105   0.000201  -0.000138   0.020670
   67  C  8  Y   -0.001194  -0.000115   0.000098  -0.000377   0.052266
   68  C  8  Z    0.000023   0.000002   0.000002   0.000006  -0.000487
   69  C  8  S   -0.025997   0.000053   0.001544  -0.012846   0.149585
   70  C  8  X   -0.003986  -0.000296  -0.000536  -0.007219   0.000416
   71  C  8  Y   -0.001872   0.001406   0.001342  -0.000313   0.005289
   72  C  8  Z   -0.000015  -0.000030  -0.000032  -0.000091  -0.000046
   73  C  9  S    0.160700   0.012774  -0.000041  -0.000330  -0.097448
   74  C  9  S    0.015317   0.001135   0.000468   0.000035   0.106103
   75  C  9  X    0.001201  -0.000060   0.000219   0.000790  -0.029997
   76  C  9  Y   -0.000500   0.000157   0.000314   0.000273   0.048556
   77  C  9  Z    0.000018  -0.000007  -0.000007  -0.000007  -0.000922
   78  C  9  S   -0.002540   0.000364  -0.003262   0.004159   0.192893
   79  C  9  X   -0.005997   0.000104   0.002373  -0.016720  -0.014763
   80  C  9  Y   -0.000980  -0.001411  -0.005505  -0.003767   0.017362
   81  C  9  Z   -0.000043   0.000030   0.000115  -0.000047  -0.000404
   82  O 10  S    0.000000   0.000113  -0.113992  -0.177357   0.006308
   83  O 10  S   -0.000002   0.000725   0.104362   0.165959  -0.006412
   84  O 10  X    0.000022  -0.000213  -0.017231  -0.039748  -0.001507
   85  O 10  Y   -0.000009   0.000196  -0.090299  -0.117090   0.003603
   86  O 10  Z    0.000000  -0.000002  -0.001441  -0.001743   0.000059
   87  O 10  S   -0.000101  -0.004235   0.353953   0.572238  -0.019205
   88  O 10  X    0.000001   0.003257  -0.004411  -0.042257  -0.002536
   89  O 10  Y    0.000012   0.001135  -0.094689  -0.113809   0.003098
   90  O 10  Z   -0.000001   0.000026  -0.001626  -0.001711   0.000062
   91  O 11  S   -0.000013  -0.000003  -0.170093   0.140279   0.001238
   92  O 11  S   -0.000122  -0.000245   0.155231  -0.128930  -0.000853
   93  O 11  X    0.000070   0.000269  -0.001412  -0.018106  -0.004620
   94  O 11  Y   -0.000001  -0.000173   0.086098  -0.045748  -0.000979
   95  O 11  Z   -0.000002   0.000001   0.001461  -0.000606   0.000011
   96  O 11  S    0.000491   0.000611   0.520970  -0.471566  -0.005488
   97  O 11  X   -0.000421  -0.000363   0.008859  -0.000727  -0.002263
   98  O 11  Y    0.000092   0.000830   0.109677  -0.057636  -0.001630
   99  O 11  Z    0.000009   0.000003   0.001664  -0.001086  -0.000009
  100  C 12  S    0.000085   0.001802  -0.047141   0.044637   0.002407
  101  C 12  S   -0.000041  -0.000756   0.048792  -0.049046  -0.001814
  102  C 12  X   -0.000005   0.000226  -0.051143   0.049418   0.001366
  103  C 12  Y   -0.000018  -0.000259  -0.008146   0.013638   0.000395
  104  C 12  Z   -0.000000  -0.000020   0.000163  -0.000238   0.000005
  105  C 12  S    0.000230   0.002578   0.068887  -0.085015  -0.006986
  106  C 12  X   -0.000155  -0.002329  -0.005853  -0.002613   0.002359
  107  C 12  Y   -0.000000   0.001910   0.005254   0.014277  -0.001713
  108  C 12  Z    0.000000   0.000139   0.000877   0.000893  -0.000113
  109  H 13  S    0.000100  -0.002885   0.006596   0.005456   0.012673
  110  H 13  S    0.000090   0.008719   0.002240   0.018788   0.004287
  111  H 14  S   -0.000377  -0.001718   0.002953   0.001824   0.023126
  112  H 14  S    0.000520  -0.001438   0.002318   0.000665  -0.000308
  113  H 15  S   -0.000970  -0.000551  -0.000031   0.001113   0.034522
  114  H 15  S    0.005391   0.000818  -0.002812   0.003649   0.001172
  115  H 16  S   -0.002528  -0.000166   0.000092   0.000017   0.028789
  116  H 16  S    0.008533   0.000590   0.000222  -0.000996  -0.004955
  117  H 17  S   -0.001242  -0.000146   0.000019   0.000390   0.028177
  118  H 17  S    0.008459   0.000067  -0.000292   0.001771  -0.002305
  119  H 18  S   -0.001422   0.000004   0.000078   0.000300   0.028802
  120  H 18  S    0.005387   0.000816   0.000123   0.000481  -0.005745
  121  H 19  S   -0.000692   0.000072   0.000097   0.001423   0.034688
  122  H 19  S    0.003592  -0.001842  -0.003526   0.000261   0.001006
  123  H 20  S   -0.000023  -0.000423   0.013155  -0.013580  -0.000714
  124  H 20  S   -0.000008  -0.000234   0.001875   0.005222   0.000181
  125  H 21  S   -0.000023  -0.000413   0.012800  -0.013702  -0.000711
  126  H 21  S   -0.000006  -0.000272   0.000563   0.004312   0.000235
  127  H 22  S   -0.000016   0.000083   0.011706  -0.012475  -0.000961
  128  H 22  S    0.000011   0.001101   0.003594   0.009212  -0.001029

                     16         17         18         19         20
                   -0.8087    -0.7580    -0.7544    -0.7179    -0.6447
                     A          A          A          A          A   
    1  C  1  S   -0.035290  -0.052793   0.039210   0.049516   0.037415
    2  C  1  S    0.044117   0.062366  -0.046845  -0.056837  -0.044243
    3  C  1  X   -0.077172  -0.055287   0.038472  -0.062053   0.121803
    4  C  1  Y   -0.056887  -0.078476   0.058796   0.090786   0.026035
    5  C  1  Z   -0.000665  -0.001046   0.000818   0.001755  -0.000415
    6  C  1  S    0.047752   0.107739  -0.076124  -0.122956  -0.099737
    7  C  1  X   -0.003260  -0.014938   0.008040  -0.020365   0.067090
    8  C  1  Y   -0.010191  -0.022207   0.013662   0.028880   0.030880
    9  C  1  Z   -0.000190  -0.000226   0.000140   0.000410   0.000035
   10  C  2  S   -0.129897  -0.079395   0.051746  -0.054177   0.078526
   11  C  2  S    0.138481   0.083635  -0.054967   0.058931  -0.083174
   12  C  2  X   -0.038044   0.035950  -0.031602  -0.082797  -0.086830
   13  C  2  Y    0.050274   0.014492  -0.013958   0.047441   0.014041
   14  C  2  Z   -0.000045  -0.000076   0.000089   0.000281  -0.000009
   15  C  2  S    0.295151   0.206055  -0.135051   0.114222  -0.229514
   16  C  2  X    0.010074   0.008225  -0.018111  -0.015636   0.001655
   17  C  2  Y    0.031588   0.016971  -0.011775   0.017000  -0.006620
   18  C  2  Z    0.000071  -0.000072   0.000120   0.000176  -0.000088
   19  C  3  S   -0.137140   0.003368   0.004708  -0.076902  -0.082408
   20  C  3  S    0.149146  -0.002628  -0.005466   0.081698   0.085248
   21  C  3  X    0.032020   0.087077  -0.050257   0.061832  -0.108527
   22  C  3  Y   -0.047782  -0.024403  -0.006148  -0.025260   0.034304
   23  C  3  Z   -0.000307   0.000232   0.000085   0.000001  -0.000305
   24  C  3  S    0.287530  -0.008418  -0.017567   0.198670   0.263789
   25  C  3  X   -0.025863  -0.008000   0.009287   0.018356  -0.026556
   26  C  3  Y   -0.015325  -0.004546  -0.000629  -0.012956  -0.000115
   27  C  3  Z   -0.000254   0.000047   0.000105  -0.000076  -0.000186
   28  C  4  S   -0.064557   0.086464  -0.055092   0.042228  -0.052794
   29  C  4  S    0.069896  -0.091597   0.058069  -0.045478   0.055543
   30  C  4  X    0.068959   0.024074   0.005920   0.067993   0.111282
   31  C  4  Y    0.008611  -0.063607  -0.083005   0.009668   0.070618
   32  C  4  Z    0.000307   0.000958   0.001159   0.000324   0.000131
   33  C  4  S    0.122883  -0.213079   0.140825  -0.106603   0.156553
   34  C  4  X   -0.004078  -0.018686   0.017288   0.010892   0.029366
   35  C  4  Y    0.008634  -0.020911  -0.005899   0.009603   0.034424
   36  C  4  Z   -0.000150   0.000045   0.000228   0.000000  -0.000087
   37  C  5  S    0.006944   0.108263   0.070961   0.044337   0.045121
   38  C  5  S   -0.006636  -0.114907  -0.076375  -0.046576  -0.047650
   39  C  5  X    0.055966  -0.024833   0.079623  -0.023142   0.100429
   40  C  5  Y    0.001764   0.025300  -0.011577   0.021808  -0.011481
   41  C  5  Z    0.000484  -0.000496   0.000952  -0.000498   0.001112
   42  C  5  S   -0.017066  -0.255601  -0.159111  -0.117900  -0.133482
   43  C  5  X   -0.005480   0.000027   0.004620  -0.002252   0.040018
   44  C  5  Y    0.007879   0.012354  -0.005771   0.010182   0.002081
   45  C  5  Z   -0.000147  -0.000123   0.000155  -0.000151   0.000406
   46  C  6  S    0.063199   0.021495   0.126310  -0.024487   0.041537
   47  C  6  S   -0.067178  -0.022867  -0.134742   0.026169  -0.043616
   48  C  6  X   -0.000192  -0.061984  -0.021876  -0.043305  -0.076095
   49  C  6  Y    0.037393  -0.051573   0.013249  -0.037252  -0.074153
   50  C  6  Z   -0.000483   0.000045  -0.000387   0.000044   0.000181
   51  C  6  S   -0.139598  -0.045305  -0.300584   0.061616  -0.121276
   52  C  6  X   -0.013540  -0.004328  -0.007524  -0.009000  -0.026642
   53  C  6  Y    0.005295  -0.005523   0.006304  -0.005369  -0.013404
   54  C  6  Z   -0.000207   0.000025  -0.000165  -0.000024  -0.000118
   55  C  7  S    0.080180  -0.082238   0.055350  -0.066876  -0.088221
   56  C  7  S   -0.086624   0.088191  -0.059420   0.070991   0.092218
   57  C  7  X   -0.033108   0.028690   0.007395  -0.000250  -0.026634
   58  C  7  Y   -0.008772  -0.049165  -0.085426   0.004810  -0.041803
   59  C  7  Z   -0.000236   0.000934   0.001153  -0.000047   0.000291
   60  C  7  S   -0.164231   0.188324  -0.127631   0.170218   0.261223
   61  C  7  X   -0.005525   0.003177   0.000828   0.000927  -0.003697
   62  C  7  Y   -0.003949  -0.004609  -0.006358  -0.000834  -0.010715
   63  C  7  Z   -0.000025   0.000106   0.000085   0.000026   0.000125
   64  C  8  S    0.059801  -0.108019  -0.071879  -0.015400  -0.004248
   65  C  8  S   -0.063647   0.114967   0.077071   0.016491   0.004950
   66  C  8  X    0.017421  -0.012964   0.079808  -0.056757  -0.122414
   67  C  8  Y   -0.033002   0.027234  -0.011642   0.015777   0.030009
   68  C  8  Z    0.000589  -0.000484   0.000926  -0.000764  -0.001581
   69  C  8  S   -0.127819   0.260142   0.160664   0.040797   0.007745
   70  C  8  X   -0.002766   0.005384   0.004080  -0.006712  -0.040666
   71  C  8  Y   -0.014085   0.009428   0.000144  -0.002485   0.001923
   72  C  8  Z    0.000190  -0.000067   0.000037  -0.000014  -0.000427
   73  C  9  S    0.000638  -0.030365  -0.126260   0.046595   0.070786
   74  C  9  S   -0.001151   0.033393   0.134338  -0.049767  -0.074923
   75  C  9  X    0.052561  -0.063683  -0.022162  -0.003102   0.031078
   76  C  9  Y    0.021915  -0.051604   0.010942  -0.025625   0.032981
   77  C  9  Z    0.000183   0.000051  -0.000333   0.000268  -0.000141
   78  C  9  S    0.005348   0.055753   0.302622  -0.114724  -0.197997
   79  C  9  X    0.011441   0.005134  -0.013573   0.011511   0.015583
   80  C  9  Y    0.003537  -0.009586   0.004682  -0.000116   0.006948
   81  C  9  Z   -0.000040   0.000162  -0.000165   0.000030   0.000061
   82  O 10  S    0.029916   0.026928  -0.020019  -0.011010  -0.017582
   83  O 10  S   -0.029690  -0.026465   0.019500   0.010174   0.018853
   84  O 10  X   -0.012093  -0.010395   0.007615  -0.011669   0.025950
   85  O 10  Y    0.012829   0.004872  -0.003438   0.009268  -0.001809
   86  O 10  Z    0.000248   0.000154  -0.000105   0.000120  -0.000218
   87  O 10  S   -0.099273  -0.093872   0.071026   0.044773   0.053755
   88  O 10  X   -0.010792  -0.007208   0.005518  -0.007932   0.015451
   89  O 10  Y    0.011820   0.004794  -0.003648   0.006906   0.002088
   90  O 10  Z    0.000240   0.000157  -0.000115   0.000007  -0.000054
   91  O 11  S    0.006972   0.000594   0.000636   0.027170  -0.036815
   92  O 11  S   -0.006242  -0.000355  -0.000629  -0.026145   0.034108
   93  O 11  X   -0.047396  -0.097075   0.074151   0.171135  -0.006163
   94  O 11  Y   -0.001156   0.012995  -0.010737  -0.048685   0.020960
   95  O 11  Z    0.000308   0.000976  -0.000759  -0.002290   0.000458
   96  O 11  S   -0.024875  -0.000000  -0.004942  -0.108859   0.154576
   97  O 11  X   -0.035694  -0.077597   0.059685   0.138574  -0.003749
   98  O 11  Y   -0.002727   0.010026  -0.008690  -0.042045   0.021745
   99  O 11  Z    0.000252   0.000819  -0.000647  -0.001910   0.000423
  100  C 12  S    0.027248   0.065523  -0.050894  -0.148236   0.071157
  101  C 12  S   -0.025937  -0.065441   0.050786   0.149859  -0.071968
  102  C 12  X    0.012217   0.014955  -0.010508   0.003542  -0.053655
  103  C 12  Y    0.004318   0.009729  -0.007440  -0.017566  -0.005997
  104  C 12  Z    0.000028   0.000117  -0.000098  -0.000407   0.000268
  105  C 12  S   -0.071843  -0.178394   0.139246   0.422721  -0.222841
  106  C 12  X    0.008175   0.004611  -0.003320   0.011475  -0.032562
  107  C 12  Y   -0.007718  -0.007940   0.006395   0.007623  -0.004510
  108  C 12  Z   -0.000474  -0.000386   0.000312   0.000049   0.000348
  109  H 13  S    0.057352   0.041050  -0.024071   0.018728  -0.059121
  110  H 13  S    0.008900   0.007679   0.001011  -0.001146  -0.020954
  111  H 14  S    0.062128  -0.004333  -0.009004   0.041476   0.060147
  112  H 14  S    0.004673  -0.005205  -0.004644   0.008588   0.021545
  113  H 15  S    0.002883  -0.057597  -0.037060  -0.021787  -0.021990
  114  H 15  S    0.003976  -0.014082  -0.003597  -0.003403  -0.004185
  115  H 16  S   -0.025518  -0.011280  -0.065436   0.015646  -0.030486
  116  H 16  S   -0.003495  -0.001861  -0.012267   0.003245  -0.014699
  117  H 17  S   -0.032873   0.041892  -0.028485   0.040957   0.075873
  118  H 17  S   -0.001417   0.006422  -0.004284   0.010544   0.032199
  119  H 18  S   -0.024439   0.055302   0.037573   0.010135   0.006383
  120  H 18  S   -0.004536   0.010261   0.006869   0.000919   0.000547
  121  H 19  S    0.006345   0.017075   0.066427  -0.022075  -0.052833
  122  H 19  S    0.008090   0.002366   0.011190  -0.000765  -0.024569
  123  H 20  S   -0.011298  -0.031735   0.024873   0.081115  -0.052526
  124  H 20  S    0.001258   0.001010  -0.000655   0.003291  -0.011028
  125  H 21  S   -0.011296  -0.031905   0.025018   0.081867  -0.053070
  126  H 21  S    0.001474   0.000978  -0.000637   0.004071  -0.011725
  127  H 22  S   -0.013060  -0.036574   0.028744   0.094156  -0.057596
  128  H 22  S   -0.004634  -0.007617   0.006239   0.018000  -0.014694

                     21         22         23         24         25
                   -0.6176    -0.5886    -0.5448    -0.5255    -0.5094
                     A          A          A          A          A   
    1  C  1  S   -0.019383  -0.059142   0.053273  -0.037939   0.026594
    2  C  1  S    0.024176   0.070563  -0.066418   0.048861  -0.027837
    3  C  1  X   -0.045958  -0.060791  -0.101033  -0.017459   0.218243
    4  C  1  Y   -0.015963  -0.067445   0.089022  -0.009890  -0.034110
    5  C  1  Z   -0.000094  -0.000420   0.002313  -0.001298  -0.002466
    6  C  1  S    0.044537   0.167120  -0.149788   0.106433  -0.117933
    7  C  1  X   -0.022008  -0.047723  -0.047350  -0.023674   0.172642
    8  C  1  Y   -0.009365  -0.048741   0.030302   0.004603   0.033083
    9  C  1  Z   -0.000073  -0.000317   0.001128  -0.000799  -0.001090
   10  C  2  S   -0.009090  -0.016074  -0.050087   0.052087  -0.021661
   11  C  2  S    0.009015   0.016372   0.053815  -0.051899   0.019091
   12  C  2  X    0.054509   0.137641  -0.048227   0.051524  -0.191022
   13  C  2  Y    0.021581  -0.059931   0.010579   0.183042  -0.072297
   14  C  2  Z   -0.000058  -0.000313   0.000316   0.000709  -0.000978
   15  C  2  S    0.044544   0.069513   0.132481  -0.186513   0.120275
   16  C  2  X    0.020463   0.023912  -0.007639   0.032548  -0.054519
   17  C  2  Y    0.022250  -0.018186   0.000405   0.111560  -0.045238
   18  C  2  Z   -0.000010  -0.000064  -0.000041   0.000409  -0.000582
   19  C  3  S    0.002136   0.071923   0.028656  -0.053003  -0.026283
   20  C  3  S   -0.001958  -0.075279  -0.031892   0.052676   0.028407
   21  C  3  X    0.015520  -0.068741   0.110771   0.071814   0.036417
   22  C  3  Y    0.067542  -0.011084  -0.062361   0.157920  -0.138058
   23  C  3  Z   -0.000352  -0.000208   0.000056   0.000689  -0.000574
   24  C  3  S   -0.008566  -0.239457  -0.089003   0.210536   0.104668
   25  C  3  X   -0.013246  -0.043757   0.067188   0.025068  -0.016141
   26  C  3  Y    0.049034   0.006671  -0.043496   0.095354  -0.093563
   27  C  3  Z   -0.000307  -0.000070   0.000185   0.000295  -0.000586
   28  C  4  S    0.020418  -0.079043  -0.002983   0.014565   0.013914
   29  C  4  S   -0.021251   0.084713   0.004117  -0.014249  -0.011693
   30  C  4  X   -0.054298  -0.077730  -0.131445  -0.053813   0.019604
   31  C  4  Y    0.179518  -0.010253  -0.035529   0.008258  -0.042262
   32  C  4  Z   -0.002667  -0.000492  -0.001007   0.000084  -0.000185
   33  C  4  S   -0.069150   0.249941   0.009493  -0.058648  -0.071635
   34  C  4  X   -0.023077  -0.043352  -0.067823  -0.060215  -0.021341
   35  C  4  Y    0.059442  -0.016944  -0.014849   0.004586  -0.045673
   36  C  4  Z   -0.000966  -0.000252  -0.000603  -0.000109  -0.000135
   37  C  5  S   -0.095757   0.017163  -0.011378   0.039747   0.001322
   38  C  5  S    0.099665  -0.017211   0.013430  -0.038087   0.000264
   39  C  5  X    0.081630   0.112331  -0.011937  -0.028942  -0.112852
   40  C  5  Y    0.028957  -0.103182  -0.098325  -0.099117  -0.042448
   41  C  5  Z    0.000396   0.002379   0.001035   0.001159  -0.000831
   42  C  5  S    0.299794  -0.051139   0.029705  -0.161814  -0.013957
   43  C  5  X    0.032844   0.031508  -0.018677  -0.001949  -0.050023
   44  C  5  Y    0.001404  -0.047476  -0.061140  -0.052993  -0.029649
   45  C  5  Z    0.000287   0.000917   0.000504   0.000794  -0.000314
   46  C  6  S    0.082079   0.055380   0.029225  -0.021535  -0.008846
   47  C  6  S   -0.085686  -0.056472  -0.028177   0.023436   0.011317
   48  C  6  X    0.105867  -0.030795   0.088756   0.010042   0.123768
   49  C  6  Y    0.044997  -0.112055  -0.075038  -0.084306  -0.009372
   50  C  6  Z    0.000488   0.001095   0.001800   0.001225   0.001264
   51  C  6  S   -0.249695  -0.189641  -0.112657   0.081122   0.030390
   52  C  6  X    0.033401  -0.016847   0.045794   0.027097   0.073308
   53  C  6  Y    0.023699  -0.046331  -0.046536  -0.051647  -0.013492
   54  C  6  Z    0.000034   0.000409   0.001038   0.000947   0.000853
   55  C  7  S    0.020113  -0.063918  -0.004465   0.023027   0.022781
   56  C  7  S   -0.020924   0.066756   0.006340  -0.021030  -0.020778
   57  C  7  X    0.046519  -0.018057   0.083467   0.115114   0.145433
   58  C  7  Y   -0.165598  -0.012758  -0.020207   0.097484  -0.042386
   59  C  7  Z    0.002592  -0.000017   0.001064  -0.000081   0.001928
   60  C  7  S   -0.062366   0.206988   0.008877  -0.097014  -0.096522
   61  C  7  X    0.013067   0.009864   0.055122   0.064410   0.079364
   62  C  7  Y   -0.057170  -0.000836  -0.007598   0.052840  -0.022511
   63  C  7  Z    0.000870   0.000120   0.000624  -0.000004   0.001014
   64  C  8  S   -0.100765   0.048293   0.011405   0.002297  -0.025918
   65  C  8  S    0.104920  -0.049508  -0.010402   0.000248   0.027407
   66  C  8  X   -0.061469  -0.085968  -0.018477   0.114504  -0.039603
   67  C  8  Y   -0.028750   0.087711   0.103244   0.086465   0.064946
   68  C  8  Z   -0.000194  -0.002011  -0.001595   0.000055  -0.001373
   69  C  8  S    0.313337  -0.164082  -0.044552  -0.015859   0.104260
   70  C  8  X   -0.018520  -0.038177  -0.000991   0.057484  -0.002323
   71  C  8  Y    0.002057   0.038032   0.061263   0.059993   0.048405
   72  C  8  Z   -0.000208  -0.000898  -0.000836  -0.000229  -0.000694
   73  C  9  S    0.074632   0.025261   0.018535  -0.009438   0.037793
   74  C  9  S   -0.077329  -0.024994  -0.017432   0.012038  -0.035822
   75  C  9  X   -0.123170   0.054440  -0.039260  -0.122134  -0.043114
   76  C  9  Y   -0.051320   0.139435   0.108054   0.034404   0.061609
   77  C  9  Z   -0.000484  -0.001346  -0.001949  -0.001349  -0.001626
   78  C  9  S   -0.239194  -0.088969  -0.070070   0.018029  -0.163437
   79  C  9  X   -0.038525   0.007195  -0.023882  -0.067621  -0.006533
[...]
    779    9.19038   -4.00325    5.33254        -8.135643       8.135785       0.000143
    780    9.19038   -2.49147   -5.24992        -8.732576       8.733849       0.001273
    781    9.19038   -2.49147   -3.73814       -10.030773      10.033905       0.003132
    782    9.19038   -2.49147    3.82076        -9.934951       9.937886       0.002935
    783    9.19038   -2.49147    5.33254        -8.669288       8.670614       0.001326
    784    9.19038   -0.97969   -6.76170        -7.952948       7.953532       0.000584
    785    9.19038   -0.97969   -5.24992        -9.071488       9.074627       0.003139
    786    9.19038   -0.97969    5.33254        -9.003686       9.007211       0.003525
    787    9.19038   -0.97969    6.84432        -7.905395       7.905955       0.000560
    788    9.19038    0.53209   -6.76170        -7.978943       7.979238       0.000295
    789    9.19038    0.53209   -5.24992        -9.099039       9.103327       0.004289
    790    9.19038    0.53209    5.33254        -9.035841       9.040020       0.004179
    791    9.19038    0.53209    6.84432        -7.933912       7.933998       0.000086
    792    9.19038    2.04387   -6.76170        -7.814458       7.813236      -0.001222
    793    9.19038    2.04387   -5.24992        -8.818654       8.819824       0.001170
    794    9.19038    2.04387    3.82076       -10.009883      10.017359       0.007475
    795    9.19038    2.04387    5.33254        -8.767591       8.767825       0.000235
    796    9.19038    2.04387    6.84432        -7.775733       7.774043      -0.001690
    797    9.19038    3.55565   -5.24992        -8.334333       8.330466      -0.003867
    798    9.19038    3.55565   -3.73814        -9.285991       9.281038      -0.004953
    799    9.19038    3.55565   -2.22636       -10.248475      10.238815      -0.009660
    800    9.19038    3.55565   -0.71458       -10.904796      10.884505      -0.020291
    801    9.19038    3.55565    0.79720       -10.885177      10.863309      -0.021868
    802    9.19038    3.55565    2.30898       -10.206084      10.193295      -0.012790
    803    9.19038    3.55565    3.82076        -9.243469       9.236515      -0.006953
    804    9.19038    3.55565    5.33254        -8.297787       8.292901      -0.004886
    805    9.19038    5.06743   -3.73814        -8.452617       8.441911      -0.010705
    806    9.19038    5.06743   -2.22636        -9.093616       9.076790      -0.016826
    807    9.19038    5.06743   -0.71458        -9.501864       9.478681      -0.023183
    808    9.19038    5.06743    0.79720        -9.494360       9.470668      -0.023691
    809    9.19038    5.06743    2.30898        -9.074342       9.056385      -0.017957
    810    9.19038    5.06743    3.82076        -8.428060       8.416271      -0.011789
    811    9.19038    6.57921   -0.71458        -8.343817       8.325044      -0.018773
    812    9.19038    6.57921    0.79720        -8.339874       8.320874      -0.019000
    813   10.70216   -7.02681   -2.22636        -7.204550       7.208189       0.003639
    814   10.70216   -7.02681   -0.71458        -7.382280       7.386889       0.004608
    815   10.70216   -7.02681    0.79720        -7.375157       7.379462       0.004305
    816   10.70216   -7.02681    2.30898        -7.186638       7.189693       0.003054
    817   10.70216   -5.51503   -3.73814        -7.555519       7.559516       0.003997
    818   10.70216   -5.51503   -2.22636        -8.033428       8.041159       0.007731
    819   10.70216   -5.51503   -0.71458        -8.333733       8.345997       0.012264
    820   10.70216   -5.51503    0.79720        -8.318065       8.328959       0.010894
    821   10.70216   -5.51503    2.30898        -7.999985       8.005972       0.005987
    822   10.70216   -5.51503    3.82076        -7.520097       7.523152       0.003055
    823   10.70216   -4.00325   -5.24992        -7.531752       7.534673       0.002921
    824   10.70216   -4.00325   -3.73814        -8.269070       8.275204       0.006133
    825   10.70216   -4.00325    2.30898        -8.970552       8.981857       0.011305
    826   10.70216   -4.00325    3.82076        -8.214473       8.219174       0.004701
    827   10.70216   -2.49147   -5.24992        -7.962046       7.965953       0.003907
    828   10.70216   -2.49147   -3.73814        -8.934075       8.941850       0.007774
    829   10.70216   -2.49147    3.82076        -8.861615       8.868626       0.007010
    830   10.70216   -2.49147    5.33254        -7.910859       7.914584       0.003725
    831   10.70216   -0.97969   -6.76170        -7.342062       7.344148       0.002087
    832   10.70216   -0.97969   -5.24992        -8.221253       8.226512       0.005258
    833   10.70216   -0.97969   -3.73814        -9.358433       9.370366       0.011933
    834   10.70216   -0.97969    3.82076        -9.283931       9.297874       0.013943
    835   10.70216   -0.97969    5.33254        -8.167290       8.172809       0.005519
    836   10.70216   -0.97969    6.84432        -7.301898       7.303914       0.002016
    837   10.70216    0.53209   -6.76170        -7.358412       7.360205       0.001792
    838   10.70216    0.53209   -5.24992        -8.234275       8.240224       0.005949
    839   10.70216    0.53209    5.33254        -8.183641       8.189621       0.005980
    840   10.70216    0.53209    6.84432        -7.320158       7.321775       0.001617
    841   10.70216    2.04387   -6.76170        -7.218810       7.219268       0.000457
    842   10.70216    2.04387   -5.24992        -8.005464       8.008920       0.003456
    843   10.70216    2.04387   -3.73814        -8.931403       8.943138       0.011735
    844   10.70216    2.04387    3.82076        -8.876067       8.886037       0.009969
    845   10.70216    2.04387    5.33254        -7.963188       7.966020       0.002833
    846   10.70216    2.04387    6.84432        -7.185393       7.185477       0.000084
    847   10.70216    3.55565   -5.24992        -7.615201       7.614455      -0.000746
    848   10.70216    3.55565   -3.73814        -8.321739       8.322271       0.000532
    849   10.70216    3.55565   -2.22636        -8.979236       8.979866       0.000630
    850   10.70216    3.55565   -0.71458        -9.388541       9.385825      -0.002717
    851   10.70216    3.55565    0.79720        -9.373338       9.369626      -0.003712
    852   10.70216    3.55565    2.30898        -8.945394       8.944040      -0.001353
    853   10.70216    3.55565    3.82076        -8.286152       8.285298      -0.000854
    854   10.70216    3.55565    5.33254        -7.583632       7.582113      -0.001519
    855   10.70216    5.06743   -3.73814        -7.678638       7.673562      -0.005076
    856   10.70216    5.06743   -2.22636        -8.134139       8.126969      -0.007170
    857   10.70216    5.06743   -0.71458        -8.403808       8.394371      -0.009437
    858   10.70216    5.06743    0.79720        -8.396945       8.387143      -0.009802
    859   10.70216    5.06743    2.30898        -8.116750       8.108750      -0.008000
    860   10.70216    5.06743    3.82076        -7.656695       7.650794      -0.005902
    861   12.21394   -7.02681   -2.22636        -6.609589       6.614215       0.004626
    862   12.21394   -7.02681   -0.71458        -6.744342       6.749885       0.005543
    863   12.21394   -7.02681    0.79720        -6.739055       6.744362       0.005307
    864   12.21394   -7.02681    2.30898        -6.595921       6.600058       0.004138
    865   12.21394   -5.51503   -3.73814        -6.878710       6.883792       0.005082
    866   12.21394   -5.51503   -2.22636        -7.224077       7.232227       0.008150
    867   12.21394   -5.51503   -0.71458        -7.429582       7.440528       0.010946
    868   12.21394   -5.51503    0.79720        -7.419785       7.430001       0.010215
    869   12.21394   -5.51503    2.30898        -7.201322       7.208298       0.006975
    870   12.21394   -5.51503    3.82076        -6.852437       6.856724       0.004287
    871   12.21394   -4.00325   -3.73814        -7.396588       7.403702       0.007114
    872   12.21394   -4.00325   -2.22636        -7.895998       7.909324       0.013326
    873   12.21394   -4.00325    0.79720        -8.206525       8.226226       0.019701
    874   12.21394   -4.00325    2.30898        -7.857610       7.868376       0.010765
    875   12.21394   -4.00325    3.82076        -7.359312       7.365300       0.005987
    876   12.21394   -2.49147   -5.24992        -7.183897       7.188648       0.004751
    877   12.21394   -2.49147   -3.73814        -7.845894       7.854368       0.008474
    878   12.21394   -2.49147   -2.22636        -8.523652       8.539795       0.016144
    879   12.21394   -2.49147    2.30898        -8.469962       8.483175       0.013213
    880   12.21394   -2.49147    3.82076        -7.799569       7.807213       0.007644
    881   12.21394   -2.49147    5.33254        -7.146282       7.150706       0.004425
    882   12.21394   -0.97969   -5.24992        -7.369134       7.374457       0.005322
    883   12.21394   -0.97969   -3.73814        -8.110984       8.120505       0.009521
    884   12.21394   -0.97969   -2.22636        -8.893539       8.909305       0.015767
    885   12.21394   -0.97969    0.79720        -9.442547       9.466924       0.024378
    886   12.21394   -0.97969    2.30898        -8.842329       8.857767       0.015439
    887   12.21394   -0.97969    3.82076        -8.063597       8.073243       0.009646
    888   12.21394   -0.97969    5.33254        -7.329988       7.335251       0.005264
    889   12.21394    0.53209   -5.24992        -7.375421       7.380568       0.005146
    890   12.21394    0.53209   -3.73814        -8.102127       8.112248       0.010121
    891   12.21394    0.53209   -2.22636        -8.841208       8.857682       0.016474
    892   12.21394    0.53209   -0.71458        -9.346125       9.366739       0.020614
    893   12.21394    0.53209    0.79720        -9.326217       9.346629       0.020412
    894   12.21394    0.53209    2.30898        -8.799417       8.816361       0.016944
    895   12.21394    0.53209    3.82076        -8.059275       8.069615       0.010340
    896   12.21394    0.53209    5.33254        -7.338652       7.343709       0.005057
    897   12.21394    2.04387   -5.24992        -7.207429       7.210759       0.003329
    898   12.21394    2.04387   -3.73814        -7.835477       7.842382       0.006905
    899   12.21394    2.04387   -2.22636        -8.423483       8.433877       0.010394
    900   12.21394    2.04387   -0.71458        -8.791659       8.802188       0.010529
    901   12.21394    2.04387    0.79720        -8.777157       8.787239       0.010081
    902   12.21394    2.04387    2.30898        -8.390820       8.400452       0.009632
    903   12.21394    2.04387    3.82076        -7.800314       7.806687       0.006373
    904   12.21394    2.04387    5.33254        -7.175967       7.178927       0.002960
    905   12.21394    3.55565   -5.24992        -6.914690       6.915204       0.000514
    906   12.21394    3.55565   -3.73814        -7.419688       7.421418       0.001730
    907   12.21394    3.55565   -2.22636        -7.856228       7.858624       0.002396
    908   12.21394    3.55565   -0.71458        -8.113858       8.115729       0.001871
    909   12.21394    3.55565    0.79720        -8.105120       8.106637       0.001517
    910   12.21394    3.55565    2.30898        -7.834931       7.836568       0.001637
    911   12.21394    3.55565    3.82076        -7.394274       7.395318       0.001044
    912   12.21394    3.55565    5.33254        -6.889974       6.889998       0.000025
    913   12.21394    5.06743   -2.22636        -7.272379       7.269774      -0.002604
    914   12.21394    5.06743   -0.71458        -7.455551       7.452263      -0.003288
    915   12.21394    5.06743    0.79720        -7.450531       7.447042      -0.003489
    916   12.21394    5.06743    2.30898        -7.259248       7.256166      -0.003081
    917   13.72572   -5.51503   -2.22636        -6.484756       6.491243       0.006487
    918   13.72572   -5.51503   -0.71458        -6.620923       6.628698       0.007775
    919   13.72572   -5.51503    0.79720        -6.615314       6.622800       0.007486
    920   13.72572   -5.51503    2.30898        -6.470518       6.476427       0.005909
    921   13.72572   -4.00325   -3.73814        -6.608322       6.614357       0.006035
    922   13.72572   -4.00325   -2.22636        -6.923657       6.932534       0.008877
    923   13.72572   -4.00325   -0.71458        -7.110045       7.121237       0.011192
    924   13.72572   -4.00325    0.79720        -7.101581       7.112255       0.010674
    925   13.72572   -4.00325    2.30898        -6.903607       6.911600       0.007994
    926   13.72572   -4.00325    3.82076        -6.584668       6.590065       0.005397
    927   13.72572   -2.49147   -3.73814        -6.905157       6.912058       0.006901
    928   13.72572   -2.49147   -2.22636        -7.292950       7.303143       0.010192
    929   13.72572   -2.49147   -0.71458        -7.531342       7.544336       0.012993
    930   13.72572   -2.49147    0.79720        -7.520470       7.532906       0.012436
    931   13.72572   -2.49147    2.30898        -7.268292       7.277643       0.009351
    932   13.72572   -2.49147    3.82076        -6.877401       6.883763       0.006362
    933   13.72572   -0.97969   -3.73814        -7.072332       7.079408       0.007076
    934   13.72572   -0.97969   -2.22636        -7.499257       7.509311       0.010054
    935   13.72572   -0.97969   -0.71458        -7.763910       7.776266       0.012355
    936   13.72572   -0.97969    0.79720        -7.753219       7.765306       0.012088
    937   13.72572   -0.97969    2.30898        -7.474426       7.484095       0.009669
    938   13.72572   -0.97969    3.82076        -7.043825       7.050644       0.006819
    939   13.72572    0.53209   -5.24992        -6.601813       6.605774       0.003962
    940   13.72572    0.53209   -3.73814        -7.069233       7.075616       0.006382
    941   13.72572    0.53209   -2.22636        -7.481806       7.490617       0.008811
    942   13.72572    0.53209   -0.71458        -7.731806       7.742145       0.010338
    943   13.72572    0.53209    0.79720        -7.722862       7.733095       0.010233
    944   13.72572    0.53209    2.30898        -7.459989       7.468639       0.008650
    945   13.72572    0.53209    3.82076        -7.042985       7.049212       0.006227
    946   13.72572    0.53209    5.33254        -6.576264       6.580050       0.003786
    947   13.72572    2.04387   -3.73814        -6.904808       6.909204       0.004396
    948   13.72572    2.04387   -2.22636        -7.261780       7.267713       0.005933
    949   13.72572    2.04387   -0.71458        -7.470397       7.477019       0.006622
    950   13.72572    2.04387    0.79720        -7.463389       7.469890       0.006501
    951   13.72572    2.04387    2.30898        -7.244081       7.249754       0.005672
    952   13.72572    2.04387    3.82076        -6.882607       6.886728       0.004121
    953   13.72572    3.55565   -2.22636        -6.917685       6.919950       0.002265
    954   13.72572    3.55565   -0.71458        -7.081262       7.083671       0.002409
    955   13.72572    3.55565    0.79720        -7.076232       7.078511       0.002279
    956   13.72572    3.55565    2.30898        -6.904528       6.906486       0.001958
    957   15.23750   -4.00325   -0.71458        -6.257570       6.264452       0.006882
    958   15.23750   -4.00325    0.79720        -6.253237       6.259959       0.006722
    959   15.23750   -2.49147   -2.22636        -6.376029       6.382664       0.006635
    960   15.23750   -2.49147   -0.71458        -6.510786       6.518448       0.007662
    961   15.23750   -2.49147    0.79720        -6.505735       6.513243       0.007508
    962   15.23750   -0.97969   -0.71458        -6.648967       6.656415       0.007448
    963   15.23750   -0.97969    0.79720        -6.643828       6.651174       0.007346

 NET CHARGES:
 -------------------------------------
 ATOM                CHARGE    E.S.D.
 -------------------------------------
 C                   0.7597    0.3125
 C                  -0.4526    0.5716
 C                  -0.0172    0.5854
 C                   0.3237    0.8777
 C                  -0.3935    0.7373
 C                   0.1110    0.7904
 C                  -0.2936    0.7509
 C                   0.1702    0.8429
 C                  -0.4312    0.9530
 O                  -0.4922    0.0353
 O                  -0.3808    0.1362
 C                  -0.0728    1.0507
 H                   0.1677    0.0889
 H                   0.0854    0.0600
 H                   0.1725    0.0571
 H                   0.0745    0.0528
 H                   0.1370    0.0501
 H                   0.0447    0.0581
 H                   0.1980    0.0929
 H                   0.0926    0.0802
 H                   0.0959    0.0778
 H                   0.1009    0.0780
 -------------------------------------

 RMS DEVIATION IS            2.386 KCAL/MOLE
 RELATIVE RMS DEVIATION IS  31.598 %

 MULTIPOLE MOMENTS:
 ---------------------------------------------------------
 STATUS  ACTUAL VALUE       QUANTITY        FITTED VALUE 
 ---------------------------------------------------------
 FIXED       0.0000       TOTAL CHARGE         0.0000
             1.6601 D    DIPOLE MOMENT         1.6266 D
 FREE       -0.9811 D          DX             -0.9633 D
 FREE       -1.3384 D          DY             -1.3105 D
 FREE       -0.0439 D          DZ             -0.0235 D
 FREE        0.0000 BU         QXX            16.1695 BU
 FREE        0.0000 BU         QYY            -5.2241 BU
 FREE        0.0000 BU         QZZ           -10.9455 BU
 FREE        0.0000 BU         QXY            -6.9233 BU
 FREE        0.0000 BU         QXZ            -0.0066 BU
 FREE        0.0000 BU         QYZ            -0.2588 BU
 ---------------------------------------------------------
 ...... END OF PROPERTY EVALUATION ......
 CPU     0: STEP CPU TIME=     0.57 TOTAL CPU TIME=         31.9 (      0.5 MIN)
 TOTAL WALL CLOCK TIME=         45.8 SECONDS, CPU UTILIZATION IS    69.57%
               886667  WORDS OF DYNAMIC MEMORY USED
 EXECUTION OF GAMESS TERMINATED NORMALLY Mon May 25 19:19:01 2020
 DDI: 263640 bytes (0.3 MB / 0 MWords) used by master data server.
Note: The following floating-point exceptions are signalling: IEEE_UNDERFLOW_FLAG IEEE_DENORMALNote: The following floating-point exceptions are signalling: IEEE_UNDERFLOW_FLAGNote: The following floating-point exceptions are signalling:
Note: The following floating-point exceptions are signalling: IEEE_UNDERFLOW_FLAG
 ----------------------------------------
 CPU timing information for all processes
 ========================================
 0: 31.559 + 0.343 = 31.903
 1: 29.730 + 0.100 = 29.831
 2: 29.608 + 0.77 = 29.685
 3: 30.512 + 0.100 = 30.612
 4: 29.883 + 0.81 = 29.964
 5: 29.480 + 0.112 = 29.593
 ----------------------------------------
 IEEE_DENORMAL
 IEEE_UNDERFLOW_FLAG IEEE_DENORMAL
Note: The following floating-point exceptions are signalling: IEEE_UNDERFLOW_FLAGNote: The following floating-point exceptions are signalling: IEEE_UNDERFLOW_FLAG IEEE_DENORMAL IEEE_DENORMAL
 IEEE_DENORMAL

 ddikick.x: exited gracefully.
unset echo
----- accounting info -----
Files used on the master node pietdev were:
-rwxr-xr-x 1 piet piet     1068 mei 25 19:18 /home/piet/scr/methyl_cinnamate_charge_chelpg.F05*
-rw-r--r-- 1 piet piet 50790400 mei 25 19:19 /home/piet/scr/methyl_cinnamate_charge_chelpg.F10
ls: No match.
ls: No match.
ls: No match.
ma 25 mei 2020 19:19:04 CEST
0.111u 0.032s 0:49.00 0.2%	0+0k 0+8io 0pf+0w
