----- GAMESS execution script 'rungms' -----
This job is running on host pietdev
under operating system Linux at ma 25 mei 2020 19:19:19 CEST
Available scratch disk space (Kbyte units) at beginning of the job is
Filesystem     1K-blocks     Used Available Use% Mounted on
/dev/sda2      244568380 31071512 201003812  14% /
GAMESS temporary binary files will be written to /home/piet/scr
GAMESS supplementary output files will be written to /home/piet/gamess/scr
Copying input file methyl_cinnamate_fukui_base.inp to your run's scratch directory...
cp methyl_cinnamate_fukui_base.inp /home/piet/scr/methyl_cinnamate_fukui_base.F05
unset echo
 
Assuming a single but multicore node.
 
/home/piet/gamess/ddikick.x /home/piet/gamess/gamess.03.x methyl_cinnamate_fukui_base -ddi 1 6 pietdev:cpus=6 -scr /home/piet/scr

 Distributed Data Interface kickoff program.
 Initiating 6 compute processes on 1 nodes to run the following command:
 /home/piet/gamess/gamess.03.x methyl_cinnamate_fukui_base 

          ******************************************************
          *         GAMESS VERSION = 30 SEP 2019 (R2)          *
          *             FROM IOWA STATE UNIVERSITY             *
          * M.W.SCHMIDT, K.K.BALDRIDGE, J.A.BOATZ, S.T.ELBERT, *
          *   M.S.GORDON, J.H.JENSEN, S.KOSEKI, N.MATSUNAGA,   *
          *          K.A.NGUYEN, S.J.SU, T.L.WINDUS,           *
          *       TOGETHER WITH M.DUPUIS, J.A.MONTGOMERY       *
          *         J.COMPUT.CHEM.  14, 1347-1363(1993)        *
          **************** 64 BIT LINUX VERSION ****************

  SINCE 1993, STUDENTS AND POSTDOCS WORKING AT IOWA STATE UNIVERSITY
  AND ALSO IN THEIR VARIOUS JOBS AFTER LEAVING ISU HAVE MADE IMPORTANT
  CONTRIBUTIONS TO THE CODE:
     IVANA ADAMOVIC, CHRISTINE AIKENS, YURI ALEXEEV, POOJA ARORA,
     ANDREY ASADCHEV, ROB BELL, PRADIPTA BANDYOPADHYAY, JONATHAN BENTZ,
     COLLEEN BERTONI, BRETT BODE, KURT BRORSEN, CALEB CARLIN, GALINA CHABAN,
     WEI CHEN, CHEOL HO CHOI, PAUL DAY, ALBERT DEFUSCO, NUWAN DESILVA,
     TIM DUDLEY, DMITRI FEDOROV, ALEX FINDLATER, GRAHAM FLETCHER, 
     MARK FREITAG, KURT GLAESEMANN, EMILIE B GUIDEZ, ANASTASIA GUNINA, 
     DAN KEMP, SAROM SOK LEANG, GRANT MERRILL,
     NORIYUKI MINEZAWA, JONATHAN MULLIN,
     TAKESHI NAGATA, SEAN NEDD, HEATHER NETZLOFF, BOSILJKA NJEGIC, RYAN OLSON,
     MIKE PAK, BUU PHAM, DAVID POOLE,
     SPENCER PRUITT, LUKE ROSKOP, TOSAPORN SATTASATHUCHANA,
     JIM SHOEMAKER, LYUDMILA SLIPCHENKO,
     TONY SMITH, JIE SONG, TETSUYA TAKETSUGU, SIMON WEBB,
     JORGE LUIS GALVEZ VALLEJO, PENG XU, SOOHAENG YOO,
     FEDERICO ZAHARIEV

  ADDITIONAL CODE HAS BEEN PROVIDED BY COLLABORATORS IN OTHER GROUPS:
     IOWA STATE UNIVERSITY:
          JOE IVANIC, AARON WEST, LAIMUTIS BYTAUTAS, KLAUS RUEDENBERG
     UNIVERSITY OF TOKYO: KIMIHIKO HIRAO, TAKAHITO NAKAJIMA,
          TAKAO TSUNEDA, MUNEAKI KAMIYA, SUSUMU YANAGISAWA,
          KIYOSHI YAGI, MAHITO CHIBA, SEIKEN TOKURA, NAOAKI KAWAKAMI
     UNIVERSITY OF AARHUS: FRANK JENSEN
     UNIVERSITY OF IOWA: VISVALDAS KAIRYS, HUI LI
     NATIONAL INST. OF STANDARDS AND TECHNOLOGY: WALT STEVENS, DAVID GARMER
     UNIVERSITY OF PISA: BENEDETTA MENNUCCI, JACOPO TOMASI
     UNIVERSITY OF MEMPHIS: HENRY KURTZ, PRAKASHAN KORAMBATH
     UNIVERSITY OF ALBERTA: TOBY ZENG, MARIUSZ KLOBUKOWSKI
     UNIVERSITY OF NEW ENGLAND: MARK SPACKMAN
     MIE UNIVERSITY: HIROAKI UMEDA
     NAT. INST. OF ADVANCED INDUSTRIAL SCIENCE AND TECHNOLOGY: KAZUO KITAURA
     MICHIGAN STATE UNIVERSITY:
          KAROL KOWALSKI, MARTA WLOCH, JEFFREY GOUR, JESSE LUTZ,
          WEI LI, JUN SHEN, J. EMILIANO DEUSTUA, PIOTR PIECUCH
     UNIVERSITY OF MINNESOTA:
          ANDREW SAND, PRACHI SHARMA, YINAN SHU
     UNIVERSITY OF SILESIA: MONIKA MUSIAL, STANISLAW KUCHARSKI
     FACULTES UNIVERSITAIRES NOTRE-DAME DE LA PAIX:
          OLIVIER QUINET, BENOIT CHAMPAGNE
     UNIVERSITY OF CALIFORNIA - SANTA BARBARA: BERNARD KIRTMAN
     INSTITUTE FOR MOLECULAR SCIENCE:
          KAZUYA ISHIMURA, MICHIO KATOUDA, AND SHIGERU NAGASE
     UNIVERSITY OF NOTRE DAME: ANNA POMOGAEVA, DAN CHIPMAN
     KYUSHU UNIVERSITY:
          HARUYUKI NAKANO,
          FENG LONG GU, JACEK KORCHOWIEC, MARCIN MAKOWSKI, AND YURIKO AOKI,
          HIROTOSHI MORI AND EISAKU MIYOSHI
     PENNSYLVANIA STATE UNIVERSITY:
          TZVETELIN IORDANOV, CHET SWALINA, JONATHAN SKONE,
          SHARON HAMMES-SCHIFFER
     WASEDA UNIVERSITY:
          MASATO KOBAYASHI, TOMOKO AKAMA, TSUGUKI TOUMA,
          TAKESHI YOSHIKAWA, YASUHIRO IKABATA, JUNJI SEINO,
          YUYA NAKAJIMA, HIROMI NAKAI
     NANJING UNIVERSITY: SHUHUA LI
     UNIVERSITY OF NEBRASKA:
          PEIFENG SU, DEJUN SI, NANDUN THELLAMUREGE, YALI WANG, HUI LI
     UNIVERSITY OF ZURICH: ROBERTO PEVERATI, KIM BALDRIDGE
     N. COPERNICUS UNIVERSITY AND JACKSON STATE UNIVERSITY:
          MARIA BARYSZ
     UNIVERSITY OF COPENHAGEN: Jimmy Kromann, CASPER STEINMANN
     TOKYO INSTITUTE OF TECHNOLOGY: HIROYA NAKATA
     NAGOYA UNIVERSITY: YOSHIO NISHIMOTO, STEPHAN IRLE
     MOSCOW STATE UNIVERSITY: VLADIMIR MIRONOV
     A.N.NESMEYANOV INSTITUTE OF ORGANOELEMENT COMPOUNDS OF RUSSIAN ACADEMY OF SCIENCES:
          IGOR S. GERASIMOV
     JOHANNES KEPLER UNIVERSITY LINZ:
          CHRISTIAN FRIEDL


 PARALLEL VERSION RUNNING ON        6 PROCESSORS IN        1 NODES.

 EXECUTION OF GAMESS BEGUN Mon May 25 19:19:19 2020

            ECHO OF THE FIRST FEW INPUT CARDS -
 INPUT CARD> $BASIS GBASIS=N21 NGAUSS=3 $END                                                
 INPUT CARD> $CONTRL SCFTYP=UHF MAXIT=60 MULT=2 ICHARG=1 $END                               
 INPUT CARD> $SYSTEM MEMDDI=1000 MWORDS=30 $END                                             
 INPUT CARD> $SCF DIRSCF=.TRUE. $END                                                        
 INPUT CARD> $STATPT OPTTOL=0.0001 NSTEP=999 $END                                           
 INPUT CARD> $DATA                                                                          
 INPUT CARD>                                                                                
 INPUT CARD>C1                                                                              
 INPUT CARD>C 6.0000000 2.47269 0.25561 0.01418                                             
 INPUT CARD>C 6.0000000 1.09703 -0.27882 0.01248                                            
 INPUT CARD>C 6.0000000 0.03633 0.55222 0.01447                                             
 INPUT CARD>C 6.0000000 -1.38232 0.18473 0.00835                                            
 INPUT CARD>C 6.0000000 -2.34734 1.21011 -0.01303                                           
 INPUT CARD>C 6.0000000 -3.71178 0.91487 -0.02295                                           
 INPUT CARD>C 6.0000000 -4.13852 -0.41503 -0.01037                                          
 INPUT CARD>C 6.0000000 -3.19135 -1.44684 0.01250                                           
 INPUT CARD>C 6.0000000 -1.83068 -1.15168 0.02169                                           
 INPUT CARD>O 8.0000000 2.79331 1.43195 0.03167                                             
 INPUT CARD>O 8.0000000 3.37759 -0.75774 -0.00976                                           
 INPUT CARD>C 6.0000000 4.76138 -0.36502 -0.01454                                           
 INPUT CARD>H 1.0000000 1.00332 -1.35958 0.00514                                            
 INPUT CARD>H 1.0000000 0.25330 1.61974 0.01800                                             
 INPUT CARD>H 1.0000000 -2.01881 2.24633 -0.02293                                           
 INPUT CARD>H 1.0000000 -4.43906 1.72158 -0.04038                                           
 INPUT CARD>H 1.0000000 -5.19932 -0.64898 -0.01783                                          
 INPUT CARD>H 1.0000000 -3.51685 -2.48319 0.02350                                           
 INPUT CARD>H 1.0000000 -1.11149 -1.96449 0.04044                                           
 INPUT CARD>H 1.0000000 4.97132 0.28723 -0.86613                                            
 INPUT CARD>H 1.0000000 5.01183 0.16243 0.90985                                             
 INPUT CARD>H 1.0000000 5.32600 -1.29438 -0.09113                                           
 INPUT CARD> $END                                                                           
   30000000 WORDS OF MEMORY AVAILABLE

     BASIS OPTIONS
     -------------
     GBASIS=N21          IGAUSS=       3      POLAR=NONE    
     NDFUNC=       0     NFFUNC=       0     DIFFSP=       F
     NPFUNC=       0      DIFFS=       F     BASNAM=        


     RUN TITLE
     ---------
                                                                                 

 THE POINT GROUP OF THE MOLECULE IS C1      
 THE ORDER OF THE PRINCIPAL AXIS IS     0

 ATOM      ATOMIC                      COORDINATES (BOHR)
           CHARGE         X                   Y                   Z
 C           6.0     4.6727065526        0.4830328597        0.0267963145
 C           6.0     2.0730861003       -0.5268933999        0.0235837803
 C           6.0     0.0686537451        1.0435444849        0.0273443350
 C           6.0    -2.6122060273        0.3490890817        0.0157792120
 C           6.0    -4.4358294000        2.2867763150       -0.0246231296
 C           6.0    -7.0142471267        1.7288536144       -0.0433692114
 C           6.0    -7.8206687947       -0.7842929767       -0.0195964585
 C           6.0    -6.0307770309       -2.7341311481        0.0236215748
 C           6.0    -3.4594835712       -2.1763596255        0.0409881567
 O           8.0     5.2785904988        2.7059931281        0.0598476220
 O           8.0     6.3827195989       -1.4319209699       -0.0184437256
 C           6.0     8.9977035234       -0.6897877800       -0.0274766159
 H           1.0     1.8959998780       -2.5692336584        0.0097131916
 H           1.0     0.4786675927        3.0608647714        0.0340150678
 H           1.0    -3.8149977213        4.2449481780       -0.0433314169
 H           1.0    -8.3886070431        3.2533144659       -0.0763071354
 H           1.0    -9.8252901225       -1.2263943715       -0.0336938144
 H           1.0    -6.6458828399       -4.6925486755        0.0444085607
 H           1.0    -2.1004115381       -3.7123478056        0.0764205189
 H           1.0     9.3944325973        0.5427859955       -1.6367483697
 H           1.0     9.4709853970        0.3069481922        1.7193671899
 H           1.0    10.0646806106       -2.4460235240       -0.1722107293

          INTERNUCLEAR DISTANCES (ANGS.)
          ------------------------------

                1 C          2 C          3 C          4 C          5 C     

   1 C       0.0000000    1.4758248 *  2.4543487 *  3.8556660    4.9137053  
   2 C       1.4758248 *  0.0000000    1.3474850 *  2.5223148 *  3.7524989  
   3 C       2.4543487 *  1.3474850 *  0.0000000    1.4654877 *  2.4729452 *
   4 C       3.8556660    2.5223148 *  1.4654877 *  0.0000000    1.4082347 *
   5 C       4.9137053    3.7524989    2.4729452 *  1.4082347 *  0.0000000  
   6 C       6.2196199    4.9548769    3.7657992    2.4414070 *  1.3960521 *
   7 C       6.6451831    5.2373714    4.2855061    2.8207625 *  2.4185560 *
   8 C       5.9143629    4.4446005    3.7965989    2.4361091 *  2.7879003 *
   9 C       4.5276390    3.0550704    2.5276577 *  1.4096795 *  2.4178906 *
  10 O       1.2193764 *  2.4092464 *  2.8939868 *  4.3579797    5.1456286  
  11 O       1.3587845 *  2.3304105 *  3.5889554    4.8523521    6.0536987  
  12 C       2.3715203 *  3.6654633    4.8133427    6.1682898    7.2811357  
  13 H       2.1835679 *  1.0848399 *  2.1424603 *  2.8418624 *  4.2226247  
  14 H       2.6051022 *  2.0776046 *  1.0893518 *  2.1759135 *  2.6328859 *
  15 H       4.9130353    4.0107475    2.6636456 *  2.1578444 *  1.0870979 *
  16 H       7.0657153    5.8866533    4.6259623    3.4216870    2.1535185 *
  17 H       7.7252214    6.3072942    5.3717740    3.9070765    3.4044131  
  18 H       6.5860232    5.1134389    4.6732091    3.4167594    3.8742164  
  19 H       4.2161451    2.7784574 *  2.7662239 *  2.1664545 *  3.4070911  
  20 H       2.6493579 *  4.0127909    5.0199405    6.4143560    7.4257842  
  21 H       2.6940934 *  4.0404992    5.0704282    6.4574262    7.4904422  
  22 H       3.2488363    4.3504350    5.6037212    6.8701688    8.0720949  

                6 C          7 C          8 C          9 C         10 O     

   1 C       6.2196199    6.6451831    5.9143629    4.5276390    1.2193764 *
   2 C       4.9548769    5.2373714    4.4446005    3.0550704    2.4092464 *
   3 C       3.7657992    4.2855061    3.7965989    2.5276577 *  2.8939868 *
   4 C       2.4414070 *  2.8207625 *  2.4361091 *  1.4096795 *  4.3579797  
   5 C       1.3960521 *  2.4185560 *  2.7879003 *  2.4178906 *  5.1456286  
   6 C       0.0000000    1.3967460 *  2.4186315 *  2.7948450 *  6.5258372  
   7 C       1.3967460 *  0.0000000    1.4008162 *  2.4227684 *  7.1737974  
   8 C       2.4186315 *  1.4008162 *  0.0000000    1.3923458 *  6.6410808  
   9 C       2.7948450 *  2.4227684 *  1.3923458 *  0.0000000    5.2968412  
  10 O       6.5258372    7.1737974    6.6410808    5.2968412    0.0000000  
  11 O       7.2840212    7.5239192    6.6050229    5.2232417    2.2666808 *
  12 C       8.5692841    8.9000415    8.0260189    6.6389308    2.6654336 *
  13 H       5.2350816    5.2278996    4.1955840    2.8416637 *  3.3162340  
  14 H       4.0274530    4.8403695    4.6118930    3.4675287    2.5469791 *
  15 H       2.1538183 *  3.4023764    3.8749981    3.4035064    4.8808498  
  16 H       1.0862877 *  2.1578524 *  3.4056515    3.8811238    7.2385256  
  17 H       2.1583392 *  1.0863171 *  2.1608896 *  3.4061715    8.2592284  
  18 H       3.4039634    2.1598395 *  1.0863207 *  2.1485091 *  7.4260694  
  19 H       3.8802372    3.4009291    2.1434924 *  1.0854704 *  5.1752628  
  20 H       8.7464913    9.1768556    8.3909577    7.0089864    2.6191900 *
  21 H       8.8055467    9.2146172    8.4075650    7.0239345    2.7027231 *
  22 H       9.3041336    9.5056256    8.5193447    7.1589916    3.7232343  

               11 O         12 C         13 H         14 H         15 H     

   1 C       1.3587845 *  2.3715203 *  2.1835679 *  2.6051022 *  4.9130353  
   2 C       2.3304105 *  3.6654633    1.0848399 *  2.0776046 *  4.0107475  
   3 C       3.5889554    4.8133427    2.1424603 *  1.0893518 *  2.6636456 *
   4 C       4.8523521    6.1682898    2.8418624 *  2.1759135 *  2.1578444 *
   5 C       6.0536987    7.2811357    4.2226247    2.6328859 *  1.0870979 *
   6 C       7.2840212    8.5692841    5.2350816    4.0274530    2.1538183 *
   7 C       7.5239192    8.9000415    5.2278996    4.8403695    3.4023764  
   8 C       6.6050229    8.0260189    4.1955840    4.6118930    3.8749981  
   9 C       5.2232417    6.6389308    2.8416637 *  3.4675287    3.4035064  
  10 O       2.2666808 *  2.6654336 *  3.3162340    2.5469791 *  4.8808498  
  11 O       0.0000000    1.4384459 *  2.4494063 *  3.9261138    6.1762240  
  12 C       1.4384459 *  0.0000000    3.8874866    4.9257605    7.2656862  
  13 H       2.4494063 *  3.8874866    0.0000000    3.0723026    4.7049596  
  14 H       3.9261138    4.9257605    3.0723026    0.0000000    2.3572811 *
  15 H       6.1762240    7.2656862    4.7049596    2.3572811 *  0.0000000  
  16 H       8.2004867    9.4341223    6.2542081    4.6938281    2.4765454 *
  17 H       8.5776033    9.9647473    6.2432542    5.9058817    4.3009871  
  18 H       7.1071504    8.5450093    4.6577648    5.5720818    4.9613142  
  19 H       4.6487208    6.0870296    2.1999053 *  3.8353435    4.3079288  
  20 H       2.0893318 *  1.0930281 *  4.3836193    4.9816645    7.3082814  
  21 H       2.0888120 *  1.0933552 *  4.3821418    5.0559625    7.3920644  
  22 H       2.0225986 *  1.0901247 *  4.3242434    5.8511785    8.1539875  

               16 H         17 H         18 H         19 H         20 H     

   1 C       7.0657153    7.7252214    6.5860232    4.2161451    2.6493579 *
   2 C       5.8866533    6.3072942    5.1134389    2.7784574 *  4.0127909  
   3 C       4.6259623    5.3717740    4.6732091    2.7662239 *  5.0199405  
   4 C       3.4216870    3.9070765    3.4167594    2.1664545 *  6.4143560  
   5 C       2.1535185 *  3.4044131    3.8742164    3.4070911    7.4257842  
   6 C       1.0862877 *  2.1583392 *  3.4039634    3.8802372    8.7464913  
   7 C       2.1578524 *  1.0863171 *  2.1598395 *  3.4009291    9.1768556  
   8 C       3.4056515    2.1608896 *  1.0863207 *  2.1434924 *  8.3909577  
   9 C       3.8811238    3.4061715    2.1485091 *  1.0854704 *  7.0089864  
  10 O       7.2385256    8.2592284    7.4260694    5.1752628    2.6191900 *
  11 O       8.2004867    8.5776033    7.1071504    4.6487208    2.0893318 *
  12 C       9.4341223    9.9647473    8.5450093    6.0870296    1.0930281 *
  13 H       6.2542081    6.2432542    4.6577648    2.1999053 *  4.3836193  
  14 H       4.6938281    5.9058817    5.5720818    3.8353435    4.9816645  
  15 H       2.4765454 *  4.3009871    4.9613142    4.3079288    7.3082814  
  16 H       0.0000000    2.4895900 *  4.3051879    4.9665245    9.5548142  
  17 H       2.4895900 *  0.0000000    2.4893252 *  4.2946846   10.2488058  
  18 H       4.3051879    2.4893252 *  0.0000000    2.4607099 *  8.9730540  
  19 H       4.9665245    4.2946846    2.4607099 *  0.0000000    6.5492511  
  20 H       9.5548142   10.2488058    8.9730540    6.5492511    0.0000000  
  21 H       9.6256536   10.2852594    8.9734778    6.5402378    1.7808203 *
  22 H      10.2203223   10.5453438    8.9231388    6.4736107    1.7966394 *

               21 H         22 H     

   1 C       2.6940934 *  3.2488363  
   2 C       4.0404992    4.3504350  
   3 C       5.0704282    5.6037212  
   4 C       6.4574262    6.8701688  
   5 C       7.4904422    8.0720949  
   6 C       8.8055467    9.3041336  
   7 C       9.2146172    9.5056256  
   8 C       8.4075650    8.5193447  
   9 C       7.0239345    7.1589916  
  10 O       2.7027231 *  3.7232343  
  11 O       2.0888120 *  2.0225986 *
  12 C       1.0933552 *  1.0901247 *
  13 H       4.3821418    4.3242434  
  14 H       5.0559625    5.8511785  
  15 H       7.3920644    8.1539875  
  16 H       9.6256536   10.2203223  
  17 H      10.2852594   10.5453438  
  18 H       8.9734778    8.9231388  
  19 H       6.5402378    6.4736107  
  20 H       1.7808203 *  1.7966394 *
  21 H       0.0000000    1.7952602 *
  22 H       1.7952602 *  0.0000000  

  * ... LESS THAN  3.000


     ATOMIC BASIS SET
     ----------------
 THE CONTRACTED PRIMITIVE FUNCTIONS HAVE BEEN UNNORMALIZED
 THE CONTRACTED BASIS FUNCTIONS ARE NOW NORMALIZED TO UNITY

  SHELL TYPE  PRIMITIVE        EXPONENT          CONTRACTION COEFFICIENT(S)

 C         

      1   S       1           172.2560000    0.061766907377
      1   S       2            25.9109000    0.358794042852
      1   S       3             5.5333500    0.700713083689

      2   L       4             3.6649800   -0.395895162119    0.236459946619
      2   L       5             0.7705450    1.215834355681    0.860618805716

      3   L       6             0.1958570    1.000000000000    1.000000000000

 C         

      4   S       7           172.2560000    0.061766907377
      4   S       8            25.9109000    0.358794042852
      4   S       9             5.5333500    0.700713083689

      5   L      10             3.6649800   -0.395895162119    0.236459946619
      5   L      11             0.7705450    1.215834355681    0.860618805716

      6   L      12             0.1958570    1.000000000000    1.000000000000

 C         

      7   S      13           172.2560000    0.061766907377
      7   S      14            25.9109000    0.358794042852
      7   S      15             5.5333500    0.700713083689

      8   L      16             3.6649800   -0.395895162119    0.236459946619
      8   L      17             0.7705450    1.215834355681    0.860618805716

      9   L      18             0.1958570    1.000000000000    1.000000000000

 C         

     10   S      19           172.2560000    0.061766907377
     10   S      20            25.9109000    0.358794042852
     10   S      21             5.5333500    0.700713083689

     11   L      22             3.6649800   -0.395895162119    0.236459946619
     11   L      23             0.7705450    1.215834355681    0.860618805716

     12   L      24             0.1958570    1.000000000000    1.000000000000

 C         

     13   S      25           172.2560000    0.061766907377
     13   S      26            25.9109000    0.358794042852
     13   S      27             5.5333500    0.700713083689

     14   L      28             3.6649800   -0.395895162119    0.236459946619
     14   L      29             0.7705450    1.215834355681    0.860618805716

     15   L      30             0.1958570    1.000000000000    1.000000000000

 C         

     16   S      31           172.2560000    0.061766907377
     16   S      32            25.9109000    0.358794042852
     16   S      33             5.5333500    0.700713083689

     17   L      34             3.6649800   -0.395895162119    0.236459946619
     17   L      35             0.7705450    1.215834355681    0.860618805716

     18   L      36             0.1958570    1.000000000000    1.000000000000

 C         

     19   S      37           172.2560000    0.061766907377
     19   S      38            25.9109000    0.358794042852
     19   S      39             5.5333500    0.700713083689

     20   L      40             3.6649800   -0.395895162119    0.236459946619
     20   L      41             0.7705450    1.215834355681    0.860618805716

     21   L      42             0.1958570    1.000000000000    1.000000000000

 C         

     22   S      43           172.2560000    0.061766907377
     22   S      44            25.9109000    0.358794042852
     22   S      45             5.5333500    0.700713083689

     23   L      46             3.6649800   -0.395895162119    0.236459946619
     23   L      47             0.7705450    1.215834355681    0.860618805716

     24   L      48             0.1958570    1.000000000000    1.000000000000

 C         

     25   S      49           172.2560000    0.061766907377
     25   S      50            25.9109000    0.358794042852
     25   S      51             5.5333500    0.700713083689

     26   L      52             3.6649800   -0.395895162119    0.236459946619
     26   L      53             0.7705450    1.215834355681    0.860618805716

     27   L      54             0.1958570    1.000000000000    1.000000000000

 O         

     28   S      55           322.0370000    0.059239393389
     28   S      56            48.4308000    0.351499960776
     28   S      57            10.4206000    0.707657921031

     29   L      58             7.4029400   -0.404453583190    0.244586106967
     29   L      59             1.5762000    1.221561761397    0.853955373466

     30   L      60             0.3736840    1.000000000000    1.000000000000

 O         

     31   S      61           322.0370000    0.059239393389
     31   S      62            48.4308000    0.351499960776
     31   S      63            10.4206000    0.707657921031

     32   L      64             7.4029400   -0.404453583190    0.244586106967
     32   L      65             1.5762000    1.221561761397    0.853955373466

     33   L      66             0.3736840    1.000000000000    1.000000000000

 C         

     34   S      67           172.2560000    0.061766907377
     34   S      68            25.9109000    0.358794042852
     34   S      69             5.5333500    0.700713083689

     35   L      70             3.6649800   -0.395895162119    0.236459946619
     35   L      71             0.7705450    1.215834355681    0.860618805716

     36   L      72             0.1958570    1.000000000000    1.000000000000

 H         

     37   S      73             5.4471780    0.156284978695
     37   S      74             0.8245472    0.904690876670

     38   S      75             0.1831916    1.000000000000

 H         

     39   S      76             5.4471780    0.156284978695
     39   S      77             0.8245472    0.904690876670

     40   S      78             0.1831916    1.000000000000

 H         

     41   S      79             5.4471780    0.156284978695
     41   S      80             0.8245472    0.904690876670

     42   S      81             0.1831916    1.000000000000

 H         

     43   S      82             5.4471780    0.156284978695
     43   S      83             0.8245472    0.904690876670

     44   S      84             0.1831916    1.000000000000

 H         

     45   S      85             5.4471780    0.156284978695
     45   S      86             0.8245472    0.904690876670

     46   S      87             0.1831916    1.000000000000

 H         

     47   S      88             5.4471780    0.156284978695
     47   S      89             0.8245472    0.904690876670

     48   S      90             0.1831916    1.000000000000

 H         

     49   S      91             5.4471780    0.156284978695
     49   S      92             0.8245472    0.904690876670

     50   S      93             0.1831916    1.000000000000

 H         

     51   S      94             5.4471780    0.156284978695
     51   S      95             0.8245472    0.904690876670

     52   S      96             0.1831916    1.000000000000

 H         

     53   S      97             5.4471780    0.156284978695
     53   S      98             0.8245472    0.904690876670

     54   S      99             0.1831916    1.000000000000

 H         

     55   S     100             5.4471780    0.156284978695
     55   S     101             0.8245472    0.904690876670

     56   S     102             0.1831916    1.000000000000

 TOTAL NUMBER OF BASIS SET SHELLS             =   56
 NUMBER OF CARTESIAN GAUSSIAN BASIS FUNCTIONS =  128
 NUMBER OF ELECTRONS                          =   85
 CHARGE OF MOLECULE                           =    1
 SPIN MULTIPLICITY                            =    2
 NUMBER OF OCCUPIED ORBITALS (ALPHA)          =   43
 NUMBER OF OCCUPIED ORBITALS (BETA )          =   42
 TOTAL NUMBER OF ATOMS                        =   22
 THE NUCLEAR REPULSION ENERGY IS      613.5617949296

     $CONTRL OPTIONS
     ---------------
 SCFTYP=UHF          RUNTYP=ENERGY       EXETYP=RUN     
 MPLEVL=       0     CITYP =NONE         CCTYP =NONE         VBTYP =NONE    
 DFTTYP=NONE         TDDFT =NONE    
 MULT  =       2     ICHARG=       1     NZVAR =       0     COORD =UNIQUE  
 PP    =NONE         RELWFN=NONE         LOCAL =NONE         NUMGRD=       F
 ISPHER=      -1     NOSYM =       0     MAXIT =      60     UNITS =ANGS    
 PLTORB=       F     MOLPLT=       F     AIMPAC=       F     FRIEND=        
 NPRINT=       7     IREST =       0     GEOM  =INPUT   
 NORMF =       0     NORMP =       0     ITOL  =      20     ICUT  =       9
 INTTYP=BEST         GRDTYP=BEST         QMTTOL= 1.0E-06

     $SYSTEM OPTIONS
     ---------------
  REPLICATED MEMORY=    30000000 WORDS (ON EVERY NODE).
 DISTRIBUTED MEMDDI=        1000 MILLION WORDS IN AGGREGATE,
 MEMDDI DISTRIBUTED OVER   6 PROCESSORS IS   166666666 WORDS/PROCESSOR.
 TOTAL MEMORY REQUESTED ON EACH PROCESSOR=   196666666 WORDS.
 TIMLIM=      525600.00 MINUTES, OR     365.0 DAYS.
 PARALL= T  BALTYP=  DLB     KDIAG=    0  COREFL= F
 MXSEQ2=     300 MXSEQ3=     150  mem10=         0

          ----------------
          PROPERTIES INPUT
          ----------------

     MOMENTS            FIELD           POTENTIAL          DENSITY
 IEMOM =       1   IEFLD =       0   IEPOT =       0   IEDEN =       0
 WHERE =COMASS     WHERE =NUCLEI     WHERE =NUCLEI     WHERE =NUCLEI  
 OUTPUT=BOTH       OUTPUT=BOTH       OUTPUT=BOTH       OUTPUT=BOTH    
 IEMINT=       0   IEFINT=       0                     IEDINT=       0
                                                       MORB  =       0
          EXTRAPOLATION IN EFFECT
          SOSCF IN EFFECT
          DIIS or SOSCF will be reset if energy rises
 ORBITAL PRINTING OPTION: NPREO=     1   128     2     1

     -------------------------------
     INTEGRAL TRANSFORMATION OPTIONS
     -------------------------------
     NWORD  =            0
     CUTOFF = 1.0E-09     MPTRAN =       0
     DIRTRF =       T     AOINTS =DUP     

          ----------------------
          INTEGRAL INPUT OPTIONS
          ----------------------
 NOPK  =       1 NORDER=       0 SCHWRZ=       T

     ------------------------------------------
     THE POINT GROUP IS C1 , NAXIS= 0, ORDER= 1
     ------------------------------------------

     DIMENSIONS OF THE SYMMETRY SUBSPACES ARE
 A   =  128

 ..... DONE SETTING UP THE RUN .....
 CPU     0: STEP CPU TIME=     0.03 TOTAL CPU TIME=          0.0 (      0.0 MIN)
 TOTAL WALL CLOCK TIME=          0.0 SECONDS, CPU UTILIZATION IS   100.00%

          ********************
          1 ELECTRON INTEGRALS
          ********************
 ...... END OF ONE-ELECTRON INTEGRALS ......
 CPU     0: STEP CPU TIME=     0.00 TOTAL CPU TIME=          0.0 (      0.0 MIN)
 TOTAL WALL CLOCK TIME=          0.0 SECONDS, CPU UTILIZATION IS    60.00%

          -------------
          GUESS OPTIONS
          -------------
          GUESS =HUCKEL            NORB  =       0          NORDER=       0
          MIX   =       F          PRTMO =       F          PUNMO =       F
          TOLZ  = 1.0E-08          TOLE  = 1.0E-05
          SYMDEN=       F          PURIFY=       F

 INITIAL GUESS ORBITALS GENERATED BY HUCKEL   ROUTINE.
 HUCKEL GUESS REQUIRES    154906 WORDS.

 SYMMETRIES FOR INITIAL GUESS ORBITALS FOLLOW.  ALPHA SET(S).
    43 ORBITALS ARE OCCUPIED (   12 CORE ORBITALS).
    13=A       14=A       15=A       16=A       17=A       18=A       19=A   
    20=A       21=A       22=A       23=A       24=A       25=A       26=A   
    27=A       28=A       29=A       30=A       31=A       32=A       33=A   
    34=A       35=A       36=A       37=A       38=A       39=A       40=A   
    41=A       42=A       43=A       44=A       45=A       46=A       47=A   
    48=A       49=A       50=A       51=A       52=A       53=A   

 SYMMETRIES FOR INITIAL GUESS ORBITALS FOLLOW.   BETA SET(S).
    42 ORBITALS ARE OCCUPIED (   12 CORE ORBITALS).
    13=A       14=A       15=A       16=A       17=A       18=A       19=A   
    20=A       21=A       22=A       23=A       24=A       25=A       26=A   
    27=A       28=A       29=A       30=A       31=A       32=A       33=A   
    34=A       35=A       36=A       37=A       38=A       39=A       40=A   
    41=A       42=A       43=A       44=A       45=A       46=A       47=A   
    48=A       49=A       50=A       51=A       52=A   
 ...... END OF INITIAL ORBITAL SELECTION ......
 CPU     0: STEP CPU TIME=     0.06 TOTAL CPU TIME=          0.1 (      0.0 MIN)
 TOTAL WALL CLOCK TIME=          0.1 SECONDS, CPU UTILIZATION IS    81.82%

                    ----------------------
                    AO INTEGRAL TECHNOLOGY
                    ----------------------
     S,P,L SHELL ROTATED AXIS INTEGRALS, REPROGRAMMED BY
        KAZUYA ISHIMURA (IMS) AND JOSE SIERRA (SYNSTAR).
     S,P,D,L SHELL ROTATED AXIS INTEGRALS PROGRAMMED BY
        KAZUYA ISHIMURA (INSTITUTE FOR MOLECULAR SCIENCE).
     S,P,D,F,G SHELL TO TOTAL QUARTET ANGULAR MOMENTUM SUM 5,
        ERIC PROGRAM BY GRAHAM FLETCHER (ELORET AND NASA ADVANCED
        SUPERCOMPUTING DIVISION, AMES RESEARCH CENTER).
     S,P,D,F,G,L SHELL GENERAL RYS QUADRATURE PROGRAMMED BY
        MICHEL DUPUIS (PACIFIC NORTHWEST NATIONAL LABORATORY).

          --------------------
          2 ELECTRON INTEGRALS
          --------------------

 DIRECT SCF METHOD SKIPS INTEGRAL STORAGE ON DISK.
 DIRECT TRANSFORMATION SKIPS AO INTEGRAL STORAGE ON DISK.
  ...... END OF TWO-ELECTRON INTEGRALS .....
 CPU     0: STEP CPU TIME=     0.02 TOTAL CPU TIME=          0.1 (      0.0 MIN)
 TOTAL WALL CLOCK TIME=          0.1 SECONDS, CPU UTILIZATION IS    78.57%

          ---------------------------
                  UHF SCF CALCULATION
          ---------------------------

     NUCLEAR ENERGY =       613.5617949296
     MAXIT = 60     NPUNCH=  2     MULT=  2
     EXTRAP=T  DAMP=F  SHIFT=F  RSTRCT=F  DIIS=F  SOSCF=T
     DENSITY MATRIX CONV=  2.00E-05
     SOSCF WILL OPTIMIZE    3655 ALPHA AND    3612 BETA ROTATION ANGLES.
     SOGTOL= 2.500E-01
     MEMORY REQUIRED FOR UHF/ROHF ITERS=    264305 WORDS.

 DIRECT SCF CALCULATION, SCHWRZ=T   FDIFF=T
 SCHWARZ INEQUALITY OVERHEAD:      7019 INTEGRALS, T=        0.00

                                                                                NONZERO     BLOCKS
 ITER EX      TOTAL ENERGY        E CHANGE  DENSITY CHANGE    ORB. GRAD       INTEGRALS    SKIPPED
   1  0     -529.4926606363  -529.4926606363   0.738785182   0.000000000       13453048     840410
          ---------------START SECOND ORDER SCF---------------
   2  1     -530.6401037983    -1.1474431620   0.281913516   0.114861438       13433814     849415
   3  2     -530.6911023178    -0.0509985195   0.133694263   0.130932344       13372352     866078
   4  3     -530.9186674867    -0.2275651689   0.052272624   0.030331356       13341095     873633
   5  4     -530.9387167117    -0.0200492249   0.026982933   0.009294003       13206680     891861
   6  5     -530.9411626165    -0.0024459048   0.014227220   0.007617843       12980298     913080
   7  6     -530.9417887186    -0.0006261020   0.004734235   0.004114238       12940882     917194
   8  7     -530.9419597472    -0.0001710287   0.002515964   0.000946874       12702555     936312
   9  8     -530.9419959564    -0.0000362092   0.001847912   0.000843093       12461307     948250
  10  9     -530.9420133203    -0.0000173638   0.002343027   0.000468618       12355470     955366
  11 10     -530.9420314718    -0.0000181515   0.008206238   0.000601612       12419118     953090
  12 11     -530.9420878350    -0.0000563632   0.040443964   0.001252300       12763185     932334
  13 12     -530.9423071270    -0.0002192920   0.059678434   0.003711707       13121635     903448
  14 13     -530.9423001547     0.0000069722   0.020520120   0.006127406       13186772     897214
  15 14     -530.9430117663    -0.0007116116   0.028090372   0.005045830       13024200     913048
  16 15     -530.9446045942    -0.0015928279   0.203357310   0.004218736       13015739     911695
  17 16     -530.9331882571     0.0114163371   0.178056942   0.020839705       13325256     876076
  18 17     -530.9458909446    -0.0127026876   0.019235784   0.003030494       13311388     878781
  19 18     -530.9464156350    -0.0005246904   0.045070237   0.001997257       12887776     924969
  20 19     -530.9466575348    -0.0002418998   0.018146603   0.001246036       13060513     909382
  21 20     -530.9467785238    -0.0001209890   0.002389950   0.000746588       12875492     925687
  22 21     -530.9467924255    -0.0000139016   0.003637190   0.000609418       12205656     963791
  23 22     -530.9468091027    -0.0000166772   0.002864414   0.000227525       12460590     949979
  24 23     -530.9468136866    -0.0000045839   0.002244547   0.000198577       12138058     967904
  25 24     -530.9468156002    -0.0000019136   0.000581150   0.000085443       12102073     970460
  26 25     -530.9468159899    -0.0000003897   0.000225820   0.000052669       11593486     991138
  27 26     -530.9468161486    -0.0000001587   0.000146355   0.000024947       11298983    1002564
  28 27     -530.9468161868    -0.0000000382   0.000066653   0.000010199       11073146    1015719
  29 28     -530.9468161946    -0.0000000078   0.000018732   0.000005701       10541377    1032044
  30 29     -530.9468161961    -0.0000000016   0.000015172   0.000002089        9707749    1054817

          -----------------
          DENSITY CONVERGED
          -----------------
     TIME TO FORM FOCK OPERATORS=       7.1 SECONDS (       0.2 SEC/ITER)
     FOCK TIME ON FIRST ITERATION=       0.2, LAST ITERATION=       0.2
     TIME TO SOLVE SCF EQUATIONS=       0.4 SECONDS (       0.0 SEC/ITER)

 FINAL UHF ENERGY IS     -530.9468161961 AFTER  30 ITERATIONS

          --------------------
          SPIN SZ   =    0.500
          S-SQUARED =    1.386
          --------------------

  ----- ALPHA SET ----- 

          ------------
          EIGENVECTORS
          ------------

                      1          2          3          4          5
                  -20.8635   -20.7519   -11.6014   -11.4129   -11.4052
                     A          A          A          A          A   
    1  C  1  S    0.000320  -0.000389   0.986687   0.000172   0.000520
    2  C  1  S    0.002136  -0.000532   0.095006  -0.000446  -0.000747
    3  C  1  X    0.000332   0.001306   0.000881  -0.001587   0.000459
    4  C  1  Y    0.001693  -0.000709   0.001519  -0.000058   0.000100
    5  C  1  Z    0.000029  -0.000025   0.000015  -0.000004   0.000002
    6  C  1  S    0.013640   0.015567  -0.048681  -0.001716   0.003680
    7  C  1  X    0.009382   0.010942   0.016001   0.015842  -0.002510
    8  C  1  Y    0.036564  -0.017541   0.013048   0.002670  -0.003092
    9  C  1  Z    0.000502  -0.000352   0.000121  -0.000020  -0.000013
   10  C  2  S    0.000152   0.000015  -0.001048  -0.003975  -0.007854
   11  C  2  S    0.000913  -0.000154  -0.002451  -0.001675  -0.004662
   12  C  2  X   -0.000535  -0.000031  -0.001065   0.000389   0.001736
   13  C  2  Y    0.001176  -0.000602   0.000068  -0.000414  -0.001266
   14  C  2  Z    0.000015  -0.000005   0.000002  -0.000003  -0.000007
   15  C  2  S   -0.001800  -0.000343   0.017662   0.014196   0.030567
   16  C  2  X    0.018983  -0.007389   0.019258   0.003500  -0.020241
   17  C  2  Y   -0.016739   0.008046  -0.002008   0.007123   0.007701
   18  C  2  Z   -0.000200   0.000114  -0.000038   0.000040   0.000017
   19  C  3  S   -0.000202   0.000071  -0.000667   0.000316   0.987346
   20  C  3  S   -0.000840   0.000135  -0.001001   0.000259   0.098782
   21  C  3  X    0.000940  -0.001046  -0.001043  -0.000272   0.000378
   22  C  3  Y    0.000250  -0.000095   0.000006   0.000018  -0.001129
   23  C  3  Z   -0.000005  -0.000005   0.000001   0.000002  -0.000009
   24  C  3  S    0.021877  -0.011660   0.003911  -0.005743  -0.089055
   25  C  3  X    0.003076   0.004379   0.009006  -0.002278   0.000627
   26  C  3  Y   -0.010913   0.004622  -0.003515   0.001211   0.018452
   27  C  3  Z    0.000030   0.000011   0.000010  -0.000010   0.000083
   28  C  4  S    0.000113  -0.000100  -0.000204  -0.000310  -0.004712
   29  C  4  S    0.000592  -0.000569  -0.000388  -0.000179  -0.003541
   30  C  4  X    0.000158  -0.000247  -0.000447  -0.000225  -0.001534
   31  C  4  Y   -0.000267  -0.000029  -0.000072   0.000150   0.000356
   32  C  4  Z    0.000006  -0.000001  -0.000003  -0.000002  -0.000014
   33  C  4  S   -0.005776   0.005183   0.000729  -0.000382   0.025020
   34  C  4  X   -0.006219   0.007017   0.006382   0.002006   0.020939
   35  C  4  Y    0.004699   0.000394   0.003343  -0.001562  -0.007600
   36  C  4  Z   -0.000092   0.000045   0.000025   0.000025   0.000183
   37  C  5  S    0.000037  -0.000031  -0.000151  -0.000136  -0.001151
   38  C  5  S    0.000169  -0.000196  -0.000335  -0.000177  -0.000943
   39  C  5  X   -0.000305   0.000066  -0.000125   0.000108  -0.000281
   40  C  5  Y   -0.000027   0.000057   0.000078   0.000017  -0.000055
   41  C  5  Z   -0.000004   0.000000  -0.000004   0.000001   0.000009
   42  C  5  S   -0.004601   0.002417   0.001482   0.002279   0.007084
   43  C  5  X    0.001181  -0.001196  -0.000121  -0.000187   0.002464
   44  C  5  Y    0.002678  -0.002252  -0.002175  -0.001270  -0.003570
   45  C  5  Z   -0.000022   0.000018   0.000028   0.000017   0.000056
   46  C  6  S   -0.000035   0.000012  -0.000053   0.000045  -0.000430
   47  C  6  S   -0.000172   0.000021  -0.000103   0.000074  -0.000437
   48  C  6  X    0.000100  -0.000120  -0.000119  -0.000042  -0.000332
   49  C  6  Y    0.000022   0.000016  -0.000008  -0.000033  -0.000010
   50  C  6  Z    0.000001  -0.000001  -0.000001  -0.000000  -0.000007
   51  C  6  S    0.002791  -0.001889  -0.000427  -0.000949   0.000631
   52  C  6  X    0.001212  -0.000672  -0.000117  -0.000548   0.001535
   53  C  6  Y   -0.000680   0.000363   0.000330   0.000372  -0.000065
   54  C  6  Z    0.000021  -0.000012  -0.000006  -0.000011   0.000027
   55  C  7  S    0.000011  -0.000015  -0.000030  -0.000022  -0.000184
   56  C  7  S    0.000073  -0.000095  -0.000077  -0.000029  -0.000091
   57  C  7  X    0.000095  -0.000073  -0.000011  -0.000019  -0.000228
   58  C  7  Y   -0.000041  -0.000005   0.000011   0.000040   0.000045
   59  C  7  Z    0.000002  -0.000001   0.000000  -0.000001  -0.000004
   60  C  7  S   -0.000119   0.000535   0.001020   0.000319  -0.002066
   61  C  7  X   -0.000702   0.000692   0.000280   0.000209  -0.001116
   62  C  7  Y   -0.000766   0.000375  -0.000347   0.000028   0.000898
   63  C  7  Z   -0.000000   0.000004   0.000004   0.000002  -0.000017
   64  C  8  S   -0.000016   0.000012  -0.000092  -0.000090  -0.000717
   65  C  8  S   -0.000047   0.000021  -0.000197  -0.000082  -0.000725
   66  C  8  X    0.000021  -0.000091  -0.000125  -0.000016  -0.000159
   67  C  8  Y    0.000133  -0.000088  -0.000040  -0.000045  -0.000354
   68  C  8  Z   -0.000003   0.000001  -0.000002   0.000000   0.000005
   69  C  8  S    0.002373  -0.002037   0.000433   0.000046   0.001180
   70  C  8  X    0.001710  -0.000926   0.001208   0.000196  -0.000412
   71  C  8  Y   -0.000769  -0.000093  -0.000711   0.000144   0.003801
   72  C  8  Z    0.000036  -0.000012   0.000032   0.000001  -0.000077
   73  C  9  S   -0.000011  -0.000031  -0.000113  -0.000032  -0.000836
   74  C  9  S    0.000007  -0.000222  -0.000251   0.000009  -0.000225
   75  C  9  X   -0.000088   0.000075  -0.000208  -0.000107  -0.000573
   76  C  9  Y   -0.000081   0.000046  -0.000173  -0.000050  -0.000426
   77  C  9  Z    0.000005  -0.000002   0.000007   0.000000  -0.000012
   78  C  9  S    0.000885   0.001948   0.001828  -0.000817  -0.006111
   79  C  9  X    0.003468  -0.002407   0.000451  -0.000222  -0.003552
   80  C  9  Y    0.002786   0.000147   0.003781   0.000030  -0.003501
   81  C  9  Z   -0.000026  -0.000015  -0.000068  -0.000002   0.000074
   82  O 10  S    0.983634   0.001461   0.000225   0.000092  -0.000017
   83  O 10  S    0.102743  -0.000482   0.002005   0.000648  -0.000121
   84  O 10  X   -0.001271   0.000714   0.000622   0.000115  -0.000137
   85  O 10  Y   -0.004740  -0.000122   0.000288   0.000041   0.000069
   86  O 10  Z   -0.000076  -0.000005   0.000001  -0.000016   0.000002
   87  O 10  S   -0.063858   0.003952  -0.006026  -0.004166   0.001147
   88  O 10  X    0.004756  -0.004391  -0.001409  -0.001841   0.000637
   89  O 10  Y    0.017142   0.000938   0.006473   0.001434  -0.000502
   90  O 10  Z    0.000268   0.000038   0.000117   0.000083  -0.000014
   91  O 11  S   -0.001632   0.983730   0.000065  -0.000038  -0.000011
   92  O 11  S   -0.000988   0.100548   0.001297   0.000767  -0.000168
   93  O 11  X    0.000936   0.000359   0.000133   0.000951   0.000317
   94  O 11  Y    0.000368   0.004070   0.000967   0.000779   0.000063
   95  O 11  Z   -0.000007   0.000070   0.000014   0.000001  -0.000003
   96  O 11  S    0.006430  -0.054795   0.001986   0.003076  -0.000162
   97  O 11  X   -0.006058   0.001313  -0.002374   0.000828  -0.001152
   98  O 11  Y   -0.001882  -0.011185  -0.004090  -0.002894  -0.000277
   99  O 11  Z    0.000041  -0.000202  -0.000042  -0.000036   0.000005
  100  C 12  S    0.000030  -0.000541  -0.000400   0.987211  -0.000330
  101  C 12  S    0.000473  -0.001529  -0.000847   0.099365  -0.000188
  102  C 12  X   -0.000846  -0.002269  -0.000035  -0.001707  -0.000120
  103  C 12  Y   -0.000158  -0.000350  -0.000337   0.000594  -0.000104
  104  C 12  Z    0.000003   0.000013   0.000004   0.000046  -0.000003
  105  C 12  S    0.001712   0.012326   0.002902  -0.067345   0.000994
  106  C 12  X    0.000844  -0.004714  -0.002367   0.000379  -0.000553
  107  C 12  Y   -0.001979  -0.001318   0.001519  -0.003948   0.000273
  108  C 12  Z   -0.000082  -0.000002  -0.000012  -0.000220   0.000023
  109  H 13  S   -0.001774   0.000742  -0.001502   0.000188  -0.001560
  110  H 13  S   -0.006041   0.003747  -0.001446   0.001743  -0.000184
  111  H 14  S    0.000226  -0.000484  -0.000460   0.000077  -0.001757
  112  H 14  S    0.001828  -0.000271   0.001211   0.000591   0.008179
  113  H 15  S   -0.000219   0.000186   0.000070   0.000082   0.000067
  114  H 15  S   -0.000632   0.000850   0.000967   0.000185  -0.000219
  115  H 16  S    0.000008   0.000002  -0.000043  -0.000031   0.000024
  116  H 16  S    0.000217  -0.000039   0.000013  -0.000134   0.000690
  117  H 17  S   -0.000102   0.000057  -0.000051   0.000005  -0.000045
  118  H 17  S   -0.000286   0.000246   0.000040   0.000056   0.000010
  119  H 18  S   -0.000149   0.000048  -0.000087   0.000014   0.000299
  120  H 18  S   -0.000346   0.000135  -0.000062   0.000095   0.001466
  121  H 19  S   -0.000447   0.000302  -0.000149   0.000003   0.000453
  122  H 19  S    0.001057  -0.000120   0.002004   0.000288  -0.000314
  123  H 20  S    0.000138  -0.001055  -0.000688  -0.000062  -0.000113
  124  H 20  S   -0.000494  -0.001528  -0.000303   0.014351  -0.000100
  125  H 21  S    0.000175  -0.001018  -0.000626  -0.000098  -0.000108
  126  H 21  S   -0.000525  -0.001515  -0.000168   0.014451  -0.000117
  127  H 22  S   -0.000465  -0.001039   0.000222  -0.000923  -0.000022
  128  H 22  S   -0.001265  -0.001424   0.000427   0.012167   0.000107

                      6          7          8          9         10
                  -11.3960   -11.3531   -11.3164   -11.3163   -11.3105
                     A          A          A          A          A   
    1  C  1  S    0.000477   0.000114   0.000024   0.000096   0.000036
    2  C  1  S   -0.002773  -0.000366  -0.000242  -0.000230  -0.000245
    3  C  1  X    0.001015   0.000308   0.000060   0.000233   0.000100
    4  C  1  Y    0.000642  -0.000058  -0.000029  -0.000027   0.000003
    5  C  1  Z    0.000005  -0.000004   0.000002  -0.000002   0.000001
    6  C  1  S    0.027833   0.000526   0.001830  -0.000117   0.001659
    7  C  1  X   -0.018635  -0.001903  -0.001479  -0.000832  -0.001518
    8  C  1  Y   -0.000004   0.002880  -0.000166   0.001413  -0.000076
    9  C  1  Z    0.000049   0.000063  -0.000004   0.000027   0.000001
   10  C  2  S    0.987132   0.001332   0.000209   0.000376   0.000159
   11  C  2  S    0.100023   0.000176  -0.000080  -0.000214   0.000053
   12  C  2  X    0.000806   0.000449   0.000391   0.000027   0.000341
   13  C  2  Y    0.001992   0.000015  -0.000091   0.000114   0.000092
   14  C  2  Z    0.000007   0.000017  -0.000005   0.000005  -0.000001
   15  C  2  S   -0.090065  -0.003636  -0.003202   0.002290  -0.002478
   16  C  2  X   -0.001295   0.003273  -0.001183   0.000490  -0.000989
   17  C  2  Y   -0.021441  -0.001543  -0.000665   0.000431  -0.000954
   18  C  2  Z   -0.000069  -0.000057   0.000002  -0.000011  -0.000002
   19  C  3  S    0.007299   0.004058   0.000504   0.001133   0.000571
   20  C  3  S   -0.003295  -0.002603  -0.000543  -0.001010  -0.000576
   21  C  3  X   -0.001912   0.001082   0.000100   0.000328   0.000239
   22  C  3  Y    0.001301   0.000499  -0.000228   0.000183   0.000332
   23  C  3  Z   -0.000003   0.000000   0.000006  -0.000000  -0.000001
   24  C  3  S    0.032817   0.022679   0.004741   0.014283   0.000083
   25  C  3  X    0.021122  -0.010481  -0.000568  -0.009824   0.000212
   26  C  3  Y   -0.008018  -0.006201  -0.003749  -0.000883  -0.002230
   27  C  3  Z    0.000012  -0.000034   0.000023  -0.000041   0.000006
   28  C  4  S   -0.001263   0.987294   0.002716   0.007362   0.001521
   29  C  4  S   -0.000276   0.100993  -0.001655  -0.004258   0.000350
   30  C  4  X   -0.000290   0.000141   0.001124   0.001924   0.000568
   31  C  4  Y    0.000059   0.000052  -0.001538   0.001202   0.000614
   32  C  4  Z    0.000001  -0.000001   0.000027   0.000002  -0.000005
   33  C  4  S    0.002745  -0.096545   0.017341   0.044222  -0.011836
   34  C  4  X    0.001433   0.005843  -0.016836  -0.035719   0.005972
   35  C  4  Y    0.001258   0.002225   0.017255  -0.017193   0.003835
   36  C  4  Z    0.000023   0.000042  -0.000356  -0.000097   0.000019
   37  C  5  S   -0.000397  -0.006374   0.892725   0.420864   0.011784
   38  C  5  S   -0.000295  -0.004275   0.089955   0.042532   0.000491
   39  C  5  X   -0.000540  -0.000827  -0.000183  -0.000589  -0.000029
   40  C  5  Y    0.000065   0.001176  -0.001600   0.000079   0.000377
   41  C  5  Z   -0.000012  -0.000023   0.000015  -0.000009  -0.000005
   42  C  5  S   -0.001986   0.028883  -0.083928  -0.053342   0.006820
   43  C  5  X    0.004431   0.007999   0.003716   0.009568  -0.002509
   44  C  5  Y    0.000087  -0.015268   0.020650   0.020227  -0.005542
   45  C  5  Z    0.000053   0.000258  -0.000209  -0.000147   0.000038
   46  C  6  S   -0.000283  -0.000954  -0.024645  -0.023138  -0.052501
   47  C  6  S   -0.000346   0.000075  -0.006120  -0.005194  -0.005133
   48  C  6  X    0.000004  -0.000632  -0.001215  -0.000807   0.000076
   49  C  6  Y    0.000000  -0.000107   0.000265   0.000312   0.001078
   50  C  6  Z    0.000002  -0.000004  -0.000015  -0.000012  -0.000014
   51  C  6  S    0.003539  -0.007234   0.031221   0.032378  -0.008631
   52  C  6  X    0.002577  -0.002728   0.017989   0.016057  -0.005339
   53  C  6  Y    0.000655   0.006262  -0.007089  -0.010413   0.004625
   54  C  6  Z    0.000009  -0.000107   0.000266   0.000290  -0.000108
   55  C  7  S   -0.000030  -0.001320  -0.001275  -0.002874  -0.022309
   56  C  7  S   -0.000005  -0.000889   0.000086   0.000468  -0.006258
   57  C  7  X   -0.000000  -0.000199  -0.000056  -0.000801  -0.001384
   58  C  7  Y   -0.000049  -0.000039  -0.001130   0.000246   0.000690
   59  C  7  Z    0.000001  -0.000001   0.000013  -0.000012  -0.000022
   60  C  7  S   -0.000483   0.010195  -0.007896  -0.022364   0.035472
   61  C  7  X   -0.000931   0.005593  -0.005013  -0.014489   0.021510
   62  C  7  Y    0.000677   0.000972  -0.000734  -0.003280  -0.006199
   63  C  7  Z   -0.000014   0.000042  -0.000039  -0.000101   0.000293
   64  C  8  S   -0.000151  -0.001060   0.004220  -0.041445   0.984675
   65  C  8  S   -0.000131   0.000013   0.001394  -0.008820   0.099756
   66  C  8  X   -0.000088  -0.000633   0.000391  -0.001093   0.000453
   67  C  8  Y   -0.000043  -0.000154   0.000120  -0.001007   0.001476
   68  C  8  Z    0.000001  -0.000004   0.000002   0.000003  -0.000015
   69  C  8  S    0.000619  -0.006789  -0.004117   0.046466  -0.090200
   70  C  8  X   -0.000334   0.000832  -0.004023   0.016985  -0.006771
   71  C  8  Y    0.001026  -0.007140  -0.000333   0.021799  -0.023160
   72  C  8  Z   -0.000024   0.000105  -0.000036  -0.000125   0.000242
   73  C  9  S   -0.000297  -0.006251  -0.421386   0.892284   0.037710
   74  C  9  S   -0.000178  -0.004205  -0.042441   0.090253  -0.000696
   75  C  9  X   -0.000036  -0.000287   0.000293  -0.001021   0.001632
   76  C  9  Y    0.000190  -0.001461  -0.001259   0.000511  -0.000108
   77  C  9  Z   -0.000006   0.000018   0.000016  -0.000016   0.000017
   78  C  9  S    0.001401   0.028941   0.030793  -0.097640   0.035077
   79  C  9  X    0.000196   0.001625   0.001043   0.021270  -0.019789
   80  C  9  Y   -0.000972   0.018498   0.003749  -0.022770   0.008326
   81  C  9  Z    0.000022  -0.000239  -0.000035   0.000501  -0.000306
   82  O 10  S    0.000110   0.000035   0.000001   0.000014   0.000004
   83  O 10  S    0.000668   0.000268   0.000004   0.000097   0.000027
   84  O 10  X   -0.000168   0.000014  -0.000015   0.000021  -0.000037
   85  O 10  Y    0.000178  -0.000005   0.000001  -0.000003   0.000011
   86  O 10  Z   -0.000002   0.000001  -0.000000   0.000001  -0.000000
   87  O 10  S   -0.003956  -0.001630  -0.000071  -0.000686  -0.000127
   88  O 10  X    0.002919   0.000405   0.000216   0.000141   0.000293
   89  O 10  Y    0.001051   0.000369   0.000021   0.000150  -0.000002
   90  O 10  Z    0.000024  -0.000002   0.000001  -0.000001   0.000000
   91  O 11  S    0.000005  -0.000032  -0.000001  -0.000019  -0.000003
   92  O 11  S   -0.000210  -0.000277  -0.000021  -0.000174  -0.000035
   93  O 11  X    0.000230   0.000036   0.000004   0.000064   0.000000
   94  O 11  Y   -0.000157  -0.000041  -0.000019  -0.000009  -0.000018
   95  O 11  Z    0.000001  -0.000002  -0.000001  -0.000001  -0.000001
   96  O 11  S    0.000486   0.001458   0.000068   0.000809   0.000140
   97  O 11  X   -0.000191  -0.000511   0.000004  -0.000457   0.000001
   98  O 11  Y    0.000739   0.000447   0.000092   0.000196   0.000113
   99  O 11  Z    0.000001   0.000014   0.000003   0.000010   0.000003
  100  C 12  S    0.003601   0.000276   0.000071   0.000069   0.000075
  101  C 12  S   -0.000478  -0.000129  -0.000077  -0.000082  -0.000081
  102  C 12  X    0.000198   0.000072   0.000037   0.000017   0.000043
  103  C 12  Y   -0.000220  -0.000015  -0.000025  -0.000017  -0.000023
  104  C 12  Z   -0.000018  -0.000000  -0.000002  -0.000000  -0.000002
  105  C 12  S    0.002108   0.000405   0.000182   0.000314   0.000184
  106  C 12  X   -0.002019  -0.000374  -0.000201  -0.000234  -0.000213
  107  C 12  Y    0.001680   0.000096   0.000179   0.000038   0.000181
  108  C 12  Z    0.000122   0.000003   0.000012   0.000002   0.000011
  109  H 13  S   -0.002176   0.000238  -0.000167   0.000137  -0.000125
  110  H 13  S    0.007316  -0.000890   0.000720  -0.000925   0.000058
  111  H 14  S   -0.001464  -0.000538   0.000256  -0.000374   0.000160
  112  H 14  S   -0.001679   0.000766   0.000399   0.000239   0.000969
  113  H 15  S   -0.000429  -0.000535  -0.001784  -0.001606   0.000263
  114  H 15  S    0.000508   0.001967   0.005526  -0.000202   0.001866
  115  H 16  S   -0.000069  -0.000497   0.000107   0.000323  -0.000288
  116  H 16  S    0.000229  -0.001025   0.003921   0.004254  -0.001289
  117  H 17  S   -0.000086   0.000080  -0.000240  -0.000734   0.000082
  118  H 17  S   -0.000170   0.001394  -0.000741  -0.002362   0.004604
  119  H 18  S    0.000039  -0.000527   0.000152   0.000349  -0.002356
  120  H 18  S    0.000418  -0.001099  -0.000184   0.005775   0.005756
  121  H 19  S    0.000102  -0.000660   0.000441  -0.002501  -0.000089
  122  H 19  S   -0.001778   0.002760  -0.004549   0.003819   0.004645
  123  H 20  S   -0.000364  -0.000047  -0.000036  -0.000033  -0.000037
  124  H 20  S   -0.000182  -0.000007  -0.000017  -0.000012  -0.000015
  125  H 21  S   -0.000356  -0.000047  -0.000035  -0.000032  -0.000035
  126  H 21  S   -0.000214   0.000004  -0.000019  -0.000007  -0.000016
  127  H 22  S    0.000075  -0.000014   0.000011  -0.000015   0.000011
  128  H 22  S    0.000992   0.000095   0.000111   0.000038   0.000114

                     11         12         13         14         15
                  -11.3092   -11.3000    -1.8199    -1.6531    -1.3166
                     A          A          A          A          A   
    1  C  1  S    0.000058   0.000020  -0.112767  -0.038991  -0.048944
    2  C  1  S   -0.000059  -0.000035   0.126458   0.051729   0.064276
    3  C  1  X    0.000097   0.000069   0.052865   0.060179  -0.086632
    4  C  1  Y   -0.000016  -0.000021   0.116692  -0.128196  -0.034494
    5  C  1  Z    0.000000  -0.000000   0.001523  -0.002589  -0.000239
    6  C  1  S   -0.000661  -0.000351   0.057453   0.038267   0.080477
    7  C  1  X    0.000334  -0.000091  -0.057359  -0.018905  -0.015417
    8  C  1  Y   -0.000076   0.000683  -0.117302   0.068021  -0.013472
    9  C  1  Z   -0.000004   0.000010  -0.001455   0.001144  -0.000131
   10  C  2  S    0.000190   0.000045  -0.011842  -0.008548  -0.124137
   11  C  2  S   -0.000309  -0.000025   0.010747   0.011200   0.135526
   12  C  2  X   -0.000131  -0.000009   0.014987   0.011061  -0.022942
   13  C  2  Y   -0.000023  -0.000023   0.006148  -0.000926   0.053659
   14  C  2  Z   -0.000002   0.000001   0.000026  -0.000098   0.000041
   15  C  2  S    0.005027  -0.000091   0.004521   0.002449   0.293065
   16  C  2  X   -0.001390   0.000916  -0.066631   0.048585   0.002307
   17  C  2  Y    0.002500   0.000219   0.054772  -0.044726   0.049520
   18  C  2  Z    0.000025  -0.000002   0.000624  -0.000657   0.000234
   19  C  3  S    0.000407   0.000165  -0.002075  -0.000643  -0.119935
   20  C  3  S   -0.000377  -0.000352   0.006306  -0.001450   0.140081
   21  C  3  X    0.000515  -0.000038   0.001962   0.004594   0.023597
   22  C  3  Y   -0.000205   0.000041  -0.000653  -0.000167  -0.044627
   23  C  3  Z    0.000003  -0.000000   0.000016  -0.000020  -0.000257
   24  C  3  S   -0.002281   0.005833  -0.067213   0.069177   0.193648
   25  C  3  X   -0.005066  -0.003028  -0.017270  -0.016507  -0.014863
   26  C  3  Y    0.003375  -0.001433   0.029298  -0.030333  -0.000677
   27  C  3  Z   -0.000030  -0.000011  -0.000081   0.000004  -0.000125
   28  C  4  S    0.001546   0.001137  -0.000389   0.000474  -0.107487
   29  C  4  S    0.000519  -0.000764  -0.000869   0.002407   0.117595
   30  C  4  X    0.000781   0.000663   0.000071   0.001141   0.009714
   31  C  4  Y   -0.000105   0.000169   0.000544  -0.000257  -0.001091
   32  C  4  Z    0.000012   0.000004  -0.000009   0.000015  -0.000060
   33  C  4  S   -0.014916   0.010831   0.013418  -0.025242   0.234047
   34  C  4  X    0.007137  -0.011998   0.012086  -0.036988  -0.001736
   35  C  4  Y   -0.002866  -0.002841  -0.011783   0.002482   0.007659
   36  C  4  Z    0.000080  -0.000065   0.000190  -0.000303  -0.000164
   37  C  5  S    0.031820   0.003843  -0.000084   0.000204  -0.058324
   38  C  5  S   -0.001346   0.000552  -0.000208   0.000878   0.068468
   39  C  5  X    0.001512   0.000959   0.000905  -0.000648   0.013383
   40  C  5  Y    0.000803   0.000382  -0.000006  -0.000247  -0.037441
   41  C  5  Z    0.000004   0.000005   0.000013  -0.000005   0.000546
   42  C  5  S    0.037759  -0.014365   0.011362  -0.016170   0.081444
   43  C  5  X   -0.014811   0.002156  -0.005179   0.006743  -0.016346
   44  C  5  Y   -0.016959   0.009760  -0.005122   0.012893   0.000504
   45  C  5  Z    0.000067  -0.000100   0.000009  -0.000096  -0.000165
   46  C  6  S    0.984868   0.025081   0.000118  -0.000095  -0.041691
   47  C  6  S    0.099957  -0.001869   0.000525  -0.000360   0.047682
   48  C  6  X    0.001072  -0.000064  -0.000151   0.000451   0.023821
   49  C  6  Y   -0.001111   0.001486  -0.000017  -0.000022  -0.016510
   50  C  6  Z    0.000024  -0.000020  -0.000002   0.000005   0.000442
   51  C  6  S   -0.092643   0.036096  -0.008297   0.011386   0.078711
   52  C  6  X   -0.016951   0.006611  -0.004267   0.005028   0.000148
   53  C  6  Y    0.019569  -0.022552   0.000945  -0.002310  -0.012021
   54  C  6  Z   -0.000418   0.000353  -0.000053   0.000080   0.000146
   55  C  7  S   -0.027294   0.986890  -0.000021   0.000072  -0.033775
   56  C  7  S   -0.007251   0.098878  -0.000103   0.000336   0.039754
   57  C  7  X   -0.001133   0.001424  -0.000206   0.000284   0.025418
   58  C  7  Y   -0.001140   0.000312   0.000058  -0.000012   0.005525
   59  C  7  Z    0.000003   0.000011  -0.000004   0.000003   0.000187
   60  C  7  S    0.040200  -0.092119  -0.000131  -0.002925   0.042840
   61  C  7  X    0.019567  -0.024499   0.002205  -0.003998   0.000151
   62  C  7  Y    0.014429  -0.005470   0.001764  -0.001940  -0.002010
   63  C  7  Z    0.000014  -0.000180   0.000007  -0.000020   0.000025
   64  C  8  S    0.051324   0.022689   0.000068  -0.000057  -0.042508
   65  C  8  S    0.005424  -0.002082   0.000296  -0.000184   0.048545
   66  C  8  X    0.000615   0.000547   0.000008   0.000301   0.015701
   67  C  8  Y   -0.000795  -0.001357  -0.000257   0.000379   0.025104
   68  C  8  Z    0.000016   0.000023   0.000006  -0.000004  -0.000186
   69  C  8  S   -0.018406   0.036181  -0.007133   0.010743   0.083682
   70  C  8  X   -0.003852  -0.003230  -0.005069   0.005058   0.000348
   71  C  8  Y   -0.008821   0.023220   0.001401   0.001020   0.007963
   72  C  8  Z    0.000077  -0.000337  -0.000093   0.000050  -0.000082
   73  C  9  S    0.012011   0.003575   0.000006   0.000096  -0.060460
   74  C  9  S    0.000160   0.000592   0.000197   0.000560   0.069685
   75  C  9  X    0.000256   0.001002   0.000455  -0.000397  -0.002883
   76  C  9  Y   -0.000362   0.000035   0.000226   0.000070   0.039695
   77  C  9  Z    0.000007   0.000010  -0.000011   0.000001  -0.000573
   78  C  9  S    0.009678  -0.014885  -0.001921  -0.006260   0.093311
   79  C  9  X   -0.006904   0.006151  -0.009496   0.013966  -0.004744
   80  C  9  Y    0.004084  -0.008119  -0.007825  -0.000966   0.001904
   81  C  9  Z   -0.000114   0.000163   0.000076   0.000109  -0.000128
   82  O 10  S   -0.000005   0.000007  -0.216759   0.077988   0.025832
   83  O 10  S   -0.000047   0.000055   0.210115  -0.076659  -0.027147
   84  O 10  X    0.000025   0.000009  -0.030091   0.022501  -0.040277
   85  O 10  Y   -0.000006  -0.000004  -0.120008   0.019321  -0.007941
   86  O 10  Z   -0.000000   0.000000  -0.001855   0.000171   0.000044
   87  O 10  S    0.000177  -0.000334   0.724413  -0.279583  -0.093707
   88  O 10  X   -0.000108   0.000038  -0.031786   0.035345  -0.031619
   89  O 10  Y   -0.000031   0.000076  -0.157007   0.031386  -0.002536
   90  O 10  Z   -0.000000   0.000001  -0.002544   0.000310   0.000102
   91  O 11  S   -0.000003  -0.000008  -0.053080  -0.216595   0.013011
   92  O 11  S   -0.000038  -0.000064   0.048911   0.197951  -0.011614
   93  O 11  X    0.000057   0.000015  -0.007662   0.000818  -0.044029
   94  O 11  Y    0.000009  -0.000007   0.031825   0.075635  -0.001465
   95  O 11  Z   -0.000001  -0.000001   0.000615   0.001250   0.000272
   96  O 11  S    0.000068   0.000329   0.144392   0.713806  -0.049599
   97  O 11  X   -0.000246  -0.000150   0.012443  -0.003392  -0.032953
   98  O 11  Y   -0.000034   0.000088   0.050754   0.115816  -0.002905
   99  O 11  Z    0.000002   0.000004   0.000588   0.001988   0.000218
  100  C 12  S   -0.000025   0.000017  -0.011897  -0.052650   0.023644
  101  C 12  S   -0.000004  -0.000018   0.010099   0.057902  -0.022221
  102  C 12  X   -0.000029   0.000006  -0.009569  -0.057072   0.012539
  103  C 12  Y   -0.000009   0.000001  -0.000543  -0.010744   0.003356
  104  C 12  Z    0.000000   0.000000  -0.000057   0.000248   0.000020
  105  C 12  S    0.000108   0.000071   0.007767   0.072967  -0.061106
  106  C 12  X   -0.000029  -0.000048  -0.006214   0.005501   0.008041
  107  C 12  Y   -0.000037  -0.000022   0.012798  -0.004695  -0.008723
  108  C 12  Z   -0.000000  -0.000002   0.001183  -0.000056  -0.000469
  109  H 13  S    0.000006   0.000091   0.007538   0.000221   0.050824
  110  H 13  S    0.000566   0.000042   0.017654  -0.013445   0.008199
  111  H 14  S   -0.000444  -0.000009   0.001209   0.001836   0.056174
  112  H 14  S   -0.000275   0.000255   0.000901   0.001337   0.000328
  113  H 15  S   -0.000032  -0.000591   0.000663  -0.000813   0.022922
  114  H 15  S    0.004774  -0.001524   0.000353  -0.004516   0.000325
  115  H 16  S   -0.002441  -0.000003   0.000037   0.000033   0.012890
  116  H 16  S    0.005378   0.005454  -0.000612   0.000653  -0.003358
  117  H 17  S    0.000109  -0.002277   0.000279  -0.000279   0.010442
  118  H 17  S    0.005140   0.005644   0.000917  -0.001452  -0.003907
  119  H 18  S   -0.000516   0.000006   0.000302  -0.000177   0.012943
  120  H 18  S   -0.000683   0.005421   0.000648  -0.000349  -0.004219
  121  H 19  S    0.000273  -0.000625   0.000994  -0.001062   0.024216
  122  H 19  S    0.002151  -0.001433  -0.002938  -0.001976   0.002076
  123  H 20  S   -0.000007  -0.000004   0.002556   0.016170  -0.009354
  124  H 20  S   -0.000006   0.000001   0.003151  -0.002623   0.002149
  125  H 21  S   -0.000006  -0.000004   0.002322   0.015898  -0.009264
  126  H 21  S   -0.000008   0.000005   0.001865  -0.002918   0.002320
  127  H 22  S   -0.000012  -0.000007   0.003311   0.012736  -0.010344
  128  H 22  S   -0.000026  -0.000006   0.008844  -0.004215  -0.003389

                     16         17         18         19         20
                   -1.2767    -1.1962    -1.1499    -1.1452    -1.0594
                     A          A          A          A          A   
    1  C  1  S   -0.061900   0.080389   0.020875   0.005959   0.098218
    2  C  1  S    0.078380  -0.100134  -0.025951  -0.007182  -0.132191
    3  C  1  X   -0.088565   0.015673  -0.100998  -0.056787   0.063125
    4  C  1  Y   -0.043031   0.068678   0.049248   0.023979  -0.099669
    5  C  1  Z   -0.000342   0.001010   0.001335   0.000659  -0.002261
    6  C  1  S    0.124048  -0.192514  -0.046139  -0.011784  -0.249960
    7  C  1  X   -0.033742   0.021226  -0.056305  -0.034307   0.094019
    8  C  1  Y   -0.016843   0.030812   0.008771   0.005380   0.033759
    9  C  1  Z   -0.000051   0.000191   0.000330   0.000201  -0.000024
   10  C  2  S   -0.108213   0.011523  -0.063476  -0.030524  -0.004396
   11  C  2  S    0.115855  -0.009702   0.069049   0.033938   0.005917
   12  C  2  X    0.019297  -0.103712  -0.022283  -0.001336  -0.137969
   13  C  2  Y    0.042048   0.018585   0.035523   0.023608   0.009819
   14  C  2  Z    0.000042   0.000130   0.000271   0.000115  -0.000273
   15  C  2  S    0.279757  -0.062754   0.157106   0.063785  -0.000805
   16  C  2  X   -0.004822  -0.000631  -0.013822   0.002496   0.023275
   17  C  2  Y    0.047806  -0.014402   0.018797   0.006892  -0.033282
   18  C  2  Z    0.000139   0.000046   0.000156  -0.000021  -0.000589
   19  C  3  S   -0.043524  -0.086954  -0.009115  -0.009120  -0.085886
   20  C  3  S    0.050621   0.094621   0.011163   0.010009   0.092332
   21  C  3  X    0.082814  -0.043318   0.101533   0.047079   0.022732
   22  C  3  Y   -0.024884  -0.014914  -0.026339   0.009302  -0.013493
   23  C  3  Z    0.000062  -0.000227   0.000273  -0.000023  -0.000099
   24  C  3  S    0.071247   0.213190   0.018608   0.027079   0.272359
   25  C  3  X   -0.032941   0.029123   0.026050   0.019330   0.054986
   26  C  3  Y    0.005338  -0.018196  -0.002200  -0.003173  -0.037420
   27  C  3  Z   -0.000106  -0.000031   0.000121   0.000028   0.000093
   28  C  4  S    0.072208  -0.082159   0.086043   0.045393   0.030414
   29  C  4  S   -0.077860   0.085957  -0.091414  -0.048301  -0.033941
   30  C  4  X    0.060230   0.051408   0.019191  -0.011272   0.091956
   31  C  4  Y    0.007243   0.014984  -0.052485   0.086234   0.016551
   32  C  4  Z    0.000355   0.000184   0.000740  -0.001216   0.000447
   33  C  4  S   -0.191002   0.214978  -0.229026  -0.121697  -0.082205
   34  C  4  X   -0.003861   0.037362  -0.001110  -0.006177   0.049040
   35  C  4  Y   -0.009786   0.029580  -0.016618   0.033674   0.037396
   36  C  4  Z    0.000050   0.000010   0.000176  -0.000409   0.000021
   37  C  5  S    0.074458  -0.005361   0.080371  -0.080918   0.044890
   38  C  5  S   -0.084921   0.005078  -0.087763   0.089235  -0.049028
   39  C  5  X    0.017160   0.063930  -0.032357  -0.082319  -0.013964
   40  C  5  Y    0.044706  -0.007256   0.027519   0.004258   0.023136
   41  C  5  Z   -0.000367   0.000685  -0.000629  -0.000892  -0.000442
   42  C  5  S   -0.108015   0.016125  -0.169305   0.154613  -0.113802
   43  C  5  X   -0.004645  -0.010869  -0.001232  -0.004895  -0.008319
   44  C  5  Y    0.001448  -0.007692   0.007361   0.004360   0.005795
   45  C  5  Z   -0.000055  -0.000006  -0.000102  -0.000159  -0.000166
   46  C  6  S    0.081488   0.065825   0.008092  -0.137533  -0.017847
   47  C  6  S   -0.088794  -0.070477  -0.008377   0.145933   0.018989
   48  C  6  X   -0.032860   0.003943  -0.045768   0.033838  -0.047465
   49  C  6  Y    0.034499   0.038958  -0.041599  -0.007313  -0.037272
   50  C  6  Z   -0.000763  -0.000461   0.000080   0.000432   0.000004
   51  C  6  S   -0.190953  -0.176460  -0.017649   0.363625   0.043855
   52  C  6  X   -0.022980  -0.018049  -0.004573   0.021287  -0.015704
   53  C  6  Y    0.020563   0.015353  -0.006199  -0.018009  -0.009046
   54  C  6  Z   -0.000483  -0.000378   0.000036   0.000448  -0.000045
   55  C  7  S    0.071917   0.078595  -0.068788  -0.038363  -0.059728
   56  C  7  S   -0.083190  -0.088751   0.076299   0.042511   0.064174
   57  C  7  X   -0.047339  -0.036611   0.032481  -0.007869   0.001386
   58  C  7  Y   -0.010956  -0.007638  -0.039051   0.094874   0.000986
   59  C  7  Z   -0.000343  -0.000281   0.000837  -0.001283   0.000015
   60  C  7  S   -0.097001  -0.130792   0.133628   0.075536   0.147957
   61  C  7  X    0.006564   0.005035   0.001547   0.000808   0.007071
   62  C  7  Y    0.000801  -0.000134  -0.000578   0.000229  -0.000778
   63  C  7  Z    0.000051   0.000040   0.000031   0.000004   0.000082
   64  C  8  S    0.080461   0.068386  -0.102326   0.088277  -0.016765
   65  C  8  S   -0.088161  -0.072715   0.108885  -0.093609   0.018363
   66  C  8  X   -0.015036   0.017631  -0.008929  -0.069139  -0.058448
   67  C  8  Y   -0.044461  -0.033274   0.026583   0.005005   0.014224
   68  C  8  Z    0.000438   0.000604  -0.000444  -0.000726  -0.000761
   69  C  8  S   -0.184244  -0.184787   0.271370  -0.229883   0.038824
   70  C  8  X   -0.008561  -0.009560   0.007452  -0.012089  -0.015142
   71  C  8  Y   -0.026947  -0.026416   0.019453  -0.012690  -0.005901
   72  C  8  Z    0.000271   0.000280  -0.000190   0.000053  -0.000056
   73  C  9  S    0.070877  -0.001180  -0.023494   0.114666   0.043039
   74  C  9  S   -0.080897  -0.000664   0.025951  -0.126106  -0.048356
   75  C  9  X    0.036265   0.055422  -0.063127   0.032199  -0.000224
   76  C  9  Y   -0.032378   0.033004  -0.049350  -0.008295  -0.025170
   77  C  9  Z    0.000768   0.000085   0.000043   0.000422   0.000321
   78  C  9  S   -0.111100   0.029922   0.040829  -0.229551  -0.081014
   79  C  9  X    0.002003  -0.009376   0.003442   0.006334   0.002258
   80  C  9  Y   -0.002770   0.014184  -0.004053   0.002908   0.010534
   81  C  9  Z    0.000058  -0.000345   0.000077   0.000020  -0.000184
   82  O 10  S    0.029005  -0.028993  -0.001691   0.001668  -0.074942
   83  O 10  S   -0.030094   0.029567   0.000632  -0.002102   0.078942
   84  O 10  X   -0.047889   0.025722  -0.058711  -0.037605   0.135223
   85  O 10  Y   -0.016297   0.046997   0.027517   0.011180   0.223152
   86  O 10  Z   -0.000019   0.000470   0.000659   0.000313   0.002573
   87  O 10  S   -0.109342   0.116804   0.015455  -0.003074   0.287448
   88  O 10  X   -0.035373   0.017496  -0.047185  -0.029919   0.109396
   89  O 10  Y   -0.009046   0.035804   0.021688   0.009133   0.197234
   90  O 10  Z    0.000046   0.000291   0.000436   0.000210   0.002349
   91  O 11  S    0.013007  -0.001121   0.018552   0.009802  -0.054671
   92  O 11  S   -0.012200   0.001775  -0.016503  -0.008920   0.051754
   93  O 11  X   -0.065166   0.153983   0.130270   0.061929  -0.014248
   94  O 11  Y    0.002544  -0.029191  -0.037335  -0.018600  -0.043942
   95  O 11  Z    0.000511  -0.001756  -0.001780  -0.000875  -0.000630
   96  O 11  S   -0.047572  -0.002564  -0.083260  -0.042882   0.235687
   97  O 11  X   -0.053250   0.133306   0.114595   0.054553  -0.013563
   98  O 11  Y    0.002019  -0.028135  -0.035303  -0.016947  -0.042802
   99  O 11  Z    0.000478  -0.001649  -0.001651  -0.000794  -0.000705
  100  C 12  S    0.036686  -0.106653  -0.114305  -0.056007   0.080418
  101  C 12  S   -0.035914   0.106253   0.113638   0.055642  -0.079817
  102  C 12  X    0.015981  -0.017091   0.006030   0.004278  -0.050566
  103  C 12  Y    0.004773  -0.011286  -0.008855  -0.004301  -0.024147
  104  C 12  Z    0.000040  -0.000250  -0.000347  -0.000173  -0.000063
  105  C 12  S   -0.095244   0.298181   0.337350   0.166226  -0.264294
  106  C 12  X    0.007485  -0.007485   0.001206   0.001097  -0.027199
  107  C 12  Y   -0.010436   0.020729   0.018248   0.008488  -0.021734
  108  C 12  Z   -0.000516   0.000842   0.000578   0.000244   0.000319
  109  H 13  S    0.045643  -0.010624   0.026600   0.009291   0.002696
  110  H 13  S    0.004833  -0.003501   0.002378  -0.004442  -0.004426
  111  H 14  S    0.023308   0.044165   0.003495   0.014483   0.055119
  112  H 14  S   -0.000081   0.011493  -0.001853   0.008894   0.033022
  113  H 15  S   -0.025736   0.008650  -0.044423   0.043211  -0.022426
  114  H 15  S    0.002989   0.010460  -0.010479   0.007406  -0.002137
  115  H 16  S   -0.027027  -0.026858  -0.004438   0.067683   0.012705
  116  H 16  S   -0.000083  -0.003523  -0.000412   0.011411   0.002625
  117  H 17  S   -0.023826  -0.032864   0.033580   0.018878   0.039758
  118  H 17  S    0.007042   0.001362   0.003954   0.002347   0.013312
  119  H 18  S   -0.026770  -0.028391   0.049617  -0.044140   0.011757
  120  H 18  S    0.000204  -0.005117   0.007663  -0.007633   0.000296
  121  H 19  S   -0.023626   0.005587   0.013379  -0.062593  -0.021711
  122  H 19  S    0.005721   0.009669   0.002597  -0.011489   0.000994
  123  H 20  S   -0.016033   0.054371   0.064032   0.031624  -0.063923
  124  H 20  S    0.002619  -0.003214  -0.000176   0.000042  -0.005227
  125  H 21  S   -0.015916   0.054366   0.064310   0.031789  -0.063411
  126  H 21  S    0.002808  -0.003320   0.000054   0.000215  -0.006581
  127  H 22  S   -0.017421   0.060141   0.071605   0.035507  -0.055248
  128  H 22  S   -0.003829   0.010750   0.013405   0.006648  -0.009006

                     21         22         23         24         25
                   -1.0357    -1.0055    -0.9663    -0.9470    -0.9441
                     A          A          A          A          A   
    1  C  1  S    0.038861   0.014734   0.014197  -0.025575   0.000983
    2  C  1  S   -0.063309  -0.022765  -0.013993   0.028627  -0.000991
    3  C  1  X   -0.200982   0.008126   0.036848  -0.047812   0.003441
    4  C  1  Y   -0.075912  -0.177307   0.130055  -0.086355  -0.000474
    5  C  1  Z    0.000452  -0.003059   0.003386   0.006783   0.221461
    6  C  1  S   -0.031935  -0.039782  -0.063902   0.099377  -0.004232
    7  C  1  X   -0.155940   0.072214   0.014785  -0.059207   0.003264
    8  C  1  Y   -0.003914  -0.011822   0.011139  -0.018066  -0.003175
    9  C  1  Z    0.001384  -0.000727   0.001330   0.006685   0.188544
   10  C  2  S   -0.012235  -0.077366  -0.001349   0.017608  -0.001346
   11  C  2  S    0.018027   0.076172   0.003100  -0.017553   0.001274
   12  C  2  X    0.088968   0.013362  -0.090905   0.104359  -0.003725
   13  C  2  Y   -0.018990  -0.091319   0.005543  -0.066421   0.000124
   14  C  2  Z    0.000193  -0.000858   0.000785   0.001728   0.059297
   15  C  2  S   -0.031864   0.316590  -0.010157  -0.064558   0.005458
   16  C  2  X    0.035111   0.035628  -0.052949   0.041797  -0.002035
   17  C  2  Y   -0.051468  -0.043696   0.009627  -0.052801   0.001290
   18  C  2  Z   -0.000422  -0.000543   0.000613   0.000644   0.027518
   19  C  3  S    0.062672   0.052474  -0.000089   0.027180  -0.000899
   20  C  3  S   -0.070444  -0.054143   0.001005  -0.030514   0.001059
   21  C  3  X    0.006290   0.044292   0.031967  -0.144126   0.004273
   22  C  3  Y    0.008041  -0.085964  -0.091862  -0.010086  -0.000329
   23  C  3  Z    0.000120  -0.000136   0.000440   0.000274   0.015625
   24  C  3  S   -0.155894  -0.159288  -0.012976  -0.074685   0.001841
   25  C  3  X    0.044438  -0.027966   0.021122  -0.071749   0.001216
   26  C  3  Y   -0.018488  -0.059981  -0.044322  -0.021638   0.000653
   27  C  3  Z    0.000424  -0.000211   0.000324   0.000511   0.018066
   28  C  4  S   -0.008928   0.009635   0.002317  -0.082667   0.002790
   29  C  4  S    0.009217  -0.006978  -0.002604   0.085506  -0.002861
   30  C  4  X   -0.076240  -0.049543   0.038605   0.040791  -0.001273
   31  C  4  Y   -0.020113  -0.073422  -0.188591  -0.036633   0.003101
   32  C  4  Z   -0.000318   0.000235   0.002519   0.001031   0.003765
   33  C  4  S    0.040207  -0.055923  -0.001359   0.289635  -0.010077
   34  C  4  X   -0.024331  -0.046051   0.025265   0.000819  -0.000231
   35  C  4  Y    0.014261  -0.040255  -0.103230  -0.022054   0.001690
   36  C  4  Z   -0.000355  -0.000006   0.001405   0.000221  -0.001749
   37  C  5  S   -0.033843  -0.011869   0.074321   0.073442  -0.003238
   38  C  5  S    0.036876   0.013596  -0.078783  -0.076656   0.003400
   39  C  5  X   -0.004353  -0.052533  -0.105298   0.088996  -0.002132
   40  C  5  Y   -0.012954  -0.003650  -0.008197  -0.070370   0.002688
   41  C  5  Z    0.000134  -0.000496  -0.000928   0.001802   0.000494
   42  C  5  S    0.072592   0.020960  -0.212101  -0.221461   0.009643
   43  C  5  X   -0.005294  -0.011626  -0.030259   0.019291  -0.000413
   44  C  5  Y    0.001107   0.007224  -0.002684  -0.017528   0.000775
   45  C  5  Z   -0.000089  -0.000258  -0.000266   0.000520   0.001241
   46  C  6  S    0.005928  -0.026609  -0.078417   0.019637   0.000040
   47  C  6  S   -0.007171   0.027217   0.080820  -0.018929  -0.000083
   48  C  6  X    0.040007   0.027276  -0.063986  -0.113274   0.004524
   49  C  6  Y    0.031501   0.029166  -0.014861  -0.125731   0.004483
   50  C  6  Z   -0.000003  -0.000108  -0.000451   0.000461   0.000201
   51  C  6  S   -0.009956   0.095387   0.262351  -0.076973   0.000193
   52  C  6  X    0.016567   0.015680  -0.017256  -0.050779   0.001943
   53  C  6  Y    0.002151   0.001600  -0.012397  -0.048961   0.001837
   54  C  6  Z    0.000152   0.000149  -0.000021   0.000092  -0.000141
   55  C  7  S    0.045524   0.039960   0.004953  -0.098841   0.003175
   56  C  7  S   -0.048802  -0.042185  -0.005173   0.104005  -0.003339
   57  C  7  X    0.002342  -0.001132  -0.027439  -0.038646   0.001549
   58  C  7  Y    0.002427   0.038284   0.131977   0.029201  -0.002446
   59  C  7  Z   -0.000017  -0.000512  -0.001967  -0.000742   0.000127
   60  C  7  S   -0.117159  -0.110040  -0.015403   0.294405  -0.009498
   61  C  7  X   -0.003986  -0.007249  -0.008031   0.002728  -0.000027
   62  C  7  Y   -0.002248   0.004544   0.035372   0.011000  -0.000803
   63  C  7  Z   -0.000021  -0.000151  -0.000534  -0.000088   0.000337
   64  C  8  S    0.009463   0.026467   0.076310   0.057028  -0.002685
   65  C  8  S   -0.010403  -0.028365  -0.078677  -0.057508   0.002721
   66  C  8  X    0.049674   0.060831   0.077749  -0.108983   0.002497
   67  C  8  Y   -0.011358  -0.010566   0.008232   0.073246  -0.002646
   68  C  8  Z    0.000634   0.000707   0.000627  -0.002021   0.000313
   69  C  8  S   -0.022606  -0.068558  -0.256424  -0.204268   0.009574
   70  C  8  X    0.017810   0.026975   0.024891  -0.048377   0.001209
   71  C  8  Y   -0.001145  -0.002101  -0.003913   0.022040  -0.000806
   72  C  8  Z    0.000194   0.000317   0.000299  -0.000773  -0.000221
   73  C  9  S   -0.034256  -0.045483  -0.080295   0.028187   0.000051
   74  C  9  S    0.036331   0.049767   0.085114  -0.028588  -0.000095
   75  C  9  X   -0.005124   0.019395   0.093349   0.096037  -0.003916
   76  C  9  Y    0.011208   0.006651   0.029181   0.112019  -0.004149
   77  C  9  Z   -0.000188   0.000039   0.000448  -0.000593   0.000392
   78  C  9  S    0.094652   0.111667   0.229548  -0.089499   0.000152
   79  C  9  X    0.000571   0.018254   0.023986   0.024138  -0.000901
   80  C  9  Y    0.011026   0.004287   0.006421   0.030434  -0.001151
   81  C  9  Z   -0.000140  -0.000009   0.000071  -0.000128   0.001532
   82  O 10  S   -0.054799  -0.043111   0.018374  -0.009024   0.000189
   83  O 10  S    0.054742   0.045426  -0.019787   0.009107  -0.000229
   84  O 10  X   -0.263161   0.309574  -0.080533  -0.070591   0.006971
   85  O 10  Y    0.279835   0.137250  -0.113613   0.082953  -0.010523
[...]
    5             0.370281   0.109658
    6             0.119113   0.039614
    7             0.001134   0.441734
    8             0.107896   0.047549
    9             0.401126   0.079083
   10             0.000007   0.007332
   11             0.000001   0.007355
   12             0.000000   0.000229
   13             0.000001   0.000000
   14             0.000000   0.000002
   15             0.000000   0.000000
   16             0.000000   0.000000
   17             0.000000   0.000000
   18             0.000000   0.000000
   19            -0.000000   0.000000
   20             0.000000   0.000411
   21             0.000000   0.000487
   22             0.000000   0.000002

     ATOMIC SPIN POPULATION (ALPHA MINUS BETA)
       ATOM         MULL.POP.                    LOW.POP.
    1 C            -0.183770                    -0.091314
    2 C             0.423894                     0.304274
    3 C            -0.372707                    -0.236222
    4 C             0.658850                     0.387428
    5 C            -0.705590                    -0.472523
    6 C             0.710736                     0.469877
    7 C            -0.731549                    -0.491528
    8 C             0.707955                     0.466609
    9 C            -0.721112                    -0.482567
   10 O             1.039032                     1.000907
   11 O             0.124703                     0.112133
   12 C            -0.002425                    -0.001384
   13 H            -0.021849                    -0.009981
   14 H             0.024668                     0.014663
   15 H             0.045440                     0.027225
   16 H            -0.045497                    -0.027232
   17 H             0.047172                     0.028202
   18 H            -0.045378                    -0.027051
   19 H             0.046832                     0.027676
   20 H             0.000471                     0.000550
   21 H             0.000853                     0.000733
   22 H            -0.000729                    -0.000475


          ********* ALL ELECTRONS ********

               ----- POPULATIONS IN EACH AO -----
                             MULLIKEN      LOWDIN
              1  C  1  S      1.98718     1.97620
              2  C  1  S      0.45381     0.44808
              3  C  1  X      0.64174     0.61827
              4  C  1  Y      0.57969     0.55354
              5  C  1  Z      0.29957     0.27892
              6  C  1  S      0.53377     0.49766
              7  C  1  X      0.29224     0.44162
              8  C  1  Y     -0.10653     0.37319
              9  C  1  Z      0.37071     0.41594
             10  C  2  S      1.98796     1.97633
             11  C  2  S      0.39029     0.41405
             12  C  2  X      0.54035     0.51563
             13  C  2  Y      0.59964     0.57525
             14  C  2  Z      0.48729     0.47934
             15  C  2  S      0.93794     0.54581
             16  C  2  X      0.10862     0.44837
             17  C  2  Y      0.57982     0.56194
             18  C  2  Z      0.68646     0.68251
             19  C  3  S      1.98843     1.97741
             20  C  3  S      0.41386     0.42987
             21  C  3  X      0.63791     0.61338
             22  C  3  Y      0.60847     0.57918
             23  C  3  Z      0.31164     0.29517
             24  C  3  S      0.88514     0.53561
             25  C  3  X      0.25763     0.48672
             26  C  3  Y      0.53047     0.54329
             27  C  3  Z      0.44508     0.47282
             28  C  4  S      1.98839     1.97602
             29  C  4  S      0.39547     0.40594
             30  C  4  X      0.56655     0.54559
             31  C  4  Y      0.62145     0.60461
             32  C  4  Z      0.43586     0.42136
             33  C  4  S      0.82920     0.50552
             34  C  4  X      0.30289     0.48566
             35  C  4  Y      0.36729     0.50538
             36  C  4  Z      0.60999     0.60819
             37  C  5  S      1.98837     1.97683
             38  C  5  S      0.39952     0.41768
             39  C  5  X      0.61875     0.59664
             40  C  5  Y      0.58199     0.55522
             41  C  5  Z      0.39777     0.38696
             42  C  5  S      0.88727     0.53320
             43  C  5  X      0.27729     0.48470
             44  C  5  Y      0.48032     0.53313
             45  C  5  Z      0.55841     0.57411
             46  C  6  S      1.98821     1.97678
             47  C  6  S      0.39729     0.41401
             48  C  6  X      0.59853     0.57265
             49  C  6  Y      0.60495     0.57962
             50  C  6  Z      0.40870     0.39638
             51  C  6  S      0.89034     0.53642
             52  C  6  X      0.35716     0.50702
             53  C  6  Y      0.40999     0.51821
             54  C  6  Z      0.57292     0.58656
             55  C  7  S      1.98829     1.97695
             56  C  7  S      0.40001     0.41752
             57  C  7  X      0.59767     0.57107
             58  C  7  Y      0.61615     0.59098
             59  C  7  Z      0.38730     0.37451
             60  C  7  S      0.90247     0.53900
             61  C  7  X      0.51768     0.54401
             62  C  7  Y      0.26055     0.48253
             63  C  7  Z      0.54205     0.55662
             64  C  8  S      1.98818     1.97679
             65  C  8  S      0.39756     0.41397
             66  C  8  X      0.60702     0.58178
             67  C  8  Y      0.59603     0.57000
             68  C  8  Z      0.40785     0.39547
             69  C  8  S      0.88754     0.53626
             70  C  8  X      0.25902     0.48239
             71  C  8  Y      0.50780     0.54255
             72  C  8  Z      0.57240     0.58593
             73  C  9  S      1.98837     1.97674
             74  C  9  S      0.39821     0.41538
             75  C  9  X      0.61071     0.58666
             76  C  9  Y      0.58770     0.56216
             77  C  9  Z      0.40513     0.39426
             78  C  9  S      0.89117     0.53159
             79  C  9  X      0.40243     0.51595
             80  C  9  Y      0.35877     0.50521
             81  C  9  Z      0.55967     0.57560
             82  O 10  S      1.98835     1.98284
             83  O 10  S      0.45283     0.61550
             84  O 10  X      0.51787     0.51307
             85  O 10  Y      0.70825     0.69586
             86  O 10  Z      0.80660     0.80412
             87  O 10  S      1.60582     1.03994
             88  O 10  X      0.50585     0.52587
             89  O 10  Y      0.74633     0.77753
             90  O 10  Z      0.92823     0.91757
             91  O 11  S      1.98690     1.98072
             92  O 11  S      0.41989     0.57895
             93  O 11  X      0.59573     0.58564
             94  O 11  Y      0.67335     0.66952
             95  O 11  Z      0.80510     0.81184
             96  O 11  S      1.54535     0.97941
             97  O 11  X      0.74190     0.74928
             98  O 11  Y      0.85580     0.87992
             99  O 11  Z      0.97896     0.96222
            100  C 12  S      1.98757     1.97625
            101  C 12  S      0.36856     0.42736
            102  C 12  X      0.37309     0.36895
            103  C 12  Y      0.59722     0.56313
            104  C 12  Z      0.59677     0.55593
            105  C 12  S      1.07997     0.59884
            106  C 12  X      0.20585     0.36427
            107  C 12  Y      0.58876     0.59985
            108  C 12  Z      0.55953     0.60250
            109  H 13  S      0.45171     0.44551
            110  H 13  S      0.20678     0.38958
            111  H 14  S      0.46943     0.46927
            112  H 14  S      0.23846     0.40434
            113  H 15  S      0.46845     0.46821
            114  H 15  S      0.26711     0.41770
            115  H 16  S      0.46544     0.46401
            116  H 16  S      0.25290     0.40990
            117  H 17  S      0.46594     0.46425
            118  H 17  S      0.24846     0.40825
            119  H 18  S      0.46578     0.46458
            120  H 18  S      0.25358     0.41031
            121  H 19  S      0.47182     0.47069
            122  H 19  S      0.27219     0.42049
            123  H 20  S      0.47148     0.47006
            124  H 20  S      0.26531     0.41640
            125  H 21  S      0.47069     0.46915
            126  H 21  S      0.26187     0.41505
            127  H 22  S      0.46512     0.45907
            128  H 22  S      0.22522     0.39395

          ----- MULLIKEN ATOMIC OVERLAP POPULATIONS -----
          (OFF-DIAGONAL ELEMENTS NEED TO BE MULTIPLIED BY 2)

             1           2           3           4           5

    1    4.4518420
    2    0.3375971   5.4660600
    3   -0.1271389   0.3744726   5.1975840
    4    0.0025613  -0.0765406   0.3694793   5.3292976
    5   -0.0000731   0.0016561  -0.0624156   0.3945363   5.2090768
    6    0.0000003  -0.0000531   0.0017799  -0.1036112   0.4527831
    7    0.0000000   0.0000047   0.0000563   0.0053732  -0.1100091
    8   -0.0000004   0.0000352   0.0021212  -0.1013777  -0.0018200
    9   -0.0000743  -0.0016491  -0.0528232   0.4006255  -0.0659702
   10    0.2322013  -0.0685771   0.0027952   0.0001144  -0.0000007
   11    0.2604749  -0.0380846   0.0021516  -0.0000140   0.0000000
   12   -0.0733848   0.0023794  -0.0001028   0.0000005  -0.0000000
   13   -0.0193431   0.3723875  -0.0242047  -0.0005931   0.0000803
   14   -0.0020938  -0.0520337   0.3949664  -0.0243647   0.0022000
   15   -0.0000055   0.0000493   0.0015986  -0.0430412   0.3952382
   16   -0.0000000   0.0000002  -0.0000440   0.0020139  -0.0293555
   17    0.0000000  -0.0000000   0.0000004  -0.0000729   0.0020953
   18   -0.0000000   0.0000010  -0.0000455   0.0020681  -0.0000431
   19   -0.0000281   0.0008471  -0.0016115  -0.0393664   0.0017172
   20   -0.0070956  -0.0000875   0.0000085  -0.0000000  -0.0000000
   21   -0.0061601  -0.0001057   0.0000071  -0.0000000  -0.0000000
   22    0.0029072  -0.0000104  -0.0000003  -0.0000000   0.0000000

             6           7           8           9          10

    6    5.2083420
    7    0.4358110   5.2181520
    8   -0.1104653   0.4326619   5.2050658
    9    0.0002730  -0.1092390   0.4554015   5.2046009
   10   -0.0000000   0.0000000  -0.0000000  -0.0000008   8.1274500
   11    0.0000000  -0.0000000  -0.0000000   0.0000008  -0.0399366
   12    0.0000000   0.0000000   0.0000000  -0.0000000  -0.0000727
   13   -0.0000023   0.0000023  -0.0000553   0.0020991   0.0010594
   14    0.0000673   0.0000078  -0.0000485   0.0013744   0.0014959
   15   -0.0212104   0.0019345  -0.0000502   0.0016375   0.0000002
   16    0.3901072  -0.0265330   0.0019195  -0.0000605   0.0000000
   17   -0.0275745   0.3884239  -0.0275975   0.0020919   0.0000000
   18    0.0019065  -0.0264542   0.3905376  -0.0305032   0.0000000
   19   -0.0000536   0.0019763  -0.0229086   0.3943816  -0.0000001
   20    0.0000000   0.0000000  -0.0000000   0.0000000   0.0020212
   21    0.0000000   0.0000000  -0.0000000  -0.0000000   0.0015312
   22   -0.0000000   0.0000000  -0.0000000   0.0000000   0.0000606

            11          12          13          14          15

   11    8.3538638
   12    0.1370992   5.2106112
   13   -0.0002685  -0.0000179   0.3231005
   14    0.0000400   0.0000013   0.0008841   0.3830182
   15   -0.0000000  -0.0000000   0.0000017   0.0023300   0.3982301
   16    0.0000000  -0.0000000   0.0000000  -0.0000020  -0.0010959
   17   -0.0000000   0.0000000  -0.0000000  -0.0000000  -0.0000266
   18    0.0000000  -0.0000000  -0.0000005   0.0000002   0.0000012
   19   -0.0000019   0.0000000   0.0033679   0.0000427  -0.0000327
   20   -0.0274672   0.3552159   0.0000036  -0.0000002   0.0000000
   21   -0.0272548   0.3554491   0.0000029  -0.0000002   0.0000000
   22   -0.0176246   0.3701273  -0.0000084   0.0000000  -0.0000000

            16          17          18          19          20

   16    0.3824154
   17   -0.0009970   0.3790809
   18   -0.0000265  -0.0009871   0.3839627
   19    0.0000011  -0.0000271  -0.0010576   0.4067696
   20    0.0000000  -0.0000000   0.0000000  -0.0000000   0.4641118
   21    0.0000000  -0.0000000   0.0000000  -0.0000000  -0.0320831
   22    0.0000000  -0.0000000   0.0000000   0.0000000  -0.0178337

            21          22

   21    0.4593711
   22   -0.0181913   0.3709139

          TOTAL MULLIKEN AND LOWDIN ATOMIC POPULATIONS
       ATOM         MULL.POP.    CHARGE          LOW.POP.     CHARGE
    1 C             5.052186    0.947814         5.603412    0.396588
    2 C             6.318349   -0.318349         6.199222   -0.199222
    3 C             6.078634   -0.078634         5.933447    0.066553
    4 C             6.117088   -0.117088         6.058261   -0.058261
    5 C             6.189696   -0.189696         6.058457   -0.058457
    6 C             6.228100   -0.228100         6.087661   -0.087661
    7 C             6.212169   -0.212169         6.053198   -0.053198
    8 C             6.223419   -0.223419         6.085128   -0.085128
    9 C             6.202166   -0.202166         6.063548   -0.063548
   10 O             8.260141   -0.260141         7.872299    0.127701
   11 O             8.602978   -0.602978         8.197507   -0.197507
   12 C             6.357305   -0.357305         6.057073   -0.057073
   13 H             0.658496    0.341504         0.835098    0.164902
   14 H             0.707885    0.292115         0.873608    0.126392
   15 H             0.735559    0.264441         0.885911    0.114089
   16 H             0.718343    0.281657         0.873915    0.126085
   17 H             0.714410    0.285590         0.872503    0.127497
   18 H             0.719360    0.280640         0.874895    0.125105
   19 H             0.744016    0.255984         0.891182    0.108818
   20 H             0.736794    0.263206         0.886460    0.113540
   21 H             0.732566    0.267434         0.884200    0.115800
   22 H             0.690340    0.309660         0.853015    0.146985

          -------------------------------
          BOND ORDER AND VALENCE ANALYSIS     BOND ORDER THRESHOLD=0.050
          -------------------------------

                   BOND                       BOND                       BOND
  ATOM PAIR DIST  ORDER      ATOM PAIR DIST  ORDER      ATOM PAIR DIST  ORDER
    1   2  1.476  1.076        1  10  1.219  1.047        1  11  1.359  1.042
    2   3  1.347  1.484        2  13  1.085  0.873        3   4  1.465  1.150
    3  14  1.089  0.913        4   5  1.408  1.240        4   9  1.410  1.236
    5   6  1.396  1.333        5   8  2.788  0.051        5  15  1.087  0.927
    6   7  1.397  1.294        6   9  2.795  0.053        6  16  1.086  0.917
    7   8  1.401  1.279        7  17  1.086  0.915        8   9  1.392  1.350
    8  18  1.086  0.918        9  19  1.085  0.927       10  11  2.267  0.065
   11  12  1.438  0.681       12  20  1.093  0.885       12  21  1.093  0.883
   12  22  1.090  0.892

                       TOTAL       BONDED        FREE
      ATOM            VALENCE     VALENCE     VALENCE
    1 C                 3.202       3.187       0.014
    2 C                 3.557       3.489       0.068
    3 C                 3.613       3.560       0.053
    4 C                 3.703       3.549       0.155
    5 C                 3.720       3.507       0.213
    6 C                 3.730       3.517       0.213
    7 C                 3.714       3.484       0.231
    8 C                 3.730       3.519       0.211
    9 C                 3.739       3.516       0.223
   10 O                 2.034       1.190       0.844
   11 O                 1.870       1.860       0.011
   12 C                 3.346       3.346       0.000
   13 H                 0.875       0.875       0.001
   14 H                 0.892       0.892       0.001
   15 H                 0.910       0.908       0.002
   16 H                 0.900       0.898       0.002
   17 H                 0.898       0.896       0.002
   18 H                 0.900       0.898       0.002
   19 H                 0.914       0.912       0.002
   20 H                 0.888       0.888       0.000
   21 H                 0.885       0.885       0.000
   22 H                 0.882       0.882       0.000

          -----------------------------------------
          ATOMIC SPIN DENSITY AT THE NUCLEUS (A.U.)
          -----------------------------------------
                            SPIN DENS    ALPHA DENS     BETA DENS
    1  C            6.0    -0.0861818      46.95335      47.03954
    2  C            6.0     0.0893589      47.02772      46.93837
    3  C            6.0    -0.0758120      46.99628      47.07209
    4  C            6.0     0.1236661      47.05945      46.93579
    5  C            6.0    -0.1278536      46.94675      47.07460
    6  C            6.0     0.1284230      47.06387      46.93544
    7  C            6.0    -0.1308201      46.94377      47.07459
    8  C            6.0     0.1281719      47.06284      46.93467
    9  C            6.0    -0.1305353      46.94103      47.07156
   10  O            8.0     0.2223100     117.25846     117.03615
   11  O            8.0     0.0082391     116.86739     116.85915
   12  C            6.0    -0.0015984      46.96864      46.97024
   13  H            1.0    -0.0043286       0.17311       0.17744
   14  H            1.0     0.0065014       0.18644       0.17994
   15  H            1.0     0.0129756       0.18930       0.17632
   16  H            1.0    -0.0130525       0.17488       0.18793
   17  H            1.0     0.0135817       0.18833       0.17475
   18  H            1.0    -0.0129524       0.17510       0.18805
   19  H            1.0     0.0132580       0.19082       0.17756
   20  H            1.0     0.0005473       0.18410       0.18356
   21  H            1.0     0.0005634       0.18375       0.18319
   22  H            1.0    -0.0000251       0.18071       0.18074

          ---------------------
          ELECTROSTATIC MOMENTS
          ---------------------

 POINT   1           X           Y           Z (BOHR)    CHARGE
                 0.001990    0.030071    0.006786        1.00 (A.U.)
         DX          DY          DZ         /D/  (DEBYE)
     6.776738    0.940405   -0.002014    6.841677
 ...... END OF PROPERTY EVALUATION ......
 CPU     0: STEP CPU TIME=     0.07 TOTAL CPU TIME=          7.8 (      0.1 MIN)
 TOTAL WALL CLOCK TIME=         12.2 SECONDS, CPU UTILIZATION IS    64.06%
               580000  WORDS OF DYNAMIC MEMORY USED
 EXECUTION OF GAMESS TERMINATED NORMALLY Mon May 25 19:19:31 2020
 DDI: 263640 bytes (0.3 MB / 0 MWords) used by master data server.
Note: The following floating-point exceptions are signalling: IEEE_DENORMALNote: The following floating-point exceptions are signalling: IEEE_DENORMALNote: The following floating-point exceptions are signalling: IEEE_DENORMAL
Note: The following floating-point exceptions are signalling:
 ----------------------------------------
 CPU timing information for all processes
 ========================================
 0: 7.605 + 0.193 = 7.799
 1: 7.254 + 0.36 = 7.291
 2: 7.123 + 0.33 = 7.156
 3: 7.241 + 0.48 = 7.289
 4: 7.431 + 0.49 = 7.481
 5: 7.223 + 0.44 = 7.268
 ----------------------------------------


 IEEE_DENORMALNote: The following floating-point exceptions are signalling: IEEE_DENORMALNote: The following floating-point exceptions are signalling: IEEE_DENORMAL


 ddikick.x: exited gracefully.
unset echo
----- accounting info -----
Files used on the master node pietdev were:
-rwxr-xr-x 1 piet piet     1023 mei 25 19:19 /home/piet/scr/methyl_cinnamate_fukui_base.F05*
-rw-r--r-- 1 piet piet 68812800 mei 25 19:19 /home/piet/scr/methyl_cinnamate_fukui_base.F10
ls: No match.
ls: No match.
ls: No match.
ma 25 mei 2020 19:19:34 CEST
0.133u 0.030s 0:15.34 1.0%	0+0k 0+8io 0pf+0w
