----- GAMESS execution script 'rungms' -----
This job is running on host pietdev
under operating system Linux at ma 25 mei 2020 19:13:26 CEST
Available scratch disk space (Kbyte units) at beginning of the job is
Filesystem     1K-blocks     Used Available Use% Mounted on
/dev/sda2      244568380 31071496 201003828  14% /
GAMESS temporary binary files will be written to /home/piet/scr
GAMESS supplementary output files will be written to /home/piet/gamess/scr
Copying input file menthone_fukui_base.inp to your run's scratch directory...
cp menthone_fukui_base.inp /home/piet/scr/menthone_fukui_base.F05
unset echo
 
Assuming a single but multicore node.
 
/home/piet/gamess/ddikick.x /home/piet/gamess/gamess.03.x menthone_fukui_base -ddi 1 6 pietdev:cpus=6 -scr /home/piet/scr

 Distributed Data Interface kickoff program.
 Initiating 6 compute processes on 1 nodes to run the following command:
 /home/piet/gamess/gamess.03.x menthone_fukui_base 

          ******************************************************
          *         GAMESS VERSION = 30 SEP 2019 (R2)          *
          *             FROM IOWA STATE UNIVERSITY             *
          * M.W.SCHMIDT, K.K.BALDRIDGE, J.A.BOATZ, S.T.ELBERT, *
          *   M.S.GORDON, J.H.JENSEN, S.KOSEKI, N.MATSUNAGA,   *
          *          K.A.NGUYEN, S.J.SU, T.L.WINDUS,           *
          *       TOGETHER WITH M.DUPUIS, J.A.MONTGOMERY       *
          *         J.COMPUT.CHEM.  14, 1347-1363(1993)        *
          **************** 64 BIT LINUX VERSION ****************

  SINCE 1993, STUDENTS AND POSTDOCS WORKING AT IOWA STATE UNIVERSITY
  AND ALSO IN THEIR VARIOUS JOBS AFTER LEAVING ISU HAVE MADE IMPORTANT
  CONTRIBUTIONS TO THE CODE:
     IVANA ADAMOVIC, CHRISTINE AIKENS, YURI ALEXEEV, POOJA ARORA,
     ANDREY ASADCHEV, ROB BELL, PRADIPTA BANDYOPADHYAY, JONATHAN BENTZ,
     COLLEEN BERTONI, BRETT BODE, KURT BRORSEN, CALEB CARLIN, GALINA CHABAN,
     WEI CHEN, CHEOL HO CHOI, PAUL DAY, ALBERT DEFUSCO, NUWAN DESILVA,
     TIM DUDLEY, DMITRI FEDOROV, ALEX FINDLATER, GRAHAM FLETCHER, 
     MARK FREITAG, KURT GLAESEMANN, EMILIE B GUIDEZ, ANASTASIA GUNINA, 
     DAN KEMP, SAROM SOK LEANG, GRANT MERRILL,
     NORIYUKI MINEZAWA, JONATHAN MULLIN,
     TAKESHI NAGATA, SEAN NEDD, HEATHER NETZLOFF, BOSILJKA NJEGIC, RYAN OLSON,
     MIKE PAK, BUU PHAM, DAVID POOLE,
     SPENCER PRUITT, LUKE ROSKOP, TOSAPORN SATTASATHUCHANA,
     JIM SHOEMAKER, LYUDMILA SLIPCHENKO,
     TONY SMITH, JIE SONG, TETSUYA TAKETSUGU, SIMON WEBB,
     JORGE LUIS GALVEZ VALLEJO, PENG XU, SOOHAENG YOO,
     FEDERICO ZAHARIEV

  ADDITIONAL CODE HAS BEEN PROVIDED BY COLLABORATORS IN OTHER GROUPS:
     IOWA STATE UNIVERSITY:
          JOE IVANIC, AARON WEST, LAIMUTIS BYTAUTAS, KLAUS RUEDENBERG
     UNIVERSITY OF TOKYO: KIMIHIKO HIRAO, TAKAHITO NAKAJIMA,
          TAKAO TSUNEDA, MUNEAKI KAMIYA, SUSUMU YANAGISAWA,
          KIYOSHI YAGI, MAHITO CHIBA, SEIKEN TOKURA, NAOAKI KAWAKAMI
     UNIVERSITY OF AARHUS: FRANK JENSEN
     UNIVERSITY OF IOWA: VISVALDAS KAIRYS, HUI LI
     NATIONAL INST. OF STANDARDS AND TECHNOLOGY: WALT STEVENS, DAVID GARMER
     UNIVERSITY OF PISA: BENEDETTA MENNUCCI, JACOPO TOMASI
     UNIVERSITY OF MEMPHIS: HENRY KURTZ, PRAKASHAN KORAMBATH
     UNIVERSITY OF ALBERTA: TOBY ZENG, MARIUSZ KLOBUKOWSKI
     UNIVERSITY OF NEW ENGLAND: MARK SPACKMAN
     MIE UNIVERSITY: HIROAKI UMEDA
     NAT. INST. OF ADVANCED INDUSTRIAL SCIENCE AND TECHNOLOGY: KAZUO KITAURA
     MICHIGAN STATE UNIVERSITY:
          KAROL KOWALSKI, MARTA WLOCH, JEFFREY GOUR, JESSE LUTZ,
          WEI LI, JUN SHEN, J. EMILIANO DEUSTUA, PIOTR PIECUCH
     UNIVERSITY OF MINNESOTA:
          ANDREW SAND, PRACHI SHARMA, YINAN SHU
     UNIVERSITY OF SILESIA: MONIKA MUSIAL, STANISLAW KUCHARSKI
     FACULTES UNIVERSITAIRES NOTRE-DAME DE LA PAIX:
          OLIVIER QUINET, BENOIT CHAMPAGNE
     UNIVERSITY OF CALIFORNIA - SANTA BARBARA: BERNARD KIRTMAN
     INSTITUTE FOR MOLECULAR SCIENCE:
          KAZUYA ISHIMURA, MICHIO KATOUDA, AND SHIGERU NAGASE
     UNIVERSITY OF NOTRE DAME: ANNA POMOGAEVA, DAN CHIPMAN
     KYUSHU UNIVERSITY:
          HARUYUKI NAKANO,
          FENG LONG GU, JACEK KORCHOWIEC, MARCIN MAKOWSKI, AND YURIKO AOKI,
          HIROTOSHI MORI AND EISAKU MIYOSHI
     PENNSYLVANIA STATE UNIVERSITY:
          TZVETELIN IORDANOV, CHET SWALINA, JONATHAN SKONE,
          SHARON HAMMES-SCHIFFER
     WASEDA UNIVERSITY:
          MASATO KOBAYASHI, TOMOKO AKAMA, TSUGUKI TOUMA,
          TAKESHI YOSHIKAWA, YASUHIRO IKABATA, JUNJI SEINO,
          YUYA NAKAJIMA, HIROMI NAKAI
     NANJING UNIVERSITY: SHUHUA LI
     UNIVERSITY OF NEBRASKA:
          PEIFENG SU, DEJUN SI, NANDUN THELLAMUREGE, YALI WANG, HUI LI
     UNIVERSITY OF ZURICH: ROBERTO PEVERATI, KIM BALDRIDGE
     N. COPERNICUS UNIVERSITY AND JACKSON STATE UNIVERSITY:
          MARIA BARYSZ
     UNIVERSITY OF COPENHAGEN: Jimmy Kromann, CASPER STEINMANN
     TOKYO INSTITUTE OF TECHNOLOGY: HIROYA NAKATA
     NAGOYA UNIVERSITY: YOSHIO NISHIMOTO, STEPHAN IRLE
     MOSCOW STATE UNIVERSITY: VLADIMIR MIRONOV
     A.N.NESMEYANOV INSTITUTE OF ORGANOELEMENT COMPOUNDS OF RUSSIAN ACADEMY OF SCIENCES:
          IGOR S. GERASIMOV
     JOHANNES KEPLER UNIVERSITY LINZ:
          CHRISTIAN FRIEDL


 PARALLEL VERSION RUNNING ON        6 PROCESSORS IN        1 NODES.

 EXECUTION OF GAMESS BEGUN Mon May 25 19:13:26 2020

            ECHO OF THE FIRST FEW INPUT CARDS -
 INPUT CARD> $BASIS GBASIS=N21 NGAUSS=3 $END                                                
 INPUT CARD> $CONTRL SCFTYP=UHF MAXIT=60 MULT=2 ICHARG=1 $END                               
 INPUT CARD> $SYSTEM MEMDDI=1000 MWORDS=30 $END                                             
 INPUT CARD> $SCF DIRSCF=.TRUE. $END                                                        
 INPUT CARD> $STATPT OPTTOL=0.0001 NSTEP=999 $END                                           
 INPUT CARD> $DATA                                                                          
 INPUT CARD>                                                                                
 INPUT CARD>C1                                                                              
 INPUT CARD>C 6.0000000 2.80291 1.50345 -0.20909                                            
 INPUT CARD>C 6.0000000 2.90121 -0.94437 0.36329                                            
 INPUT CARD>C 6.0000000 -2.87491 0.08920 -1.21986                                           
 INPUT CARD>O 8.0000000 0.17639 -1.87954 -0.83157                                           
 INPUT CARD>C 6.0000000 -0.20859 1.44915 -0.08670                                           
 INPUT CARD>C 6.0000000 -1.56275 -1.09036 0.62138                                           
 INPUT CARD>C 6.0000000 -1.60415 1.43055 0.55838                                            
 INPUT CARD>C 6.0000000 0.64188 0.20989 0.30999                                             
 INPUT CARD>C 6.0000000 -2.40892 0.15370 0.24309                                            
 INPUT CARD>C 6.0000000 -0.19129 -1.03157 -0.03760                                          
 INPUT CARD>C 6.0000000 2.06093 0.16049 -0.30039                                            
 INPUT CARD>H 1.0000000 3.82108 1.39525 -0.59798                                            
 INPUT CARD>H 1.0000000 2.31652 2.29553 -0.78577                                            
 INPUT CARD>H 1.0000000 2.88531 1.84484 0.83107                                             
 INPUT CARD>H 1.0000000 1.94504 -0.10090 -1.36036                                           
 INPUT CARD>H 1.0000000 3.06470 -0.72428 1.42635                                            
 INPUT CARD>H 1.0000000 2.41672 -1.91954 0.28169                                            
 INPUT CARD>H 1.0000000 3.88567 -1.01907 -0.11150                                           
 INPUT CARD>H 1.0000000 0.73098 0.23179 1.40955                                             
 INPUT CARD>H 1.0000000 -0.29459 1.49055 -1.18086                                           
 INPUT CARD>H 1.0000000 0.31269 2.36232 0.21589                                             
 INPUT CARD>H 1.0000000 -1.42455 -1.11186 1.71124                                           
 INPUT CARD>H 1.0000000 -2.05523 -2.01963 0.32049                                           
 INPUT CARD>H 1.0000000 -1.48775 1.51535 1.64805                                            
 INPUT CARD>H 1.0000000 -2.17043 2.31402 0.23839                                            
 INPUT CARD>H 1.0000000 -3.30519 0.15230 0.87717                                            
 INPUT CARD>H 1.0000000 -3.50149 -0.79277 -1.38895                                          
 INPUT CARD>H 1.0000000 -3.46399 0.97527 -1.48095                                           
 INPUT CARD>H 1.0000000 -2.03513 0.02660 -1.91984                                           
 INPUT CARD> $END                                                                           
   30000000 WORDS OF MEMORY AVAILABLE

     BASIS OPTIONS
     -------------
     GBASIS=N21          IGAUSS=       3      POLAR=NONE    
     NDFUNC=       0     NFFUNC=       0     DIFFSP=       F
     NPFUNC=       0      DIFFS=       F     BASNAM=        


     RUN TITLE
     ---------
                                                                                 

 THE POINT GROUP OF THE MOLECULE IS C1      
 THE ORDER OF THE PRINCIPAL AXIS IS     0

 ATOM      ATOMIC                      COORDINATES (BOHR)
           CHARGE         X                   Y                   Z
 C           6.0     5.2967318682        2.8411085362       -0.3951228068
 C           6.0     5.4824919328       -1.7846005310        0.6865185541
 C           6.0    -5.4327921394        0.1685635581       -2.3052011434
 O           8.0     0.3333287670       -3.5518155830       -1.5714394396
 C           6.0    -0.3941779438        2.7384964151       -0.1638392431
 C           6.0    -2.9531692873       -2.0604816280        1.1742379343
 C           6.0    -3.0314039432        2.7033475117        1.0551851970
 C           6.0     1.2129773170        0.3966345876        0.5857961589
 C           6.0    -4.5521987263        0.2904508843        0.4593734904
 C           6.0    -0.3614856842       -1.9493846372       -0.0710536971
 C           6.0     3.8945929799        0.3032821238       -0.5676547895
 H           1.0     7.2207941772        2.6366401844       -1.1300183461
 H           1.0     4.3775880451        4.3379226966       -1.4848899894
 H           1.0     5.4524452896        3.4862420912        1.5704945766
 H           1.0     3.6755926352       -0.1906733522       -2.5707076447
 H           1.0     5.7914432346       -1.3686907384        2.6954106626
 H           1.0     4.5669385890       -3.6274046225        0.5323169135
 H           1.0     7.3428515787       -1.9257630623       -0.2107044476
 H           1.0     1.3813519025        0.4380195867        2.6636632660
 H           1.0    -0.5566943787        2.8167310710       -2.2315018299
 H           1.0     0.5908984191        4.4641374953        0.4079729435
 H           1.0    -2.6920091558       -2.1011107367        3.2337746992
 H           1.0    -3.8838215417       -3.8165472966        0.6056382818
 H           1.0    -2.8114398382        2.8635962755        3.1143629141
 H           1.0    -4.1015179755        4.3728637301        0.4504917782
 H           1.0    -6.2459034374        0.2878052679        1.6576109446
 H           1.0    -6.6168566487       -1.4981180713       -2.6247349106
 H           1.0    -6.5459919242        1.8429930640       -2.7985897015
 H           1.0    -3.8458380494        0.0502667113       -3.6279715403

          INTERNUCLEAR DISTANCES (ANGS.)
          ------------------------------

                1 C          2 C          3 C          4 O          5 C     

   1 C       0.0000000    2.5157712 *  5.9379625    4.3278990    3.0144751  
   2 C       2.5157712 *  0.0000000    6.0776799    3.1187942    3.9499728  
   3 C       5.9379625    6.0776799    0.0000000    3.6520047    3.2004340  
   4 O       4.3278990    3.1187942    3.6520047    0.0000000    3.4326692  
   5 C       3.0144751    3.9499728    3.2004340    3.4326692    0.0000000  
   6 C       5.1455338    4.4737973    2.5501550 *  2.3996826 *  2.9638215 *
   7 C       4.4739806    5.0967219    2.5644080 *  4.0073657    1.5375506 *
   8 C       2.5715350 *  2.5376621 *  3.8370326    2.4260169 *  1.5544863 *
   9 C       5.4027274    5.4238074    1.5367269 *  3.4601715    2.5745688 *
  10 C       3.9269541    3.1195950    3.1393758    1.2184540 *  2.4812662 *
  11 C       1.5370138 *  1.5385894 *  5.0212572    2.8276078 *  2.6185930 *
  12 H       1.0952684 *  2.6914722 *  6.8504586    4.9053623    4.0623334  
  13 H       1.0938582 *  3.4869977    5.6574969    4.6918508    2.7534049 *
  14 H       1.0978478 *  2.8282085 *  6.3615030    4.8962869    3.2513212  
  15 H       2.1529753 *  2.1439851 *  4.8257431    2.5634551 *  2.9432953 *
  16 H       2.7759645 *  1.0978457 *  6.5531019    3.8438474    4.2104092  
  17 H       3.4794925    1.0919458 *  5.8558549    2.5020045 *  4.2867279  
  18 H       2.7468164 *  1.0955214 *  6.9398967    3.8752635    4.7807625  
  19 H       2.9206178 *  2.6810279 *  4.4650388    3.1285625    2.1455818 *
  20 H       3.2463841    4.3042273    2.9365548 *  3.4207210    1.0983151 *
  21 H       2.6682319 *  4.2019473    4.1700415    4.3713987    1.0941540 *
  22 H       5.3290648    4.5340072    3.4838824    3.1013262    3.3570700  
  23 H       6.0244562    5.0719142    2.7371002 *  2.5153519 *  3.9507363  
  24 H       4.6753475    5.1926680    3.4904190    4.5214108    2.1563836 *
  25 H       5.0587916    6.0294475    2.7518374 *  4.9232432    2.1685248 *
  26 H       6.3493663    6.3234610    2.1416483 *  4.3783062    3.4928208  
  27 H       6.8124999    6.6398716    1.0950183 *  3.8753765    4.1910918  
  28 H       6.4164350    6.8994210    1.0955835 *  4.6716165    3.5729714  
  29 H       5.3398860    5.5247550    1.0950439 *  3.1158501    2.9530153 *

                6 C          7 C          8 C          9 C         10 C     

   1 C       5.1455338    4.4739806    2.5715350 *  5.4027274    3.9269541  
   2 C       4.4737973    5.0967219    2.5376621 *  5.4238074    3.1195950  
   3 C       2.5501550 *  2.5644080 *  3.8370326    1.5367269 *  3.1393758  
   4 O       2.3996826 *  4.0073657    2.4260169 *  3.4601715    1.2184540 *
   5 C       2.9638215 *  1.5375506 *  1.5544863 *  2.5745688 *  2.4812662 *
   6 C       0.0000000    2.5220369 *  2.5783730 *  1.5513840 *  1.5226994 *
   7 C       2.5220369 *  0.0000000    2.5683378 *  1.5418847 *  2.9005862 *
   8 C       2.5783730 *  2.5683378 *  0.0000000    3.0520507    1.5349964 *
   9 C       1.5513840 *  1.5418847 *  3.0520507    0.0000000    2.5301254 *
  10 C       1.5226994 *  2.9005862 *  1.5349964 *  2.5301254 *  0.0000000  
  11 C       3.9427582    3.9728264    1.5455442 *  4.5027742    2.5617495 *
  12 H       6.0539839    5.5472097    3.5123782    6.4079439    4.7225622  
  13 H       5.3378889    4.2339796    2.8905023 *  5.2892128    4.2330206  
  14 H       5.3333485    4.5167740    2.8244582 *  5.5887875    4.3004406  
  15 H       4.1486040    4.3155129    2.1412346 *  4.6468097    2.6795049 *
  16 H       4.7111872    5.2148657    2.8264801 *  5.6684627    3.5831617  
  17 H       4.0791066    5.2409022    2.7722428 *  5.2522962    2.7734731 *
  18 H       5.4979520    6.0487603    3.4943054    6.4127207    4.0776489  
  19 H       2.7623341 *  2.7594108 *  1.1033814 *  3.3504774    2.1309396 *
  20 H       3.3937288    2.1779585 *  2.1770852 *  2.8784011 *  2.7710654 *
  21 H       3.9500249    2.1586501 *  2.1794898 *  3.5051253    3.4404567  
  22 H       1.0987977 *  2.7973543 *  2.8250058 *  2.1739574 *  2.1414523 *
  23 H       1.0938986 *  3.4876650    3.4993245    2.2032818 *  2.1398045 *
  24 H       2.8016782 *  1.0991454 *  2.8337174 *  2.1625350 *  3.3179852  
  25 H       3.4793332    1.0970806 *  3.5130581    2.1734493 *  3.8969396  
  26 H       2.1553955 *  2.1515314 *  3.9880285    1.0978886 *  3.4546672  
  27 H       2.8086828 *  3.5121425    4.5890347    2.1801535 *  3.5833778  
  28 H       3.5073255    2.7973472 *  4.5443857    2.1818487 *  4.1013694  
  29 H       2.8157666 *  2.8806933 *  3.4888565    2.1986677 *  2.8394184 *

               11 C         12 H         13 H         14 H         15 H     

   1 C       1.5370138 *  1.0952684 *  1.0938582 *  1.0978478 *  2.1529753 *
   2 C       1.5385894 *  2.6914722 *  3.4869977    2.8282085 *  2.1439851 *
   3 C       5.0212572    6.8504586    5.6574969    6.3615030    4.8257431  
   4 O       2.8276078 *  4.9053623    4.6918508    4.8962869    2.5634551 *
   5 C       2.6185930 *  4.0623334    2.7534049 *  3.2513212    2.9432953 *
   6 C       3.9427582    6.0539839    5.3378889    5.3333485    4.1486040  
   7 C       3.9728264    5.5472097    4.2339796    4.5167740    4.3155129  
   8 C       1.5455442 *  3.5123782    2.8905023 *  2.8244582 *  2.1412346 *
   9 C       4.5027742    6.4079439    5.2892128    5.5887875    4.6468097  
  10 C       2.5617495 *  4.7225622    4.2330206    4.3004406    2.6795049 *
  11 C       0.0000000    2.1705576 *  2.2043856 *  2.1901687 *  1.0978577 *
  12 H       2.1705576 *  0.0000000    1.7633689 *  1.7663467 *  2.5177796 *
  13 H       2.2043856 *  1.7633689 *  0.0000000    1.7722345 *  2.4921934 *
  14 H       2.1901687 *  1.7663467 *  1.7722345 *  0.0000000    3.0777227  
  15 H       1.0978577 *  2.5177796 *  2.4921934 *  3.0777227    0.0000000  
  16 H       2.1844915 *  3.0269506    3.8173945    2.6432776 *  3.0672453  
  17 H       2.1890474 *  3.7059249    4.3492903    3.8330082    2.4952478 *
  18 H       2.1809900 *  2.4636915 *  3.7287323    3.1766553    2.4836933 *
  19 H       2.1674283 *  3.8642637    3.4047599    2.7527635 *  3.0425361  
  20 H       2.8447779 *  4.1578325    2.7607942 *  3.7795698    2.7533390 *
  21 H       2.8584862 *  3.7291298    2.2412314 *  2.6952932 *  3.3491168  
  22 H       4.2206754    6.2557759    5.6427804    5.3001573    4.6702145  
  23 H       4.6990625    6.8582805    6.2415235    6.2931515    4.7443589  
  24 H       4.2690975    5.7656527    4.5830809    4.4609050    4.8421939  
  25 H       4.7783243    6.1189742    4.6023870    5.1119376    5.0323884  
  26 H       5.4938109    7.3827310    6.2419891    6.4178740    5.7127547  
  27 H       5.7475372    7.6832998    6.6144284    7.2578709    5.4903725  
  28 H       5.7080933    7.3503921    5.9699797    6.8128701    5.5163656  
  29 H       4.4066146    6.1575736    5.0369649    5.9231944    4.0213216  

               16 H         17 H         18 H         19 H         20 H     

   1 C       2.7759645 *  3.4794925    2.7468164 *  2.9206178 *  3.2463841  
   2 C       1.0978457 *  1.0919458 *  1.0955214 *  2.6810279 *  4.3042273  
   3 C       6.5531019    5.8558549    6.9398967    4.4650388    2.9365548 *
   4 O       3.8438474    2.5020045 *  3.8752635    3.1285625    3.4207210  
   5 C       4.2104092    4.2867279    4.7807625    2.1455818 *  1.0983151 *
   6 C       4.7111872    4.0791066    5.4979520    2.7623341 *  3.3937288  
   7 C       5.2148657    5.2409022    6.0487603    2.7594108 *  2.1779585 *
   8 C       2.8264801 *  2.7722428 *  3.4943054    1.1033814 *  2.1770852 *
   9 C       5.6684627    5.2522962    6.4127207    3.3504774    2.8784011 *
  10 C       3.5831617    2.7734731 *  4.0776489    2.1309396 *  2.7710654 *
  11 C       2.1844915 *  2.1890474 *  2.1809900 *  2.1674283 *  2.8447779 *
  12 H       3.0269506    3.7059249    2.4636915 *  3.8642637    4.1578325  
  13 H       3.8173945    4.3492903    3.7287323    3.4047599    2.7607942 *
  14 H       2.6432776 *  3.8330082    3.1766553    2.7527635 *  3.7795698  
  15 H       3.0672453    2.4952478 *  2.4836933 *  3.0425361    2.7533390 *
  16 H       0.0000000    1.7772932 *  1.7680146 *  2.5220232 *  4.7945641  
  17 H       1.7772932 *  0.0000000    1.7672744 *  2.9566887 *  4.5955379  
  18 H       1.7680146 *  1.7672744 *  0.0000000    3.7189129    4.9916227  
  19 H       2.5220232 *  2.9566887 *  3.7189129    0.0000000    3.0572037  
  20 H       4.7945641    4.5955379    4.9916227    3.0572037    0.0000000  
  21 H       4.3088133    4.7713307    4.9302301    2.4776902 *  1.7549024 *
  22 H       4.5149470    4.1774772    5.6151071    2.5578745 *  4.0513689  
  23 H       5.3957892    4.4732382    6.0400355    3.7440499    4.2041966  
  24 H       5.0783752    5.3768295    6.1962040    2.5743293 *  3.0703384  
  25 H       6.1683954    6.2423433    6.9215792    3.7583876    2.4922177 *
  26 H       6.4533317    6.1145214    7.3524175    4.0719056    3.8845995  
  27 H       7.1446103    6.2518684    7.5002149    5.1764010    3.9422150  
  28 H       7.3460640    6.7874572    7.7375893    5.1483518    3.2250060  
  29 H       6.1456549    5.3341507    6.2784864    4.3333942    2.3913846 *

               21 H         22 H         23 H         24 H         25 H     

   1 C       2.6682319 *  5.3290648    6.0244562    4.6753475    5.0587916  
   2 C       4.2019473    4.5340072    5.0719142    5.1926680    6.0294475  
   3 C       4.1700415    3.4838824    2.7371002 *  3.4904190    2.7518374 *
   4 O       4.3713987    3.1013262    2.5153519 *  4.5214108    4.9232432  
   5 C       1.0941540 *  3.3570700    3.9507363    2.1563836 *  2.1685248 *
   6 C       3.9500249    1.0987977 *  1.0938986 *  2.8016782 *  3.4793332  
   7 C       2.1586501 *  2.7973543 *  3.4876650    1.0991454 *  1.0970806 *
   8 C       2.1794898 *  2.8250058 *  3.4993245    2.8337174 *  3.5130581  
   9 C       3.5051253    2.1739574 *  2.2032818 *  2.1625350 *  2.1734493 *
  10 C       3.4404567    2.1414523 *  2.1398045 *  3.3179852    3.8969396  
  11 C       2.8584862 *  4.2206754    4.6990625    4.2690975    4.7783243  
  12 H       3.7291298    6.2557759    6.8582805    5.7656527    6.1189742  
  13 H       2.2412314 *  5.6427804    6.2415235    4.5830809    4.6023870  
  14 H       2.6952932 *  5.3001573    6.2931515    4.4609050    5.1119376  
  15 H       3.3491168    4.6702145    4.7443589    4.8421939    5.0323884  
  16 H       4.3088133    4.5149470    5.3957892    5.0783752    6.1683954  
  17 H       4.7713307    4.1774772    4.4732382    5.3768295    6.2423433  
  18 H       4.9302301    5.6151071    6.0400355    6.1962040    6.9215792  
  19 H       2.4776902 *  2.5578745 *  3.7440499    2.5743293 *  3.7583876  
  20 H       1.7549024 *  4.0513689    4.2041966    3.0703384    2.4922177 *
  21 H       0.0000000    4.1622111    4.9819145    2.4515352 *  2.4836916 *
  22 H       4.1622111    0.0000000    1.7765104 *  2.6287297 *  3.8029302  
  23 H       4.9819145    1.7765104 *  0.0000000    3.8184464    4.3359582  
  24 H       2.4515352 *  2.6287297 *  3.8184464    0.0000000    1.7581431 *
  25 H       2.4836916 *  3.8029302    4.3359582    1.7581431 *  0.0000000  
  26 H       4.2907500    2.4146594 *  2.5670163 *  2.3990101 *  2.5236389 *
  27 H       5.2036596    3.7452205    2.5532408 *  4.3134598    3.7512798  
  28 H       4.3665187    4.3249860    3.7681848    3.7400337    2.5341032 *
  29 H       3.9407092    3.8540422    3.0342280    3.9045922    3.1477854  

               26 H         27 H         28 H         29 H     

   1 C       6.3493663    6.8124999    6.4164350    5.3398860  
   2 C       6.3234610    6.6398716    6.8994210    5.5247550  
   3 C       2.1416483 *  1.0950183 *  1.0955835 *  1.0950439 *
   4 O       4.3783062    3.8753765    4.6716165    3.1158501  
   5 C       3.4928208    4.1910918    3.5729714    2.9530153 *
   6 C       2.1553955 *  2.8086828 *  3.5073255    2.8157666 *
   7 C       2.1515314 *  3.5121425    2.7973472 *  2.8806933 *
   8 C       3.9880285    4.5890347    4.5443857    3.4888565  
   9 C       1.0978886 *  2.1801535 *  2.1818487 *  2.1986677 *
  10 C       3.4546672    3.5833778    4.1013694    2.8394184 *
  11 C       5.4938109    5.7475372    5.7080933    4.4066146  
  12 H       7.3827310    7.6832998    7.3503921    6.1575736  
  13 H       6.2419891    6.6144284    5.9699797    5.0369649  
  14 H       6.4178740    7.2578709    6.8128701    5.9231944  
  15 H       5.7127547    5.4903725    5.5163656    4.0213216  
  16 H       6.4533317    7.1446103    7.3460640    6.1456549  
  17 H       6.1145214    6.2518684    6.7874572    5.3341507  
  18 H       7.3524175    7.5002149    7.7375893    6.2784864  
  19 H       4.0719056    5.1764010    5.1483518    4.3333942  
  20 H       3.8845995    3.9422150    3.2250060    2.3913846 *
  21 H       4.2907500    5.2036596    4.3665187    3.9407092  
  22 H       2.4146594 *  3.7452205    4.3249860    3.8540422  
  23 H       2.5670163 *  2.5532408 *  3.7681848    3.0342280  
  24 H       2.3990101 *  4.3134598    3.7400337    3.9045922  
  25 H       2.5236389 *  3.7512798    2.5341032 *  3.1477854  
  26 H       0.0000000    2.4631262 *  2.5026440 *  3.0744297  
  27 H       2.4631262 *  0.0000000    1.7708291 *  1.7616535 *
  28 H       2.5026440 *  1.7708291 *  0.0000000    1.7703785 *
  29 H       3.0744297    1.7616535 *  1.7703785 *  0.0000000  

  * ... LESS THAN  3.000


     ATOMIC BASIS SET
     ----------------
 THE CONTRACTED PRIMITIVE FUNCTIONS HAVE BEEN UNNORMALIZED
 THE CONTRACTED BASIS FUNCTIONS ARE NOW NORMALIZED TO UNITY

  SHELL TYPE  PRIMITIVE        EXPONENT          CONTRACTION COEFFICIENT(S)

 C         

      1   S       1           172.2560000    0.061766907377
      1   S       2            25.9109000    0.358794042852
      1   S       3             5.5333500    0.700713083689

      2   L       4             3.6649800   -0.395895162119    0.236459946619
      2   L       5             0.7705450    1.215834355681    0.860618805716

      3   L       6             0.1958570    1.000000000000    1.000000000000

 C         

      4   S       7           172.2560000    0.061766907377
      4   S       8            25.9109000    0.358794042852
      4   S       9             5.5333500    0.700713083689

      5   L      10             3.6649800   -0.395895162119    0.236459946619
      5   L      11             0.7705450    1.215834355681    0.860618805716

      6   L      12             0.1958570    1.000000000000    1.000000000000

 C         

      7   S      13           172.2560000    0.061766907377
      7   S      14            25.9109000    0.358794042852
      7   S      15             5.5333500    0.700713083689

      8   L      16             3.6649800   -0.395895162119    0.236459946619
      8   L      17             0.7705450    1.215834355681    0.860618805716

      9   L      18             0.1958570    1.000000000000    1.000000000000

 O         

     10   S      19           322.0370000    0.059239393389
     10   S      20            48.4308000    0.351499960776
     10   S      21            10.4206000    0.707657921031

     11   L      22             7.4029400   -0.404453583190    0.244586106967
     11   L      23             1.5762000    1.221561761397    0.853955373466

     12   L      24             0.3736840    1.000000000000    1.000000000000

 C         

     13   S      25           172.2560000    0.061766907377
     13   S      26            25.9109000    0.358794042852
     13   S      27             5.5333500    0.700713083689

     14   L      28             3.6649800   -0.395895162119    0.236459946619
     14   L      29             0.7705450    1.215834355681    0.860618805716

     15   L      30             0.1958570    1.000000000000    1.000000000000

 C         

     16   S      31           172.2560000    0.061766907377
     16   S      32            25.9109000    0.358794042852
     16   S      33             5.5333500    0.700713083689

     17   L      34             3.6649800   -0.395895162119    0.236459946619
     17   L      35             0.7705450    1.215834355681    0.860618805716

     18   L      36             0.1958570    1.000000000000    1.000000000000

 C         

     19   S      37           172.2560000    0.061766907377
     19   S      38            25.9109000    0.358794042852
     19   S      39             5.5333500    0.700713083689

     20   L      40             3.6649800   -0.395895162119    0.236459946619
     20   L      41             0.7705450    1.215834355681    0.860618805716

     21   L      42             0.1958570    1.000000000000    1.000000000000

 C         

     22   S      43           172.2560000    0.061766907377
     22   S      44            25.9109000    0.358794042852
     22   S      45             5.5333500    0.700713083689

     23   L      46             3.6649800   -0.395895162119    0.236459946619
     23   L      47             0.7705450    1.215834355681    0.860618805716

     24   L      48             0.1958570    1.000000000000    1.000000000000

 C         

     25   S      49           172.2560000    0.061766907377
     25   S      50            25.9109000    0.358794042852
     25   S      51             5.5333500    0.700713083689

     26   L      52             3.6649800   -0.395895162119    0.236459946619
     26   L      53             0.7705450    1.215834355681    0.860618805716

     27   L      54             0.1958570    1.000000000000    1.000000000000

 C         

     28   S      55           172.2560000    0.061766907377
     28   S      56            25.9109000    0.358794042852
     28   S      57             5.5333500    0.700713083689

     29   L      58             3.6649800   -0.395895162119    0.236459946619
     29   L      59             0.7705450    1.215834355681    0.860618805716

     30   L      60             0.1958570    1.000000000000    1.000000000000

 C         

     31   S      61           172.2560000    0.061766907377
     31   S      62            25.9109000    0.358794042852
     31   S      63             5.5333500    0.700713083689

     32   L      64             3.6649800   -0.395895162119    0.236459946619
     32   L      65             0.7705450    1.215834355681    0.860618805716

     33   L      66             0.1958570    1.000000000000    1.000000000000

 H         

     34   S      67             5.4471780    0.156284978695
     34   S      68             0.8245472    0.904690876670

     35   S      69             0.1831916    1.000000000000

 H         

     36   S      70             5.4471780    0.156284978695
     36   S      71             0.8245472    0.904690876670

     37   S      72             0.1831916    1.000000000000

 H         

     38   S      73             5.4471780    0.156284978695
     38   S      74             0.8245472    0.904690876670

     39   S      75             0.1831916    1.000000000000

 H         

     40   S      76             5.4471780    0.156284978695
     40   S      77             0.8245472    0.904690876670

     41   S      78             0.1831916    1.000000000000

 H         

     42   S      79             5.4471780    0.156284978695
     42   S      80             0.8245472    0.904690876670

     43   S      81             0.1831916    1.000000000000

 H         

     44   S      82             5.4471780    0.156284978695
     44   S      83             0.8245472    0.904690876670

     45   S      84             0.1831916    1.000000000000

 H         

     46   S      85             5.4471780    0.156284978695
     46   S      86             0.8245472    0.904690876670

     47   S      87             0.1831916    1.000000000000

 H         

     48   S      88             5.4471780    0.156284978695
     48   S      89             0.8245472    0.904690876670

     49   S      90             0.1831916    1.000000000000

 H         

     50   S      91             5.4471780    0.156284978695
     50   S      92             0.8245472    0.904690876670

     51   S      93             0.1831916    1.000000000000

 H         

     52   S      94             5.4471780    0.156284978695
     52   S      95             0.8245472    0.904690876670

     53   S      96             0.1831916    1.000000000000

 H         

     54   S      97             5.4471780    0.156284978695
     54   S      98             0.8245472    0.904690876670

     55   S      99             0.1831916    1.000000000000

 H         

     56   S     100             5.4471780    0.156284978695
     56   S     101             0.8245472    0.904690876670

     57   S     102             0.1831916    1.000000000000

 H         

     58   S     103             5.4471780    0.156284978695
     58   S     104             0.8245472    0.904690876670

     59   S     105             0.1831916    1.000000000000

 H         

     60   S     106             5.4471780    0.156284978695
     60   S     107             0.8245472    0.904690876670

     61   S     108             0.1831916    1.000000000000

 H         

     62   S     109             5.4471780    0.156284978695
     62   S     110             0.8245472    0.904690876670

     63   S     111             0.1831916    1.000000000000

 H         

     64   S     112             5.4471780    0.156284978695
     64   S     113             0.8245472    0.904690876670

     65   S     114             0.1831916    1.000000000000

 H         

     66   S     115             5.4471780    0.156284978695
     66   S     116             0.8245472    0.904690876670

     67   S     117             0.1831916    1.000000000000

 H         

     68   S     118             5.4471780    0.156284978695
     68   S     119             0.8245472    0.904690876670

     69   S     120             0.1831916    1.000000000000

 TOTAL NUMBER OF BASIS SET SHELLS             =   69
 NUMBER OF CARTESIAN GAUSSIAN BASIS FUNCTIONS =  135
 NUMBER OF ELECTRONS                          =   85
 CHARGE OF MOLECULE                           =    1
 SPIN MULTIPLICITY                            =    2
 NUMBER OF OCCUPIED ORBITALS (ALPHA)          =   43
 NUMBER OF OCCUPIED ORBITALS (BETA )          =   42
 TOTAL NUMBER OF ATOMS                        =   29
 THE NUCLEAR REPULSION ENERGY IS      666.6752834854

     $CONTRL OPTIONS
     ---------------
 SCFTYP=UHF          RUNTYP=ENERGY       EXETYP=RUN     
 MPLEVL=       0     CITYP =NONE         CCTYP =NONE         VBTYP =NONE    
 DFTTYP=NONE         TDDFT =NONE    
 MULT  =       2     ICHARG=       1     NZVAR =       0     COORD =UNIQUE  
 PP    =NONE         RELWFN=NONE         LOCAL =NONE         NUMGRD=       F
 ISPHER=      -1     NOSYM =       0     MAXIT =      60     UNITS =ANGS    
 PLTORB=       F     MOLPLT=       F     AIMPAC=       F     FRIEND=        
 NPRINT=       7     IREST =       0     GEOM  =INPUT   
 NORMF =       0     NORMP =       0     ITOL  =      20     ICUT  =       9
 INTTYP=BEST         GRDTYP=BEST         QMTTOL= 1.0E-06

     $SYSTEM OPTIONS
     ---------------
  REPLICATED MEMORY=    30000000 WORDS (ON EVERY NODE).
 DISTRIBUTED MEMDDI=        1000 MILLION WORDS IN AGGREGATE,
 MEMDDI DISTRIBUTED OVER   6 PROCESSORS IS   166666666 WORDS/PROCESSOR.
 TOTAL MEMORY REQUESTED ON EACH PROCESSOR=   196666666 WORDS.
 TIMLIM=      525600.00 MINUTES, OR     365.0 DAYS.
 PARALL= T  BALTYP=  DLB     KDIAG=    0  COREFL= F
 MXSEQ2=     300 MXSEQ3=     150  mem10=         0

          ----------------
          PROPERTIES INPUT
          ----------------

     MOMENTS            FIELD           POTENTIAL          DENSITY
 IEMOM =       1   IEFLD =       0   IEPOT =       0   IEDEN =       0
 WHERE =COMASS     WHERE =NUCLEI     WHERE =NUCLEI     WHERE =NUCLEI  
 OUTPUT=BOTH       OUTPUT=BOTH       OUTPUT=BOTH       OUTPUT=BOTH    
 IEMINT=       0   IEFINT=       0                     IEDINT=       0
                                                       MORB  =       0
          EXTRAPOLATION IN EFFECT
          SOSCF IN EFFECT
          DIIS or SOSCF will be reset if energy rises
 ORBITAL PRINTING OPTION: NPREO=     1   135     2     1

     -------------------------------
     INTEGRAL TRANSFORMATION OPTIONS
     -------------------------------
     NWORD  =            0
     CUTOFF = 1.0E-09     MPTRAN =       0
     DIRTRF =       T     AOINTS =DUP     

          ----------------------
          INTEGRAL INPUT OPTIONS
          ----------------------
 NOPK  =       1 NORDER=       0 SCHWRZ=       T

     ------------------------------------------
     THE POINT GROUP IS C1 , NAXIS= 0, ORDER= 1
     ------------------------------------------

     DIMENSIONS OF THE SYMMETRY SUBSPACES ARE
 A   =  135

 ..... DONE SETTING UP THE RUN .....
 CPU     0: STEP CPU TIME=     0.02 TOTAL CPU TIME=          0.0 (      0.0 MIN)
 TOTAL WALL CLOCK TIME=          0.1 SECONDS, CPU UTILIZATION IS    40.00%

          ********************
          1 ELECTRON INTEGRALS
          ********************
 ...... END OF ONE-ELECTRON INTEGRALS ......
 CPU     0: STEP CPU TIME=     0.02 TOTAL CPU TIME=          0.0 (      0.0 MIN)
 TOTAL WALL CLOCK TIME=          0.1 SECONDS, CPU UTILIZATION IS    57.14%

          -------------
          GUESS OPTIONS
          -------------
          GUESS =HUCKEL            NORB  =       0          NORDER=       0
          MIX   =       F          PRTMO =       F          PUNMO =       F
          TOLZ  = 1.0E-08          TOLE  = 1.0E-05
          SYMDEN=       F          PURIFY=       F

 INITIAL GUESS ORBITALS GENERATED BY HUCKEL   ROUTINE.
 HUCKEL GUESS REQUIRES    174540 WORDS.

 SYMMETRIES FOR INITIAL GUESS ORBITALS FOLLOW.  ALPHA SET(S).
    43 ORBITALS ARE OCCUPIED (   11 CORE ORBITALS).
    12=A       13=A       14=A       15=A       16=A       17=A       18=A   
    19=A       20=A       21=A       22=A       23=A       24=A       25=A   
    26=A       27=A       28=A       29=A       30=A       31=A       32=A   
    33=A       34=A       35=A       36=A       37=A       38=A       39=A   
    40=A       41=A       42=A       43=A       44=A       45=A       46=A   
    47=A       48=A       49=A       50=A       51=A       52=A       53=A   

 SYMMETRIES FOR INITIAL GUESS ORBITALS FOLLOW.   BETA SET(S).
    42 ORBITALS ARE OCCUPIED (   11 CORE ORBITALS).
    12=A       13=A       14=A       15=A       16=A       17=A       18=A   
    19=A       20=A       21=A       22=A       23=A       24=A       25=A   
    26=A       27=A       28=A       29=A       30=A       31=A       32=A   
    33=A       34=A       35=A       36=A       37=A       38=A       39=A   
    40=A       41=A       42=A       43=A       44=A       45=A       46=A   
    47=A       48=A       49=A       50=A       51=A       52=A   
 ...... END OF INITIAL ORBITAL SELECTION ......
 CPU     0: STEP CPU TIME=     0.06 TOTAL CPU TIME=          0.1 (      0.0 MIN)
 TOTAL WALL CLOCK TIME=          0.2 SECONDS, CPU UTILIZATION IS    66.67%

                    ----------------------
                    AO INTEGRAL TECHNOLOGY
                    ----------------------
     S,P,L SHELL ROTATED AXIS INTEGRALS, REPROGRAMMED BY
        KAZUYA ISHIMURA (IMS) AND JOSE SIERRA (SYNSTAR).
     S,P,D,L SHELL ROTATED AXIS INTEGRALS PROGRAMMED BY
        KAZUYA ISHIMURA (INSTITUTE FOR MOLECULAR SCIENCE).
     S,P,D,F,G SHELL TO TOTAL QUARTET ANGULAR MOMENTUM SUM 5,
        ERIC PROGRAM BY GRAHAM FLETCHER (ELORET AND NASA ADVANCED
        SUPERCOMPUTING DIVISION, AMES RESEARCH CENTER).
     S,P,D,F,G,L SHELL GENERAL RYS QUADRATURE PROGRAMMED BY
        MICHEL DUPUIS (PACIFIC NORTHWEST NATIONAL LABORATORY).

          --------------------
          2 ELECTRON INTEGRALS
          --------------------

 DIRECT SCF METHOD SKIPS INTEGRAL STORAGE ON DISK.
 DIRECT TRANSFORMATION SKIPS AO INTEGRAL STORAGE ON DISK.
  ...... END OF TWO-ELECTRON INTEGRALS .....
 CPU     0: STEP CPU TIME=     0.02 TOTAL CPU TIME=          0.1 (      0.0 MIN)
 TOTAL WALL CLOCK TIME=          0.2 SECONDS, CPU UTILIZATION IS    70.59%

          ---------------------------
                  UHF SCF CALCULATION
          ---------------------------

     NUCLEAR ENERGY =       666.6752834854
     MAXIT = 60     NPUNCH=  2     MULT=  2
     EXTRAP=T  DAMP=F  SHIFT=F  RSTRCT=F  DIIS=F  SOSCF=T
     DENSITY MATRIX CONV=  2.00E-05
     SOSCF WILL OPTIMIZE    3956 ALPHA AND    3906 BETA ROTATION ANGLES.
     SOGTOL= 2.500E-01
     MEMORY REQUIRED FOR UHF/ROHF ITERS=    288630 WORDS.

 DIRECT SCF CALCULATION, SCHWRZ=T   FDIFF=T
 SCHWARZ INEQUALITY OVERHEAD:      8658 INTEGRALS, T=        0.00

                                                                                NONZERO     BLOCKS
 ITER EX      TOTAL ENERGY        E CHANGE  DENSITY CHANGE    ORB. GRAD       INTEGRALS    SKIPPED
   1  0     -460.0303434095  -460.0303434095   0.994395062   0.000000000       26038171    1505616
          ---------------START SECOND ORDER SCF---------------
   2  1     -461.0106580924    -0.9803146829   0.172205498   0.099237013       25879308    1544523
   3  2     -461.0489192188    -0.0382611265   0.126924994   0.075022663       25507095    1611689
   4  3     -461.1722324162    -0.1233131974   0.052709753   0.018325130       25143519    1668998
   5  4     -461.1816562826    -0.0094238664   0.044794372   0.010678563       24725932    1716869
   6  5     -461.1864649635    -0.0048086809   0.021040616   0.004909284       24750108    1712804
   7  6     -461.1873307695    -0.0008658060   0.019418410   0.002274401       23568580    1807813
   8  7     -461.1875251943    -0.0001944248   0.002363896   0.000520096       23353820    1824343
   9  8     -461.1875381553    -0.0000129610   0.001383880   0.000424948       21420820    1960207
  10  9     -461.1875449345    -0.0000067793   0.000719062   0.000189975       21114383    1982531
  11 10     -461.1875468702    -0.0000019357   0.000795214   0.000103909       20247902    2038340
  12 11     -461.1875476740    -0.0000008038   0.000502820   0.000058867       19995300    2055394
  13 12     -461.1875478877    -0.0000002137   0.000248148   0.000028842       19115694    2106836
  14 13     -461.1875479545    -0.0000000668   0.000125022   0.000016292       18274679    2152038
  15 14     -461.1875479805    -0.0000000260   0.000068719   0.000012645       17663459    2189042
  16 15     -461.1875479917    -0.0000000112   0.000063649   0.000006727       17089288    2224223
  17 16     -461.1875479952    -0.0000000035   0.000040662   0.000004048       16181377    2274937
  18 17     -461.1875479963    -0.0000000011   0.000016579   0.000001877       15365835    2317630
  19 18     -461.1875479960     0.0000000003   0.000006329   0.000000717       14409764    2364160

          -----------------
          DENSITY CONVERGED
          -----------------
     TIME TO FORM FOCK OPERATORS=       8.1 SECONDS (       0.4 SEC/ITER)
     FOCK TIME ON FIRST ITERATION=       0.5, LAST ITERATION=       0.2
     TIME TO SOLVE SCF EQUATIONS=       0.3 SECONDS (       0.0 SEC/ITER)

 FINAL UHF ENERGY IS     -461.1875479960 AFTER  19 ITERATIONS

          --------------------
          SPIN SZ   =    0.500
          S-SQUARED =    0.776
          --------------------

  ----- ALPHA SET ----- 

          ------------
          EIGENVECTORS
          ------------

                      1          2          3          4          5
                  -20.8618   -11.5522   -11.3979   -11.3969   -11.3578
                     A          A          A          A          A   
    1  C  1  S    0.000054  -0.000315  -0.000912  -0.000593   0.000122
    2  C  1  S    0.000187  -0.000615  -0.000501  -0.000548   0.000037
    3  C  1  X    0.000251   0.000335   0.000495   0.000162  -0.000151
    4  C  1  Y    0.000191   0.000130   0.000343   0.000079  -0.000023
    5  C  1  Z    0.000003  -0.000139  -0.000198  -0.000055   0.000044
    6  C  1  S   -0.002647   0.001048  -0.000527   0.002221   0.000700
    7  C  1  X    0.000469  -0.001255   0.001302  -0.000320   0.000443
    8  C  1  Y    0.001095  -0.000180   0.000285  -0.001007  -0.000406
    9  C  1  Z   -0.000150   0.000631   0.000774  -0.000107  -0.000080
   10  C  2  S    0.000015   0.000154  -0.001774  -0.000556   0.000126
   11  C  2  S    0.000144   0.000377  -0.001504  -0.000352   0.000081
   12  C  2  X   -0.000196   0.000103   0.000638   0.000425  -0.000018
   13  C  2  Y   -0.000066  -0.000055  -0.000345  -0.000184   0.000021
   14  C  2  Z    0.000132   0.000021  -0.000204  -0.000016  -0.000021
   15  C  2  S    0.000158  -0.001231   0.003947  -0.000493  -0.000009
   16  C  2  X    0.000596   0.000554  -0.001126  -0.000039   0.000153
   17  C  2  Y   -0.000355   0.000668   0.001249   0.000619   0.000305
   18  C  2  Z   -0.001084  -0.000422   0.000790   0.000550   0.000091
   19  C  3  S    0.000059   0.000208   0.000550  -0.002605  -0.002083
   20  C  3  S    0.000295   0.000699   0.000136  -0.001973  -0.002866
   21  C  3  X   -0.000000  -0.000370   0.000363  -0.000576   0.000392
   22  C  3  Y   -0.000060   0.000278  -0.000196   0.000812  -0.000010
   23  C  3  Z    0.000010  -0.000581   0.000550  -0.000686   0.000914
   24  C  3  S   -0.002520  -0.005962   0.002967   0.003206   0.024864
   25  C  3  X   -0.000238  -0.001560   0.000797   0.001439   0.005612
   26  C  3  Y    0.000041  -0.000706   0.000781  -0.002705   0.000739
   27  C  3  Z   -0.002481   0.000017  -0.000142   0.001200   0.011952
   28  O  4  S    0.983546   0.000202   0.000063   0.000035  -0.000032
   29  O  4  S    0.101828   0.001873   0.000352  -0.000031  -0.000262
   30  O  4  X   -0.001471   0.000273   0.000413   0.000000  -0.000114
   31  O  4  Y    0.003310  -0.000481   0.000190  -0.000224   0.000109
   32  O  4  Z    0.003117  -0.000204  -0.000152  -0.000178  -0.000104
   33  O  4  S   -0.060063  -0.006132  -0.002413  -0.001299   0.001647
   34  O  4  X    0.005123   0.001080  -0.003383   0.001844   0.000315
   35  O  4  Y   -0.011649  -0.003067  -0.003105   0.000265  -0.000295
   36  O  4  Z   -0.010902  -0.003937   0.000119  -0.000456   0.000491
   37  C  5  S   -0.000022  -0.001645  -0.001849   0.000716  -0.020784
   38  C  5  S   -0.000128  -0.002833  -0.002741   0.000523  -0.003978
   39  C  5  X   -0.000036   0.000012   0.000789   0.000122   0.001304
   40  C  5  Y    0.000183   0.001619  -0.000614  -0.000072   0.000683
   41  C  5  Z    0.000228   0.000443   0.000472  -0.000223  -0.000065
   42  C  5  S   -0.000725   0.007248   0.022785  -0.000340   0.005548
   43  C  5  X    0.000278  -0.001543   0.007781   0.003755  -0.002117
   44  C  5  Y   -0.000424  -0.006562  -0.013811   0.000036  -0.003756
   45  C  5  Z   -0.003568  -0.002543  -0.000204  -0.000255   0.000293
   46  C  6  S   -0.000009  -0.000817  -0.235826   0.959514   0.001455
   47  C  6  S   -0.000227  -0.001803  -0.027480   0.102415  -0.002095
   48  C  6  X    0.000053   0.000248  -0.001077   0.000817  -0.000956
   49  C  6  Y   -0.000485  -0.000455  -0.000464   0.000558   0.000896
   50  C  6  Z   -0.000404  -0.000287   0.000145  -0.000585  -0.000188
   51  C  6  S    0.005388   0.017307   0.032779  -0.091904   0.020779
   52  C  6  X    0.003665   0.013092   0.006455  -0.005639  -0.007814
   53  C  6  Y    0.008618   0.004069   0.001325  -0.005731   0.010236
   54  C  6  Z    0.005124  -0.000910  -0.004379   0.005707  -0.003635
   55  C  7  S   -0.000042   0.000372  -0.001494  -0.004076  -0.003298
   56  C  7  S   -0.000193   0.001022  -0.000854  -0.002673  -0.002769
   57  C  7  X    0.000213   0.000106  -0.001066  -0.000156  -0.000890
   58  C  7  Y   -0.000256  -0.000107  -0.000143   0.001323  -0.000702
   59  C  7  Z    0.000088   0.000236   0.000057  -0.000255  -0.000219
   60  C  7  S    0.002976  -0.004630   0.002107   0.005455   0.021988
   61  C  7  X   -0.000708  -0.002578   0.002225   0.002084  -0.006712
   62  C  7  Y    0.000599   0.004322   0.000996  -0.003563  -0.011658
   63  C  7  Z    0.000436   0.001762  -0.000444   0.000604  -0.002503
   64  C  8  S    0.000081  -0.000385   0.960207   0.235463  -0.001775
   65  C  8  S    0.000439  -0.001140   0.106780   0.024161   0.001204
   66  C  8  X    0.000595   0.000364  -0.001148   0.000739  -0.000334
   67  C  8  Y   -0.000008  -0.000167  -0.000966   0.000264   0.000040
   68  C  8  Z   -0.000695  -0.000425  -0.000772  -0.000469   0.000387
   69  C  8  S    0.002382   0.014054  -0.111247  -0.021061  -0.006985
   70  C  8  X   -0.010569  -0.011365   0.005266  -0.004146   0.006273
   71  C  8  Y   -0.000521  -0.011199   0.004940  -0.000437   0.000406
   72  C  8  Z    0.007764   0.003233   0.010702   0.002673  -0.001091
   73  C  9  S   -0.000033  -0.001695   0.002621  -0.001631   0.988286
   74  C  9  S   -0.000292  -0.002631   0.001745  -0.001724   0.107986
   75  C  9  X   -0.000056  -0.001242   0.000189   0.000397   0.001208
   76  C  9  Y    0.000301   0.000962   0.000303  -0.000802  -0.000445
   77  C  9  Z    0.000412   0.000785  -0.000758   0.000228  -0.000333
   78  C  9  S   -0.000647   0.006098  -0.007306   0.016303  -0.103948
   79  C  9  X   -0.001390   0.004953  -0.005047   0.006286  -0.007661
   80  C  9  Y   -0.000720  -0.001642   0.002655  -0.009339   0.000435
   81  C  9  Z   -0.005259  -0.004707   0.003217   0.002927   0.004527
   82  C 10  S    0.000242   0.987248  -0.000219   0.000187   0.001121
   83  C 10  S    0.001711   0.098840  -0.001435  -0.002525  -0.002231
   84  C 10  X    0.000299  -0.000155   0.000081   0.000215   0.001294
   85  C 10  Y   -0.001107  -0.000211   0.000186   0.000122  -0.000433
   86  C 10  Z   -0.000924  -0.000961   0.000150   0.000051  -0.000426
   87  C 10  S    0.016868  -0.063652   0.018041   0.027948   0.006113
   88  C 10  X    0.009608   0.008276   0.021410  -0.014276  -0.002189
   89  C 10  Y   -0.021777  -0.017758   0.016407   0.000334   0.003809
   90  C 10  Z   -0.020821  -0.014091  -0.002432   0.005518   0.002826
   91  C 11  S   -0.000139  -0.000552  -0.001122  -0.002126   0.000212
   92  C 11  S   -0.000663  -0.000918  -0.002277  -0.001730   0.000116
   93  C 11  X   -0.000518   0.000298  -0.000888   0.000233   0.000206
   94  C 11  Y   -0.000407   0.000123  -0.000316   0.000376   0.000090
   95  C 11  Z    0.000020  -0.000018   0.000461   0.000017   0.000027
   96  C 11  S    0.008218   0.004189   0.022350   0.008399  -0.002224
   97  C 11  X   -0.002579  -0.003180  -0.014223  -0.006664   0.000109
   98  C 11  Y    0.003219   0.000886   0.002594  -0.002256  -0.000593
   99  C 11  Z    0.002049   0.000967   0.001887   0.001412  -0.000918
  100  H 12  S    0.000074   0.000007  -0.000211  -0.000191  -0.000075
  101  H 12  S    0.000415   0.000851   0.000713   0.000289  -0.000389
  102  H 13  S    0.000173  -0.000024   0.000546   0.000079   0.000062
  103  H 13  S   -0.000344  -0.000585  -0.001111  -0.000552   0.000023
  104  H 14  S    0.000131  -0.000241  -0.000000  -0.000159   0.000067
  105  H 14  S    0.000130  -0.000220  -0.000842   0.000061  -0.000154
  106  H 15  S   -0.000229  -0.000454  -0.001730  -0.000863  -0.000111
  107  H 15  S    0.000273   0.000438  -0.000343   0.000163  -0.000056
  108  H 16  S    0.000020   0.000223  -0.000181  -0.000028   0.000007
  109  H 16  S    0.000772  -0.000024  -0.001853  -0.000496  -0.000120
  110  H 17  S    0.000031  -0.000341  -0.000076  -0.000000  -0.000011
  111  H 17  S   -0.000717   0.001649  -0.001095   0.000540   0.000350
  112  H 18  S   -0.000143  -0.000020  -0.000296  -0.000007  -0.000000
  113  H 18  S   -0.000316   0.000037   0.001426   0.000664  -0.000074
  114  H 19  S   -0.000914  -0.001816   0.001836  -0.000085   0.000904
  115  H 19  S   -0.002206   0.000507   0.013303   0.002495   0.000234
  116  H 20  S   -0.000261  -0.001223  -0.001937   0.000087  -0.000232
  117  H 20  S   -0.001762  -0.001752  -0.000549   0.000293  -0.001439
  118  H 21  S    0.000149   0.000126  -0.000991  -0.000348  -0.000197
  119  H 21  S    0.000998   0.003389   0.001756  -0.000177   0.002647
  120  H 22  S   -0.000965  -0.001879  -0.000616   0.001215  -0.001124
  121  H 22  S   -0.001944   0.000499  -0.004156   0.013273   0.000449
  122  H 23  S    0.001098  -0.000235  -0.001042   0.000946  -0.001181
  123  H 23  S    0.003270   0.002791  -0.001957   0.013446   0.000064
  124  H 24  S    0.000007   0.000604   0.000059  -0.000481  -0.001268
  125  H 24  S   -0.000709  -0.001107  -0.001029  -0.001749   0.000076
  126  H 25  S   -0.000236  -0.000215  -0.000319  -0.000177  -0.001058
  127  H 25  S   -0.000863  -0.001083   0.000942   0.002628   0.000487
  128  H 26  S    0.000274   0.000162  -0.000257  -0.000854   0.001663
  129  H 26  S    0.000987   0.003341  -0.001416   0.000252   0.013157
  130  H 27  S    0.000084   0.000271   0.000002  -0.000352  -0.001202
  131  H 27  S    0.000127  -0.000247   0.000261  -0.001800   0.000152
  132  H 28  S    0.000098   0.000232  -0.000110  -0.000086  -0.001252
  133  H 28  S   -0.000102   0.000944  -0.000824   0.002302  -0.000050
  134  H 29  S    0.000600  -0.000367   0.000150  -0.000344  -0.001589
  135  H 29  S   -0.001901   0.003251  -0.001377  -0.001153  -0.000388

                      6          7          8          9         10
                  -11.3468   -11.3375   -11.3282   -11.3083   -11.2965
                     A          A          A          A          A   
    1  C  1  S   -0.000850  -0.001763  -0.000843   0.000372  -0.054574
    2  C  1  S   -0.000403  -0.002588  -0.000246   0.000087  -0.007510
    3  C  1  X    0.000044  -0.000455   0.000387  -0.000046  -0.000311
    4  C  1  Y   -0.000073  -0.000918   0.000122   0.000000   0.000998
    5  C  1  Z    0.000240   0.000013  -0.000082   0.000016  -0.000517
    6  C  1  S    0.002333   0.024093  -0.000732  -0.000142   0.008942
    7  C  1  X    0.000421  -0.006508  -0.000643   0.000169   0.000647
    8  C  1  Y   -0.000275  -0.011500  -0.000251   0.000058  -0.003316
    9  C  1  Z   -0.000945   0.000689   0.000651  -0.000072   0.002309
   10  C  2  S   -0.001870  -0.001808  -0.000743   0.000049   0.986043
   11  C  2  S   -0.001113  -0.002645  -0.000324  -0.000003   0.101959
   12  C  2  X    0.000443  -0.000607   0.000046  -0.000017  -0.000343
   13  C  2  Y   -0.000130   0.000857  -0.000013   0.000007   0.000363
   14  C  2  Z   -0.000088  -0.000378   0.000026  -0.000008   0.000005
   15  C  2  S    0.002456   0.024989   0.001511   0.000090  -0.080244
   16  C  2  X   -0.002348  -0.007595  -0.000373  -0.000045   0.002601
   17  C  2  Y    0.001324   0.009904   0.000525  -0.000066  -0.003273
   18  C  2  Z    0.000661  -0.004661  -0.000641   0.000014   0.001502
   19  C  3  S    0.000084   0.000305  -0.010799   0.987440  -0.000043
   20  C  3  S    0.000262   0.000127  -0.002704   0.101745  -0.000020
   21  C  3  X   -0.000138  -0.000046  -0.000675   0.000310   0.000018
   22  C  3  Y    0.000085  -0.000034  -0.000826  -0.000122   0.000020
   23  C  3  Z   -0.000062   0.000056  -0.000672   0.000223   0.000020
   24  C  3  S   -0.000961  -0.000639   0.003196  -0.079802   0.000214
   25  C  3  X   -0.000625   0.000447   0.001506  -0.001506   0.000087
   26  C  3  Y   -0.001128   0.000091   0.002313   0.000279  -0.000083
   27  C  3  Z   -0.000618  -0.000662   0.000975  -0.003606  -0.000020
   28  O  4  S   -0.000007  -0.000011   0.000008   0.000001  -0.000005
   29  O  4  S   -0.000055  -0.000137   0.000017   0.000049   0.000053
   30  O  4  X    0.000000  -0.000017   0.000072  -0.000053   0.000174
   31  O  4  Y    0.000182  -0.000011  -0.000102   0.000025  -0.000030
   32  O  4  Z   -0.000106  -0.000152  -0.000000  -0.000020   0.000016
   33  O  4  S    0.000587   0.000413  -0.000593   0.000088   0.000783
   34  O  4  X   -0.000031  -0.000460  -0.000319  -0.000041  -0.000560
   35  O  4  Y   -0.000855  -0.000177   0.000294   0.000041   0.000412
   36  O  4  Z    0.000346   0.000698  -0.000160   0.000077   0.000241
   37  C  5  S    0.987785   0.010141   0.006353   0.000095   0.001565
   38  C  5  S    0.105233   0.000837  -0.001871   0.000347  -0.000841
   39  C  5  X   -0.000067  -0.000411  -0.000353   0.000234  -0.000155
   40  C  5  Y   -0.000827   0.000223   0.000237   0.000024   0.000097
   41  C  5  Z    0.000313   0.000336   0.000164   0.000141   0.000070
   42  C  5  S   -0.094563  -0.002522   0.021497  -0.002504   0.004650
   43  C  5  X    0.002535  -0.000554  -0.012899   0.000830   0.002569
   44  C  5  Y    0.005994   0.000419  -0.001216   0.000682  -0.002405
   45  C  5  Z   -0.005256  -0.002226   0.004381  -0.000840   0.000258
   46  C  6  S   -0.000762   0.001459   0.003124   0.002324   0.000113
   47  C  6  S    0.000875  -0.001034  -0.001715  -0.001681  -0.000102
   48  C  6  X   -0.000007  -0.000248   0.000098   0.000408  -0.000100
   49  C  6  Y    0.000235  -0.000138  -0.001354  -0.000389  -0.000044
   50  C  6  Z    0.000390  -0.000029  -0.000269   0.001136  -0.000032
   51  C  6  S   -0.003975   0.005121   0.004652   0.004607  -0.000344
   52  C  6  X   -0.002822   0.002224   0.001715  -0.000036   0.000153
   53  C  6  Y   -0.003745   0.001607   0.004073   0.001504   0.000223
   54  C  6  Z   -0.000663  -0.000507   0.000879  -0.004147   0.000444
   55  C  7  S   -0.007163  -0.008955   0.987889   0.010455   0.000617
   56  C  7  S   -0.003177  -0.001897   0.105084  -0.000642  -0.000101
   57  C  7  X    0.000566  -0.000422   0.000372   0.000331  -0.000152
   58  C  7  Y    0.000373   0.000183  -0.000848   0.000436  -0.000008
   59  C  7  Z   -0.000135  -0.000174  -0.000227   0.001055   0.000031
   60  C  7  S    0.020970   0.004142  -0.092053   0.003252   0.000552
   61  C  7  X    0.013514   0.002685  -0.004011   0.000110   0.000572
   62  C  7  Y   -0.000486  -0.002118   0.006453  -0.001548   0.000260
   63  C  7  Z   -0.004417   0.001152   0.003771  -0.003296  -0.000388
   64  C  8  S    0.000790   0.000607   0.002234  -0.000020   0.001548
   65  C  8  S   -0.001430  -0.002424  -0.000836  -0.000217  -0.001120
   66  C  8  X   -0.000108   0.000245   0.001201  -0.000146  -0.001061
   67  C  8  Y    0.000257  -0.000245  -0.000578  -0.000036   0.000934
   68  C  8  Z   -0.000122  -0.000188  -0.000452  -0.000036  -0.000194
   69  C  8  S    0.015670   0.024815   0.000769   0.001746   0.001587
   70  C  8  X   -0.007442   0.016344  -0.004820  -0.000422   0.004425
   71  C  8  Y    0.014374   0.002254  -0.000105   0.000269  -0.004875
   72  C  8  Z   -0.001198  -0.004058   0.002724  -0.000056   0.000970
   73  C  9  S    0.020403   0.000049   0.002665   0.001428  -0.000064
   74  C  9  S    0.000411   0.000247  -0.001574  -0.001096   0.000041
   75  C  9  X   -0.001035  -0.000048   0.000229  -0.000271   0.000041
   76  C  9  Y   -0.000976  -0.000021   0.000756  -0.000009   0.000017
   77  C  9  Z    0.000382   0.000065   0.000303  -0.000161  -0.000054
   78  C  9  S    0.002219  -0.002054   0.017361   0.013282   0.000066
   79  C  9  X    0.003050  -0.002023   0.006942  -0.005001  -0.000321
   80  C  9  Y    0.002131   0.000310   0.010185  -0.000253  -0.000010
   81  C  9  Z   -0.001277  -0.001210   0.002127  -0.010501   0.000304
   82  C 10  S    0.000999   0.000480  -0.000013   0.000042  -0.000013
   83  C 10  S   -0.002553  -0.000388   0.000749   0.000507   0.000506
   84  C 10  X   -0.000044  -0.000768   0.000016   0.000208   0.000030
   85  C 10  Y   -0.001301  -0.000313  -0.000068   0.000021   0.000008
   86  C 10  Z   -0.000109   0.000281  -0.000212  -0.000007  -0.000067
   87  C 10  S    0.008582  -0.001145  -0.004813  -0.003419  -0.002806
   88  C 10  X    0.000285   0.002466   0.002022   0.001621  -0.002436
   89  C 10  Y    0.005035   0.001992  -0.002604  -0.000571   0.000252
   90  C 10  Z    0.001770  -0.000801  -0.001361  -0.000073   0.000323
   91  C 11  S   -0.010146   0.988454   0.008616  -0.000186   0.001074
   92  C 11  S   -0.001494   0.108193   0.000042   0.000065  -0.000912
   93  C 11  X    0.000597  -0.000242   0.000153  -0.000006   0.000260
   94  C 11  Y   -0.000262  -0.000042  -0.000313  -0.000017  -0.000072
   95  C 11  Z    0.000166   0.000723   0.000072   0.000009   0.000155
   96  C 11  S    0.000684  -0.107180   0.003179  -0.000225   0.011901
   97  C 11  X   -0.002420   0.000405  -0.003279   0.000292   0.005944
   98  C 11  Y   -0.000893  -0.001245   0.001707   0.000118  -0.009911
   99  C 11  Z   -0.001274  -0.008423   0.000052  -0.000019   0.002869
  100  H 12  S   -0.000278  -0.001118   0.000073  -0.000003  -0.000463
  101  H 12  S   -0.000452  -0.000169   0.000753  -0.000101  -0.001939
  102  H 13  S    0.000093  -0.001338  -0.000209   0.000038  -0.000054
  103  H 13  S   -0.001426   0.000616   0.000907  -0.000067   0.001372
  104  H 14  S    0.000355  -0.001578  -0.000043   0.000018  -0.000536
  105  H 14  S   -0.000688  -0.000018  -0.000225   0.000043  -0.002491
  106  H 15  S    0.000000   0.001769  -0.000292   0.000037  -0.001148
  107  H 15  S   -0.001708   0.014082  -0.000108   0.000026   0.000863
  108  H 16  S   -0.000370  -0.001567  -0.000097  -0.000020   0.000440
  109  H 16  S   -0.000414   0.000045   0.000280   0.000037   0.014293
  110  H 17  S   -0.000394  -0.001270  -0.000033   0.000020   0.000083
  111  H 17  S    0.000209  -0.000182  -0.000194  -0.000152   0.014524
  112  H 18  S    0.000024  -0.001169  -0.000121   0.000002   0.000338
  113  H 18  S    0.001134  -0.000097   0.000072  -0.000005   0.013783
  114  H 19  S   -0.001256  -0.001572  -0.000487  -0.000047  -0.000556
  115  H 19  S    0.000592  -0.000165  -0.001411  -0.000275  -0.000644
  116  H 20  S    0.000992  -0.000154  -0.001485   0.000193  -0.000437
  117  H 20  S    0.014492  -0.000993   0.000489  -0.000871   0.000178
  118  H 21  S    0.001042   0.000576  -0.000834  -0.000003  -0.000235
  119  H 21  S    0.014440  -0.000930   0.000625   0.000283  -0.000232
  120  H 22  S    0.000758  -0.000455  -0.000567  -0.000070  -0.000063
  121  H 22  S    0.000235  -0.000173  -0.001541   0.002496  -0.000212
  122  H 23  S   -0.000337  -0.000162  -0.000037  -0.000489   0.000051
  123  H 23  S   -0.001236   0.000676   0.002588  -0.000814   0.000171
  124  H 24  S   -0.001525  -0.000601   0.001242  -0.000117  -0.000054
  125  H 24  S    0.000636  -0.000680   0.014228   0.002423   0.000185
  126  H 25  S   -0.000903   0.000130   0.000922  -0.000321  -0.000107
  127  H 25  S    0.000897   0.001037   0.013143  -0.000777   0.000225
  128  H 26  S   -0.000166  -0.000041  -0.000822  -0.001061  -0.000056
  129  H 26  S    0.002685   0.000170   0.000756   0.001162  -0.000178
  130  H 27  S   -0.000126   0.000085  -0.000115   0.000337  -0.000017
  131  H 27  S   -0.000312   0.000129   0.002173   0.014103  -0.000031
  132  H 28  S    0.000252   0.000046  -0.000309   0.000260   0.000007
  133  H 28  S    0.000155   0.000022  -0.001558   0.013756   0.000017
  134  H 29  S    0.000256   0.000005  -0.000287   0.000078   0.000007
  135  H 29  S   -0.000696  -0.000389  -0.001143   0.014902  -0.000146

                     11         12         13         14         15
                  -11.2926    -1.7914    -1.3345    -1.2684    -1.1981
                     A          A          A          A          A   
    1  C  1  S    0.986014  -0.000390  -0.018041  -0.049462  -0.011993
    2  C  1  S    0.101607  -0.000824   0.021031   0.051953   0.012946
    3  C  1  X   -0.000203  -0.000976  -0.009653  -0.017448  -0.000361
    4  C  1  Y   -0.000282  -0.000922  -0.011023  -0.026941  -0.008306
    5  C  1  Z    0.000148   0.000054   0.000987   0.001301   0.000662
    6  C  1  S   -0.079813   0.014962   0.023666   0.100322   0.023325
    7  C  1  X    0.002067  -0.003510  -0.001196  -0.001808   0.003510
    8  C  1  Y    0.003936  -0.006184   0.007741   0.004869   0.001716
    9  C  1  Z    0.000043  -0.000452  -0.001670  -0.003797  -0.001095
   10  C  2  S    0.054139  -0.000700  -0.018635  -0.053099  -0.023226
   11  C  2  S    0.003723   0.001456   0.021950   0.056880   0.021820
   12  C  2  X   -0.000289  -0.000100  -0.011573  -0.021894  -0.006136
   13  C  2  Y   -0.001086  -0.000235   0.010144   0.023182   0.007367
   14  C  2  Z    0.000080  -0.000407  -0.003867  -0.011044  -0.003695
   15  C  2  S    0.000127  -0.008122   0.026668   0.100872   0.063464
   16  C  2  X    0.000936  -0.000313   0.002775   0.002797  -0.004976
   17  C  2  Y    0.003443   0.003476  -0.011120  -0.009336  -0.000854
   18  C  2  Z    0.000012   0.004288   0.001114   0.000121   0.000673
   19  C  3  S   -0.000382  -0.000589  -0.031299   0.048594   0.038418
   20  C  3  S   -0.000025  -0.000541   0.034801  -0.051424  -0.038564
   21  C  3  X    0.000021   0.000738   0.012731  -0.012650  -0.005361
   22  C  3  Y   -0.000035  -0.000304  -0.000886   0.002370  -0.013017
   23  C  3  Z    0.000047   0.000643   0.021358  -0.028251  -0.013577
   24  C  3  S    0.000377   0.013629   0.057002  -0.103371  -0.087903
   25  C  3  X    0.000099   0.002135  -0.003997   0.002645   0.003150
   26  C  3  Y    0.000197   0.000925   0.001877   0.001018   0.000896
   27  C  3  Z    0.000229   0.010047  -0.006305   0.004561  -0.003088
   28  O  4  S    0.000003  -0.228424   0.045907   0.001353   0.045295
   29  O  4  S   -0.000011   0.224555  -0.048962  -0.001631  -0.048014
   30  O  4  X    0.000045  -0.038090  -0.005811   0.052751  -0.050873
   31  O  4  Y    0.000004   0.087230   0.021497   0.026324   0.022659
   32  O  4  Z   -0.000019   0.081451   0.013908  -0.006173   0.051212
   33  O  4  S   -0.000305   0.762134  -0.162485  -0.004147  -0.169278
   34  O  4  X   -0.000547  -0.048647   0.000116   0.046112  -0.039520
   35  O  4  Y   -0.000424   0.110851   0.013561   0.023221   0.013545
   36  O  4  Z    0.000008   0.104621   0.006039  -0.006054   0.038295
   37  C  5  S    0.000923  -0.000681  -0.076648  -0.032871   0.105154
   38  C  5  S   -0.000160   0.004669   0.078196   0.032599  -0.096558
   39  C  5  X   -0.000367   0.000096  -0.002936   0.036459   0.040341
   40  C  5  Y    0.000005  -0.003699  -0.035374  -0.018419  -0.009824
   41  C  5  Z   -0.000022  -0.001239   0.012670   0.000145  -0.014584
   42  C  5  S    0.000304  -0.005653   0.161223   0.069811  -0.288201
   43  C  5  X    0.000957   0.001024  -0.006933  -0.005662   0.000337
   44  C  5  Y   -0.000769   0.011320   0.007187   0.011209   0.011768
   45  C  5  Z   -0.000742   0.016432   0.011070   0.007224  -0.000931
   46  C  6  S    0.000251  -0.010535  -0.097391   0.098881  -0.107718
   47  C  6  S   -0.000371   0.010632   0.097505  -0.092901   0.096172
   48  C  6  X   -0.000077   0.011127   0.026696   0.005615   0.057918
   49  C  6  Y    0.000002  -0.000992   0.030486  -0.017927  -0.030463
   50  C  6  Z    0.000071  -0.006213  -0.017799   0.017582  -0.010957
   51  C  6  S    0.002299  -0.012936   0.234578  -0.277064   0.343341
   52  C  6  X    0.001291  -0.020880   0.007982  -0.020622   0.013929
   53  C  6  Y   -0.000415  -0.038183   0.004794  -0.001239  -0.002477
   54  C  6  Z   -0.001277  -0.023766  -0.003885   0.011809  -0.015991
   55  C  7  S    0.000809  -0.000319  -0.064178   0.034518   0.121934
   56  C  7  S   -0.000222   0.001120   0.067646  -0.034095  -0.113745
   57  C  7  X   -0.000104   0.000110   0.014227   0.025644  -0.020078
   58  C  7  Y    0.000035  -0.000359  -0.027856   0.026137   0.002332
   59  C  7  Z    0.000099  -0.000245  -0.011846   0.003375   0.019569
   60  C  7  S    0.001119  -0.006633   0.124295  -0.079857  -0.319447
   61  C  7  X    0.000792   0.002716  -0.003213  -0.013044  -0.002051
   62  C  7  Y   -0.000186  -0.002972  -0.002704  -0.005108   0.005351
   63  C  7  Z   -0.000718  -0.006195  -0.000133  -0.001488  -0.001296
   64  C  8  S    0.001121  -0.010516  -0.114105  -0.104490  -0.004508
   65  C  8  S   -0.000470   0.007464   0.105738   0.095662   0.003574
   66  C  8  X   -0.000849  -0.006204  -0.031703   0.033843   0.014602
   67  C  8  Y   -0.000697  -0.011401  -0.012168  -0.005310  -0.062485
   68  C  8  Z   -0.000156  -0.002874  -0.008427  -0.017055   0.005497
   69  C  8  S   -0.001954   0.000996   0.306206   0.292596   0.019464
   70  C  8  X    0.003417   0.045372  -0.012442  -0.022195   0.008951
   71  C  8  Y    0.002773   0.008207  -0.015730  -0.016797  -0.001746
   72  C  8  Z    0.002606  -0.035078  -0.020764  -0.017424  -0.002609
   73  C  9  S   -0.000087  -0.000697  -0.079309   0.094362   0.048136
   74  C  9  S    0.000115   0.004399   0.076267  -0.086956  -0.041655
   75  C  9  X   -0.000014   0.002709   0.031714  -0.015383   0.004344
   76  C  9  Y    0.000000  -0.002439  -0.007904   0.017847  -0.070646
   77  C  9  Z   -0.000104  -0.002389   0.001306   0.003674   0.011933
   78  C  9  S   -0.000562  -0.002512   0.179986  -0.240385  -0.144144
   79  C  9  X   -0.000387  -0.001452   0.006395  -0.004450  -0.013334
   80  C  9  Y   -0.000084   0.004534  -0.000525  -0.002802   0.005252
   81  C  9  Z    0.000838   0.026130  -0.004099   0.000349   0.007157
   82  C 10  S    0.000146  -0.103614  -0.080733   0.003547  -0.081238
   83  C 10  S   -0.000669   0.108855   0.100916  -0.003373   0.095688
   84  C 10  X   -0.000353   0.042851  -0.027335   0.100477  -0.070360
   85  C 10  Y   -0.000161  -0.098424   0.073462   0.050344  -0.003793
   86  C 10  Z    0.000016  -0.092033   0.052921  -0.013191   0.049899
   87  C 10  S    0.003115   0.061138   0.142245  -0.014496   0.189249
   88  C 10  X    0.004178  -0.045386  -0.021326   0.007071  -0.022610
   89  C 10  Y    0.002944   0.097399   0.019103  -0.005252   0.022734
   90  C 10  Z   -0.000472   0.090325   0.022362   0.000931   0.037453
   91  C 11  S    0.001141  -0.002020  -0.050698  -0.106730  -0.025712
   92  C 11  S   -0.001193   0.004527   0.050980   0.097170   0.023816
   93  C 11  X    0.000005  -0.000413  -0.026014  -0.019726   0.006653
   94  C 11  Y    0.000063   0.001065  -0.000034  -0.000543  -0.009948
   95  C 11  Z    0.000067  -0.000174   0.010491   0.016256   0.005408
   96  C 11  S    0.015665  -0.032192   0.102231   0.272845   0.065284
   97  C 11  X    0.005082   0.009228   0.024656   0.000374   0.005105
   98  C 11  Y    0.010500  -0.021758   0.000923  -0.006983   0.001429
   99  C 11  Z   -0.001125  -0.006400   0.007880   0.016891  -0.001771
  100  H 12  S    0.000326  -0.000205   0.007173   0.020520   0.006696
  101  H 12  S    0.013873  -0.001935  -0.002055  -0.002766  -0.000435
  102  H 13  S    0.000222  -0.000727   0.007491   0.020790   0.003226
  103  H 13  S    0.013904   0.001081   0.000559  -0.003101  -0.002602
  104  H 14  S    0.000348  -0.000394   0.008291   0.022679   0.006066
  105  H 14  S    0.014080  -0.000244   0.001456   0.000874  -0.000856
  106  H 15  S   -0.001201   0.001253   0.023556   0.048272   0.012234
  107  H 15  S    0.000742   0.003065  -0.003075  -0.003500  -0.006714
  108  H 16  S   -0.000582   0.000314   0.008549   0.024460   0.010615
  109  H 16  S   -0.000284  -0.002253   0.002198   0.001296  -0.000088
  110  H 17  S   -0.000051   0.000424   0.009262   0.025327   0.011212
  111  H 17  S    0.002844   0.010880  -0.006872  -0.003070  -0.006481
  112  H 18  S   -0.000349   0.000966   0.006952   0.021617   0.010354
  113  H 18  S   -0.000866   0.000770  -0.004453  -0.004468   0.000692
  114  H 19  S   -0.000135   0.005862   0.051600   0.046838   0.005299
  115  H 19  S   -0.001906   0.005510  -0.005620  -0.003707   0.000106
  116  H 20  S    0.000262   0.002585   0.034147   0.016192  -0.051062
  117  H 20  S   -0.001281   0.008607  -0.001430   0.000091   0.002954
  118  H 21  S   -0.000177  -0.000358   0.028624   0.017207  -0.052970
  119  H 21  S    0.000214  -0.008766  -0.013251   0.001475  -0.002113
  120  H 22  S   -0.000077   0.006256   0.043656  -0.043124   0.056053
  121  H 22  S    0.000394   0.005353  -0.007170   0.007179  -0.001952
  122  H 23  S   -0.000231  -0.000926   0.036539  -0.046714   0.056012
  123  H 23  S    0.000032  -0.014920  -0.014496   0.001163  -0.004342
  124  H 24  S   -0.000055   0.000103   0.027728  -0.014269  -0.056703
  125  H 24  S    0.000284   0.005088  -0.001802   0.004168   0.008197
  126  H 25  S   -0.000093   0.000636   0.023388  -0.014847  -0.060651
  127  H 25  S    0.000180   0.001329  -0.009884  -0.000367  -0.003786
  128  H 26  S   -0.000090  -0.000932   0.029656  -0.040768  -0.024191
  129  H 26  S   -0.000103  -0.008533  -0.010019   0.005375  -0.002420
  130  H 27  S    0.000025  -0.000100   0.012332  -0.021629  -0.014907
  131  H 27  S    0.000040  -0.000056  -0.002074   0.002033   0.007793
  132  H 28  S   -0.000013  -0.000283   0.011590  -0.019805  -0.021723
  133  H 28  S   -0.000110  -0.000698  -0.005853   0.005235  -0.006981
  134  H 29  S   -0.000083  -0.001366   0.016639  -0.023326  -0.018101
  135  H 29  S    0.000231   0.006346  -0.001201   0.002940  -0.008476

                     16         17         18         19         20
                   -1.1817    -1.1097    -1.0743    -1.0372    -1.0296
                     A          A          A          A          A   
    1  C  1  S   -0.083674   0.070123   0.129651   0.051875   0.032968
    2  C  1  S    0.082958  -0.066399  -0.119214  -0.047035  -0.030699
    3  C  1  X   -0.009144   0.000321   0.010035  -0.003717  -0.013726
    4  C  1  Y   -0.035001   0.007694  -0.014067  -0.006854  -0.004314
    5  C  1  Z   -0.000265   0.001485   0.005261   0.003417   0.000776
    6  C  1  S    0.208508  -0.202273  -0.395127  -0.166209  -0.104498
    7  C  1  X    0.002050   0.002231   0.010541  -0.004001  -0.005600
    8  C  1  Y   -0.002483   0.003459   0.001955   0.001520   0.000222
    9  C  1  Z   -0.003611  -0.000710  -0.003678   0.001411  -0.001143
   10  C  2  S   -0.090985   0.021296  -0.139035  -0.067899   0.031482
   11  C  2  S    0.089891  -0.021512   0.126335   0.062265  -0.027133
   12  C  2  X   -0.013810  -0.009449  -0.006327   0.009581  -0.013553
   13  C  2  Y    0.028737  -0.010739  -0.019858  -0.011560   0.000651
   14  C  2  Z   -0.015948   0.003534   0.001445   0.006862  -0.000850
   15  C  2  S    0.223405  -0.055308   0.432144   0.217589  -0.113892
   16  C  2  X   -0.001484  -0.004846  -0.014354   0.000042   0.001702
   17  C  2  Y    0.002303  -0.002691   0.003940   0.002651   0.004200
   18  C  2  Z   -0.002346   0.000142  -0.000480   0.002002  -0.006194
   19  C  3  S   -0.075098  -0.129803   0.054528  -0.083247   0.037646
   20  C  3  S    0.074539   0.120852  -0.049583   0.074298  -0.031673
   21  C  3  X    0.006773  -0.001450   0.002379  -0.005513   0.000613
   22  C  3  Y   -0.000008  -0.001492   0.006029  -0.012196  -0.010712
   23  C  3  Z    0.026585   0.008585   0.008225  -0.036048   0.019905
   24  C  3  S    0.185470   0.379786  -0.171940   0.282075  -0.144039
   25  C  3  X   -0.003639   0.003688  -0.003865   0.009045  -0.010164
   26  C  3  Y   -0.004220  -0.005177   0.003204  -0.004886  -0.003729
   27  C  3  Z    0.002257   0.007198  -0.002488  -0.000416   0.001041
   28  O  4  S   -0.025639   0.016312   0.003523  -0.017728  -0.086516
   29  O  4  S    0.028566  -0.017371  -0.003738   0.019523   0.091579
   30  O  4  X    0.007797   0.101497   0.059822  -0.163854   0.171209
   31  O  4  Y   -0.038591   0.095192   0.022731  -0.151900  -0.205981
   32  O  4  Z   -0.027818   0.006713   0.006666  -0.025546  -0.232260
   33  O  4  S    0.088053  -0.061859  -0.015296   0.062239   0.332127
   34  O  4  X    0.007152   0.085585   0.053046  -0.142270   0.149067
   35  O  4  Y   -0.031725   0.079322   0.016501  -0.133827  -0.179939
   36  O  4  Z   -0.023821   0.004873   0.006336  -0.024775  -0.206607
   37  C  5  S    0.062983   0.058940   0.023409  -0.096227   0.003657
   38  C  5  S   -0.058611  -0.051342  -0.018788   0.079850  -0.006338
   39  C  5  X   -0.010015   0.033472  -0.042135   0.039095   0.048630
   40  C  5  Y    0.022275  -0.035548   0.002669   0.020402  -0.023928
   41  C  5  Z   -0.007873  -0.011060   0.012776  -0.021834   0.003828
   42  C  5  S   -0.172152  -0.189672  -0.091315   0.352306  -0.010716
   43  C  5  X    0.005715  -0.002658  -0.011259  -0.000675   0.008661
   44  C  5  Y    0.002939   0.004718   0.005303  -0.011571  -0.013344
   45  C  5  Z   -0.008172  -0.002590   0.001686  -0.004605  -0.005432
   46  C  6  S   -0.008703   0.061766  -0.000625  -0.017415  -0.056935
   47  C  6  S    0.010720  -0.052871  -0.000464   0.015371   0.047917
   48  C  6  X   -0.053584  -0.023485  -0.001601   0.026542  -0.073533
   49  C  6  Y    0.015825   0.026976   0.015231  -0.058975   0.022123
   50  C  6  Z   -0.003267  -0.012501   0.016073  -0.029772   0.050801
   51  C  6  S    0.017530  -0.224034   0.010638   0.066946   0.231446
   52  C  6  X   -0.003699  -0.018987   0.004464   0.009525   0.003746
   53  C  6  Y   -0.002062  -0.004917   0.004999  -0.013041   0.035705
   54  C  6  Z    0.002061   0.001449   0.002940  -0.013573   0.030217
   55  C  7  S   -0.004239   0.067425  -0.052344   0.065023   0.048989
   56  C  7  S    0.006545  -0.058742   0.045098  -0.054753  -0.040134
   57  C  7  X   -0.045047  -0.034983  -0.013443   0.070434  -0.002792
   58  C  7  Y   -0.019550  -0.017459  -0.003289   0.029401  -0.031188
   59  C  7  Z   -0.000001  -0.007989   0.012126  -0.034439   0.009760
   60  C  7  S    0.000736  -0.214390   0.174406  -0.230611  -0.176964
   61  C  7  X   -0.003737  -0.009057   0.004106   0.005329  -0.006683
   62  C  7  Y    0.012255   0.004180  -0.008274   0.018681   0.002557
   63  C  7  Z    0.003735   0.002386   0.001580  -0.008723   0.009520
   64  C  8  S    0.060898  -0.066794   0.014307   0.001668  -0.054832
   65  C  8  S   -0.049376   0.055239  -0.010336  -0.002447   0.046565
   66  C  8  X    0.087997  -0.005665   0.000497  -0.011220   0.025772
   67  C  8  Y    0.007267  -0.069540  -0.048988   0.090775   0.032441
   68  C  8  Z   -0.007849  -0.005341   0.010737   0.006739   0.019081
   69  C  8  S   -0.212164   0.235530  -0.057567   0.001273   0.215290
   70  C  8  X   -0.003676  -0.003506   0.001407  -0.007187  -0.033440
   71  C  8  Y    0.006304  -0.018983  -0.010335   0.020324   0.004348
   72  C  8  Z    0.011237  -0.005135   0.011698   0.004610   0.027516
   73  C  9  S   -0.082515  -0.038677  -0.011334   0.060138  -0.033990
   74  C  9  S    0.070207   0.031557   0.009944  -0.050206   0.024292
   75  C  9  X   -0.021976  -0.054990   0.021403  -0.017360  -0.001287
   76  C  9  Y   -0.003939  -0.008357   0.025914  -0.045127  -0.055045
   77  C  9  Z   -0.021335  -0.070957   0.039684  -0.075404   0.042911
   78  C  9  S    0.249575   0.136196   0.036464  -0.218500   0.131897
   79  C  9  X    0.012791   0.003936   0.002993  -0.006547   0.007993
   80  C  9  Y   -0.001954  -0.002524   0.006898  -0.013685  -0.020740
   81  C  9  Z   -0.007949  -0.018165   0.012318  -0.028207   0.003258
   82  C 10  S    0.060312  -0.027995  -0.004510   0.027546   0.099248
   83  C 10  S   -0.070720   0.031406   0.003034  -0.033900  -0.122089
   84  C 10  X   -0.016502   0.120325   0.028888  -0.118491  -0.010468
   85  C 10  Y   -0.046346   0.072562   0.012675  -0.041857   0.127864
   86  C 10  Z   -0.020642  -0.018180   0.008313   0.025594   0.097924
   87  C 10  S   -0.145745   0.084745   0.025359  -0.075322  -0.286086
   88  C 10  X    0.016569   0.050017   0.039742  -0.082124   0.053853
   89  C 10  Y   -0.039757   0.052898   0.018314  -0.071440  -0.036086
   90  C 10  Z   -0.033535   0.002682   0.004167  -0.008457  -0.041045
   91  C 11  S   -0.104556   0.018190   0.003905   0.008614  -0.011956
   92  C 11  S    0.089751  -0.016075  -0.004315  -0.006609   0.008583
   93  C 11  X    0.055422  -0.056441   0.013521   0.012944  -0.048467
   94  C 11  Y   -0.000228  -0.032923  -0.120722  -0.032408   0.000094
   95  C 11  Z    0.005555   0.006554   0.025378   0.017423   0.003230
   96  C 11  S    0.318234  -0.056466  -0.009213  -0.034124   0.054934
   97  C 11  X   -0.015237  -0.009843  -0.002618   0.006125  -0.029400
   98  C 11  Y   -0.004100  -0.010914  -0.032170   0.003813  -0.000901
   99  C 11  Z    0.013520  -0.002579   0.003510   0.006930   0.013027
  100  H 12  S    0.042285  -0.039262  -0.068742  -0.031530  -0.025778
[...]
             43  C  5  X      0.37297     0.52646
             44  C  5  Y      0.43010     0.54295
             45  C  5  Z      0.55075     0.58895
             46  C  6  S      1.98989     1.97643
             47  C  6  S      0.34538     0.42284
             48  C  6  X      0.47781     0.46299
             49  C  6  Y      0.58036     0.56274
             50  C  6  Z      0.54971     0.52515
             51  C  6  S      1.16992     0.56894
             52  C  6  X      0.27566     0.49702
             53  C  6  Y      0.53592     0.57984
             54  C  6  Z      0.56003     0.58129
             55  C  7  S      1.98943     1.97623
             56  C  7  S      0.34116     0.41269
             57  C  7  X      0.52387     0.50960
             58  C  7  Y      0.53483     0.51921
             59  C  7  Z      0.54442     0.51872
             60  C  7  S      1.11626     0.56277
             61  C  7  X      0.36407     0.52767
             62  C  7  Y      0.44960     0.55346
             63  C  7  Z      0.53257     0.58174
             64  C  8  S      1.99120     1.97640
             65  C  8  S      0.33564     0.42360
             66  C  8  X      0.54647     0.54230
             67  C  8  Y      0.47176     0.46011
             68  C  8  Z      0.55789     0.53798
             69  C  8  S      1.17537     0.55635
             70  C  8  X      0.36008     0.51748
             71  C  8  Y      0.29797     0.50293
             72  C  8  Z      0.61398     0.58822
             73  C  9  S      1.99044     1.97616
             74  C  9  S      0.33224     0.41009
             75  C  9  X      0.53039     0.51536
             76  C  9  Y      0.49422     0.48148
             77  C  9  Z      0.55269     0.53743
             78  C  9  S      1.14129     0.55214
             79  C  9  X      0.48459     0.54579
             80  C  9  Y      0.31683     0.50100
             81  C  9  Z      0.47787     0.55597
             82  C 10  S      1.98917     1.97802
             83  C 10  S      0.43430     0.46686
             84  C 10  X      0.59428     0.57368
             85  C 10  Y      0.52055     0.50464
             86  C 10  Z      0.38830     0.37233
             87  C 10  S      0.76208     0.54620
             88  C 10  X      0.36987     0.47905
             89  C 10  Y      0.17560     0.40274
             90  C 10  Z      0.16256     0.35347
             91  C 11  S      1.99048     1.97607
             92  C 11  S      0.33233     0.40763
             93  C 11  X      0.49777     0.48846
             94  C 11  Y      0.54847     0.53680
             95  C 11  Z      0.54077     0.51798
             96  C 11  S      1.13372     0.54911
             97  C 11  X      0.30444     0.50124
             98  C 11  Y      0.44525     0.55076
             99  C 11  Z      0.52485     0.56669
            100  H 12  S      0.46096     0.46199
            101  H 12  S      0.28979     0.42103
            102  H 13  S      0.46698     0.46903
            103  H 13  S      0.30981     0.43197
            104  H 14  S      0.46289     0.46482
            105  H 14  S      0.32037     0.43692
            106  H 15  S      0.46525     0.48414
            107  H 15  S      0.29184     0.42227
            108  H 16  S      0.46231     0.46449
            109  H 16  S      0.31549     0.43481
            110  H 17  S      0.47168     0.47405
            111  H 17  S      0.33299     0.44468
            112  H 18  S      0.46011     0.46106
            113  H 18  S      0.28584     0.41988
            114  H 19  S      0.44647     0.46235
            115  H 19  S      0.24304     0.39546
            116  H 20  S      0.46178     0.47183
            117  H 20  S      0.28689     0.42201
            118  H 21  S      0.45772     0.46487
            119  H 21  S      0.24606     0.40143
            120  H 22  S      0.44606     0.45238
            121  H 22  S      0.23259     0.39044
            122  H 23  S      0.45675     0.46368
            123  H 23  S      0.23426     0.39840
            124  H 24  S      0.46317     0.47499
            125  H 24  S      0.29995     0.42675
            126  H 25  S      0.45928     0.46671
            127  H 25  S      0.27049     0.41237
            128  H 26  S      0.45798     0.47391
            129  H 26  S      0.24546     0.39967
            130  H 27  S      0.46255     0.46439
            131  H 27  S      0.29807     0.42643
            132  H 28  S      0.45969     0.46010
            133  H 28  S      0.28572     0.42011
            134  H 29  S      0.46868     0.47057
            135  H 29  S      0.33595     0.44534

          ----- MULLIKEN ATOMIC OVERLAP POPULATIONS -----
          (OFF-DIAGONAL ELEMENTS NEED TO BE MULTIPLIED BY 2)

             1           2           3           4           5

    1    5.3611302
    2   -0.0811913   5.4046572
    3    0.0000002   0.0000001   5.4000345
    4    0.0000413  -0.0022859   0.0000597   7.9895306
    5   -0.0051267   0.0026356   0.0015621   0.0002536   5.5403353
    6   -0.0000266  -0.0000944  -0.0928762  -0.0447557   0.0009876
    7    0.0001219  -0.0000596  -0.0763236   0.0000729   0.2291866
    8   -0.0640977  -0.0936298  -0.0000016  -0.0484430   0.1972234
    9   -0.0000031   0.0000004   0.2309069   0.0004020  -0.0865415
   10    0.0035087   0.0037723   0.0032911   0.3073552  -0.0808279
   11    0.2456732   0.2409387  -0.0000082   0.0008753  -0.0460218
   12    0.3821395  -0.0020035  -0.0000000  -0.0000004   0.0000916
   13    0.3793831   0.0029720  -0.0000000   0.0000007  -0.0001404
   14    0.3764254  -0.0002846  -0.0000000  -0.0000002  -0.0003702
   15   -0.0360202  -0.0426389  -0.0000017   0.0016205   0.0005205
   16   -0.0006171   0.3751526  -0.0000000   0.0000173  -0.0000488
   17    0.0033207   0.3747832  -0.0000000   0.0032399   0.0000167
   18   -0.0012162   0.3830284  -0.0000000   0.0000161  -0.0000363
   19    0.0006926  -0.0011083   0.0000123   0.0009517  -0.0351441
   20   -0.0002177  -0.0000238   0.0016522   0.0001983   0.3836592
   21   -0.0000175   0.0000217  -0.0000429  -0.0000129   0.3894644
   22   -0.0000005   0.0000196   0.0026343   0.0009492   0.0004668
   23    0.0000002   0.0000007  -0.0007214  -0.0018720  -0.0001989
   24   -0.0000026   0.0000004   0.0030958   0.0000003  -0.0483544
   25   -0.0000001   0.0000002  -0.0016662   0.0000001  -0.0353421
   26    0.0000000  -0.0000000  -0.0370689  -0.0000146   0.0029831
   27   -0.0000000  -0.0000000   0.3790066   0.0000107  -0.0000605
   28    0.0000000  -0.0000000   0.3826804   0.0000010   0.0001217
   29    0.0000001   0.0000001   0.3730147   0.0001696   0.0009976

             6           7           8           9          10

    6    5.7402804
    7   -0.0992994   5.5176730
    8   -0.0655205  -0.0872929   5.9942137
    9    0.1984482   0.2343234   0.0041646   5.6810566
   10    0.1249954   0.0034883   0.0998889  -0.0757535   5.2156093
   11    0.0019751   0.0024672   0.1824316  -0.0001161  -0.0826069
   12    0.0000001  -0.0000004   0.0034253   0.0000000  -0.0000570
   13   -0.0000003   0.0000585  -0.0017784  -0.0000012  -0.0000742
   14    0.0000001  -0.0000303  -0.0016756   0.0000002  -0.0000144
   15    0.0000621  -0.0000622  -0.0588750  -0.0000030  -0.0023507
   16   -0.0000048  -0.0000004  -0.0023542   0.0000002   0.0002143
   17    0.0000609  -0.0000009  -0.0029964  -0.0000004   0.0021898
   18    0.0000006   0.0000002   0.0036639   0.0000000  -0.0001190
   19    0.0002546  -0.0003960   0.3733249   0.0002021  -0.0417909
   20    0.0005925  -0.0393189  -0.0516484  -0.0019802  -0.0017708
   21   -0.0000955  -0.0340551  -0.0332927   0.0027756   0.0025832
   22    0.3706651   0.0000848  -0.0004078  -0.0300331  -0.0392598
   23    0.3824598   0.0027067   0.0025161  -0.0274565  -0.0511977
   24   -0.0000186   0.3888047  -0.0013065  -0.0464681   0.0001557
   25    0.0033953   0.3900042   0.0031326  -0.0355874  -0.0000562
   26   -0.0361536  -0.0363653  -0.0001124   0.3996873   0.0029763
   27   -0.0006618   0.0030810  -0.0000024  -0.0421173  -0.0000845
   28    0.0033182  -0.0014313   0.0000029  -0.0387631  -0.0000600
   29   -0.0033026  -0.0012312  -0.0001917  -0.0465795   0.0027058

            11          12          13          14          15

   11    5.6708194
   12   -0.0404616   0.4517655
   13   -0.0403968  -0.0218526   0.4850758
   14   -0.0488167  -0.0222923  -0.0245794   0.4982862
   15    0.3976614  -0.0017081  -0.0017137   0.0028160   0.4937573
   16   -0.0469414  -0.0000407  -0.0000302   0.0019017   0.0029641
   17   -0.0458483   0.0000226  -0.0000512  -0.0000518  -0.0014413
   18   -0.0381798   0.0017547  -0.0000097  -0.0000247  -0.0017989
   19   -0.0341704  -0.0000506  -0.0000212   0.0015711   0.0029244
   20    0.0012475  -0.0000209   0.0001754   0.0000367   0.0013272
   21   -0.0023059   0.0000380  -0.0002275   0.0003635   0.0000491
   22   -0.0000369  -0.0000000   0.0000000  -0.0000001  -0.0000013
   23   -0.0000423  -0.0000000  -0.0000000   0.0000000   0.0000015
   24   -0.0000301  -0.0000000  -0.0000000   0.0000008   0.0000002
   25   -0.0000324  -0.0000000   0.0000004   0.0000003   0.0000006
   26    0.0000017  -0.0000000   0.0000000  -0.0000000  -0.0000000
   27   -0.0000001   0.0000000  -0.0000000   0.0000000   0.0000001
   28   -0.0000000  -0.0000000   0.0000000   0.0000000   0.0000000
   29    0.0000035  -0.0000000  -0.0000003  -0.0000000   0.0000029

            16          17          18          19          20

   16    0.4905424
   17   -0.0247135   0.5171593
   18   -0.0211672  -0.0208360   0.4408817
   19    0.0029236  -0.0001653  -0.0000105   0.4160338
   20    0.0000007  -0.0000016   0.0000006   0.0026929   0.4695966
   21    0.0000031  -0.0000011  -0.0000007  -0.0021674  -0.0193051
   22   -0.0000021  -0.0000103  -0.0000001   0.0006322   0.0000117
   23    0.0000001  -0.0000008  -0.0000000  -0.0000239  -0.0000143
   24   -0.0000005  -0.0000000   0.0000000   0.0023866   0.0027604
   25    0.0000000   0.0000000  -0.0000000  -0.0000063  -0.0016009
   26   -0.0000000   0.0000000   0.0000000  -0.0000397  -0.0000432
   27    0.0000000  -0.0000000   0.0000000   0.0000001  -0.0000098
   28    0.0000000   0.0000000  -0.0000000   0.0000003   0.0000899
   29   -0.0000000   0.0000002  -0.0000000  -0.0000015   0.0005778

            21          22          23          24          25

   21    0.4030059
   22   -0.0000217   0.3880803
   23    0.0000028  -0.0138846   0.3979512
   24   -0.0019241   0.0014404  -0.0000472   0.4842135
   25   -0.0010435  -0.0000214  -0.0000307  -0.0189039   0.4266754
   26   -0.0000280  -0.0025608  -0.0009784  -0.0025885  -0.0008448
   27    0.0000003  -0.0000453   0.0017797  -0.0000428   0.0000008
   28   -0.0000052  -0.0000318  -0.0000072   0.0000004   0.0017163
   29    0.0000217  -0.0000135   0.0000675  -0.0000456  -0.0000288

            26          27          28          29

   26    0.4154823
   27   -0.0021132   0.4672028
   28   -0.0012835  -0.0192890   0.4400771
   29    0.0025115  -0.0260396  -0.0217274   0.5237148

          TOTAL MULLIKEN AND LOWDIN ATOMIC POPULATIONS
       ATOM         MULL.POP.    CHARGE          LOW.POP.     CHARGE
    1 C             6.563900   -0.563900         6.248870   -0.248870
    2 C             6.564663   -0.564663         6.256728   -0.256728
    3 C             6.569240   -0.569240         6.258244   -0.258244
    4 O             8.208381   -0.208381         7.839722    0.160278
    5 C             6.412292   -0.412292         6.149272   -0.149272
    6 C             6.484686   -0.484686         6.177235   -0.177235
    7 C             6.396206   -0.396206         6.162079   -0.162079
    8 C             6.350361   -0.350361         6.105359   -0.105359
    9 C             6.320563   -0.320563         6.075416   -0.075416
   10 C             5.396711    0.603289         5.676981    0.323019
   11 C             6.318079   -0.318079         6.094760   -0.094760
   12 H             0.750749    0.249251         0.883027    0.116973
   13 H             0.776789    0.223211         0.901004    0.098996
   14 H             0.783262    0.216738         0.901742    0.098258
   15 H             0.757093    0.242907         0.906404    0.093596
   16 H             0.777799    0.222201         0.899300    0.100700
   17 H             0.804674    0.195326         0.918723    0.081277
   18 H             0.745948    0.254052         0.880946    0.119054
   19 H             0.689507    0.310493         0.857818    0.142182
   20 H             0.748664    0.251336         0.893843    0.106157
   21 H             0.703783    0.296217         0.866301    0.133699
   22 H             0.678653    0.321347         0.842817    0.157183
   23 H             0.691010    0.308990         0.862082    0.137918
   24 H             0.763126    0.236874         0.901734    0.098266
   25 H             0.729762    0.270238         0.879084    0.120916
   26 H             0.703447    0.296553         0.873578    0.126422
   27 H             0.760616    0.239384         0.890821    0.109179
   28 H             0.745410    0.254590         0.880207    0.119793
   29 H             0.804626    0.195374         0.915902    0.084098

          -------------------------------
          BOND ORDER AND VALENCE ANALYSIS     BOND ORDER THRESHOLD=0.050
          -------------------------------

                   BOND                       BOND                       BOND
  ATOM PAIR DIST  ORDER      ATOM PAIR DIST  ORDER      ATOM PAIR DIST  ORDER
    1  11  1.537  0.913        1  12  1.095  0.912        1  13  1.094  0.920
    1  14  1.098  0.919        2  11  1.539  0.900        2  16  1.098  0.918
    2  17  1.092  0.925        2  18  1.096  0.915        3   9  1.537  0.896
    3  27  1.095  0.915        3  28  1.096  0.914        3  29  1.095  0.923
    4  10  1.218  1.316        5   7  1.538  0.896        5   8  1.554  0.847
    5  20  1.098  0.901        5  21  1.094  0.890        6   9  1.551  0.848
    6  10  1.523  0.819        6  22  1.099  0.861        6  23  1.094  0.879
    7   9  1.542  0.887        7  24  1.099  0.912        7  25  1.097  0.906
    8  10  1.535  0.789        8  11  1.546  0.852        8  19  1.103  0.858
    9  26  1.098  0.890       11  15  1.098  0.904

                       TOTAL       BONDED        FREE
      ATOM            VALENCE     VALENCE     VALENCE
    1 C                 3.620       3.620       0.000
    2 C                 3.610       3.610       0.000
    3 C                 3.607       3.607       0.000
    4 O                 2.205       1.426       0.779
    5 C                 3.493       3.493       0.000
    6 C                 3.385       3.370       0.015
    7 C                 3.527       3.527       0.000
    8 C                 3.307       3.289       0.018
    9 C                 3.468       3.467       0.000
   10 C                 2.952       2.924       0.028
   11 C                 3.496       3.496       0.000
   12 H                 0.903       0.903       0.000
   13 H                 0.911       0.911       0.000
   14 H                 0.912       0.912       0.000
   15 H                 0.892       0.892       0.000
   16 H                 0.911       0.911       0.000
   17 H                 0.923       0.923       0.000
   18 H                 0.903       0.903      -0.000
   19 H                 0.866       0.866       0.000
   20 H                 0.895       0.895       0.000
   21 H                 0.880       0.880       0.000
   22 H                 0.864       0.864       0.000
   23 H                 0.871       0.871       0.000
   24 H                 0.901       0.901       0.000
   25 H                 0.894       0.894       0.000
   26 H                 0.873       0.873       0.000
   27 H                 0.905       0.905       0.000
   28 H                 0.902       0.902       0.000
   29 H                 0.919       0.919       0.000

          -----------------------------------------
          ATOMIC SPIN DENSITY AT THE NUCLEUS (A.U.)
          -----------------------------------------
                            SPIN DENS    ALPHA DENS     BETA DENS
    1  C            6.0     0.0010257      46.99299      46.99196
    2  C            6.0     0.0006965      47.00056      46.99987
    3  C            6.0     0.0006488      46.99535      46.99470
    4  O            8.0     0.2393371     117.25530     117.01596
    5  C            6.0    -0.0052162      47.04353      47.04875
    6  C            6.0     0.0470725      47.09989      47.05282
    7  C            6.0     0.0012058      47.04281      47.04160
    8  C            6.0     0.0418143      47.15545      47.11363
    9  C            6.0    -0.0045553      47.08174      47.08630
   10  C            6.0    -0.1061170      47.08271      47.18883
   11  C            6.0    -0.0052504      47.07701      47.08227
   12  H            1.0     0.0002444       0.18048       0.18023
   13  H            1.0    -0.0000353       0.18293       0.18297
   14  H            1.0     0.0001626       0.18130       0.18114
   15  H            1.0     0.0001078       0.18389       0.18378
   16  H            1.0    -0.0000733       0.18096       0.18103
   17  H            1.0     0.0003396       0.18522       0.18489
   18  H            1.0     0.0000488       0.18000       0.17995
   19  H            1.0    -0.0027652       0.17419       0.17696
   20  H            1.0     0.0005428       0.18176       0.18122
   21  H            1.0     0.0031436       0.18112       0.17798
   22  H            1.0    -0.0021821       0.17342       0.17560
   23  H            1.0    -0.0036833       0.17721       0.18089
   24  H            1.0    -0.0001417       0.18210       0.18225
   25  H            1.0    -0.0004664       0.17984       0.18030
   26  H            1.0     0.0035759       0.18205       0.17847
   27  H            1.0    -0.0000783       0.18109       0.18117
   28  H            1.0    -0.0000566       0.17972       0.17977
   29  H            1.0     0.0000587       0.18375       0.18369

          ---------------------
          ELECTROSTATIC MOMENTS
          ---------------------

 POINT   1           X           Y           Z (BOHR)    CHARGE
                -0.010416    0.000838   -0.125743        1.00 (A.U.)
         DX          DY          DZ         /D/  (DEBYE)
    -1.813051   -0.817104    1.397983    2.430878
 ...... END OF PROPERTY EVALUATION ......
 CPU     0: STEP CPU TIME=     0.08 TOTAL CPU TIME=          8.7 (      0.1 MIN)
 TOTAL WALL CLOCK TIME=         16.1 SECONDS, CPU UTILIZATION IS    54.26%
               580000  WORDS OF DYNAMIC MEMORY USED
 EXECUTION OF GAMESS TERMINATED NORMALLY Mon May 25 19:13:42 2020
 DDI: 263640 bytes (0.3 MB / 0 MWords) used by master data server.
Note: The following floating-point exceptions are signalling: IEEE_DENORMALNote: The following floating-point exceptions are signalling: IEEE_DENORMALNote: The following floating-point exceptions are signalling:
 ----------------------------------------
 CPU timing information for all processes
 ========================================
 0: 8.539 + 0.195 = 8.735
 1: 8.414 + 0.63 = 8.478
 2: 8.306 + 0.60 = 8.367
 3: 8.471 + 0.40 = 8.511
 4: 8.299 + 0.64 = 8.364
 5: 8.376 + 0.32 = 8.409
 ----------------------------------------


 IEEE_DENORMALNote: The following floating-point exceptions are signalling: IEEE_DENORMALNote: The following floating-point exceptions are signalling: IEEE_DENORMALNote: The following floating-point exceptions are signalling:


 IEEE_DENORMAL
 ddikick.x: exited gracefully.
unset echo
----- accounting info -----
Files used on the master node pietdev were:
-rwxr-xr-x 1 piet piet     1283 mei 25 19:13 /home/piet/scr/menthone_fukui_base.F05*
-rw-r--r-- 1 piet piet 68812800 mei 25 19:13 /home/piet/scr/menthone_fukui_base.F10
ls: No match.
ls: No match.
ls: No match.
ma 25 mei 2020 19:13:45 CEST
0.122u 0.024s 0:19.24 0.7%	0+0k 0+8io 0pf+0w
