----- GAMESS execution script 'rungms' -----
This job is running on host pietdev
under operating system Linux at ma 25 mei 2020 19:13:26 CEST
Available scratch disk space (Kbyte units) at beginning of the job is
Filesystem     1K-blocks     Used Available Use% Mounted on
/dev/sda2      244568380 31071504 201003820  14% /
GAMESS temporary binary files will be written to /home/piet/scr
GAMESS supplementary output files will be written to /home/piet/gamess/scr
Copying input file menthone_fukui_neu.inp to your run's scratch directory...
cp menthone_fukui_neu.inp /home/piet/scr/menthone_fukui_neu.F05
unset echo
 
Assuming a single but multicore node.
 
/home/piet/gamess/ddikick.x /home/piet/gamess/gamess.03.x menthone_fukui_neu -ddi 1 6 pietdev:cpus=6 -scr /home/piet/scr

 Distributed Data Interface kickoff program.
 Initiating 6 compute processes on 1 nodes to run the following command:
 /home/piet/gamess/gamess.03.x menthone_fukui_neu 

          ******************************************************
          *         GAMESS VERSION = 30 SEP 2019 (R2)          *
          *             FROM IOWA STATE UNIVERSITY             *
          * M.W.SCHMIDT, K.K.BALDRIDGE, J.A.BOATZ, S.T.ELBERT, *
          *   M.S.GORDON, J.H.JENSEN, S.KOSEKI, N.MATSUNAGA,   *
          *          K.A.NGUYEN, S.J.SU, T.L.WINDUS,           *
          *       TOGETHER WITH M.DUPUIS, J.A.MONTGOMERY       *
          *         J.COMPUT.CHEM.  14, 1347-1363(1993)        *
          **************** 64 BIT LINUX VERSION ****************

  SINCE 1993, STUDENTS AND POSTDOCS WORKING AT IOWA STATE UNIVERSITY
  AND ALSO IN THEIR VARIOUS JOBS AFTER LEAVING ISU HAVE MADE IMPORTANT
  CONTRIBUTIONS TO THE CODE:
     IVANA ADAMOVIC, CHRISTINE AIKENS, YURI ALEXEEV, POOJA ARORA,
     ANDREY ASADCHEV, ROB BELL, PRADIPTA BANDYOPADHYAY, JONATHAN BENTZ,
     COLLEEN BERTONI, BRETT BODE, KURT BRORSEN, CALEB CARLIN, GALINA CHABAN,
     WEI CHEN, CHEOL HO CHOI, PAUL DAY, ALBERT DEFUSCO, NUWAN DESILVA,
     TIM DUDLEY, DMITRI FEDOROV, ALEX FINDLATER, GRAHAM FLETCHER, 
     MARK FREITAG, KURT GLAESEMANN, EMILIE B GUIDEZ, ANASTASIA GUNINA, 
     DAN KEMP, SAROM SOK LEANG, GRANT MERRILL,
     NORIYUKI MINEZAWA, JONATHAN MULLIN,
     TAKESHI NAGATA, SEAN NEDD, HEATHER NETZLOFF, BOSILJKA NJEGIC, RYAN OLSON,
     MIKE PAK, BUU PHAM, DAVID POOLE,
     SPENCER PRUITT, LUKE ROSKOP, TOSAPORN SATTASATHUCHANA,
     JIM SHOEMAKER, LYUDMILA SLIPCHENKO,
     TONY SMITH, JIE SONG, TETSUYA TAKETSUGU, SIMON WEBB,
     JORGE LUIS GALVEZ VALLEJO, PENG XU, SOOHAENG YOO,
     FEDERICO ZAHARIEV

  ADDITIONAL CODE HAS BEEN PROVIDED BY COLLABORATORS IN OTHER GROUPS:
     IOWA STATE UNIVERSITY:
          JOE IVANIC, AARON WEST, LAIMUTIS BYTAUTAS, KLAUS RUEDENBERG
     UNIVERSITY OF TOKYO: KIMIHIKO HIRAO, TAKAHITO NAKAJIMA,
          TAKAO TSUNEDA, MUNEAKI KAMIYA, SUSUMU YANAGISAWA,
          KIYOSHI YAGI, MAHITO CHIBA, SEIKEN TOKURA, NAOAKI KAWAKAMI
     UNIVERSITY OF AARHUS: FRANK JENSEN
     UNIVERSITY OF IOWA: VISVALDAS KAIRYS, HUI LI
     NATIONAL INST. OF STANDARDS AND TECHNOLOGY: WALT STEVENS, DAVID GARMER
     UNIVERSITY OF PISA: BENEDETTA MENNUCCI, JACOPO TOMASI
     UNIVERSITY OF MEMPHIS: HENRY KURTZ, PRAKASHAN KORAMBATH
     UNIVERSITY OF ALBERTA: TOBY ZENG, MARIUSZ KLOBUKOWSKI
     UNIVERSITY OF NEW ENGLAND: MARK SPACKMAN
     MIE UNIVERSITY: HIROAKI UMEDA
     NAT. INST. OF ADVANCED INDUSTRIAL SCIENCE AND TECHNOLOGY: KAZUO KITAURA
     MICHIGAN STATE UNIVERSITY:
          KAROL KOWALSKI, MARTA WLOCH, JEFFREY GOUR, JESSE LUTZ,
          WEI LI, JUN SHEN, J. EMILIANO DEUSTUA, PIOTR PIECUCH
     UNIVERSITY OF MINNESOTA:
          ANDREW SAND, PRACHI SHARMA, YINAN SHU
     UNIVERSITY OF SILESIA: MONIKA MUSIAL, STANISLAW KUCHARSKI
     FACULTES UNIVERSITAIRES NOTRE-DAME DE LA PAIX:
          OLIVIER QUINET, BENOIT CHAMPAGNE
     UNIVERSITY OF CALIFORNIA - SANTA BARBARA: BERNARD KIRTMAN
     INSTITUTE FOR MOLECULAR SCIENCE:
          KAZUYA ISHIMURA, MICHIO KATOUDA, AND SHIGERU NAGASE
     UNIVERSITY OF NOTRE DAME: ANNA POMOGAEVA, DAN CHIPMAN
     KYUSHU UNIVERSITY:
          HARUYUKI NAKANO,
          FENG LONG GU, JACEK KORCHOWIEC, MARCIN MAKOWSKI, AND YURIKO AOKI,
          HIROTOSHI MORI AND EISAKU MIYOSHI
     PENNSYLVANIA STATE UNIVERSITY:
          TZVETELIN IORDANOV, CHET SWALINA, JONATHAN SKONE,
          SHARON HAMMES-SCHIFFER
     WASEDA UNIVERSITY:
          MASATO KOBAYASHI, TOMOKO AKAMA, TSUGUKI TOUMA,
          TAKESHI YOSHIKAWA, YASUHIRO IKABATA, JUNJI SEINO,
          YUYA NAKAJIMA, HIROMI NAKAI
     NANJING UNIVERSITY: SHUHUA LI
     UNIVERSITY OF NEBRASKA:
          PEIFENG SU, DEJUN SI, NANDUN THELLAMUREGE, YALI WANG, HUI LI
     UNIVERSITY OF ZURICH: ROBERTO PEVERATI, KIM BALDRIDGE
     N. COPERNICUS UNIVERSITY AND JACKSON STATE UNIVERSITY:
          MARIA BARYSZ
     UNIVERSITY OF COPENHAGEN: Jimmy Kromann, CASPER STEINMANN
     TOKYO INSTITUTE OF TECHNOLOGY: HIROYA NAKATA
     NAGOYA UNIVERSITY: YOSHIO NISHIMOTO, STEPHAN IRLE
     MOSCOW STATE UNIVERSITY: VLADIMIR MIRONOV
     A.N.NESMEYANOV INSTITUTE OF ORGANOELEMENT COMPOUNDS OF RUSSIAN ACADEMY OF SCIENCES:
          IGOR S. GERASIMOV
     JOHANNES KEPLER UNIVERSITY LINZ:
          CHRISTIAN FRIEDL


 PARALLEL VERSION RUNNING ON        6 PROCESSORS IN        1 NODES.

 EXECUTION OF GAMESS BEGUN Mon May 25 19:13:26 2020

            ECHO OF THE FIRST FEW INPUT CARDS -
 INPUT CARD> $BASIS GBASIS=N21 NGAUSS=3 $END                                                
 INPUT CARD> $CONTRL SCFTYP=RHF MAXIT=60 MULT=1 ICHARG=0 $END                               
 INPUT CARD> $SYSTEM MEMDDI=1000 MWORDS=30 $END                                             
 INPUT CARD> $SCF DIRSCF=.TRUE. $END                                                        
 INPUT CARD> $DATA                                                                          
 INPUT CARD>                                                                                
 INPUT CARD>C1                                                                              
 INPUT CARD>C 6.0000000 2.80291 1.50345 -0.20909                                            
 INPUT CARD>C 6.0000000 2.90121 -0.94437 0.36329                                            
 INPUT CARD>C 6.0000000 -2.87491 0.08920 -1.21986                                           
 INPUT CARD>O 8.0000000 0.17639 -1.87954 -0.83157                                           
 INPUT CARD>C 6.0000000 -0.20859 1.44915 -0.08670                                           
 INPUT CARD>C 6.0000000 -1.56275 -1.09036 0.62138                                           
 INPUT CARD>C 6.0000000 -1.60415 1.43055 0.55838                                            
 INPUT CARD>C 6.0000000 0.64188 0.20989 0.30999                                             
 INPUT CARD>C 6.0000000 -2.40892 0.15370 0.24309                                            
 INPUT CARD>C 6.0000000 -0.19129 -1.03157 -0.03760                                          
 INPUT CARD>C 6.0000000 2.06093 0.16049 -0.30039                                            
 INPUT CARD>H 1.0000000 3.82108 1.39525 -0.59798                                            
 INPUT CARD>H 1.0000000 2.31652 2.29553 -0.78577                                            
 INPUT CARD>H 1.0000000 2.88531 1.84484 0.83107                                             
 INPUT CARD>H 1.0000000 1.94504 -0.10090 -1.36036                                           
 INPUT CARD>H 1.0000000 3.06470 -0.72428 1.42635                                            
 INPUT CARD>H 1.0000000 2.41672 -1.91954 0.28169                                            
 INPUT CARD>H 1.0000000 3.88567 -1.01907 -0.11150                                           
 INPUT CARD>H 1.0000000 0.73098 0.23179 1.40955                                             
 INPUT CARD>H 1.0000000 -0.29459 1.49055 -1.18086                                           
 INPUT CARD>H 1.0000000 0.31269 2.36232 0.21589                                             
 INPUT CARD>H 1.0000000 -1.42455 -1.11186 1.71124                                           
 INPUT CARD>H 1.0000000 -2.05523 -2.01963 0.32049                                           
 INPUT CARD>H 1.0000000 -1.48775 1.51535 1.64805                                            
 INPUT CARD>H 1.0000000 -2.17043 2.31402 0.23839                                            
 INPUT CARD>H 1.0000000 -3.30519 0.15230 0.87717                                            
 INPUT CARD>H 1.0000000 -3.50149 -0.79277 -1.38895                                          
 INPUT CARD>H 1.0000000 -3.46399 0.97527 -1.48095                                           
 INPUT CARD>H 1.0000000 -2.03513 0.02660 -1.91984                                           
 INPUT CARD> $END                                                                           
   30000000 WORDS OF MEMORY AVAILABLE

     BASIS OPTIONS
     -------------
     GBASIS=N21          IGAUSS=       3      POLAR=NONE    
     NDFUNC=       0     NFFUNC=       0     DIFFSP=       F
     NPFUNC=       0      DIFFS=       F     BASNAM=        


     RUN TITLE
     ---------
                                                                                 

 THE POINT GROUP OF THE MOLECULE IS C1      
 THE ORDER OF THE PRINCIPAL AXIS IS     0

 ATOM      ATOMIC                      COORDINATES (BOHR)
           CHARGE         X                   Y                   Z
 C           6.0     5.2967318682        2.8411085362       -0.3951228068
 C           6.0     5.4824919328       -1.7846005310        0.6865185541
 C           6.0    -5.4327921394        0.1685635581       -2.3052011434
 O           8.0     0.3333287670       -3.5518155830       -1.5714394396
 C           6.0    -0.3941779438        2.7384964151       -0.1638392431
 C           6.0    -2.9531692873       -2.0604816280        1.1742379343
 C           6.0    -3.0314039432        2.7033475117        1.0551851970
 C           6.0     1.2129773170        0.3966345876        0.5857961589
 C           6.0    -4.5521987263        0.2904508843        0.4593734904
 C           6.0    -0.3614856842       -1.9493846372       -0.0710536971
 C           6.0     3.8945929799        0.3032821238       -0.5676547895
 H           1.0     7.2207941772        2.6366401844       -1.1300183461
 H           1.0     4.3775880451        4.3379226966       -1.4848899894
 H           1.0     5.4524452896        3.4862420912        1.5704945766
 H           1.0     3.6755926352       -0.1906733522       -2.5707076447
 H           1.0     5.7914432346       -1.3686907384        2.6954106626
 H           1.0     4.5669385890       -3.6274046225        0.5323169135
 H           1.0     7.3428515787       -1.9257630623       -0.2107044476
 H           1.0     1.3813519025        0.4380195867        2.6636632660
 H           1.0    -0.5566943787        2.8167310710       -2.2315018299
 H           1.0     0.5908984191        4.4641374953        0.4079729435
 H           1.0    -2.6920091558       -2.1011107367        3.2337746992
 H           1.0    -3.8838215417       -3.8165472966        0.6056382818
 H           1.0    -2.8114398382        2.8635962755        3.1143629141
 H           1.0    -4.1015179755        4.3728637301        0.4504917782
 H           1.0    -6.2459034374        0.2878052679        1.6576109446
 H           1.0    -6.6168566487       -1.4981180713       -2.6247349106
 H           1.0    -6.5459919242        1.8429930640       -2.7985897015
 H           1.0    -3.8458380494        0.0502667113       -3.6279715403

          INTERNUCLEAR DISTANCES (ANGS.)
          ------------------------------

                1 C          2 C          3 C          4 O          5 C     

   1 C       0.0000000    2.5157712 *  5.9379625    4.3278990    3.0144751  
   2 C       2.5157712 *  0.0000000    6.0776799    3.1187942    3.9499728  
   3 C       5.9379625    6.0776799    0.0000000    3.6520047    3.2004340  
   4 O       4.3278990    3.1187942    3.6520047    0.0000000    3.4326692  
   5 C       3.0144751    3.9499728    3.2004340    3.4326692    0.0000000  
   6 C       5.1455338    4.4737973    2.5501550 *  2.3996826 *  2.9638215 *
   7 C       4.4739806    5.0967219    2.5644080 *  4.0073657    1.5375506 *
   8 C       2.5715350 *  2.5376621 *  3.8370326    2.4260169 *  1.5544863 *
   9 C       5.4027274    5.4238074    1.5367269 *  3.4601715    2.5745688 *
  10 C       3.9269541    3.1195950    3.1393758    1.2184540 *  2.4812662 *
  11 C       1.5370138 *  1.5385894 *  5.0212572    2.8276078 *  2.6185930 *
  12 H       1.0952684 *  2.6914722 *  6.8504586    4.9053623    4.0623334  
  13 H       1.0938582 *  3.4869977    5.6574969    4.6918508    2.7534049 *
  14 H       1.0978478 *  2.8282085 *  6.3615030    4.8962869    3.2513212  
  15 H       2.1529753 *  2.1439851 *  4.8257431    2.5634551 *  2.9432953 *
  16 H       2.7759645 *  1.0978457 *  6.5531019    3.8438474    4.2104092  
  17 H       3.4794925    1.0919458 *  5.8558549    2.5020045 *  4.2867279  
  18 H       2.7468164 *  1.0955214 *  6.9398967    3.8752635    4.7807625  
  19 H       2.9206178 *  2.6810279 *  4.4650388    3.1285625    2.1455818 *
  20 H       3.2463841    4.3042273    2.9365548 *  3.4207210    1.0983151 *
  21 H       2.6682319 *  4.2019473    4.1700415    4.3713987    1.0941540 *
  22 H       5.3290648    4.5340072    3.4838824    3.1013262    3.3570700  
  23 H       6.0244562    5.0719142    2.7371002 *  2.5153519 *  3.9507363  
  24 H       4.6753475    5.1926680    3.4904190    4.5214108    2.1563836 *
  25 H       5.0587916    6.0294475    2.7518374 *  4.9232432    2.1685248 *
  26 H       6.3493663    6.3234610    2.1416483 *  4.3783062    3.4928208  
  27 H       6.8124999    6.6398716    1.0950183 *  3.8753765    4.1910918  
  28 H       6.4164350    6.8994210    1.0955835 *  4.6716165    3.5729714  
  29 H       5.3398860    5.5247550    1.0950439 *  3.1158501    2.9530153 *

                6 C          7 C          8 C          9 C         10 C     

   1 C       5.1455338    4.4739806    2.5715350 *  5.4027274    3.9269541  
   2 C       4.4737973    5.0967219    2.5376621 *  5.4238074    3.1195950  
   3 C       2.5501550 *  2.5644080 *  3.8370326    1.5367269 *  3.1393758  
   4 O       2.3996826 *  4.0073657    2.4260169 *  3.4601715    1.2184540 *
   5 C       2.9638215 *  1.5375506 *  1.5544863 *  2.5745688 *  2.4812662 *
   6 C       0.0000000    2.5220369 *  2.5783730 *  1.5513840 *  1.5226994 *
   7 C       2.5220369 *  0.0000000    2.5683378 *  1.5418847 *  2.9005862 *
   8 C       2.5783730 *  2.5683378 *  0.0000000    3.0520507    1.5349964 *
   9 C       1.5513840 *  1.5418847 *  3.0520507    0.0000000    2.5301254 *
  10 C       1.5226994 *  2.9005862 *  1.5349964 *  2.5301254 *  0.0000000  
  11 C       3.9427582    3.9728264    1.5455442 *  4.5027742    2.5617495 *
  12 H       6.0539839    5.5472097    3.5123782    6.4079439    4.7225622  
  13 H       5.3378889    4.2339796    2.8905023 *  5.2892128    4.2330206  
  14 H       5.3333485    4.5167740    2.8244582 *  5.5887875    4.3004406  
  15 H       4.1486040    4.3155129    2.1412346 *  4.6468097    2.6795049 *
  16 H       4.7111872    5.2148657    2.8264801 *  5.6684627    3.5831617  
  17 H       4.0791066    5.2409022    2.7722428 *  5.2522962    2.7734731 *
  18 H       5.4979520    6.0487603    3.4943054    6.4127207    4.0776489  
  19 H       2.7623341 *  2.7594108 *  1.1033814 *  3.3504774    2.1309396 *
  20 H       3.3937288    2.1779585 *  2.1770852 *  2.8784011 *  2.7710654 *
  21 H       3.9500249    2.1586501 *  2.1794898 *  3.5051253    3.4404567  
  22 H       1.0987977 *  2.7973543 *  2.8250058 *  2.1739574 *  2.1414523 *
  23 H       1.0938986 *  3.4876650    3.4993245    2.2032818 *  2.1398045 *
  24 H       2.8016782 *  1.0991454 *  2.8337174 *  2.1625350 *  3.3179852  
  25 H       3.4793332    1.0970806 *  3.5130581    2.1734493 *  3.8969396  
  26 H       2.1553955 *  2.1515314 *  3.9880285    1.0978886 *  3.4546672  
  27 H       2.8086828 *  3.5121425    4.5890347    2.1801535 *  3.5833778  
  28 H       3.5073255    2.7973472 *  4.5443857    2.1818487 *  4.1013694  
  29 H       2.8157666 *  2.8806933 *  3.4888565    2.1986677 *  2.8394184 *

               11 C         12 H         13 H         14 H         15 H     

   1 C       1.5370138 *  1.0952684 *  1.0938582 *  1.0978478 *  2.1529753 *
   2 C       1.5385894 *  2.6914722 *  3.4869977    2.8282085 *  2.1439851 *
   3 C       5.0212572    6.8504586    5.6574969    6.3615030    4.8257431  
   4 O       2.8276078 *  4.9053623    4.6918508    4.8962869    2.5634551 *
   5 C       2.6185930 *  4.0623334    2.7534049 *  3.2513212    2.9432953 *
   6 C       3.9427582    6.0539839    5.3378889    5.3333485    4.1486040  
   7 C       3.9728264    5.5472097    4.2339796    4.5167740    4.3155129  
   8 C       1.5455442 *  3.5123782    2.8905023 *  2.8244582 *  2.1412346 *
   9 C       4.5027742    6.4079439    5.2892128    5.5887875    4.6468097  
  10 C       2.5617495 *  4.7225622    4.2330206    4.3004406    2.6795049 *
  11 C       0.0000000    2.1705576 *  2.2043856 *  2.1901687 *  1.0978577 *
  12 H       2.1705576 *  0.0000000    1.7633689 *  1.7663467 *  2.5177796 *
  13 H       2.2043856 *  1.7633689 *  0.0000000    1.7722345 *  2.4921934 *
  14 H       2.1901687 *  1.7663467 *  1.7722345 *  0.0000000    3.0777227  
  15 H       1.0978577 *  2.5177796 *  2.4921934 *  3.0777227    0.0000000  
  16 H       2.1844915 *  3.0269506    3.8173945    2.6432776 *  3.0672453  
  17 H       2.1890474 *  3.7059249    4.3492903    3.8330082    2.4952478 *
  18 H       2.1809900 *  2.4636915 *  3.7287323    3.1766553    2.4836933 *
  19 H       2.1674283 *  3.8642637    3.4047599    2.7527635 *  3.0425361  
  20 H       2.8447779 *  4.1578325    2.7607942 *  3.7795698    2.7533390 *
  21 H       2.8584862 *  3.7291298    2.2412314 *  2.6952932 *  3.3491168  
  22 H       4.2206754    6.2557759    5.6427804    5.3001573    4.6702145  
  23 H       4.6990625    6.8582805    6.2415235    6.2931515    4.7443589  
  24 H       4.2690975    5.7656527    4.5830809    4.4609050    4.8421939  
  25 H       4.7783243    6.1189742    4.6023870    5.1119376    5.0323884  
  26 H       5.4938109    7.3827310    6.2419891    6.4178740    5.7127547  
  27 H       5.7475372    7.6832998    6.6144284    7.2578709    5.4903725  
  28 H       5.7080933    7.3503921    5.9699797    6.8128701    5.5163656  
  29 H       4.4066146    6.1575736    5.0369649    5.9231944    4.0213216  

               16 H         17 H         18 H         19 H         20 H     

   1 C       2.7759645 *  3.4794925    2.7468164 *  2.9206178 *  3.2463841  
   2 C       1.0978457 *  1.0919458 *  1.0955214 *  2.6810279 *  4.3042273  
   3 C       6.5531019    5.8558549    6.9398967    4.4650388    2.9365548 *
   4 O       3.8438474    2.5020045 *  3.8752635    3.1285625    3.4207210  
   5 C       4.2104092    4.2867279    4.7807625    2.1455818 *  1.0983151 *
   6 C       4.7111872    4.0791066    5.4979520    2.7623341 *  3.3937288  
   7 C       5.2148657    5.2409022    6.0487603    2.7594108 *  2.1779585 *
   8 C       2.8264801 *  2.7722428 *  3.4943054    1.1033814 *  2.1770852 *
   9 C       5.6684627    5.2522962    6.4127207    3.3504774    2.8784011 *
  10 C       3.5831617    2.7734731 *  4.0776489    2.1309396 *  2.7710654 *
  11 C       2.1844915 *  2.1890474 *  2.1809900 *  2.1674283 *  2.8447779 *
  12 H       3.0269506    3.7059249    2.4636915 *  3.8642637    4.1578325  
  13 H       3.8173945    4.3492903    3.7287323    3.4047599    2.7607942 *
  14 H       2.6432776 *  3.8330082    3.1766553    2.7527635 *  3.7795698  
  15 H       3.0672453    2.4952478 *  2.4836933 *  3.0425361    2.7533390 *
  16 H       0.0000000    1.7772932 *  1.7680146 *  2.5220232 *  4.7945641  
  17 H       1.7772932 *  0.0000000    1.7672744 *  2.9566887 *  4.5955379  
  18 H       1.7680146 *  1.7672744 *  0.0000000    3.7189129    4.9916227  
  19 H       2.5220232 *  2.9566887 *  3.7189129    0.0000000    3.0572037  
  20 H       4.7945641    4.5955379    4.9916227    3.0572037    0.0000000  
  21 H       4.3088133    4.7713307    4.9302301    2.4776902 *  1.7549024 *
  22 H       4.5149470    4.1774772    5.6151071    2.5578745 *  4.0513689  
  23 H       5.3957892    4.4732382    6.0400355    3.7440499    4.2041966  
  24 H       5.0783752    5.3768295    6.1962040    2.5743293 *  3.0703384  
  25 H       6.1683954    6.2423433    6.9215792    3.7583876    2.4922177 *
  26 H       6.4533317    6.1145214    7.3524175    4.0719056    3.8845995  
  27 H       7.1446103    6.2518684    7.5002149    5.1764010    3.9422150  
  28 H       7.3460640    6.7874572    7.7375893    5.1483518    3.2250060  
  29 H       6.1456549    5.3341507    6.2784864    4.3333942    2.3913846 *

               21 H         22 H         23 H         24 H         25 H     

   1 C       2.6682319 *  5.3290648    6.0244562    4.6753475    5.0587916  
   2 C       4.2019473    4.5340072    5.0719142    5.1926680    6.0294475  
   3 C       4.1700415    3.4838824    2.7371002 *  3.4904190    2.7518374 *
   4 O       4.3713987    3.1013262    2.5153519 *  4.5214108    4.9232432  
   5 C       1.0941540 *  3.3570700    3.9507363    2.1563836 *  2.1685248 *
   6 C       3.9500249    1.0987977 *  1.0938986 *  2.8016782 *  3.4793332  
   7 C       2.1586501 *  2.7973543 *  3.4876650    1.0991454 *  1.0970806 *
   8 C       2.1794898 *  2.8250058 *  3.4993245    2.8337174 *  3.5130581  
   9 C       3.5051253    2.1739574 *  2.2032818 *  2.1625350 *  2.1734493 *
  10 C       3.4404567    2.1414523 *  2.1398045 *  3.3179852    3.8969396  
  11 C       2.8584862 *  4.2206754    4.6990625    4.2690975    4.7783243  
  12 H       3.7291298    6.2557759    6.8582805    5.7656527    6.1189742  
  13 H       2.2412314 *  5.6427804    6.2415235    4.5830809    4.6023870  
  14 H       2.6952932 *  5.3001573    6.2931515    4.4609050    5.1119376  
  15 H       3.3491168    4.6702145    4.7443589    4.8421939    5.0323884  
  16 H       4.3088133    4.5149470    5.3957892    5.0783752    6.1683954  
  17 H       4.7713307    4.1774772    4.4732382    5.3768295    6.2423433  
  18 H       4.9302301    5.6151071    6.0400355    6.1962040    6.9215792  
  19 H       2.4776902 *  2.5578745 *  3.7440499    2.5743293 *  3.7583876  
  20 H       1.7549024 *  4.0513689    4.2041966    3.0703384    2.4922177 *
  21 H       0.0000000    4.1622111    4.9819145    2.4515352 *  2.4836916 *
  22 H       4.1622111    0.0000000    1.7765104 *  2.6287297 *  3.8029302  
  23 H       4.9819145    1.7765104 *  0.0000000    3.8184464    4.3359582  
  24 H       2.4515352 *  2.6287297 *  3.8184464    0.0000000    1.7581431 *
  25 H       2.4836916 *  3.8029302    4.3359582    1.7581431 *  0.0000000  
  26 H       4.2907500    2.4146594 *  2.5670163 *  2.3990101 *  2.5236389 *
  27 H       5.2036596    3.7452205    2.5532408 *  4.3134598    3.7512798  
  28 H       4.3665187    4.3249860    3.7681848    3.7400337    2.5341032 *
  29 H       3.9407092    3.8540422    3.0342280    3.9045922    3.1477854  

               26 H         27 H         28 H         29 H     

   1 C       6.3493663    6.8124999    6.4164350    5.3398860  
   2 C       6.3234610    6.6398716    6.8994210    5.5247550  
   3 C       2.1416483 *  1.0950183 *  1.0955835 *  1.0950439 *
   4 O       4.3783062    3.8753765    4.6716165    3.1158501  
   5 C       3.4928208    4.1910918    3.5729714    2.9530153 *
   6 C       2.1553955 *  2.8086828 *  3.5073255    2.8157666 *
   7 C       2.1515314 *  3.5121425    2.7973472 *  2.8806933 *
   8 C       3.9880285    4.5890347    4.5443857    3.4888565  
   9 C       1.0978886 *  2.1801535 *  2.1818487 *  2.1986677 *
  10 C       3.4546672    3.5833778    4.1013694    2.8394184 *
  11 C       5.4938109    5.7475372    5.7080933    4.4066146  
  12 H       7.3827310    7.6832998    7.3503921    6.1575736  
  13 H       6.2419891    6.6144284    5.9699797    5.0369649  
  14 H       6.4178740    7.2578709    6.8128701    5.9231944  
  15 H       5.7127547    5.4903725    5.5163656    4.0213216  
  16 H       6.4533317    7.1446103    7.3460640    6.1456549  
  17 H       6.1145214    6.2518684    6.7874572    5.3341507  
  18 H       7.3524175    7.5002149    7.7375893    6.2784864  
  19 H       4.0719056    5.1764010    5.1483518    4.3333942  
  20 H       3.8845995    3.9422150    3.2250060    2.3913846 *
  21 H       4.2907500    5.2036596    4.3665187    3.9407092  
  22 H       2.4146594 *  3.7452205    4.3249860    3.8540422  
  23 H       2.5670163 *  2.5532408 *  3.7681848    3.0342280  
  24 H       2.3990101 *  4.3134598    3.7400337    3.9045922  
  25 H       2.5236389 *  3.7512798    2.5341032 *  3.1477854  
  26 H       0.0000000    2.4631262 *  2.5026440 *  3.0744297  
  27 H       2.4631262 *  0.0000000    1.7708291 *  1.7616535 *
  28 H       2.5026440 *  1.7708291 *  0.0000000    1.7703785 *
  29 H       3.0744297    1.7616535 *  1.7703785 *  0.0000000  

  * ... LESS THAN  3.000


     ATOMIC BASIS SET
     ----------------
 THE CONTRACTED PRIMITIVE FUNCTIONS HAVE BEEN UNNORMALIZED
 THE CONTRACTED BASIS FUNCTIONS ARE NOW NORMALIZED TO UNITY

  SHELL TYPE  PRIMITIVE        EXPONENT          CONTRACTION COEFFICIENT(S)

 C         

      1   S       1           172.2560000    0.061766907377
      1   S       2            25.9109000    0.358794042852
      1   S       3             5.5333500    0.700713083689

      2   L       4             3.6649800   -0.395895162119    0.236459946619
      2   L       5             0.7705450    1.215834355681    0.860618805716

      3   L       6             0.1958570    1.000000000000    1.000000000000

 C         

      4   S       7           172.2560000    0.061766907377
      4   S       8            25.9109000    0.358794042852
      4   S       9             5.5333500    0.700713083689

      5   L      10             3.6649800   -0.395895162119    0.236459946619
      5   L      11             0.7705450    1.215834355681    0.860618805716

      6   L      12             0.1958570    1.000000000000    1.000000000000

 C         

      7   S      13           172.2560000    0.061766907377
      7   S      14            25.9109000    0.358794042852
      7   S      15             5.5333500    0.700713083689

      8   L      16             3.6649800   -0.395895162119    0.236459946619
      8   L      17             0.7705450    1.215834355681    0.860618805716

      9   L      18             0.1958570    1.000000000000    1.000000000000

 O         

     10   S      19           322.0370000    0.059239393389
     10   S      20            48.4308000    0.351499960776
     10   S      21            10.4206000    0.707657921031

     11   L      22             7.4029400   -0.404453583190    0.244586106967
     11   L      23             1.5762000    1.221561761397    0.853955373466

     12   L      24             0.3736840    1.000000000000    1.000000000000

 C         

     13   S      25           172.2560000    0.061766907377
     13   S      26            25.9109000    0.358794042852
     13   S      27             5.5333500    0.700713083689

     14   L      28             3.6649800   -0.395895162119    0.236459946619
     14   L      29             0.7705450    1.215834355681    0.860618805716

     15   L      30             0.1958570    1.000000000000    1.000000000000

 C         

     16   S      31           172.2560000    0.061766907377
     16   S      32            25.9109000    0.358794042852
     16   S      33             5.5333500    0.700713083689

     17   L      34             3.6649800   -0.395895162119    0.236459946619
     17   L      35             0.7705450    1.215834355681    0.860618805716

     18   L      36             0.1958570    1.000000000000    1.000000000000

 C         

     19   S      37           172.2560000    0.061766907377
     19   S      38            25.9109000    0.358794042852
     19   S      39             5.5333500    0.700713083689

     20   L      40             3.6649800   -0.395895162119    0.236459946619
     20   L      41             0.7705450    1.215834355681    0.860618805716

     21   L      42             0.1958570    1.000000000000    1.000000000000

 C         

     22   S      43           172.2560000    0.061766907377
     22   S      44            25.9109000    0.358794042852
     22   S      45             5.5333500    0.700713083689

     23   L      46             3.6649800   -0.395895162119    0.236459946619
     23   L      47             0.7705450    1.215834355681    0.860618805716

     24   L      48             0.1958570    1.000000000000    1.000000000000

 C         

     25   S      49           172.2560000    0.061766907377
     25   S      50            25.9109000    0.358794042852
     25   S      51             5.5333500    0.700713083689

     26   L      52             3.6649800   -0.395895162119    0.236459946619
     26   L      53             0.7705450    1.215834355681    0.860618805716

     27   L      54             0.1958570    1.000000000000    1.000000000000

 C         

     28   S      55           172.2560000    0.061766907377
     28   S      56            25.9109000    0.358794042852
     28   S      57             5.5333500    0.700713083689

     29   L      58             3.6649800   -0.395895162119    0.236459946619
     29   L      59             0.7705450    1.215834355681    0.860618805716

     30   L      60             0.1958570    1.000000000000    1.000000000000

 C         

     31   S      61           172.2560000    0.061766907377
     31   S      62            25.9109000    0.358794042852
     31   S      63             5.5333500    0.700713083689

     32   L      64             3.6649800   -0.395895162119    0.236459946619
     32   L      65             0.7705450    1.215834355681    0.860618805716

     33   L      66             0.1958570    1.000000000000    1.000000000000

 H         

     34   S      67             5.4471780    0.156284978695
     34   S      68             0.8245472    0.904690876670

     35   S      69             0.1831916    1.000000000000

 H         

     36   S      70             5.4471780    0.156284978695
     36   S      71             0.8245472    0.904690876670

     37   S      72             0.1831916    1.000000000000

 H         

     38   S      73             5.4471780    0.156284978695
     38   S      74             0.8245472    0.904690876670

     39   S      75             0.1831916    1.000000000000

 H         

     40   S      76             5.4471780    0.156284978695
     40   S      77             0.8245472    0.904690876670

     41   S      78             0.1831916    1.000000000000

 H         

     42   S      79             5.4471780    0.156284978695
     42   S      80             0.8245472    0.904690876670

     43   S      81             0.1831916    1.000000000000

 H         

     44   S      82             5.4471780    0.156284978695
     44   S      83             0.8245472    0.904690876670

     45   S      84             0.1831916    1.000000000000

 H         

     46   S      85             5.4471780    0.156284978695
     46   S      86             0.8245472    0.904690876670

     47   S      87             0.1831916    1.000000000000

 H         

     48   S      88             5.4471780    0.156284978695
     48   S      89             0.8245472    0.904690876670

     49   S      90             0.1831916    1.000000000000

 H         

     50   S      91             5.4471780    0.156284978695
     50   S      92             0.8245472    0.904690876670

     51   S      93             0.1831916    1.000000000000

 H         

     52   S      94             5.4471780    0.156284978695
     52   S      95             0.8245472    0.904690876670

     53   S      96             0.1831916    1.000000000000

 H         

     54   S      97             5.4471780    0.156284978695
     54   S      98             0.8245472    0.904690876670

     55   S      99             0.1831916    1.000000000000

 H         

     56   S     100             5.4471780    0.156284978695
     56   S     101             0.8245472    0.904690876670

     57   S     102             0.1831916    1.000000000000

 H         

     58   S     103             5.4471780    0.156284978695
     58   S     104             0.8245472    0.904690876670

     59   S     105             0.1831916    1.000000000000

 H         

     60   S     106             5.4471780    0.156284978695
     60   S     107             0.8245472    0.904690876670

     61   S     108             0.1831916    1.000000000000

 H         

     62   S     109             5.4471780    0.156284978695
     62   S     110             0.8245472    0.904690876670

     63   S     111             0.1831916    1.000000000000

 H         

     64   S     112             5.4471780    0.156284978695
     64   S     113             0.8245472    0.904690876670

     65   S     114             0.1831916    1.000000000000

 H         

     66   S     115             5.4471780    0.156284978695
     66   S     116             0.8245472    0.904690876670

     67   S     117             0.1831916    1.000000000000

 H         

     68   S     118             5.4471780    0.156284978695
     68   S     119             0.8245472    0.904690876670

     69   S     120             0.1831916    1.000000000000

 TOTAL NUMBER OF BASIS SET SHELLS             =   69
 NUMBER OF CARTESIAN GAUSSIAN BASIS FUNCTIONS =  135
 NUMBER OF ELECTRONS                          =   86
 CHARGE OF MOLECULE                           =    0
 SPIN MULTIPLICITY                            =    1
 NUMBER OF OCCUPIED ORBITALS (ALPHA)          =   43
 NUMBER OF OCCUPIED ORBITALS (BETA )          =   43
 TOTAL NUMBER OF ATOMS                        =   29
 THE NUCLEAR REPULSION ENERGY IS      666.6752834854

     $CONTRL OPTIONS
     ---------------
 SCFTYP=RHF          RUNTYP=ENERGY       EXETYP=RUN     
 MPLEVL=       0     CITYP =NONE         CCTYP =NONE         VBTYP =NONE    
 DFTTYP=NONE         TDDFT =NONE    
 MULT  =       1     ICHARG=       0     NZVAR =       0     COORD =UNIQUE  
 PP    =NONE         RELWFN=NONE         LOCAL =NONE         NUMGRD=       F
 ISPHER=      -1     NOSYM =       0     MAXIT =      60     UNITS =ANGS    
 PLTORB=       F     MOLPLT=       F     AIMPAC=       F     FRIEND=        
 NPRINT=       7     IREST =       0     GEOM  =INPUT   
 NORMF =       0     NORMP =       0     ITOL  =      20     ICUT  =       9
 INTTYP=BEST         GRDTYP=BEST         QMTTOL= 1.0E-06

     $SYSTEM OPTIONS
     ---------------
  REPLICATED MEMORY=    30000000 WORDS (ON EVERY NODE).
 DISTRIBUTED MEMDDI=        1000 MILLION WORDS IN AGGREGATE,
 MEMDDI DISTRIBUTED OVER   6 PROCESSORS IS   166666666 WORDS/PROCESSOR.
 TOTAL MEMORY REQUESTED ON EACH PROCESSOR=   196666666 WORDS.
 TIMLIM=      525600.00 MINUTES, OR     365.0 DAYS.
 PARALL= T  BALTYP=  DLB     KDIAG=    0  COREFL= F
 MXSEQ2=     300 MXSEQ3=     150  mem10=         0

          ----------------
          PROPERTIES INPUT
          ----------------

     MOMENTS            FIELD           POTENTIAL          DENSITY
 IEMOM =       1   IEFLD =       0   IEPOT =       0   IEDEN =       0
 WHERE =COMASS     WHERE =NUCLEI     WHERE =NUCLEI     WHERE =NUCLEI  
 OUTPUT=BOTH       OUTPUT=BOTH       OUTPUT=BOTH       OUTPUT=BOTH    
 IEMINT=       0   IEFINT=       0                     IEDINT=       0
                                                       MORB  =       0
          EXTRAPOLATION IN EFFECT
          SOSCF IN EFFECT
 ORBITAL PRINTING OPTION: NPREO=     1   135     2     1

     -------------------------------
     INTEGRAL TRANSFORMATION OPTIONS
     -------------------------------
     NWORD  =            0
     CUTOFF = 1.0E-09     MPTRAN =       0
     DIRTRF =       T     AOINTS =DUP     

          ----------------------
          INTEGRAL INPUT OPTIONS
          ----------------------
 NOPK  =       1 NORDER=       0 SCHWRZ=       T

     ------------------------------------------
     THE POINT GROUP IS C1 , NAXIS= 0, ORDER= 1
     ------------------------------------------

     DIMENSIONS OF THE SYMMETRY SUBSPACES ARE
 A   =  135

 ..... DONE SETTING UP THE RUN .....
 CPU     0: STEP CPU TIME=     0.02 TOTAL CPU TIME=          0.0 (      0.0 MIN)
 TOTAL WALL CLOCK TIME=          0.1 SECONDS, CPU UTILIZATION IS    40.00%

          ********************
          1 ELECTRON INTEGRALS
          ********************
 ...... END OF ONE-ELECTRON INTEGRALS ......
 CPU     0: STEP CPU TIME=     0.02 TOTAL CPU TIME=          0.0 (      0.0 MIN)
 TOTAL WALL CLOCK TIME=          0.1 SECONDS, CPU UTILIZATION IS    57.14%

          -------------
          GUESS OPTIONS
          -------------
          GUESS =HUCKEL            NORB  =       0          NORDER=       0
          MIX   =       F          PRTMO =       F          PUNMO =       F
          TOLZ  = 1.0E-08          TOLE  = 1.0E-05
          SYMDEN=       F          PURIFY=       F

 INITIAL GUESS ORBITALS GENERATED BY HUCKEL   ROUTINE.
 HUCKEL GUESS REQUIRES    174540 WORDS.

 SYMMETRIES FOR INITIAL GUESS ORBITALS FOLLOW.   BOTH SET(S).
    43 ORBITALS ARE OCCUPIED (   11 CORE ORBITALS).
    12=A       13=A       14=A       15=A       16=A       17=A       18=A   
    19=A       20=A       21=A       22=A       23=A       24=A       25=A   
    26=A       27=A       28=A       29=A       30=A       31=A       32=A   
    33=A       34=A       35=A       36=A       37=A       38=A       39=A   
    40=A       41=A       42=A       43=A       44=A       45=A       46=A   
    47=A       48=A       49=A       50=A       51=A       52=A       53=A   
 ...... END OF INITIAL ORBITAL SELECTION ......
 CPU     0: STEP CPU TIME=     0.04 TOTAL CPU TIME=          0.1 (      0.0 MIN)
 TOTAL WALL CLOCK TIME=          0.1 SECONDS, CPU UTILIZATION IS    57.14%

                    ----------------------
                    AO INTEGRAL TECHNOLOGY
                    ----------------------
     S,P,L SHELL ROTATED AXIS INTEGRALS, REPROGRAMMED BY
        KAZUYA ISHIMURA (IMS) AND JOSE SIERRA (SYNSTAR).
     S,P,D,L SHELL ROTATED AXIS INTEGRALS PROGRAMMED BY
        KAZUYA ISHIMURA (INSTITUTE FOR MOLECULAR SCIENCE).
     S,P,D,F,G SHELL TO TOTAL QUARTET ANGULAR MOMENTUM SUM 5,
        ERIC PROGRAM BY GRAHAM FLETCHER (ELORET AND NASA ADVANCED
        SUPERCOMPUTING DIVISION, AMES RESEARCH CENTER).
     S,P,D,F,G,L SHELL GENERAL RYS QUADRATURE PROGRAMMED BY
        MICHEL DUPUIS (PACIFIC NORTHWEST NATIONAL LABORATORY).

          --------------------
          2 ELECTRON INTEGRALS
          --------------------

 DIRECT SCF METHOD SKIPS INTEGRAL STORAGE ON DISK.
 DIRECT TRANSFORMATION SKIPS AO INTEGRAL STORAGE ON DISK.
  ...... END OF TWO-ELECTRON INTEGRALS .....
 CPU     0: STEP CPU TIME=     0.02 TOTAL CPU TIME=          0.1 (      0.0 MIN)
 TOTAL WALL CLOCK TIME=          0.2 SECONDS, CPU UTILIZATION IS    58.82%

          --------------------------
                 RHF SCF CALCULATION
          --------------------------

     NUCLEAR ENERGY =       666.6752834854
     MAXIT =   60     NPUNCH=    2
     EXTRAP=T  DAMP=F  SHIFT=F  RSTRCT=F  DIIS=F  DEM=F  SOSCF=T
     DENSITY MATRIX CONV=  2.00E-05
     SOSCF WILL OPTIMIZE    3956 ORBITAL ROTATIONS, SOGTOL=   0.250
     MEMORY REQUIRED FOR RHF ITERS=    194475 WORDS.

 DIRECT SCF CALCULATION, SCHWRZ=T   FDIFF=T,  DIRTHR=  0.00E+00 NITDIR=10
 SCHWARZ INEQUALITY OVERHEAD:      8658 INTEGRALS, T=        0.00

                                                                                   NONZERO     BLOCKS
 ITER EX DEM     TOTAL ENERGY        E CHANGE  DENSITY CHANGE     ORB. GRAD      INTEGRALS    SKIPPED
   1  0  0     -460.4456578910  -460.4456578910   0.941733470   0.000000000       26139575    1469466
          ---------------START SECOND ORDER SCF---------------
   2  1  0     -461.3564489623    -0.9107910712   0.179656838   0.093451612       26041474    1506114
   3  2  0     -461.3997776343    -0.0433286720   0.161701004   0.085886231       25723341    1575440
   4  3  0     -461.4685134674    -0.0687358331   0.039611002   0.006210500       25272575    1647161
   5  4  0     -461.4696366768    -0.0011232094   0.009812795   0.000900568       24545006    1720051
   6  5  0     -461.4697325793    -0.0000959025   0.001215330   0.000421987       23537444    1787369
   7  6  0     -461.4697391157    -0.0000065364   0.000347052   0.000105467       21930047    1915354
   8  7  0     -461.4697394736    -0.0000003579   0.000136496   0.000040004       20217894    2024663
   9  8  0     -461.4697395133    -0.0000000397   0.000019992   0.000014940       19208218    2091794
  10  9  0     -461.4697395172    -0.0000000039   0.000010387   0.000003934       17100176    2214934

          -----------------
          DENSITY CONVERGED
          -----------------
     TIME TO FORM FOCK OPERATORS=       4.2 SECONDS (       0.4 SEC/ITER)
     FOCK TIME ON FIRST ITERATION=       0.5, LAST ITERATION=       0.4
     TIME TO SOLVE SCF EQUATIONS=       0.1 SECONDS (       0.0 SEC/ITER)

 FINAL RHF ENERGY IS     -461.4697395172 AFTER  10 ITERATIONS

          ------------
          EIGENVECTORS
          ------------

                      1          2          3          4          5
                  -20.4483   -11.2710   -11.1879   -11.1819   -11.1766
                     A          A          A          A          A   
    1  C  1  S    0.000054  -0.000610   0.000193  -0.004010  -0.002083
    2  C  1  S    0.000187  -0.000635   0.000040  -0.000921  -0.000527
    3  C  1  X    0.000251   0.000337  -0.000142   0.000546   0.000028
    4  C  1  Y    0.000192   0.000134  -0.000016   0.000362  -0.000070
    5  C  1  Z    0.000003  -0.000141   0.000040  -0.000214   0.000245
    6  C  1  S   -0.002647   0.000982   0.000658   0.000015   0.002420
    7  C  1  X    0.000472  -0.001225   0.000466   0.001114   0.000482
    8  C  1  Y    0.001094  -0.000145  -0.000386   0.000179  -0.000229
    9  C  1  Z   -0.000152   0.000646  -0.000066   0.000748  -0.001013
   10  C  2  S    0.000015   0.000250   0.000116  -0.004883  -0.002998
   11  C  2  S    0.000144   0.000382   0.000058  -0.001822  -0.001200
   12  C  2  X   -0.000196   0.000099  -0.000010   0.000704   0.000468
   13  C  2  Y   -0.000066  -0.000052   0.000016  -0.000375  -0.000144
   14  C  2  Z    0.000132   0.000021  -0.000024  -0.000196  -0.000088
   15  C  2  S    0.000154  -0.001195   0.000066   0.003811   0.002193
   16  C  2  X    0.000600   0.000556   0.000134  -0.001043  -0.002271
   17  C  2  Y   -0.000355   0.000649   0.000317   0.001240   0.001229
   18  C  2  Z   -0.001086  -0.000434   0.000096   0.000868   0.000763
   19  C  3  S    0.000059   0.000293  -0.003356   0.000494   0.000168
   20  C  3  S    0.000295   0.000722  -0.002969  -0.000159   0.000271
   21  C  3  X   -0.000001  -0.000379   0.000403   0.000245  -0.000131
   22  C  3  Y   -0.000060   0.000284  -0.000016  -0.000011   0.000173
   23  C  3  Z    0.000011  -0.000594   0.000918   0.000396  -0.000062
   24  C  3  S   -0.002522  -0.006148   0.024980   0.003137  -0.000948
   25  C  3  X   -0.000236  -0.001601   0.005556   0.000956  -0.000643
   26  C  3  Y    0.000040  -0.000731   0.000808   0.000172  -0.001396
   27  C  3  Z   -0.002490  -0.000042   0.011983  -0.000074  -0.000604
   28  O  4  S    0.983853   0.000180  -0.000031   0.000068  -0.000006
   29  O  4  S    0.100776   0.001822  -0.000249   0.000344  -0.000053
   30  O  4  X   -0.001424   0.000275  -0.000102   0.000405  -0.000005
   31  O  4  Y    0.003256  -0.000498   0.000112   0.000148   0.000170
   32  O  4  Z    0.003063  -0.000214  -0.000105  -0.000181  -0.000111
   33  O  4  S   -0.060178  -0.006116   0.001578  -0.002609   0.000534
   34  O  4  X    0.005121   0.001014   0.000233  -0.002938   0.000100
   35  O  4  Y   -0.011672  -0.002889  -0.000356  -0.002992  -0.000828
   36  O  4  Z   -0.010919  -0.003796   0.000480   0.000028   0.000306
   37  C  5  S   -0.000022  -0.003203  -0.020179  -0.010216   0.984647
   38  C  5  S   -0.000128  -0.003050  -0.003963  -0.003393   0.105082
   39  C  5  X   -0.000036   0.000015   0.001312   0.000780  -0.000178
   40  C  5  Y    0.000184   0.001644   0.000669  -0.000635  -0.000529
   41  C  5  Z    0.000230   0.000455  -0.000057   0.000396   0.000235
   42  C  5  S   -0.000730   0.007579   0.005889   0.022663  -0.095645
   43  C  5  X    0.000280  -0.001597  -0.001966   0.008780   0.003461
   44  C  5  Y   -0.000426  -0.006724  -0.003997  -0.013412   0.005877
   45  C  5  Z   -0.003583  -0.002617   0.000313  -0.000149  -0.005469
   46  C  6  S   -0.000009  -0.001354  -0.006137  -0.034639   0.048157
   47  C  6  S   -0.000227  -0.001818  -0.002977  -0.005853   0.006214
   48  C  6  X    0.000052   0.000229  -0.000986  -0.000839   0.000009
   49  C  6  Y   -0.000487  -0.000472   0.000893  -0.000319   0.000343
   50  C  6  Z   -0.000405  -0.000288  -0.000186   0.000020   0.000389
   51  C  6  S    0.005392   0.017313   0.021754   0.012782  -0.008955
   52  C  6  X    0.003671   0.013184  -0.007586   0.005224  -0.003177
   53  C  6  Y    0.008641   0.004187   0.010265  -0.000207  -0.004243
   54  C  6  Z    0.005139  -0.000778  -0.003745  -0.003076  -0.000434
   55  C  7  S   -0.000042   0.000608  -0.006692  -0.019654  -0.061064
   56  C  7  S   -0.000193   0.001059  -0.003115  -0.003162  -0.008989
   57  C  7  X    0.000214   0.000103  -0.000898  -0.001058   0.000545
   58  C  7  Y   -0.000258  -0.000100  -0.000708   0.000152   0.000468
   59  C  7  Z    0.000088   0.000234  -0.000213   0.000018  -0.000131
   60  C  7  S    0.002986  -0.004791   0.022286   0.004262   0.026132
   61  C  7  X   -0.000710  -0.002618  -0.006774   0.002627   0.013786
   62  C  7  Y    0.000604   0.004391  -0.011596   0.000335  -0.000906
   63  C  7  Z    0.000437   0.001875  -0.002540  -0.000387  -0.004615
   64  C  8  S    0.000083  -0.000694   0.014041   0.987725   0.010045
   65  C  8  S    0.000444  -0.001107   0.002967   0.109356  -0.000468
   66  C  8  X    0.000598   0.000386  -0.000354  -0.000595  -0.000123
   67  C  8  Y   -0.000008  -0.000150   0.000029  -0.000238   0.000321
   68  C  8  Z   -0.000698  -0.000434   0.000379  -0.000695  -0.000122
   69  C  8  S    0.002351   0.013979  -0.008785  -0.113423   0.014780
   70  C  8  X   -0.010599  -0.011489   0.006323   0.003930  -0.007595
   71  C  8  Y   -0.000505  -0.011295   0.000452   0.004082   0.014250
   72  C  8  Z    0.007797   0.003384  -0.000937   0.010838  -0.001210
   73  C  9  S   -0.000033  -0.003606   0.988169  -0.014116   0.019486
   74  C  9  S   -0.000292  -0.002886   0.108017  -0.000389   0.000330
   75  C  9  X   -0.000056  -0.001261   0.000957   0.000255  -0.001032
   76  C  9  Y    0.000302   0.000979  -0.000163   0.000125  -0.001043
   77  C  9  Z    0.000413   0.000807  -0.000419  -0.000704   0.000375
   78  C  9  S   -0.000649   0.006428  -0.104231  -0.002405   0.002219
   79  C  9  X   -0.001396   0.005056  -0.007555  -0.003619   0.003044
   80  C  9  Y   -0.000720  -0.001666   0.000281   0.000452   0.001099
   81  C  9  Z   -0.005273  -0.004890   0.004585   0.003715  -0.001215
   82  C 10  S    0.000236   0.987191   0.002997   0.000055   0.002624
   83  C 10  S    0.001743   0.099023  -0.002024  -0.001862  -0.002508
   84  C 10  X    0.000317  -0.000421   0.001282   0.000099  -0.000030
   85  C 10  Y   -0.001149   0.000519  -0.000426   0.000229  -0.001275
   86  C 10  Z   -0.000963  -0.000319  -0.000416   0.000179  -0.000092
   87  C 10  S    0.016952  -0.063882   0.006069   0.023040   0.009940
   88  C 10  X    0.009637   0.008445  -0.001658   0.017918  -0.000600
   89  C 10  Y   -0.021811  -0.018247   0.004005   0.016028   0.004979
   90  C 10  Z   -0.020862  -0.014483   0.002704  -0.001293   0.002101
   91  C 11  S   -0.000140  -0.001050   0.000257  -0.006590  -0.018195
   92  C 11  S   -0.000668  -0.000983   0.000090  -0.003103  -0.002385
   93  C 11  X   -0.000518   0.000281   0.000187  -0.000842   0.000593
   94  C 11  Y   -0.000406   0.000105   0.000079  -0.000238  -0.000219
   95  C 11  Z    0.000021  -0.000014   0.000034   0.000434   0.000150
   96  C 11  S    0.008253   0.004401  -0.001858   0.024089   0.001647
   97  C 11  X   -0.002602  -0.003222  -0.000098  -0.015210  -0.002516
   98  C 11  Y    0.003216   0.000987  -0.000510   0.002175  -0.001131
   99  C 11  Z    0.002058   0.000967  -0.000871   0.002323  -0.001112
  100  H 12  S    0.000073   0.000009  -0.000077  -0.000228  -0.000284
  101  H 12  S    0.000415   0.000853  -0.000373   0.000790  -0.000504
  102  H 13  S    0.000173  -0.000016   0.000071   0.000549   0.000117
  103  H 13  S   -0.000345  -0.000588   0.000004  -0.001302  -0.001537
  104  H 14  S    0.000132  -0.000238   0.000068  -0.000047   0.000363
  105  H 14  S    0.000130  -0.000231  -0.000168  -0.000826  -0.000682
  106  H 15  S   -0.000232  -0.000454  -0.000135  -0.001845  -0.000025
  107  H 15  S    0.000276   0.000404  -0.000053  -0.000308  -0.001791
  108  H 16  S    0.000019   0.000225   0.000005  -0.000162  -0.000353
  109  H 16  S    0.000775  -0.000025  -0.000147  -0.001939  -0.000460
  110  H 17  S    0.000032  -0.000335  -0.000013  -0.000062  -0.000382
  111  H 17  S   -0.000718   0.001607   0.000322  -0.001032   0.000227
  112  H 18  S   -0.000144  -0.000025  -0.000006  -0.000286   0.000043
  113  H 18  S   -0.000316   0.000036  -0.000054   0.001469   0.001152
  114  H 19  S   -0.000916  -0.001835   0.000932   0.001785  -0.001236
  115  H 19  S   -0.002215   0.000523   0.000479   0.013692   0.000733
  116  H 20  S   -0.000262  -0.001255  -0.000259  -0.001836   0.001059
  117  H 20  S   -0.001769  -0.001821  -0.001436  -0.000537   0.014494
  118  H 21  S    0.000149   0.000130  -0.000214  -0.001063   0.001044
  119  H 21  S    0.001001   0.003437   0.002683   0.001462   0.014477
  120  H 22  S   -0.000967  -0.001905  -0.001146  -0.000306   0.000848
  121  H 22  S   -0.001951   0.000498   0.000304  -0.001348   0.001018
  122  H 23  S    0.001100  -0.000190  -0.001206  -0.000812  -0.000281
  123  H 23  S    0.003283   0.002834  -0.000031   0.000746  -0.000688
  124  H 24  S    0.000008   0.000608  -0.001257  -0.000014  -0.001597
  125  H 24  S   -0.000712  -0.001157   0.000016  -0.001592  -0.000217
  126  H 25  S   -0.000237  -0.000213  -0.001083  -0.000346  -0.000972
  127  H 25  S   -0.000867  -0.001073   0.000432   0.001193   0.000290
  128  H 26  S    0.000274   0.000171   0.001649  -0.000438  -0.000167
  129  H 26  S    0.000989   0.003376   0.013246  -0.001592   0.002652
  130  H 27  S    0.000084   0.000276  -0.001194  -0.000050  -0.000139
  131  H 27  S    0.000127  -0.000249   0.000141  -0.000150  -0.000531
  132  H 28  S    0.000098   0.000237  -0.001266  -0.000104   0.000265
  133  H 28  S   -0.000102   0.000969  -0.000091  -0.000312   0.000354
  134  H 29  S    0.000602  -0.000358  -0.001575   0.000105   0.000255
  135  H 29  S   -0.001910   0.003267  -0.000380  -0.001543  -0.000689

                      6          7          8          9         10
                  -11.1754   -11.1743   -11.1714   -11.1610   -11.1550
                     A          A          A          A          A   
    1  C  1  S   -0.001211  -0.001900  -0.004198   0.000840   0.987208
    2  C  1  S   -0.000419  -0.000346  -0.002850   0.000129   0.101866
    3  C  1  X   -0.000025   0.000420  -0.000433  -0.000043  -0.000011
    4  C  1  Y   -0.000002   0.000163  -0.000907   0.000001  -0.000171
    5  C  1  Z   -0.000010  -0.000077   0.000015   0.000015   0.000172
    6  C  1  S    0.001976  -0.001144   0.024415  -0.000157  -0.080314
    7  C  1  X   -0.000361  -0.000418  -0.006543   0.000157   0.001904
    8  C  1  Y   -0.000789   0.000042  -0.011621   0.000046   0.004082
    9  C  1  Z   -0.000349   0.000525   0.000683  -0.000072  -0.000115
   10  C  2  S   -0.000197  -0.001075  -0.002758   0.000005  -0.024839
   11  C  2  S    0.000120  -0.000305  -0.002754  -0.000009  -0.004437
   12  C  2  X    0.000252   0.000161  -0.000588  -0.000013  -0.000262
   13  C  2  Y   -0.000108  -0.000084   0.000848   0.000005  -0.001108
   14  C  2  Z    0.000031   0.000040  -0.000375  -0.000007   0.000078
   15  C  2  S   -0.002140   0.000275   0.025104   0.000080   0.006564
   16  C  2  X    0.000536  -0.000104  -0.007585  -0.000044   0.000707
   17  C  2  Y    0.000002   0.000219   0.010000  -0.000060   0.003673
   18  C  2  Z    0.000547  -0.000295  -0.004674   0.000017  -0.000116
   19  C  3  S   -0.012060  -0.019166  -0.000530   0.987245  -0.000887
   20  C  3  S   -0.002603  -0.003878  -0.000065   0.101678  -0.000079
   21  C  3  X   -0.000474  -0.000785  -0.000089   0.000124   0.000018
   22  C  3  Y    0.000977  -0.000629  -0.000044  -0.000063  -0.000036
   23  C  3  Z   -0.000615  -0.000808   0.000009   0.000081   0.000045
   24  C  3  S    0.003064   0.004454  -0.000414  -0.079787   0.000407
   25  C  3  X    0.001034   0.001733   0.000540  -0.001361   0.000096
   26  C  3  Y   -0.003111   0.001628   0.000100   0.000214   0.000201
   27  C  3  Z    0.001159   0.001278  -0.000596  -0.003524   0.000231
   28  O  4  S    0.000018   0.000013  -0.000011   0.000001   0.000004
   29  O  4  S   -0.000112   0.000000  -0.000146   0.000047  -0.000010
   30  O  4  X   -0.000109   0.000058  -0.000014  -0.000054   0.000031
   31  O  4  Y   -0.000240  -0.000141  -0.000020   0.000021   0.000007
   32  O  4  Z   -0.000127  -0.000029  -0.000158  -0.000022  -0.000021
   33  O  4  S   -0.000550  -0.000738   0.000421   0.000076  -0.000395
   34  O  4  X    0.002555   0.000179  -0.000416  -0.000009  -0.000502
   35  O  4  Y    0.000894   0.000394  -0.000147   0.000057  -0.000466
   36  O  4  Z   -0.000436  -0.000264   0.000689   0.000071  -0.000015
   37  C  5  S   -0.060002   0.047853   0.018745   0.000131   0.002025
   38  C  5  S   -0.004931   0.002764   0.001673   0.000349   0.000025
   39  C  5  X    0.000058  -0.000327  -0.000417   0.000230  -0.000347
   40  C  5  Y    0.000029   0.000203   0.000229   0.000025  -0.000004
   41  C  5  Z   -0.000371   0.000094   0.000336   0.000137  -0.000029
   42  C  5  S   -0.003555   0.016486  -0.002485  -0.002445  -0.000063
   43  C  5  X    0.004491  -0.011886  -0.001008   0.000773   0.000763
   44  C  5  Y    0.002709  -0.000611   0.000426   0.000727  -0.000603
   45  C  5  Z   -0.000690   0.004139  -0.002086  -0.000824  -0.000740
   46  C  6  S    0.964217   0.205293   0.026787   0.015393   0.001510
   47  C  6  S    0.103683   0.020063   0.001610  -0.000277  -0.000235
   48  C  6  X    0.000325   0.000155  -0.000246   0.000408  -0.000069
   49  C  6  Y    0.001028  -0.001136  -0.000173  -0.000383   0.000004
   50  C  6  Z   -0.000232  -0.000303  -0.000042   0.001120   0.000072
   51  C  6  S   -0.095391  -0.015509   0.002727   0.003339   0.002244
   52  C  6  X   -0.006621   0.000150   0.002071  -0.000113   0.001298
   53  C  6  Y   -0.006422   0.002511   0.001593   0.001460  -0.000435
   54  C  6  Z    0.006002   0.002084  -0.000298  -0.004003  -0.001304
   55  C  7  S   -0.204501   0.963868   0.030527   0.015896   0.001456
   56  C  7  S   -0.023603   0.102002   0.002224  -0.000083  -0.000142
   57  C  7  X   -0.000036   0.000307  -0.000412   0.000331  -0.000094
   58  C  7  Y    0.001399  -0.000390   0.000195   0.000450   0.000036
   59  C  7  Z   -0.000226  -0.000214  -0.000191   0.001046   0.000096
   60  C  7  S    0.022443  -0.088084   0.000739   0.002802   0.001013
   61  C  7  X    0.001454  -0.003047   0.002686   0.000110   0.000750
   62  C  7  Y   -0.004966   0.005443  -0.001982  -0.001573  -0.000198
   63  C  7  Z    0.000126   0.003542   0.001303  -0.003237  -0.000685
   64  C  8  S    0.028693   0.026517   0.007316   0.000295   0.004028
   65  C  8  S    0.001649   0.001543  -0.001821  -0.000218  -0.000044
   66  C  8  X    0.000694   0.001335   0.000309  -0.000127  -0.000752
   67  C  8  Y    0.000579  -0.000439  -0.000253  -0.000034  -0.000760
   68  C  8  Z   -0.000173  -0.000503  -0.000219  -0.000041  -0.000143
   69  C  8  S    0.000850  -0.001330   0.024441   0.001817  -0.002357
   70  C  8  X   -0.003678  -0.006634   0.016013  -0.000520   0.003007
   71  C  8  Y   -0.002284   0.000179   0.002371   0.000250   0.003113
   72  C  8  Z   -0.000092   0.003025  -0.003901  -0.000047   0.002535
   73  C  9  S    0.002378   0.007471   0.000407   0.002857  -0.000174
   74  C  9  S   -0.000962  -0.001434   0.000158  -0.000998   0.000097
   75  C  9  X    0.000379   0.000265  -0.000035  -0.000267  -0.000018
   76  C  9  Y   -0.000921   0.000528  -0.000022  -0.000013  -0.000001
   77  C  9  Z    0.000272   0.000369   0.000088  -0.000155  -0.000100
   78  C  9  S    0.012558   0.020096  -0.000927   0.013526  -0.000525
   79  C  9  X    0.005394   0.008387  -0.001556  -0.004881  -0.000342
   80  C  9  Y   -0.011785   0.008040   0.000491  -0.000319  -0.000089
   81  C  9  Z    0.002088   0.002733  -0.001068  -0.010478   0.000824
   82  C 10  S    0.000654   0.000024   0.001025  -0.000023   0.000455
   83  C 10  S   -0.002124   0.000132  -0.000385   0.000478  -0.000681
   84  C 10  X    0.000206   0.000092  -0.000737   0.000207  -0.000359
   85  C 10  Y    0.000165  -0.000088  -0.000313   0.000024  -0.000162
   86  C 10  Z    0.000070  -0.000217   0.000266  -0.000009   0.000024
   87  C 10  S    0.023518   0.001060  -0.000537  -0.003129   0.003357
   88  C 10  X   -0.018527  -0.001624   0.002010   0.001372   0.004395
   89  C 10  Y   -0.002601  -0.002681   0.001934  -0.000639   0.002918
   90  C 10  Z    0.006047   0.000024  -0.000611   0.000000  -0.000526
   91  C 11  S   -0.019209  -0.036902   0.987481  -0.000382   0.003301
   92  C 11  S   -0.002879  -0.005181   0.108012   0.000026  -0.000918
   93  C 11  X    0.000344   0.000248   0.000107   0.000001  -0.000010
   94  C 11  Y    0.000511  -0.000233   0.000080  -0.000013   0.000073
   95  C 11  Z   -0.000112   0.000037   0.000717   0.000008   0.000056
   96  C 11  S    0.004429   0.009042  -0.106885  -0.000144   0.014609
   97  C 11  X   -0.002663  -0.004316  -0.000175   0.000235   0.004542
   98  C 11  Y   -0.003020   0.001148  -0.001405   0.000093   0.011268
   99  C 11  Z    0.001132   0.000604  -0.008420  -0.000004  -0.001332
  100  H 12  S   -0.000122   0.000076  -0.001133  -0.000003   0.000340
  101  H 12  S   -0.000018   0.000749  -0.000164  -0.000088   0.014066
  102  H 13  S    0.000022  -0.000137  -0.001343   0.000036   0.000212
  103  H 13  S   -0.000423   0.000698   0.000608  -0.000059   0.013788
  104  H 14  S   -0.000140   0.000011  -0.001580   0.000015   0.000374
  105  H 14  S    0.000301  -0.000231  -0.000044   0.000053   0.014260
  106  H 15  S   -0.000443  -0.000496   0.001735   0.000029  -0.001112
  107  H 15  S    0.000109  -0.000769   0.014031   0.000027   0.000687
  108  H 16  S    0.000078  -0.000040  -0.001572  -0.000021  -0.000611
  109  H 16  S   -0.000142   0.000194   0.000029   0.000036  -0.001427
  110  H 17  S    0.000064   0.000009  -0.001264   0.000021  -0.000063
  111  H 17  S    0.000789  -0.000035  -0.000158  -0.000143   0.001657
  112  H 18  S    0.000099  -0.000058  -0.001181   0.000002  -0.000371
  113  H 18  S    0.000264   0.000220  -0.000079  -0.000001  -0.001965
  114  H 19  S   -0.000227  -0.000504  -0.001609  -0.000055  -0.000085
  115  H 19  S   -0.000066  -0.001154  -0.000156  -0.000290  -0.001800
  116  H 20  S    0.000727  -0.001334  -0.000198   0.000193   0.000292
  117  H 20  S   -0.000540   0.001218  -0.000837  -0.000872  -0.001269
  118  H 21  S   -0.000035  -0.000851   0.000546  -0.000010  -0.000159
  119  H 21  S   -0.001514   0.001190  -0.000774   0.000276   0.000234
  120  H 22  S    0.001342  -0.000236  -0.000436  -0.000062  -0.000073
  121  H 22  S    0.013950   0.001352   0.000119   0.002650   0.000419
  122  H 23  S    0.001128   0.000167  -0.000136  -0.000465  -0.000235
  123  H 23  S    0.012856   0.005246   0.001132  -0.000616   0.000042
  124  H 24  S   -0.000632   0.001056  -0.000579  -0.000121  -0.000049
  125  H 24  S   -0.004414   0.013643  -0.000154   0.002475   0.000275
  126  H 25  S   -0.000241   0.000807   0.000158  -0.000311  -0.000086
  127  H 25  S   -0.000418   0.013448   0.001655  -0.000670   0.000177
  128  H 26  S   -0.000587  -0.000972  -0.000096  -0.001080  -0.000087
  129  H 26  S    0.000283   0.000976   0.000228   0.001190  -0.000086
  130  H 27  S   -0.000317  -0.000203   0.000070   0.000317   0.000026
  131  H 27  S   -0.002353   0.001611   0.000160   0.014134   0.000034
  132  H 28  S   -0.000028  -0.000312   0.000034   0.000233  -0.000014
  133  H 28  S    0.002503  -0.001143   0.000019   0.013867  -0.000117
  134  H 29  S   -0.000330  -0.000349  -0.000014   0.000078  -0.000083
  135  H 29  S   -0.000751  -0.001459  -0.000473   0.014857   0.000227

                     11         12         13         14         15
                  -11.1463    -1.3921    -1.1350    -1.0872    -1.0176
                     A          A          A          A          A   
    1  C  1  S    0.024373  -0.000960  -0.026683  -0.075322   0.066393
    2  C  1  S    0.000623   0.000341   0.029455   0.077884  -0.065899
    3  C  1  X   -0.000321  -0.001411  -0.010758  -0.019245   0.001168
    4  C  1  Y    0.000983  -0.001406  -0.013364  -0.034501   0.024673
    5  C  1  Z   -0.000506   0.000144   0.000827   0.001179   0.000112
    6  C  1  S    0.002545   0.013052   0.045426   0.163539  -0.167063
    7  C  1  X    0.000821  -0.002400  -0.000843   0.000273  -0.006667
    8  C  1  Y   -0.003008  -0.004714   0.007745   0.006488  -0.000221
    9  C  1  Z    0.002310  -0.000985  -0.001653  -0.004548   0.003297
   10  C  2  S    0.987206  -0.002158  -0.023564  -0.071925   0.072385
   11  C  2  S    0.101909   0.003167   0.026689   0.075383  -0.070197
   12  C  2  X   -0.000121  -0.001361  -0.010912  -0.022041   0.006914
   13  C  2  Y    0.000291   0.000049   0.012220   0.030273  -0.021084
   14  C  2  Z    0.000085  -0.000733  -0.004599  -0.013658   0.011090
   15  C  2  S   -0.080002  -0.006595   0.040311   0.150609  -0.187868
   16  C  2  X    0.002498  -0.000227   0.003316   0.003439   0.001441
   17  C  2  Y   -0.003014   0.003518  -0.009871  -0.008581  -0.002072
   18  C  2  Z    0.001469   0.003557   0.000717   0.000337   0.000615
   19  C  3  S   -0.000056  -0.001558  -0.048336   0.056142   0.073142
   20  C  3  S   -0.000022   0.000813   0.052051  -0.058025  -0.071828
   21  C  3  X    0.000020   0.001429   0.014511  -0.010975  -0.004015
   22  C  3  Y    0.000017  -0.000542   0.001777  -0.000199   0.006854
   23  C  3  Z    0.000025   0.001282   0.028090  -0.027655  -0.022070
   24  C  3  S    0.000253   0.013114   0.095711  -0.127293  -0.189536
   25  C  3  X    0.000098   0.001818  -0.005918   0.003253   0.004009
   26  C  3  Y   -0.000070   0.000466   0.001405   0.000276   0.002767
   27  C  3  Z   -0.000001   0.008385  -0.005981   0.003230   0.000300
   28  O  4  S   -0.000004  -0.211549   0.042335   0.007450  -0.003370
   29  O  4  S    0.000052   0.195481  -0.041431  -0.007372   0.002380
   30  O  4  X    0.000178  -0.037591   0.003018   0.015899   0.007331
   31  O  4  Y   -0.000030   0.086828  -0.002971   0.005766   0.006749
   32  O  4  Z    0.000014   0.080680  -0.006385  -0.002202  -0.001496
   33  O  4  S    0.000755   0.689242  -0.139730  -0.024407   0.016642
   34  O  4  X   -0.000611  -0.042057   0.005794   0.017457   0.006099
   35  O  4  Y    0.000370   0.097591  -0.003469   0.006574   0.008282
   36  O  4  Z    0.000241   0.091705  -0.008776  -0.003378   0.000472
   37  C  5  S    0.002808  -0.003585  -0.090477  -0.022663  -0.120975
   38  C  5  S   -0.000727   0.008025   0.089800   0.022518   0.111588
   39  C  5  X   -0.000186   0.000515  -0.012961   0.038196  -0.009652
   40  C  5  Y    0.000096  -0.006350  -0.027933  -0.014844  -0.008930
   41  C  5  Z    0.000069  -0.000788   0.015047  -0.001509   0.014750
   42  C  5  S    0.004564  -0.002534   0.205074   0.049664   0.332670
   43  C  5  X    0.002669   0.000091  -0.003953  -0.003329  -0.004049
   44  C  5  Y   -0.002468   0.012609   0.003032   0.009092  -0.004218
   45  C  5  Z    0.000188   0.013980   0.008963   0.006587   0.008779
   46  C  6  S    0.000511  -0.019028  -0.076155   0.062169   0.064828
   47  C  6  S   -0.000093   0.019506   0.077438  -0.057948  -0.060745
   48  C  6  X   -0.000109   0.016823   0.004066   0.015146   0.020794
   49  C  6  Y   -0.000043  -0.001428   0.035037  -0.020546  -0.006870
   50  C  6  Z   -0.000025  -0.010094  -0.011650   0.010921   0.009698
   51  C  6  S   -0.000192   0.004181   0.169716  -0.165579  -0.182206
   52  C  6  X    0.000256  -0.020835   0.005665  -0.015217  -0.003041
   53  C  6  Y    0.000173  -0.031394   0.005714   0.001214   0.003408
   54  C  6  Z    0.000334  -0.019346   0.003929   0.005739   0.002609
   55  C  7  S    0.000800  -0.001987  -0.091902   0.044157  -0.062685
   56  C  7  S   -0.000114   0.002821   0.093629  -0.042511   0.055530
   57  C  7  X   -0.000161   0.000873   0.013047   0.024552   0.058713
   58  C  7  Y   -0.000004  -0.001667  -0.030706   0.024118   0.025430
   59  C  7  Z    0.000039  -0.000705  -0.015579   0.005064  -0.008288
   60  C  7  S    0.000676  -0.002423   0.197359  -0.108079   0.180715
   61  C  7  X    0.000663   0.002557  -0.003140  -0.010608   0.004124
   62  C  7  Y    0.000244  -0.003160  -0.000881  -0.002540  -0.010482
   63  C  7  Z   -0.000455  -0.005334   0.001137  -0.001651  -0.004177
   64  C  8  S    0.004818  -0.019497  -0.093444  -0.087179  -0.057517
   65  C  8  S   -0.000794   0.016805   0.086671   0.080135   0.048026
   66  C  8  X   -0.001114  -0.008572  -0.020101   0.041774  -0.059615
   67  C  8  Y    0.000867  -0.016934   0.008559   0.001079   0.033980
   68  C  8  Z   -0.000205  -0.005650  -0.006591  -0.013810   0.000089
   69  C  8  S    0.001080   0.018811   0.241517   0.231568   0.179684
   70  C  8  X    0.004638   0.038593  -0.014423  -0.021590   0.003387
   71  C  8  Y   -0.004559   0.010547  -0.012903  -0.012436  -0.006073
   72  C  8  Z    0.001179  -0.030628  -0.013228  -0.014340  -0.008596
   73  C  9  S   -0.000108  -0.003608  -0.100455   0.091254   0.068513
   74  C  9  S    0.000046   0.007315   0.093989  -0.083443  -0.058681
   75  C  9  X    0.000040   0.004827   0.028453  -0.008418   0.021477
   76  C  9  Y    0.000014  -0.003757   0.004767   0.004608   0.042363
   77  C  9  Z   -0.000063  -0.002181  -0.001888   0.007990   0.021509
   78  C  9  S    0.000033   0.001602   0.244026  -0.238818  -0.205257
   79  C  9  X   -0.000352  -0.002659   0.009904  -0.003462  -0.005909
   80  C  9  Y   -0.000015   0.005283  -0.003261  -0.001252   0.000032
   81  C  9  Z    0.000384   0.021847  -0.007312   0.000827   0.005331
   82  C 10  S   -0.000083  -0.122933  -0.038372  -0.000702  -0.004366
   83  C 10  S    0.000431   0.130040   0.050599   0.002243   0.005268
   84  C 10  X    0.000007   0.045725  -0.024825   0.052989   0.040480
   85  C 10  Y   -0.000007  -0.104636   0.066789   0.031983   0.030260
   86  C 10  Z   -0.000066  -0.098534   0.046919  -0.000481  -0.006803
   87  C 10  S   -0.002432   0.148489   0.047557  -0.008738   0.007128
   88  C 10  X   -0.002054  -0.036210  -0.015952  -0.014407  -0.011271
   89  C 10  Y    0.000548   0.075769   0.004018  -0.015468   0.004876
   90  C 10  Z    0.000301   0.069982   0.010759   0.005340   0.006701
   91  C 11  S    0.002048  -0.005799  -0.054836  -0.125427   0.070086
   92  C 11  S   -0.000935   0.007964   0.053512   0.114068  -0.060329
   93  C 11  X    0.000261  -0.003616  -0.018349  -0.002975  -0.050818
   94  C 11  Y   -0.000070  -0.000322   0.003696   0.004664   0.004127
   95  C 11  Z    0.000161   0.000408   0.010025   0.017425  -0.004188
   96  C 11  S    0.013152  -0.019636   0.125469   0.327737  -0.211679
   97  C 11  X    0.006285   0.008116   0.020304   0.006104   0.002031
   98  C 11  Y   -0.009029  -0.020032   0.005288   0.002472  -0.003172
   99  C 11  Z    0.002792  -0.004610   0.010020   0.019263  -0.007052
  100  H 12  S   -0.000440   0.000082   0.011406   0.034583  -0.036930
  101  H 12  S   -0.000826  -0.002228  -0.001455  -0.001062  -0.004053
  102  H 13  S   -0.000034  -0.000359   0.012208   0.033631  -0.028993
  103  H 13  S    0.002485   0.000967   0.000572  -0.002886   0.005275
  104  H 14  S   -0.000507   0.000070   0.012653   0.036209  -0.033688
  105  H 14  S   -0.001362  -0.000110   0.001976   0.002478  -0.001447
  106  H 15  S   -0.001243   0.003155   0.024827   0.056023  -0.032462
  107  H 15  S    0.000919   0.003974  -0.002095  -0.003699   0.004426
  108  H 16  S    0.000372   0.000840   0.011442   0.034697  -0.036447
  109  H 16  S    0.014273  -0.001698   0.002225   0.002445  -0.001150
  110  H 17  S    0.000096   0.001485   0.010678   0.032336  -0.033107
  111  H 17  S    0.014642   0.012511  -0.006511  -0.005026   0.003421
  112  H 18  S    0.000283   0.001328   0.009801   0.032292  -0.037925
  113  H 18  S    0.013774   0.000419  -0.003446  -0.001831  -0.006210
  114  H 19  S   -0.000551   0.008713   0.043700   0.040789   0.027913
  115  H 19  S   -0.000747   0.002982  -0.000487   0.000839  -0.001930
  116  H 20  S   -0.000417   0.003783   0.040948   0.011507   0.059350
  117  H 20  S    0.000095   0.007369  -0.000687   0.001591  -0.002305
  118  H 21  S   -0.000250   0.000596   0.036921   0.013898   0.061079
  119  H 21  S   -0.000197  -0.009301  -0.009960   0.004133   0.002183
  120  H 22  S   -0.000067   0.008803   0.034913  -0.026708  -0.030289
  121  H 22  S   -0.000175   0.002942  -0.003552   0.003797   0.003639
  122  H 23  S    0.000030   0.003745   0.029534  -0.028420  -0.037674
  123  H 23  S    0.000178  -0.012572  -0.008232  -0.001299  -0.005038
  124  H 24  S   -0.000061   0.000607   0.041111  -0.018886   0.032927
  125  H 24  S    0.000207   0.004495  -0.003373   0.004019   0.003754
  126  H 25  S   -0.000117   0.001030   0.037532  -0.020728   0.029931
  127  H 25  S    0.000245   0.000514  -0.008292  -0.002532   0.002555
  128  H 26  S   -0.000065   0.000150   0.040920  -0.041156  -0.037706
  129  H 26  S   -0.000188  -0.008922  -0.007211   0.002503  -0.006563
  130  H 27  S   -0.000016   0.000299   0.020162  -0.025814  -0.039817
  131  H 27  S   -0.000028  -0.000129  -0.003383   0.001605  -0.004877
  132  H 28  S    0.000005   0.000081   0.020498  -0.025323  -0.035178
  133  H 28  S    0.000009  -0.000894  -0.003788   0.002411   0.001378
  134  H 29  S    0.000001  -0.000312   0.024262  -0.026859  -0.035857
  135  H 29  S   -0.000132   0.005899   0.000802   0.001585   0.002108

                     16         17         18         19         20
                   -0.9886    -0.9353    -0.9257    -0.8506    -0.7978
                     A          A          A          A          A   
    1  C  1  S    0.043246   0.086807   0.131580  -0.015903  -0.055960
    2  C  1  S   -0.040562  -0.080688  -0.119983   0.014058   0.048870
    3  C  1  X   -0.000247  -0.010269   0.004332   0.016012   0.051130
    4  C  1  Y    0.007803  -0.002669  -0.023322   0.015793   0.049132
    5  C  1  Z    0.001432   0.002566   0.005760   0.001438   0.012393
    6  C  1  S   -0.125442  -0.265058  -0.410285   0.061332   0.212618
    7  C  1  X    0.000454  -0.004710   0.005449   0.001198   0.023519
    8  C  1  Y    0.004147   0.002187  -0.000672   0.001965   0.015045
    9  C  1  Z    0.000720  -0.000216  -0.002060   0.004623   0.007380
   10  C  2  S    0.027038   0.006070  -0.151024  -0.068574  -0.033547
   11  C  2  S   -0.026935  -0.006149   0.138671   0.061210   0.028325
   12  C  2  X   -0.002922  -0.013098  -0.001358   0.035073   0.030329
   13  C  2  Y   -0.007341  -0.008060  -0.016119  -0.021384  -0.025337
   14  C  2  Z    0.004610   0.002828   0.001924   0.012871   0.026665
   15  C  2  S   -0.066991  -0.017206   0.462680   0.237606   0.136763
   16  C  2  X   -0.004650  -0.005009  -0.003678   0.012788   0.004681
   17  C  2  Y   -0.003379  -0.002881   0.001781  -0.001309  -0.005964
   18  C  2  Z    0.001117   0.000247   0.002508   0.004828   0.014542
   19  C  3  S    0.066518  -0.138696   0.043685  -0.054255  -0.041016
   20  C  3  S   -0.063750   0.127593  -0.039848   0.047145   0.034311
   21  C  3  X   -0.000058  -0.009348   0.003130  -0.004608  -0.006600
   22  C  3  Y   -0.015114  -0.001802   0.004329  -0.016411   0.017320
   23  C  3  Z   -0.010372  -0.013276   0.007060  -0.046821  -0.058160
   24  C  3  S   -0.181032   0.424328  -0.136948   0.200100   0.168798
   25  C  3  X    0.002921  -0.000371  -0.000833   0.008520   0.005895
   26  C  3  Y   -0.001016  -0.000564   0.001017  -0.002870   0.007704
   27  C  3  Z   -0.004131   0.001314   0.000128  -0.010862  -0.022168
   28  O  4  S    0.054166   0.009184   0.000472  -0.002769   0.044748
   29  O  4  S   -0.053974  -0.009074  -0.000277   0.003144  -0.045379
   30  O  4  X   -0.013705   0.022268   0.009092  -0.040752  -0.017020
   31  O  4  Y    0.005790   0.017594  -0.001518  -0.024649   0.044587
   32  O  4  Z    0.012769  -0.002176   0.000273   0.001855   0.048897
   33  O  4  S   -0.183454  -0.032644  -0.003603   0.006573  -0.159282
   34  O  4  X   -0.010896   0.019631   0.008390  -0.034423  -0.014671
   35  O  4  Y    0.002607   0.015142  -0.003531  -0.021688   0.038699
   36  O  4  Z    0.009136  -0.002838   0.000086   0.000479   0.046980
   37  C  5  S    0.035475   0.002489   0.013174  -0.116222   0.059320
   38  C  5  S   -0.031872  -0.002039  -0.010152   0.096709  -0.047148
   39  C  5  X    0.043920   0.050382  -0.033877   0.010996  -0.068750
   40  C  5  Y   -0.034919  -0.034615   0.005503   0.054493  -0.029540
   41  C  5  Z   -0.003750  -0.012539   0.009234  -0.031646   0.043860
   42  C  5  S   -0.101908  -0.008176  -0.054926   0.432351  -0.240932
   43  C  5  X   -0.002725  -0.001686  -0.009952  -0.005299  -0.025202
   44  C  5  Y   -0.001703  -0.003318   0.004904   0.001779  -0.003366
   45  C  5  Z    0.003705   0.000170   0.000824  -0.010698   0.022682
   46  C  6  S   -0.125897   0.067992  -0.000839  -0.055418   0.031966
   47  C  6  S    0.111541  -0.057733   0.000395   0.044598  -0.025996
   48  C  6  X    0.053934  -0.002720  -0.001748   0.023058   0.121581
   49  C  6  Y   -0.012779   0.002516   0.006760  -0.057036  -0.006860
   50  C  6  Z   -0.001859  -0.016012   0.007937  -0.013115  -0.020268
   51  C  6  S    0.388837  -0.231949   0.006724   0.219043  -0.122186
   52  C  6  X    0.014006  -0.012546   0.001891   0.016460   0.038310
   53  C  6  Y    0.011972  -0.006049   0.001116  -0.008366  -0.010013
   54  C  6  Z   -0.008948   0.004041  -0.000707  -0.011827  -0.014129
   55  C  7  S    0.093639   0.079395  -0.044418   0.050864  -0.064952
   56  C  7  S   -0.085090  -0.068948   0.038708  -0.043322   0.052114
   57  C  7  X    0.009562   0.000119  -0.008576   0.095565  -0.009446
   58  C  7  Y   -0.009828  -0.003232   0.000298   0.038751   0.036899
   59  C  7  Z    0.013120  -0.018265   0.008509  -0.041183   0.021620
   60  C  7  S   -0.267831  -0.257976   0.144419  -0.182644   0.269004
   61  C  7  X    0.001287  -0.007018   0.001841   0.023002   0.007868
   62  C  7  Y   -0.004339   0.003874  -0.003673   0.017464  -0.002851
   63  C  7  Z    0.000992  -0.000746   0.001198  -0.015694   0.003398
   64  C  8  S   -0.063917  -0.087066   0.015962   0.064483  -0.007158
   65  C  8  S    0.054527   0.071812  -0.012236  -0.051603   0.004989
   66  C  8  X   -0.034696  -0.001111   0.007430  -0.048605  -0.085920
   67  C  8  Y   -0.044656  -0.020995  -0.027255   0.076373  -0.099566
   68  C  8  Z    0.010163  -0.003494   0.008307  -0.007787   0.050857
   69  C  8  S    0.205540   0.293504  -0.055015  -0.245719   0.040867
   70  C  8  X   -0.000673  -0.007617   0.000345   0.002184  -0.019575
   71  C  8  Y   -0.004138  -0.012150  -0.003334   0.029857  -0.035754
   72  C  8  Z   -0.004110  -0.006102   0.006201  -0.001356   0.020560
   73  C  9  S    0.038954   0.003586  -0.007758   0.071675   0.067005
   74  C  9  S   -0.032668  -0.004785   0.006908  -0.057909  -0.052218
   75  C  9  X    0.028807  -0.055795   0.016352   0.010408   0.038740
   76  C  9  Y   -0.075585  -0.010009   0.020398  -0.062406   0.070014
   77  C  9  Z    0.030215  -0.085052   0.028947  -0.055917  -0.039400
   78  C  9  S   -0.123000  -0.002199   0.023260  -0.268997  -0.268372
   79  C  9  X   -0.002963  -0.002018   0.002123  -0.004232   0.009763
   80  C  9  Y   -0.004796  -0.003087   0.005158  -0.023443   0.034665
   81  C  9  Z    0.006426  -0.023922   0.008293  -0.020589  -0.011278
   82  C 10  S   -0.083628  -0.012456   0.003902   0.006853  -0.093326
   83  C 10  S    0.096421   0.013245  -0.006194  -0.007732   0.097663
   84  C 10  X   -0.061981   0.069816   0.005100  -0.094628  -0.001059
   85  C 10  Y    0.061783   0.054750  -0.001919  -0.053869   0.047452
   86  C 10  Z    0.080486  -0.003767   0.003734   0.004564   0.051435
   87  C 10  S    0.170408   0.034662   0.000735  -0.015758   0.294539
   88  C 10  X   -0.018582   0.000932   0.016879  -0.026560  -0.029500
   89  C 10  Y    0.042155   0.012196   0.002372  -0.023532   0.077911
   90  C 10  Z    0.044918   0.003955  -0.000279  -0.005435   0.071921
   91  C 11  S    0.021863   0.001086  -0.006364   0.043181   0.072477
   92  C 11  S   -0.016865  -0.000517   0.004993  -0.036079  -0.058594
   93  C 11  X   -0.037579  -0.064654   0.017796   0.064236   0.044996
   94  C 11  Y   -0.011560  -0.036393  -0.115044  -0.003118  -0.000186
   95  C 11  Z    0.005376   0.012471   0.026064   0.004696   0.033970
   96  C 11  S   -0.075889  -0.004255   0.024508  -0.156127  -0.289958
   97  C 11  X    0.008158  -0.011477   0.003810   0.019461   0.028796
   98  C 11  Y    0.003707  -0.006980  -0.021848   0.005482  -0.006230
   99  C 11  Z   -0.003565   0.003952   0.006211  -0.004558   0.009830
  100  H 12  S   -0.024225  -0.054359  -0.073033   0.016630   0.056636
  101  H 12  S   -0.004233  -0.011122  -0.010577   0.010361   0.025684
  102  H 13  S   -0.022794  -0.050256  -0.086459   0.014837   0.037082
  103  H 13  S   -0.000471  -0.007751  -0.024526   0.009846   0.010761
  104  H 14  S   -0.022080  -0.049432  -0.076273   0.013324   0.051970
  105  H 14  S   -0.002425  -0.007393  -0.011380   0.006118   0.022828
  106  H 15  S   -0.009993   0.001388   0.003505  -0.031087  -0.063838
  107  H 15  S   -0.003679   0.001479  -0.000790  -0.007822  -0.029797
  108  H 16  S   -0.014486  -0.004329   0.085632   0.048447   0.034693
  109  H 16  S    0.000169   0.000475   0.012023   0.012992   0.017209
  110  H 17  S   -0.011749   0.002408   0.093197   0.042016   0.026203
  111  H 17  S   -0.005486   0.003674   0.018203   0.009485   0.003657
  112  H 18  S   -0.016657  -0.009246   0.086059   0.055467   0.031117
  113  H 18  S   -0.003915  -0.006492   0.014210   0.020545   0.017391
  114  H 19  S    0.037624   0.045181  -0.003446  -0.042545   0.028061
  115  H 19  S    0.001935   0.001182   0.001597  -0.010801   0.015961
  116  H 20  S   -0.020101   0.003499  -0.010301   0.086905  -0.057365
  117  H 20  S   -0.003288   0.005326  -0.006627   0.027819  -0.021582
  118  H 21  S   -0.024016  -0.006749  -0.014280   0.092566  -0.060315
  119  H 21  S   -0.006930  -0.005489  -0.007548   0.037228  -0.029711
  120  H 22  S    0.071470  -0.045485   0.004020   0.027588  -0.021162
  121  H 22  S    0.008267  -0.012882   0.004291   0.003054  -0.006622
  122  H 23  S    0.061991  -0.036048  -0.003117   0.054168  -0.044784
  123  H 23  S    0.000710  -0.004587  -0.003061   0.025862  -0.030489
  124  H 24  S   -0.045451  -0.052931   0.028656  -0.044567   0.053190
  125  H 24  S    0.004041  -0.013487   0.006677  -0.018207   0.023309
[...]
              1  C  1  S      1.98833     1.97646
              2  C  1  S      0.35196     0.41535
              3  C  1  X      0.53748     0.50977
              4  C  1  Y      0.53473     0.51477
              5  C  1  Z      0.53755     0.50424
              6  C  1  S      1.11199     0.57981
              7  C  1  X      0.52010     0.58937
              8  C  1  Y      0.41905     0.55418
              9  C  1  Z      0.55463     0.60645
             10  C  2  S      1.98837     1.97649
             11  C  2  S      0.35174     0.41646
             12  C  2  X      0.53669     0.51012
             13  C  2  Y      0.54181     0.52067
             14  C  2  Z      0.53187     0.50037
             15  C  2  S      1.11217     0.58025
             16  C  2  X      0.50631     0.58357
             17  C  2  Y      0.47370     0.57096
             18  C  2  Z      0.51353     0.59352
             19  C  3  S      1.98829     1.97646
             20  C  3  S      0.35169     0.41517
             21  C  3  X      0.53974     0.51011
             22  C  3  Y      0.54308     0.51102
             23  C  3  Z      0.52906     0.51016
             24  C  3  S      1.11272     0.58011
             25  C  3  X      0.54262     0.59989
             26  C  3  Y      0.55949     0.60399
             27  C  3  Z      0.38851     0.54688
             28  O  4  S      1.98737     1.98174
             29  O  4  S      0.42857     0.58653
             30  O  4  X      0.79157     0.79262
             31  O  4  Y      0.67924     0.67325
             32  O  4  Z      0.59702     0.58835
             33  O  4  S      1.56982     1.04171
             34  O  4  X      0.92510     0.95687
             35  O  4  Y      0.82107     0.85275
             36  O  4  Z      0.77158     0.79561
             37  C  5  S      1.98950     1.97623
             38  C  5  S      0.34152     0.41189
             39  C  5  X      0.52739     0.51312
             40  C  5  Y      0.52558     0.50831
             41  C  5  Z      0.54104     0.51411
             42  C  5  S      1.11536     0.56118
             43  C  5  X      0.36986     0.52850
             44  C  5  Y      0.45056     0.55390
             45  C  5  Z      0.53517     0.58553
             46  C  6  S      1.98984     1.97635
             47  C  6  S      0.34157     0.42121
             48  C  6  X      0.52993     0.51959
             49  C  6  Y      0.54471     0.52703
             50  C  6  Z      0.54294     0.51705
             51  C  6  S      1.14330     0.56792
             52  C  6  X      0.35895     0.53734
             53  C  6  Y      0.48753     0.56308
             54  C  6  Z      0.53772     0.57846
             55  C  7  S      1.98944     1.97625
             56  C  7  S      0.34245     0.41282
             57  C  7  X      0.52938     0.51501
             58  C  7  Y      0.53202     0.51479
             59  C  7  Z      0.53678     0.50998
             60  C  7  S      1.10540     0.56163
             61  C  7  X      0.37746     0.53395
             62  C  7  Y      0.44585     0.55261
             63  C  7  Z      0.52372     0.57955
             64  C  8  S      1.99105     1.97617
             65  C  8  S      0.33019     0.41878
             66  C  8  X      0.53347     0.53054
             67  C  8  Y      0.52209     0.51621
             68  C  8  Z      0.53561     0.51323
             69  C  8  S      1.15365     0.55514
             70  C  8  X      0.35467     0.52017
             71  C  8  Y      0.36729     0.53299
             72  C  8  Z      0.56470     0.57740
             73  C  9  S      1.99038     1.97609
             74  C  9  S      0.33187     0.40785
             75  C  9  X      0.53096     0.51459
             76  C  9  Y      0.51429     0.50390
             77  C  9  Z      0.53368     0.51661
             78  C  9  S      1.12453     0.55008
             79  C  9  X      0.47426     0.54596
             80  C  9  Y      0.35457     0.51819
             81  C  9  Z      0.44530     0.54620
             82  C 10  S      1.98857     1.97703
             83  C 10  S      0.41108     0.44265
             84  C 10  X      0.54453     0.52424
             85  C 10  Y      0.52786     0.51219
             86  C 10  Z      0.44190     0.42783
             87  C 10  S      0.71788     0.53195
             88  C 10  X      0.30520     0.48056
             89  C 10  Y      0.20560     0.43768
             90  C 10  Z      0.26209     0.42978
             91  C 11  S      1.99041     1.97598
             92  C 11  S      0.33395     0.40559
             93  C 11  X      0.51376     0.50431
             94  C 11  Y      0.52711     0.51133
             95  C 11  Z      0.54489     0.52307
             96  C 11  S      1.11880     0.54664
             97  C 11  X      0.32809     0.51013
             98  C 11  Y      0.37993     0.52884
             99  C 11  Z      0.53958     0.57235
            100  H 12  S      0.46721     0.47082
            101  H 12  S      0.33039     0.44067
            102  H 13  S      0.46967     0.47306
            103  H 13  S      0.33283     0.44246
            104  H 14  S      0.46634     0.46976
            105  H 14  S      0.34521     0.44881
            106  H 15  S      0.46489     0.48278
            107  H 15  S      0.29904     0.42437
            108  H 16  S      0.46732     0.47109
            109  H 16  S      0.35208     0.45180
            110  H 17  S      0.46616     0.46810
            111  H 17  S      0.30676     0.43274
            112  H 18  S      0.46783     0.47105
            113  H 18  S      0.33636     0.44337
            114  H 19  S      0.45916     0.47770
            115  H 19  S      0.31703     0.43161
            116  H 20  S      0.46603     0.47697
            117  H 20  S      0.31977     0.43720
            118  H 21  S      0.46809     0.47895
            119  H 21  S      0.30266     0.42842
            120  H 22  S      0.46081     0.47073
            121  H 22  S      0.31437     0.43075
            122  H 23  S      0.46250     0.47090
            123  H 23  S      0.29141     0.42436
            124  H 24  S      0.46697     0.47935
            125  H 24  S      0.32849     0.43963
            126  H 25  S      0.46709     0.47726
            127  H 25  S      0.31911     0.43534
            128  H 26  S      0.46788     0.48712
            129  H 26  S      0.30342     0.42666
            130  H 27  S      0.46659     0.46948
            131  H 27  S      0.32683     0.43916
            132  H 28  S      0.46717     0.46999
            133  H 28  S      0.33395     0.44277
            134  H 29  S      0.46694     0.46889
            135  H 29  S      0.32432     0.44021

          ----- MULLIKEN ATOMIC OVERLAP POPULATIONS -----
          (OFF-DIAGONAL ELEMENTS NEED TO BE MULTIPLIED BY 2)

             1           2           3           4           5

    1    5.3676662
    2   -0.0885112   5.3858812
    3    0.0000002   0.0000001   5.3743724
    4    0.0000963  -0.0052276   0.0000807   8.1812153
    5   -0.0050066   0.0027632   0.0010641   0.0004688   5.4840681
    6   -0.0000246  -0.0002786  -0.0876142  -0.0807710   0.0107938
    7    0.0000895  -0.0000574  -0.0783773   0.0000980   0.2426539
    8   -0.0698517  -0.0809583   0.0002885  -0.0929584   0.2224075
    9   -0.0000029   0.0000020   0.2486718   0.0007002  -0.0851014
   10    0.0035482  -0.0006133   0.0023702   0.5368843  -0.0789143
   11    0.2546555   0.2628381  -0.0000113   0.0096241  -0.0504238
   12    0.3813386  -0.0021246  -0.0000000  -0.0000000   0.0000964
   13    0.3797525   0.0032968  -0.0000000   0.0000012  -0.0002739
   14    0.3730309  -0.0003542  -0.0000000  -0.0000006  -0.0002069
   15   -0.0415576  -0.0407818  -0.0000023   0.0057674   0.0003876
   16   -0.0008792   0.3711253  -0.0000000   0.0000422  -0.0000412
   17    0.0032862   0.3715677  -0.0000000   0.0088623   0.0000509
   18   -0.0012558   0.3795412  -0.0000000   0.0000401  -0.0000437
   19    0.0003011  -0.0019341   0.0000098   0.0012485  -0.0433210
   20   -0.0001665  -0.0000219   0.0014046   0.0002812   0.3844784
   21   -0.0006793  -0.0000044  -0.0000434  -0.0000211   0.3945422
   22   -0.0000006   0.0000340   0.0033842   0.0013704   0.0000185
   23    0.0000002   0.0000021  -0.0014239   0.0030437  -0.0003053
   24   -0.0000024   0.0000003   0.0034376   0.0000009  -0.0485526
   25    0.0000001   0.0000003  -0.0021277   0.0000001  -0.0399736
   26    0.0000000  -0.0000000  -0.0445722  -0.0000232   0.0034298
   27    0.0000000  -0.0000000   0.3795495   0.0000020  -0.0000582
   28   -0.0000000   0.0000000   0.3793865   0.0000016   0.0001178
   29    0.0000001   0.0000001   0.3753456   0.0005081   0.0008609

             6           7           8           9          10

    6    5.7519082
    7   -0.0935500   5.4781164
    8   -0.1552678  -0.0819584   6.0220728
    9    0.2225547   0.2464247   0.0147051   5.6079004
   10    0.1943103   0.0058946   0.1242940  -0.0789220   4.8753383
   11    0.0042220   0.0026325   0.2127776  -0.0002123  -0.0650077
   12    0.0000002  -0.0000002   0.0036829   0.0000000  -0.0000499
   13    0.0000000   0.0000370  -0.0014885  -0.0000011  -0.0000400
   14   -0.0000009  -0.0000318  -0.0016476   0.0000003  -0.0000409
   15    0.0002611  -0.0000503  -0.0539433  -0.0000194  -0.0014269
   16    0.0000020  -0.0000004  -0.0023352   0.0000001   0.0003299
   17    0.0002644  -0.0000011  -0.0048381  -0.0000014   0.0031846
   18    0.0000014   0.0000003   0.0037678  -0.0000000  -0.0000313
   19    0.0035243  -0.0002920   0.3740650  -0.0002541  -0.0403088
   20    0.0008844  -0.0417135  -0.0510710  -0.0024005  -0.0006666
   21   -0.0003469  -0.0392144  -0.0392692   0.0032624   0.0025558
   22    0.3682969   0.0000354   0.0042744  -0.0378924  -0.0415154
   23    0.3741107   0.0029700   0.0044978  -0.0311429  -0.0424746
   24   -0.0003500   0.3882061  -0.0013246  -0.0463013   0.0002214
   25    0.0036656   0.3914679   0.0033977  -0.0405637  -0.0002323
   26   -0.0400764  -0.0415244  -0.0003929   0.4058200   0.0029223
   27   -0.0008094   0.0032962  -0.0000104  -0.0420821   0.0000346
   28    0.0035054  -0.0015880   0.0000094  -0.0430144  -0.0000452
   29   -0.0027110  -0.0010564  -0.0002130  -0.0422939   0.0031049

            11          12          13          14          15

   11    5.5490089
   12   -0.0439330   0.5108649
   13   -0.0393832  -0.0261300   0.5154136
   14   -0.0460097  -0.0267288  -0.0268292   0.5330582
   15    0.3967635  -0.0015293  -0.0015274   0.0029504   0.4936631
   16   -0.0490753  -0.0000017  -0.0000370   0.0022390   0.0031445
   17   -0.0373252   0.0000178  -0.0000499  -0.0000606  -0.0012696
   18   -0.0430781   0.0021349  -0.0000207  -0.0000026  -0.0018122
   19   -0.0402411  -0.0000676   0.0000435   0.0017134   0.0033176
   20    0.0008580  -0.0000254   0.0003814   0.0000489   0.0015845
   21   -0.0019161   0.0000487  -0.0006504   0.0004213   0.0000030
   22   -0.0001178  -0.0000000   0.0000000  -0.0000001  -0.0000034
   23   -0.0000636  -0.0000000  -0.0000000   0.0000000  -0.0000011
   24   -0.0000293  -0.0000000   0.0000005   0.0000013   0.0000004
   25   -0.0000410  -0.0000000   0.0000003   0.0000005   0.0000007
   26    0.0000029  -0.0000000   0.0000000  -0.0000000   0.0000000
   27   -0.0000000   0.0000000   0.0000000   0.0000000   0.0000001
   28   -0.0000001  -0.0000000   0.0000000   0.0000000   0.0000000
   29    0.0000022  -0.0000000  -0.0000003  -0.0000000   0.0000079

            16          17          18          19          20

   16    0.5435974
   17   -0.0244945   0.4762511
   18   -0.0270733  -0.0223431   0.5143705
   19    0.0028627  -0.0001358  -0.0000122   0.5119312
   20    0.0000008  -0.0000013   0.0000008   0.0033301   0.5125948
   21    0.0000027  -0.0000025  -0.0000006  -0.0027488  -0.0257776
   22   -0.0000035  -0.0000355  -0.0000001   0.0007283   0.0000087
   23    0.0000001  -0.0000032  -0.0000000  -0.0000790  -0.0000209
   24   -0.0000005  -0.0000001   0.0000000   0.0025687   0.0031004
   25    0.0000000   0.0000000  -0.0000000  -0.0000239  -0.0018327
   26   -0.0000000   0.0000000   0.0000000  -0.0000306  -0.0000369
   27    0.0000000  -0.0000000   0.0000000   0.0000003  -0.0000036
   28    0.0000000  -0.0000000  -0.0000000   0.0000003   0.0000895
   29   -0.0000000   0.0000001  -0.0000000   0.0000004   0.0004923

            21          22          23          24          25

   21    0.4840550
   22   -0.0000107   0.4959967
   23    0.0000046  -0.0173174   0.4617727
   24   -0.0021726   0.0016587  -0.0000477   0.5225784
   25   -0.0012390  -0.0000491  -0.0000414  -0.0245514   0.4971385
   26   -0.0000469  -0.0035789  -0.0013894  -0.0028719  -0.0008677
   27    0.0000004  -0.0000449   0.0017079  -0.0000489  -0.0000150
   28   -0.0000057  -0.0000451   0.0000018  -0.0000146   0.0020919
   29    0.0000131  -0.0000070   0.0001123  -0.0000434  -0.0000054

            26          27          28          29

   26    0.4952984
   27   -0.0020446   0.5045502
   28   -0.0014662  -0.0247805   0.5121903
   29    0.0027445  -0.0258212  -0.0253129   0.5055355

          TOTAL MULLIKEN AND LOWDIN ATOMIC POPULATIONS
       ATOM         MULL.POP.    CHARGE          LOW.POP.     CHARGE
    1 C             6.555827   -0.555827         6.250390   -0.250390
    2 C             6.556185   -0.556185         6.252407   -0.252407
    3 C             6.555194   -0.555194         6.253798   -0.253798
    4 O             8.571335   -0.571335         8.269433   -0.269433
    5 C             6.395979   -0.395979         6.152776   -0.152776
    6 C             6.476504   -0.476504         6.208034   -0.208034
    7 C             6.382507   -0.382507         6.156590   -0.156590
    8 C             6.352712   -0.352712         6.140635   -0.140635
    9 C             6.299836   -0.299836         6.079470   -0.079470
   10 C             5.404704    0.595296         5.763921    0.236079
   11 C             6.276517   -0.276517         6.078247   -0.078247
   12 H             0.797594    0.202406         0.911488    0.088512
   13 H             0.802495    0.197505         0.915516    0.084484
   14 H             0.811550    0.188450         0.918569    0.081431
   15 H             0.763927    0.236073         0.907143    0.092857
   16 H             0.819405    0.180595         0.922890    0.077110
   17 H             0.772923    0.227077         0.900843    0.099157
   18 H             0.804183    0.195817         0.914419    0.085581
   19 H             0.776196    0.223804         0.909311    0.090689
   20 H             0.785800    0.214200         0.914168    0.085832
   21 H             0.770760    0.229240         0.907371    0.092629
   22 H             0.775184    0.224816         0.901473    0.098527
   23 H             0.753913    0.246087         0.895260    0.104740
   24 H             0.795464    0.204536         0.918978    0.081022
   25 H             0.786200    0.213800         0.912595    0.087405
   26 H             0.771296    0.228704         0.913784    0.086216
   27 H             0.793422    0.206578         0.908635    0.091365
   28 H             0.801122    0.198878         0.912758    0.087242
   29 H             0.791263    0.208737         0.909099    0.090901

          -------------------------------
          BOND ORDER AND VALENCE ANALYSIS     BOND ORDER THRESHOLD=0.050
          -------------------------------

                   BOND                       BOND                       BOND
  ATOM PAIR DIST  ORDER      ATOM PAIR DIST  ORDER      ATOM PAIR DIST  ORDER
    1  11  1.537  0.917        1  12  1.095  0.929        1  13  1.094  0.931
    1  14  1.098  0.929        2  11  1.539  0.914        2  16  1.098  0.930
    2  17  1.092  0.915        2  18  1.096  0.933        3   9  1.537  0.909
    3  27  1.095  0.929        3  28  1.096  0.931        3  29  1.095  0.922
    4  10  1.218  1.805        5   7  1.538  0.907        5   8  1.554  0.889
    5  20  1.098  0.916        5  21  1.094  0.921        6   9  1.551  0.888
    6  10  1.523  0.859        6  22  1.099  0.913        6  23  1.094  0.914
    7   9  1.542  0.897        7  24  1.099  0.924        7  25  1.097  0.927
    8  10  1.535  0.826        8  11  1.546  0.889        8  19  1.103  0.905
    9  26  1.098  0.922       11  15  1.098  0.907

                       TOTAL       BONDED        FREE
      ATOM            VALENCE     VALENCE     VALENCE
    1 C                 3.661       3.661      -0.000
    2 C                 3.642       3.642      -0.000
    3 C                 3.645       3.645       0.000
    4 O                 1.913       1.913      -0.000
    5 C                 3.569       3.569       0.000
    6 C                 3.517       3.517       0.000
    7 C                 3.577       3.577      -0.000
    8 C                 3.426       3.426      -0.000
    9 C                 3.538       3.538       0.000
   10 C                 3.419       3.419      -0.000
   11 C                 3.545       3.545      -0.000
   12 H                 0.918       0.918       0.000
   13 H                 0.919       0.919      -0.000
   14 H                 0.921       0.921       0.000
   15 H                 0.902       0.902      -0.000
   16 H                 0.923       0.923      -0.000
   17 H                 0.921       0.921       0.000
   18 H                 0.922       0.922       0.000
   19 H                 0.905       0.905       0.000
   20 H                 0.909       0.909       0.000
   21 H                 0.906       0.906       0.000
   22 H                 0.908       0.908       0.000
   23 H                 0.907       0.907       0.000
   24 H                 0.913       0.913       0.000
   25 H                 0.914       0.914       0.000
   26 H                 0.901       0.901       0.000
   27 H                 0.917       0.917       0.000
   28 H                 0.920       0.920       0.000
   29 H                 0.916       0.916      -0.000

          ---------------------
          ELECTROSTATIC MOMENTS
          ---------------------

 POINT   1           X           Y           Z (BOHR)    CHARGE
                -0.010416    0.000838   -0.125743       -0.00 (A.U.)
         DX          DY          DZ         /D/  (DEBYE)
    -1.230723    2.311029    1.665076    3.102903
 ...... END OF PROPERTY EVALUATION ......
 CPU     0: STEP CPU TIME=     0.06 TOTAL CPU TIME=          4.6 (      0.1 MIN)
 TOTAL WALL CLOCK TIME=         12.0 SECONDS, CPU UTILIZATION IS    38.12%
               580000  WORDS OF DYNAMIC MEMORY USED
 EXECUTION OF GAMESS TERMINATED NORMALLY Mon May 25 19:13:38 2020
 DDI: 263640 bytes (0.3 MB / 0 MWords) used by master data server.
Note: The following floating-point exceptions are signalling: IEEE_DENORMALNote: The following floating-point exceptions are signalling: IEEE_DENORMALNote: The following floating-point exceptions are signalling: IEEE_DENORMAL

Note: The following floating-point exceptions are signalling: IEEE_DENORMAL
 ----------------------------------------
 CPU timing information for all processes
 ========================================
 0: 4.415 + 0.165 = 4.580
 1: 4.376 + 0.44 = 4.420
 2: 4.439 + 0.40 = 4.479
 3: 4.312 + 0.36 = 4.348
 4: 4.231 + 0.47 = 4.279
 5: 4.381 + 0.16 = 4.398
 ----------------------------------------
Note: The following floating-point exceptions are signalling: IEEE_DENORMAL


Note: The following floating-point exceptions are signalling: IEEE_DENORMAL
 ddikick.x: exited gracefully.
unset echo
----- accounting info -----
Files used on the master node pietdev were:
-rwxr-xr-x 1 piet piet     1245 mei 25 19:13 /home/piet/scr/menthone_fukui_neu.F05*
-rw-r--r-- 1 piet piet 49152000 mei 25 19:13 /home/piet/scr/menthone_fukui_neu.F10
ls: No match.
ls: No match.
ls: No match.
ma 25 mei 2020 19:13:41 CEST
0.122u 0.037s 0:15.17 0.9%	0+0k 0+8io 0pf+0w
