----- GAMESS execution script 'rungms' -----
This job is running on host pietdev
under operating system Linux at zo 17 mei 2020 21:55:24 CEST
Available scratch disk space (Kbyte units) at beginning of the job is
Filesystem     1K-blocks     Used Available Use% Mounted on
/dev/sda2      244568380 30477620 201597704  14% /
GAMESS temporary binary files will be written to /home/piet/scr
GAMESS supplementary output files will be written to /home/piet/gamess/scr
Copying input file 6H2O_fukui_base.inp to your run's scratch directory...
cp 6H2O_fukui_base.inp /home/piet/scr/6H2O_fukui_base.F05
unset echo
 
Assuming a single but multicore node.
 
/home/piet/gamess/ddikick.x /home/piet/gamess/gamess.03.x 6H2O_fukui_base -ddi 1 6 pietdev:cpus=6 -scr /home/piet/scr

 Distributed Data Interface kickoff program.
 Initiating 6 compute processes on 1 nodes to run the following command:
 /home/piet/gamess/gamess.03.x 6H2O_fukui_base 

          ******************************************************
          *         GAMESS VERSION = 30 SEP 2019 (R2)          *
          *             FROM IOWA STATE UNIVERSITY             *
          * M.W.SCHMIDT, K.K.BALDRIDGE, J.A.BOATZ, S.T.ELBERT, *
          *   M.S.GORDON, J.H.JENSEN, S.KOSEKI, N.MATSUNAGA,   *
          *          K.A.NGUYEN, S.J.SU, T.L.WINDUS,           *
          *       TOGETHER WITH M.DUPUIS, J.A.MONTGOMERY       *
          *         J.COMPUT.CHEM.  14, 1347-1363(1993)        *
          **************** 64 BIT LINUX VERSION ****************

  SINCE 1993, STUDENTS AND POSTDOCS WORKING AT IOWA STATE UNIVERSITY
  AND ALSO IN THEIR VARIOUS JOBS AFTER LEAVING ISU HAVE MADE IMPORTANT
  CONTRIBUTIONS TO THE CODE:
     IVANA ADAMOVIC, CHRISTINE AIKENS, YURI ALEXEEV, POOJA ARORA,
     ANDREY ASADCHEV, ROB BELL, PRADIPTA BANDYOPADHYAY, JONATHAN BENTZ,
     COLLEEN BERTONI, BRETT BODE, KURT BRORSEN, CALEB CARLIN, GALINA CHABAN,
     WEI CHEN, CHEOL HO CHOI, PAUL DAY, ALBERT DEFUSCO, NUWAN DESILVA,
     TIM DUDLEY, DMITRI FEDOROV, ALEX FINDLATER, GRAHAM FLETCHER, 
     MARK FREITAG, KURT GLAESEMANN, EMILIE B GUIDEZ, ANASTASIA GUNINA, 
     DAN KEMP, SAROM SOK LEANG, GRANT MERRILL,
     NORIYUKI MINEZAWA, JONATHAN MULLIN,
     TAKESHI NAGATA, SEAN NEDD, HEATHER NETZLOFF, BOSILJKA NJEGIC, RYAN OLSON,
     MIKE PAK, BUU PHAM, DAVID POOLE,
     SPENCER PRUITT, LUKE ROSKOP, TOSAPORN SATTASATHUCHANA,
     JIM SHOEMAKER, LYUDMILA SLIPCHENKO,
     TONY SMITH, JIE SONG, TETSUYA TAKETSUGU, SIMON WEBB,
     JORGE LUIS GALVEZ VALLEJO, PENG XU, SOOHAENG YOO,
     FEDERICO ZAHARIEV

  ADDITIONAL CODE HAS BEEN PROVIDED BY COLLABORATORS IN OTHER GROUPS:
     IOWA STATE UNIVERSITY:
          JOE IVANIC, AARON WEST, LAIMUTIS BYTAUTAS, KLAUS RUEDENBERG
     UNIVERSITY OF TOKYO: KIMIHIKO HIRAO, TAKAHITO NAKAJIMA,
          TAKAO TSUNEDA, MUNEAKI KAMIYA, SUSUMU YANAGISAWA,
          KIYOSHI YAGI, MAHITO CHIBA, SEIKEN TOKURA, NAOAKI KAWAKAMI
     UNIVERSITY OF AARHUS: FRANK JENSEN
     UNIVERSITY OF IOWA: VISVALDAS KAIRYS, HUI LI
     NATIONAL INST. OF STANDARDS AND TECHNOLOGY: WALT STEVENS, DAVID GARMER
     UNIVERSITY OF PISA: BENEDETTA MENNUCCI, JACOPO TOMASI
     UNIVERSITY OF MEMPHIS: HENRY KURTZ, PRAKASHAN KORAMBATH
     UNIVERSITY OF ALBERTA: TOBY ZENG, MARIUSZ KLOBUKOWSKI
     UNIVERSITY OF NEW ENGLAND: MARK SPACKMAN
     MIE UNIVERSITY: HIROAKI UMEDA
     NAT. INST. OF ADVANCED INDUSTRIAL SCIENCE AND TECHNOLOGY: KAZUO KITAURA
     MICHIGAN STATE UNIVERSITY:
          KAROL KOWALSKI, MARTA WLOCH, JEFFREY GOUR, JESSE LUTZ,
          WEI LI, JUN SHEN, J. EMILIANO DEUSTUA, PIOTR PIECUCH
     UNIVERSITY OF MINNESOTA:
          ANDREW SAND, PRACHI SHARMA, YINAN SHU
     UNIVERSITY OF SILESIA: MONIKA MUSIAL, STANISLAW KUCHARSKI
     FACULTES UNIVERSITAIRES NOTRE-DAME DE LA PAIX:
          OLIVIER QUINET, BENOIT CHAMPAGNE
     UNIVERSITY OF CALIFORNIA - SANTA BARBARA: BERNARD KIRTMAN
     INSTITUTE FOR MOLECULAR SCIENCE:
          KAZUYA ISHIMURA, MICHIO KATOUDA, AND SHIGERU NAGASE
     UNIVERSITY OF NOTRE DAME: ANNA POMOGAEVA, DAN CHIPMAN
     KYUSHU UNIVERSITY:
          HARUYUKI NAKANO,
          FENG LONG GU, JACEK KORCHOWIEC, MARCIN MAKOWSKI, AND YURIKO AOKI,
          HIROTOSHI MORI AND EISAKU MIYOSHI
     PENNSYLVANIA STATE UNIVERSITY:
          TZVETELIN IORDANOV, CHET SWALINA, JONATHAN SKONE,
          SHARON HAMMES-SCHIFFER
     WASEDA UNIVERSITY:
          MASATO KOBAYASHI, TOMOKO AKAMA, TSUGUKI TOUMA,
          TAKESHI YOSHIKAWA, YASUHIRO IKABATA, JUNJI SEINO,
          YUYA NAKAJIMA, HIROMI NAKAI
     NANJING UNIVERSITY: SHUHUA LI
     UNIVERSITY OF NEBRASKA:
          PEIFENG SU, DEJUN SI, NANDUN THELLAMUREGE, YALI WANG, HUI LI
     UNIVERSITY OF ZURICH: ROBERTO PEVERATI, KIM BALDRIDGE
     N. COPERNICUS UNIVERSITY AND JACKSON STATE UNIVERSITY:
          MARIA BARYSZ
     UNIVERSITY OF COPENHAGEN: Jimmy Kromann, CASPER STEINMANN
     TOKYO INSTITUTE OF TECHNOLOGY: HIROYA NAKATA
     NAGOYA UNIVERSITY: YOSHIO NISHIMOTO, STEPHAN IRLE
     MOSCOW STATE UNIVERSITY: VLADIMIR MIRONOV
     A.N.NESMEYANOV INSTITUTE OF ORGANOELEMENT COMPOUNDS OF RUSSIAN ACADEMY OF SCIENCES:
          IGOR S. GERASIMOV
     JOHANNES KEPLER UNIVERSITY LINZ:
          CHRISTIAN FRIEDL


 PARALLEL VERSION RUNNING ON        6 PROCESSORS IN        1 NODES.

 EXECUTION OF GAMESS BEGUN Sun May 17 21:55:24 2020

            ECHO OF THE FIRST FEW INPUT CARDS -
 INPUT CARD> $BASIS GBASIS=N21 NGAUSS=3 $END                                                
 INPUT CARD> $CONTRL SCFTYP=UHF MAXIT=60 MULT=2 ICHARG=1 $END                               
 INPUT CARD> $SYSTEM MEMDDI=1000 MWORDS=30 $END                                             
 INPUT CARD> $SCF DIRSCF=.TRUE. $END                                                        
 INPUT CARD> $STATPT OPTTOL=0.0001 NSTEP=999 $END                                           
 INPUT CARD> $DATA                                                                          
 INPUT CARD>                                                                                
 INPUT CARD>C1                                                                              
 INPUT CARD>O 8.0000000 -1.4014998189 1.5271992212 0.5734888312                             
 INPUT CARD>H 1.0000000 -0.3309512231 0.6181170106 0.6123319044                             
 INPUT CARD>H 1.0000000 -1.5890875816 1.8959916259 1.4743897598                             
 INPUT CARD>O 8.0000000 3.0651474738 3.3356165209 0.4387384947                              
 INPUT CARD>H 1.0000000 3.2623777083 2.9795961184 1.3427053349                              
 INPUT CARD>H 1.0000000 2.2803922912 4.0823603940 0.5286950602                              
 INPUT CARD>O 8.0000000 -0.2723705867 3.2451400270 -0.8202593889                            
 INPUT CARD>H 1.0000000 -0.7437635887 3.5557772150 -1.6347037438                            
 INPUT CARD>H 1.0000000 -1.0168775004 2.3369218315 -0.0533602225                            
 INPUT CARD>O 8.0000000 1.7224562248 1.7565830949 -0.9208043449                             
 INPUT CARD>H 1.0000000 2.4462647370 2.3659471832 -0.3711100901                             
 INPUT CARD>H 1.0000000 0.8646940109 2.3958360109 -1.0623385018                             
 INPUT CARD>O 8.0000000 1.0984729340 4.8685916140 0.4753037569                              
 INPUT CARD>H 1.0000000 0.4009966397 4.2394140140 -0.0806653228                             
 INPUT CARD>H 1.0000000 1.2679241305 5.6909696651 -0.0520375905                             
 INPUT CARD>O 8.0000000 0.6035589259 0.0612392990 0.4974814543                              
 INPUT CARD>H 1.0000000 0.4026775275 -0.7867025569 0.0251758989                             
 INPUT CARD>H 1.0000000 1.3527577958 0.9246614113 -0.3108110900                             
 INPUT CARD> $END                                                                           
   30000000 WORDS OF MEMORY AVAILABLE

     BASIS OPTIONS
     -------------
     GBASIS=N21          IGAUSS=       3      POLAR=NONE    
     NDFUNC=       0     NFFUNC=       0     DIFFSP=       F
     NPFUNC=       0      DIFFS=       F     BASNAM=        


     RUN TITLE
     ---------
                                                                                 

 THE POINT GROUP OF THE MOLECULE IS C1      
 THE ORDER OF THE PRINCIPAL AXIS IS     0

 ATOM      ATOMIC                      COORDINATES (BOHR)
           CHARGE         X                   Y                   Z
 O           8.0    -2.6484506296        2.8859880567        1.0837367480
 H           1.0    -0.6254071270        1.1680717784        1.1571395129
 H           1.0    -3.0029400997        3.5829046480        2.7861926451
 O           8.0     5.7922888374        6.3034012246        0.8290955352
 H           1.0     6.1649999371        5.6306202179        2.5373451652
 H           1.0     4.3093165749        7.7145425278        0.9990887948
 O           8.0    -0.5147057760        6.1324254428       -1.5500654839
 H           1.0    -1.4055093823        6.7194446097       -3.0891421469
 H           1.0    -1.9216198388        4.4161419163       -0.1008361992
 O           8.0     3.2549702907        3.3194607240       -1.7400679002
 H           1.0     4.6227700464        4.4709918777       -0.7012963816
 H           1.0     1.6340347438        4.5274735721       -2.0075286746
 O           8.0     2.0758128502        9.2003040966        0.8981938615
 H           1.0     0.7577737710        8.0113308350       -0.1524353568
 H           1.0     2.3960291799       10.7543732715       -0.0983367871
 O           8.0     1.1405609874        0.1157254948        0.9401036326
 H           1.0     0.7609501884       -1.4866522664        0.0475755504
 H           1.0     2.5563415618        1.7473566988       -0.5873477940

          INTERNUCLEAR DISTANCES (ANGS.)
          ------------------------------

                1 O          2 H          3 H          4 O          5 H     

   1 O       0.0000000    1.4049959 *  0.9913725 *  4.8207332    4.9449878  
   2 H       1.4049959 *  0.0000000    1.9897272 *  4.3529788    4.3614266  
   3 H       0.9913725 *  1.9897272 *  0.0000000    4.9806623    4.9727512  
   4 O       4.8207332    4.3529788    4.9806623    0.0000000    0.9913659 *
   5 H       4.9449878    4.3614266    4.9727512    0.9913659 *  0.0000000  
   6 H       4.4818729    4.3390197    4.5439434    1.0869955 *  1.6861190 *
   7 O       2.4837044 *  2.9928247 *  2.9697407 *  3.5682332    4.1525144  
   8 H       3.0698306    3.7214823    3.6243514    4.3422848    5.0245515  
   9 H       1.0938577 *  1.9667056 *  1.6899301 *  4.2311323    4.5468730  
  10 O       3.4705375    2.8041209 *  4.0893413    2.4788149 *  2.9984321 *
  11 H       4.0498219    3.4256382    4.4621515    1.4068153 *  1.9949358 *
  12 H       2.9267893 *  2.7192597 *  3.5645307    2.8246088 *  3.4458524  
  13 O       4.1742553    4.4864869    4.1300733    2.4938241 *  3.0005288  
  14 H       3.3215990    3.7589606    3.4453244    2.8608268 *  3.4352040  
  15 H       4.9853878    5.3601887    4.9894243    3.0030920    3.6434461  
  16 O       2.4849701 *  1.0938979 *  3.0213184    4.0968787    4.0373911  
  17 H       2.9849362 *  1.6901128 *  3.6420046    4.9247634    4.9090503  
  18 H       2.9548220 *  1.9444893 *  3.5755949    3.0507061    3.2563049  

                6 H          7 O          8 H          9 H         10 O     

   1 O       4.4818729    2.4837044 *  3.0698306    1.0938577 *  3.4705375  
   2 H       4.3390197    2.9928247 *  3.7214823    1.9667056 *  2.8041209 *
   3 H       4.5439434    2.9697407 *  3.6243514    1.6899301 *  4.0893413  
   4 O       1.0869955 *  3.5682332    4.3422848    4.2311323    2.4788149 *
   5 H       1.6861190 *  4.1525144    5.0245515    4.5468730    2.9984321 *
   6 H       0.0000000    3.0061960    3.7554098    3.7758883    2.7967090 *
   7 O       3.0061960    0.0000000    0.9909725 *  1.4025994 *  2.4910329 *
   8 H       3.7554098    0.9909725 *  0.0000000    2.0151543 *  3.1351223  
   9 H       3.7758883    1.4025994 *  2.0151543 *  0.0000000    2.9314163 *
  10 O       2.7967090 *  2.4910329 *  3.1351223    2.9314163 *  0.0000000  
  11 H       1.9450546 *  2.8923508 *  3.6316174    3.4778099    1.0942519 *
  12 H       2.7166071 *  1.4397345 *  2.0640255 *  2.1358416 *  1.0790886 *
  13 O       1.4205434 *  2.4886323 *  3.0934526    3.3411892    3.4674299  
  14 H       1.9819470 *  1.4103204 *  2.0476500 *  2.3728862 *  2.9353941 *
  15 H       1.9874521 *  2.9907784 *  3.3332816    4.0583195    4.0547198  
  16 O       4.3568520    3.5554068    4.3096736    2.8474500 *  2.4774294 *
  17 H       5.2428159    4.1744707    4.7881790    3.4319577    3.0174486  
  18 H       3.3965187    2.8784025 *  3.6153650    2.7705472 *  1.0958387 *

               11 H         12 H         13 O         14 H         15 H     

   1 O       4.0498219    2.9267893 *  4.1742553    3.3215990    4.9853878  
   2 H       3.4256382    2.7192597 *  4.4864869    3.7589606    5.3601887  
   3 H       4.4621515    3.5645307    4.1300733    3.4453244    4.9894243  
   4 O       1.4068153 *  2.8246088 *  2.4938241 *  2.8608268 *  3.0030920  
   5 H       1.9949358 *  3.4458524    3.0005288    3.4352040    3.6434461  
   6 H       1.9450546 *  2.7166071 *  1.4205434 *  1.9819470 *  1.9874521 *
   7 O       2.8923508 *  1.4397345 *  2.4886323 *  1.4103204 *  2.9907784 *
   8 H       3.6316174    2.0640255 *  3.0934526    2.0476500 *  3.3332816  
   9 H       3.4778099    2.1358416 *  3.3411892    2.3728862 *  4.0583195  
  10 O       1.0942519 *  1.0790886 *  3.4674299    2.9353941 *  4.0547198  
  11 H       0.0000000    1.7262839 *  2.9658369 *  2.7887914 *  3.5420430  
  12 H       1.7262839 *  0.0000000    2.9212183 *  2.1395040 *  3.4700444  
  13 O       2.9658369 *  2.9212183 *  0.0000000    1.0915307 *  0.9915182 *
  14 H       2.7887914 *  2.1395040 *  1.0915307 *  0.0000000    1.6909751 *
  15 H       3.5420430    3.4700444    0.9915182 *  1.6909751 *  0.0000000  
  16 O       3.0759867    2.8198531 *  4.8328116    4.2228461    5.6953680  
  17 H       3.7778951    3.3948046    5.7156888    5.0272311    6.5356600  
  18 H       1.8101652 *  1.7226011 *  4.0295437    3.4563566    4.7740816  

               16 O         17 H         18 H     

   1 O       2.4849701 *  2.9849362 *  2.9548220 *
   2 H       1.0938979 *  1.6901128 *  1.9444893 *
   3 H       3.0213184    3.6420046    3.5755949  
   4 O       4.0968787    4.9247634    3.0507061  
   5 H       4.0373911    4.9090503    3.2563049  
   6 H       4.3568520    5.2428159    3.3965187  
   7 O       3.5554068    4.1744707    2.8784025 *
   8 H       4.3096736    4.7881790    3.6153650  
   9 H       2.8474500 *  3.4319577    2.7705472 *
  10 O       2.4774294 *  3.0174486    1.0958387 *
  11 H       3.0759867    3.7778951    1.8101652 *
  12 H       2.8198531 *  3.3948046    1.7226011 *
  13 O       4.8328116    5.7156888    4.0295437  
  14 H       4.2228461    5.0272311    3.4563566  
  15 H       5.6953680    6.5356600    4.7740816  
  16 O       0.0000000    0.9911767 *  1.4000477 *
  17 H       0.9911767 *  0.0000000    1.9860278 *
  18 H       1.4000477 *  1.9860278 *  0.0000000  

  * ... LESS THAN  3.000


     ATOMIC BASIS SET
     ----------------
 THE CONTRACTED PRIMITIVE FUNCTIONS HAVE BEEN UNNORMALIZED
 THE CONTRACTED BASIS FUNCTIONS ARE NOW NORMALIZED TO UNITY

  SHELL TYPE  PRIMITIVE        EXPONENT          CONTRACTION COEFFICIENT(S)

 O         

      1   S       1           322.0370000    0.059239393389
      1   S       2            48.4308000    0.351499960776
      1   S       3            10.4206000    0.707657921031

      2   L       4             7.4029400   -0.404453583190    0.244586106967
      2   L       5             1.5762000    1.221561761397    0.853955373466

      3   L       6             0.3736840    1.000000000000    1.000000000000

 H         

      4   S       7             5.4471780    0.156284978695
      4   S       8             0.8245472    0.904690876670

      5   S       9             0.1831916    1.000000000000

 H         

      6   S      10             5.4471780    0.156284978695
      6   S      11             0.8245472    0.904690876670

      7   S      12             0.1831916    1.000000000000

 O         

      8   S      13           322.0370000    0.059239393389
      8   S      14            48.4308000    0.351499960776
      8   S      15            10.4206000    0.707657921031

      9   L      16             7.4029400   -0.404453583190    0.244586106967
      9   L      17             1.5762000    1.221561761397    0.853955373466

     10   L      18             0.3736840    1.000000000000    1.000000000000

 H         

     11   S      19             5.4471780    0.156284978695
     11   S      20             0.8245472    0.904690876670

     12   S      21             0.1831916    1.000000000000

 H         

     13   S      22             5.4471780    0.156284978695
     13   S      23             0.8245472    0.904690876670

     14   S      24             0.1831916    1.000000000000

 O         

     15   S      25           322.0370000    0.059239393389
     15   S      26            48.4308000    0.351499960776
     15   S      27            10.4206000    0.707657921031

     16   L      28             7.4029400   -0.404453583190    0.244586106967
     16   L      29             1.5762000    1.221561761397    0.853955373466

     17   L      30             0.3736840    1.000000000000    1.000000000000

 H         

     18   S      31             5.4471780    0.156284978695
     18   S      32             0.8245472    0.904690876670

     19   S      33             0.1831916    1.000000000000

 H         

     20   S      34             5.4471780    0.156284978695
     20   S      35             0.8245472    0.904690876670

     21   S      36             0.1831916    1.000000000000

 O         

     22   S      37           322.0370000    0.059239393389
     22   S      38            48.4308000    0.351499960776
     22   S      39            10.4206000    0.707657921031

     23   L      40             7.4029400   -0.404453583190    0.244586106967
     23   L      41             1.5762000    1.221561761397    0.853955373466

     24   L      42             0.3736840    1.000000000000    1.000000000000

 H         

     25   S      43             5.4471780    0.156284978695
     25   S      44             0.8245472    0.904690876670

     26   S      45             0.1831916    1.000000000000

 H         

     27   S      46             5.4471780    0.156284978695
     27   S      47             0.8245472    0.904690876670

     28   S      48             0.1831916    1.000000000000

 O         

     29   S      49           322.0370000    0.059239393389
     29   S      50            48.4308000    0.351499960776
     29   S      51            10.4206000    0.707657921031

     30   L      52             7.4029400   -0.404453583190    0.244586106967
     30   L      53             1.5762000    1.221561761397    0.853955373466

     31   L      54             0.3736840    1.000000000000    1.000000000000

 H         

     32   S      55             5.4471780    0.156284978695
     32   S      56             0.8245472    0.904690876670

     33   S      57             0.1831916    1.000000000000

 H         

     34   S      58             5.4471780    0.156284978695
     34   S      59             0.8245472    0.904690876670

     35   S      60             0.1831916    1.000000000000

 O         

     36   S      61           322.0370000    0.059239393389
     36   S      62            48.4308000    0.351499960776
     36   S      63            10.4206000    0.707657921031

     37   L      64             7.4029400   -0.404453583190    0.244586106967
     37   L      65             1.5762000    1.221561761397    0.853955373466

     38   L      66             0.3736840    1.000000000000    1.000000000000

 H         

     39   S      67             5.4471780    0.156284978695
     39   S      68             0.8245472    0.904690876670

     40   S      69             0.1831916    1.000000000000

 H         

     41   S      70             5.4471780    0.156284978695
     41   S      71             0.8245472    0.904690876670

     42   S      72             0.1831916    1.000000000000

 TOTAL NUMBER OF BASIS SET SHELLS             =   42
 NUMBER OF CARTESIAN GAUSSIAN BASIS FUNCTIONS =   78
 NUMBER OF ELECTRONS                          =   59
 CHARGE OF MOLECULE                           =    1
 SPIN MULTIPLICITY                            =    2
 NUMBER OF OCCUPIED ORBITALS (ALPHA)          =   30
 NUMBER OF OCCUPIED ORBITALS (BETA )          =   29
 TOTAL NUMBER OF ATOMS                        =   18
 THE NUCLEAR REPULSION ENERGY IS      310.9754252674

     $CONTRL OPTIONS
     ---------------
 SCFTYP=UHF          RUNTYP=ENERGY       EXETYP=RUN     
 MPLEVL=       0     CITYP =NONE         CCTYP =NONE         VBTYP =NONE    
 DFTTYP=NONE         TDDFT =NONE    
 MULT  =       2     ICHARG=       1     NZVAR =       0     COORD =UNIQUE  
 PP    =NONE         RELWFN=NONE         LOCAL =NONE         NUMGRD=       F
 ISPHER=      -1     NOSYM =       0     MAXIT =      60     UNITS =ANGS    
 PLTORB=       F     MOLPLT=       F     AIMPAC=       F     FRIEND=        
 NPRINT=       7     IREST =       0     GEOM  =INPUT   
 NORMF =       0     NORMP =       0     ITOL  =      20     ICUT  =       9
 INTTYP=BEST         GRDTYP=BEST         QMTTOL= 1.0E-06

     $SYSTEM OPTIONS
     ---------------
  REPLICATED MEMORY=    30000000 WORDS (ON EVERY NODE).
 DISTRIBUTED MEMDDI=        1000 MILLION WORDS IN AGGREGATE,
 MEMDDI DISTRIBUTED OVER   6 PROCESSORS IS   166666666 WORDS/PROCESSOR.
 TOTAL MEMORY REQUESTED ON EACH PROCESSOR=   196666666 WORDS.
 TIMLIM=      525600.00 MINUTES, OR     365.0 DAYS.
 PARALL= T  BALTYP=  DLB     KDIAG=    0  COREFL= F
 MXSEQ2=     300 MXSEQ3=     150  mem10=         0

          ----------------
          PROPERTIES INPUT
          ----------------

     MOMENTS            FIELD           POTENTIAL          DENSITY
 IEMOM =       1   IEFLD =       0   IEPOT =       0   IEDEN =       0
 WHERE =COMASS     WHERE =NUCLEI     WHERE =NUCLEI     WHERE =NUCLEI  
 OUTPUT=BOTH       OUTPUT=BOTH       OUTPUT=BOTH       OUTPUT=BOTH    
 IEMINT=       0   IEFINT=       0                     IEDINT=       0
                                                       MORB  =       0
          EXTRAPOLATION IN EFFECT
          SOSCF IN EFFECT
          DIIS or SOSCF will be reset if energy rises
 ORBITAL PRINTING OPTION: NPREO=     1    78     2     1

     -------------------------------
     INTEGRAL TRANSFORMATION OPTIONS
     -------------------------------
     NWORD  =            0
     CUTOFF = 1.0E-09     MPTRAN =       0
     DIRTRF =       T     AOINTS =DUP     

          ----------------------
          INTEGRAL INPUT OPTIONS
          ----------------------
 NOPK  =       1 NORDER=       0 SCHWRZ=       T

     ------------------------------------------
     THE POINT GROUP IS C1 , NAXIS= 0, ORDER= 1
     ------------------------------------------

     DIMENSIONS OF THE SYMMETRY SUBSPACES ARE
 A   =   78

 ..... DONE SETTING UP THE RUN .....
 CPU     0: STEP CPU TIME=     0.02 TOTAL CPU TIME=          0.0 (      0.0 MIN)
 TOTAL WALL CLOCK TIME=          0.0 SECONDS, CPU UTILIZATION IS    66.67%

          ********************
          1 ELECTRON INTEGRALS
          ********************
 ...... END OF ONE-ELECTRON INTEGRALS ......
 CPU     0: STEP CPU TIME=     0.00 TOTAL CPU TIME=          0.0 (      0.0 MIN)
 TOTAL WALL CLOCK TIME=          0.0 SECONDS, CPU UTILIZATION IS    66.67%

          -------------
          GUESS OPTIONS
          -------------
          GUESS =HUCKEL            NORB  =       0          NORDER=       0
          MIX   =       F          PRTMO =       F          PUNMO =       F
          TOLZ  = 1.0E-08          TOLE  = 1.0E-05
          SYMDEN=       F          PURIFY=       F

 INITIAL GUESS ORBITALS GENERATED BY HUCKEL   ROUTINE.
 HUCKEL GUESS REQUIRES     64146 WORDS.

 SYMMETRIES FOR INITIAL GUESS ORBITALS FOLLOW.  ALPHA SET(S).
    30 ORBITALS ARE OCCUPIED (    6 CORE ORBITALS).
     7=A        8=A        9=A       10=A       11=A       12=A       13=A   
    14=A       15=A       16=A       17=A       18=A       19=A       20=A   
    21=A       22=A       23=A       24=A       25=A       26=A       27=A   
    28=A       29=A       30=A       31=A       32=A       33=A       34=A   
    35=A       36=A       37=A       38=A       39=A       40=A   

 SYMMETRIES FOR INITIAL GUESS ORBITALS FOLLOW.   BETA SET(S).
    29 ORBITALS ARE OCCUPIED (    6 CORE ORBITALS).
     7=A        8=A        9=A       10=A       11=A       12=A       13=A   
    14=A       15=A       16=A       17=A       18=A       19=A       20=A   
    21=A       22=A       23=A       24=A       25=A       26=A       27=A   
    28=A       29=A       30=A       31=A       32=A       33=A       34=A   
    35=A       36=A       37=A       38=A       39=A   
 ...... END OF INITIAL ORBITAL SELECTION ......
 CPU     0: STEP CPU TIME=     0.03 TOTAL CPU TIME=          0.0 (      0.0 MIN)
 TOTAL WALL CLOCK TIME=          0.1 SECONDS, CPU UTILIZATION IS    83.33%

                    ----------------------
                    AO INTEGRAL TECHNOLOGY
                    ----------------------
     S,P,L SHELL ROTATED AXIS INTEGRALS, REPROGRAMMED BY
        KAZUYA ISHIMURA (IMS) AND JOSE SIERRA (SYNSTAR).
     S,P,D,L SHELL ROTATED AXIS INTEGRALS PROGRAMMED BY
        KAZUYA ISHIMURA (INSTITUTE FOR MOLECULAR SCIENCE).
     S,P,D,F,G SHELL TO TOTAL QUARTET ANGULAR MOMENTUM SUM 5,
        ERIC PROGRAM BY GRAHAM FLETCHER (ELORET AND NASA ADVANCED
        SUPERCOMPUTING DIVISION, AMES RESEARCH CENTER).
     S,P,D,F,G,L SHELL GENERAL RYS QUADRATURE PROGRAMMED BY
        MICHEL DUPUIS (PACIFIC NORTHWEST NATIONAL LABORATORY).

          --------------------
          2 ELECTRON INTEGRALS
          --------------------

 DIRECT SCF METHOD SKIPS INTEGRAL STORAGE ON DISK.
 DIRECT TRANSFORMATION SKIPS AO INTEGRAL STORAGE ON DISK.
  ...... END OF TWO-ELECTRON INTEGRALS .....
 CPU     0: STEP CPU TIME=     0.01 TOTAL CPU TIME=          0.1 (      0.0 MIN)
 TOTAL WALL CLOCK TIME=          0.1 SECONDS, CPU UTILIZATION IS    85.71%

          ---------------------------
                  UHF SCF CALCULATION
          ---------------------------

     NUCLEAR ENERGY =       310.9754252674
     MAXIT = 60     NPUNCH=  2     MULT=  2
     EXTRAP=T  DAMP=F  SHIFT=F  RSTRCT=F  DIIS=F  SOSCF=T
     DENSITY MATRIX CONV=  2.00E-05
     SOSCF WILL OPTIMIZE    1440 ALPHA AND    1421 BETA ROTATION ANGLES.
     SOGTOL= 2.500E-01
     MEMORY REQUIRED FOR UHF/ROHF ITERS=    128277 WORDS.

 DIRECT SCF CALCULATION, SCHWRZ=T   FDIFF=T
 SCHWARZ INEQUALITY OVERHEAD:      2881 INTEGRALS, T=        0.00

                                                                                NONZERO     BLOCKS
 ITER EX      TOTAL ENERGY        E CHANGE  DENSITY CHANGE    ORB. GRAD       INTEGRALS    SKIPPED
   1  0     -451.8970936716  -451.8970936716   0.577796919   0.000000000        2488743     183512
          ---------------START SECOND ORDER SCF---------------
   2  1     -453.2133674664    -1.3162737948   0.124926961   0.060327532        2466311     187324
   3  2     -453.2833503546    -0.0699828881   0.061784685   0.026456443        2400521     198517
   4  3     -453.2993875393    -0.0160371848   0.018217735   0.013938123        2394735     199973
   5  4     -453.3022351963    -0.0028476569   0.012515413   0.004615024        2281175     212134
   6  5     -453.3029525968    -0.0007174005   0.002287001   0.001505828        2249102     214550
   7  6     -453.3030139317    -0.0000613349   0.001708325   0.000623170        2088667     230470
   8  7     -453.3030390842    -0.0000251525   0.001159664   0.000333892        2016265     234342
   9  8     -453.3030467977    -0.0000077134   0.000581678   0.000186862        1960940     239797
  10  9     -453.3030487627    -0.0000019651   0.000956844   0.000191750        1827394     253075
  11 10     -453.3030509818    -0.0000022191   0.001506773   0.000189890        1879465     249760
  12 11     -453.3030537505    -0.0000027687   0.003730783   0.000186097        1909199     248362
  13 12     -453.3030597118    -0.0000059613   0.008386618   0.000243402        2015960     239823
  14 13     -453.3030718595    -0.0000121476   0.018463138   0.000401240        2109747     231845
  15 14     -453.3030950678    -0.0000232083   0.022112740   0.000635843        2191705     224327
  16 15     -453.3031199963    -0.0000249285   0.009656237   0.000780463        2206597     223329
  17 16     -453.3031453743    -0.0000253780   0.001321697   0.000448433        2120447     230714
  18 17     -453.3031575271    -0.0000121529   0.002769691   0.000143047        1992798     236020
  19 18     -453.3031588252    -0.0000012981   0.000343787   0.000073750        1946586     246848
  20 19     -453.3031594929    -0.0000006677   0.000168901   0.000043130        1787751     255994
  21 20     -453.3031596507    -0.0000001578   0.000213522   0.000028165        1699665     264919
  22 21     -453.3031597048    -0.0000000541   0.000251181   0.000019137        1633448     271230
  23 22     -453.3031597334    -0.0000000286   0.000154858   0.000011694        1637917     271614
  24 23     -453.3031597443    -0.0000000109   0.000043139   0.000006170        1586807     276610
  25 24     -453.3031597472    -0.0000000029   0.000008760   0.000002325        1466249     286152
  26 25     -453.3031597479    -0.0000000007   0.000005844   0.000001055        1303681     298251

          -----------------
          DENSITY CONVERGED
          -----------------
     TIME TO FORM FOCK OPERATORS=       0.9 SECONDS (       0.0 SEC/ITER)
     FOCK TIME ON FIRST ITERATION=       0.0, LAST ITERATION=       0.0
     TIME TO SOLVE SCF EQUATIONS=       0.1 SECONDS (       0.0 SEC/ITER)

 FINAL UHF ENERGY IS     -453.3031597479 AFTER  26 ITERATIONS

          --------------------
          SPIN SZ   =    0.500
          S-SQUARED =    0.776
          --------------------

  ----- ALPHA SET ----- 

          ------------
          EIGENVECTORS
          ------------

                      1          2          3          4          5
                  -20.8661   -20.7038   -20.6659   -20.6468   -20.6037
                     A          A          A          A          A   
    1  O  1  S    0.001999   0.983345   0.001225   0.000930  -0.003003
    2  O  1  S    0.001552   0.097800  -0.000074  -0.000168   0.001092
    3  O  1  X    0.000103   0.001535   0.000004   0.000038   0.000575
    4  O  1  Y    0.000508   0.002234  -0.000070   0.000023  -0.000742
    5  O  1  Z   -0.000473   0.000752   0.000064   0.000008   0.000068
    6  O  1  S   -0.004106  -0.041968   0.000605   0.000938  -0.003250
    7  O  1  X   -0.000770  -0.004003   0.000036   0.000111  -0.002678
    8  O  1  Y   -0.002724  -0.004123   0.000360  -0.000081   0.003196
    9  O  1  Z    0.002347  -0.000576  -0.000293  -0.000119  -0.000305
   10  H  2  S    0.000343   0.001223  -0.000051   0.000490   0.002389
   11  H  2  S   -0.001695   0.008306   0.000325  -0.001697   0.010819
   12  H  3  S    0.000449   0.003053   0.000023  -0.000166   0.000452
   13  H  3  S   -0.001379   0.004345   0.000021   0.000420  -0.001203
   14  O  4  S   -0.000291   0.000175   0.004514   0.005037  -0.004762
   15  O  4  S   -0.000345   0.000103   0.001874   0.001650  -0.000679
   16  O  4  X   -0.000011   0.000010  -0.000405  -0.000190   0.000019
   17  O  4  Y   -0.000027  -0.000008   0.000597  -0.000554   0.000086
   18  O  4  Z    0.000025  -0.000019   0.000067  -0.000508   0.000079
   19  O  4  S    0.001139  -0.000310  -0.004450  -0.002953   0.000802
   20  O  4  X   -0.000208   0.000034   0.002323   0.001004  -0.000133
   21  O  4  Y    0.000090   0.000058  -0.002992   0.002452  -0.000442
   22  O  4  Z   -0.000184   0.000105  -0.000346   0.002174  -0.000382
   23  H  5  S   -0.000177   0.000031   0.000508   0.000377   0.000024
   24  H  5  S    0.000482  -0.000098  -0.001387  -0.001055  -0.000051
   25  H  6  S    0.000338  -0.000049   0.001158   0.000461  -0.000116
   26  H  6  S   -0.001715   0.000250   0.008251  -0.001573   0.000389
   27  O  7  S    0.983125  -0.001694  -0.001337  -0.001051   0.000237
   28  O  7  S    0.098379   0.001124   0.001153   0.001013  -0.000318
   29  O  7  X   -0.000497  -0.000607   0.000366   0.000617   0.000016
   30  O  7  Y    0.000153  -0.000574   0.000729  -0.000457   0.000065
   31  O  7  Z   -0.000964   0.000482   0.000508  -0.000252   0.000012
   32  O  7  S   -0.040892  -0.003243  -0.003228  -0.002700   0.001075
   33  O  7  X    0.000042   0.002667  -0.001736  -0.002733  -0.000024
   34  O  7  Y    0.000250   0.002632  -0.003247   0.002024  -0.000550
   35  O  7  Z    0.000622  -0.002152  -0.002189   0.000996   0.000034
   36  H  8  S    0.002769   0.000407   0.000292   0.000375  -0.000227
   37  H  8  S    0.004496  -0.001144  -0.001116  -0.000926   0.000407
   38  H  9  S    0.001287   0.002375   0.000186   0.000375   0.000516
   39  H  9  S    0.007886   0.011012  -0.001390  -0.001405  -0.002222
   40  O 10  S    0.001310  -0.001012  -0.002735   0.983493  -0.006243
   41  O 10  S    0.001314  -0.000361  -0.000516   0.098872   0.000653
   42  O 10  X   -0.000513  -0.000013  -0.000035  -0.001277  -0.000152
   43  O 10  Y    0.000379   0.000040   0.000005   0.001024  -0.000712
   44  O 10  Z   -0.000273   0.000074   0.000075   0.002058   0.000310
   45  O 10  S   -0.003482   0.001177   0.001207  -0.045645  -0.003400
   46  O 10  X    0.002766  -0.000230   0.000120   0.002660   0.001074
   47  O 10  Y   -0.002051  -0.000212   0.000271  -0.002114   0.003621
   48  O 10  Z    0.001125  -0.000154  -0.000184  -0.004754  -0.001787
   49  H 11  S    0.000423  -0.000143   0.000412   0.002630   0.000397
   50  H 11  S   -0.001692   0.000730  -0.001777   0.008458  -0.002178
   51  H 12  S    0.001194   0.000431   0.000433   0.002565   0.000434
   52  H 12  S    0.007446  -0.001631  -0.001673   0.009212  -0.002168
   53  O 13  S    0.001636  -0.001276   0.983371   0.002650  -0.000334
   54  O 13  S    0.001500  -0.000329   0.097620   0.000019   0.000065
   55  O 13  X   -0.000544   0.000087  -0.000282   0.000016  -0.000018
   56  O 13  Y   -0.000350   0.000053  -0.000232  -0.000015  -0.000004
   57  O 13  Z   -0.000243   0.000050  -0.002803  -0.000059   0.000006
   58  O 13  S   -0.004052   0.000728  -0.041841   0.000814  -0.000343
   59  O 13  X    0.002696  -0.000411   0.000438   0.000013   0.000060
   60  O 13  Y    0.001885  -0.000283   0.001754  -0.000166   0.000089
   61  O 13  Z    0.001479  -0.000243   0.005490   0.000092   0.000020
   62  H 14  S    0.001184   0.000186   0.002357   0.000378  -0.000132
   63  H 14  S    0.007739  -0.001634   0.010945  -0.001359   0.000629
   64  H 15  S    0.000421  -0.000088   0.003070  -0.000118   0.000052
   65  H 15  S   -0.001297   0.000268   0.004352   0.000378  -0.000151
   66  O 16  S   -0.000303   0.003318   0.000366   0.006555   0.983376
   67  O 16  S   -0.000348   0.001763   0.000138   0.001865   0.097588
   68  O 16  X   -0.000012  -0.000623   0.000013   0.000545  -0.001984
   69  O 16  Y   -0.000014   0.000307   0.000006   0.000411   0.000086
   70  O 16  Z   -0.000043   0.000228  -0.000005  -0.000406  -0.001805
   71  O 16  S    0.001157  -0.004408  -0.000362  -0.003191  -0.041984
   72  O 16  X   -0.000026   0.003298  -0.000048  -0.002327   0.004247
   73  O 16  Y    0.000287  -0.001709  -0.000098  -0.001901  -0.001480
   74  O 16  Z    0.000035  -0.000949   0.000058   0.001851   0.003584
   75  H 17  S   -0.000146   0.000479   0.000059   0.000413   0.003079
   76  H 17  S    0.000432  -0.001357  -0.000133  -0.000967   0.004317
   77  H 18  S    0.000435   0.000421  -0.000149   0.002595   0.001220
   78  H 18  S   -0.001750  -0.001829   0.000748   0.008763   0.008659

                      6          7          8          9         10
                  -20.5937    -1.7277    -1.5696    -1.5375    -1.5313
                     A          A          A          A          A   
    1  O  1  S   -0.000179  -0.021163  -0.228868   0.003574   0.025959
    2  O  1  S    0.000079   0.019449   0.216933  -0.002987  -0.024552
    3  O  1  X   -0.000011   0.004804   0.023850   0.000820  -0.000326
    4  O  1  Y    0.000003   0.009314   0.051035  -0.003321  -0.007748
    5  O  1  Z   -0.000011  -0.002420   0.028952   0.000401  -0.003937
    6  O  1  S   -0.000340   0.064658   0.725957  -0.013052  -0.083995
    7  O  1  X   -0.000034   0.006862   0.039099   0.000523  -0.001866
    8  O  1  Y   -0.000028   0.012022   0.061401  -0.004476  -0.008937
    9  O  1  Z    0.000075  -0.003895   0.027864   0.001346  -0.003628
   10  H  2  S   -0.000081   0.001657   0.038950   0.010198   0.009279
   11  H  2  S    0.000384   0.003664   0.008297   0.003228   0.004836
   12  H  3  S    0.000043   0.006272   0.099346  -0.001499  -0.012140
   13  H  3  S   -0.000117   0.002116   0.013198  -0.000947  -0.002525
   14  O  4  S    0.983378  -0.001612   0.000856  -0.068070  -0.005673
   15  O  4  S    0.097564   0.001954  -0.001013   0.061872   0.004801
   16  O  4  X   -0.002065  -0.000887   0.000370  -0.017551  -0.000105
   17  O  4  Y   -0.000123  -0.000062  -0.000534  -0.000816  -0.009144
   18  O  4  Z    0.001713  -0.000121  -0.000295   0.009616  -0.003304
   19  O  4  S   -0.041952   0.002890  -0.001764   0.212687   0.019622
   20  O  4  X    0.005084  -0.000404   0.000214  -0.025996  -0.000871
   21  O  4  Y   -0.000204  -0.000141  -0.000824  -0.001579  -0.011684
   22  O  4  Z   -0.002590   0.000587  -0.000761   0.009295  -0.004611
   23  H  5  S    0.003012   0.000682  -0.000423   0.026071   0.002018
   24  H  5  S    0.004418  -0.001036   0.000431   0.007114   0.000995
   25  H  6  S    0.002376   0.001019  -0.001751   0.040736  -0.017724
   26  H  6  S    0.010785   0.004088  -0.001429   0.011471  -0.002610
   27  O  7  S    0.000228  -0.240656   0.027448   0.031086  -0.000968
   28  O  7  S   -0.000319   0.238530  -0.028391  -0.032128   0.001203
   29  O  7  X   -0.000062  -0.021764  -0.006728   0.022305   0.004492
   30  O  7  Y   -0.000034   0.010636  -0.016356   0.001929  -0.015815
   31  O  7  Z    0.000015  -0.040353   0.016399   0.013808  -0.008704
   32  O  7  S    0.001063   0.762489  -0.088622  -0.102473   0.002356
   33  O  7  X    0.000523  -0.016633  -0.010430   0.024844   0.005928
   34  O  7  Y    0.000171   0.009020  -0.019402   0.003438  -0.019459
   35  O  7  Z    0.000018  -0.042130   0.018892   0.014612  -0.010722
   36  H  8  S   -0.000227   0.095522  -0.016650  -0.020411   0.000825
   37  H  8  S    0.000408  -0.000699   0.000833  -0.000107  -0.000946
   38  H  9  S   -0.000118   0.031659   0.075888  -0.006992  -0.009508
   39  H  9  S    0.000571   0.003550   0.006590   0.003702   0.002050
   40  O 10  S   -0.004784  -0.016071  -0.008297  -0.136774  -0.167603
   41  O 10  S    0.000745   0.013121   0.008121   0.124885   0.152177
   42  O 10  X    0.000659  -0.006159  -0.001374  -0.014551  -0.021138
   43  O 10  Y    0.000367   0.004670  -0.001141   0.013747   0.014786
   44  O 10  Z    0.000216   0.002174   0.002586   0.028928   0.033532
   45  O 10  S   -0.003332   0.051675   0.023798   0.437114   0.541031
   46  O 10  X   -0.003245  -0.012234  -0.000467  -0.021634  -0.031146
   47  O 10  Y   -0.002111   0.009180  -0.001185   0.018726   0.022456
   48  O 10  Z   -0.001420   0.002154   0.003965   0.040906   0.046874
   49  H 11  S    0.001173   0.002453   0.002522   0.048396   0.050206
   50  H 11  S    0.008500   0.004653  -0.002302   0.009059   0.003375
   51  H 12  S    0.000421   0.026487  -0.001208   0.045428   0.062512
   52  H 12  S   -0.002130  -0.005292   0.006008   0.014566   0.008588
   53  O 13  S   -0.004211  -0.016406   0.014574  -0.166119   0.153089
   54  O 13  S    0.000960   0.014473  -0.013308   0.155797  -0.143159
   55  O 13  X    0.000818  -0.004221   0.001118  -0.001667   0.005104
   56  O 13  Y   -0.000420  -0.003554   0.000113   0.006270  -0.008006
   57  O 13  Z    0.000203  -0.006844   0.004457  -0.044421   0.041720
   58  O 13  S   -0.003132   0.050481  -0.046705   0.525118  -0.486916
   59  O 13  X   -0.003599  -0.006740   0.002204  -0.001641   0.006216
   60  O 13  Y    0.001894  -0.006288   0.001563  -0.001234  -0.000585
   61  O 13  Z   -0.000732  -0.009766   0.006226  -0.056909   0.053346
   62  H 14  S    0.000502   0.028507  -0.009404   0.055447  -0.056306
   63  H 14  S   -0.002151   0.001463   0.001526   0.012414  -0.005598
   64  H 15  S    0.000468   0.004466  -0.005844   0.073422  -0.068326
   65  H 15  S   -0.001232   0.002583  -0.001769   0.011758  -0.012341
   66  O 16  S    0.004681  -0.001974  -0.038751  -0.035390  -0.042550
   67  O 16  S    0.000254   0.002222   0.035107   0.031937   0.038766
   68  O 16  X   -0.000090  -0.000480  -0.013105  -0.002902  -0.002661
   69  O 16  Y   -0.000058   0.000736   0.003210   0.002294   0.002491
   70  O 16  Z    0.000071  -0.000514  -0.005110  -0.008901  -0.011064
   71  O 16  S    0.000392   0.004152   0.119982   0.112246   0.134083
   72  O 16  X    0.000415  -0.000780  -0.017103  -0.003515  -0.003408
   73  O 16  Y    0.000312   0.000078   0.006786   0.005889   0.006101
   74  O 16  Z   -0.000355  -0.000550  -0.006913  -0.011911  -0.014557
   75  H 17  S   -0.000090   0.000720   0.014067   0.013641   0.016807
   76  H 17  S    0.000251  -0.000786   0.004069   0.003891   0.003979
   77  H 18  S    0.000361   0.002553   0.006742   0.044969   0.055257
   78  H 18  S   -0.002182   0.004661   0.004927   0.004215   0.008399

                     11         12         13         14         15
                   -1.4680    -1.4541    -1.0457    -1.0400    -0.9671
                     A          A          A          A          A   
    1  O  1  S    0.037801   0.015669  -0.027817   0.000010   0.005539
    2  O  1  S   -0.036845  -0.015665   0.026844   0.000582  -0.004757
    3  O  1  X    0.006277   0.002928  -0.055876   0.004230   0.002034
    4  O  1  Y   -0.019307  -0.007967  -0.076955  -0.006329   0.042476
    5  O  1  Z   -0.006009  -0.002867   0.130062   0.011376  -0.031971
    6  O  1  S   -0.121921  -0.049390   0.107400  -0.002889  -0.025342
    7  O  1  X    0.006469   0.003402  -0.055610   0.007042  -0.000380
    8  O  1  Y   -0.023880  -0.009550  -0.074773  -0.007127   0.043366
    9  O  1  Z   -0.005627  -0.003342   0.124154   0.015134  -0.026221
   10  H  2  S    0.066221   0.029338   0.009742   0.004258  -0.015419
   11  H  2  S    0.008535   0.002432   0.010124   0.005351  -0.024324
   12  H  3  S   -0.021316  -0.009317   0.074665   0.003777  -0.013719
   13  H  3  S   -0.001663  -0.000037   0.040685   0.002922  -0.004952
   14  O  4  S    0.097532  -0.199852  -0.000009  -0.002059   0.001274
   15  O  4  S   -0.089851   0.185150  -0.000015   0.001657  -0.001485
   16  O  4  X    0.015109  -0.027381   0.000426   0.001009   0.000741
   17  O  4  Y    0.003647  -0.001845  -0.005059   0.000213  -0.026979
   18  O  4  Z   -0.019678   0.046386  -0.002858   0.003095  -0.014211
   19  O  4  S   -0.310472   0.636450   0.000396   0.008489  -0.002932
   20  O  4  X    0.024665  -0.045562   0.000027  -0.000787  -0.000787
   21  O  4  Y    0.004305  -0.000277  -0.003956   0.000564  -0.024794
   22  O  4  Z   -0.020450   0.049845  -0.002534   0.002768  -0.012310
   23  H  5  S   -0.044200   0.093783  -0.000219   0.003007  -0.002800
   24  H  5  S   -0.009118   0.018973  -0.000331   0.000668   0.000756
   25  H  6  S   -0.029961   0.064493  -0.004864  -0.005271  -0.016583
   26  H  6  S   -0.004406   0.005637  -0.005687  -0.003474  -0.024890
   27  O  7  S   -0.003759  -0.010568   0.015507  -0.027664  -0.002405
   28  O  7  S    0.004204   0.011812  -0.015139   0.025754   0.003631
   29  O  7  X    0.000294  -0.010309   0.156164   0.357357  -0.214387
   30  O  7  Y    0.006903   0.002931   0.333952   0.050507   0.264107
   31  O  7  Z   -0.001985  -0.006222  -0.239839   0.242364   0.238902
   32  O  7  S    0.011706   0.033362  -0.066525   0.118765   0.006493
   33  O  7  X    0.001362  -0.012425   0.168606   0.373614  -0.230144
   34  O  7  Y    0.009652   0.003093   0.352705   0.058058   0.284877
   35  O  7  Z   -0.002429  -0.007105  -0.243912   0.245004   0.254365
   36  H  8  S    0.003205   0.009378   0.116084  -0.178866  -0.004248
   37  H  8  S   -0.000363  -0.000949   0.061219  -0.093222  -0.003011
   38  H  9  S   -0.016347  -0.004796  -0.129742  -0.007975   0.036052
   39  H  9  S    0.002857  -0.001555  -0.106498   0.001258   0.040770
   40  O 10  S    0.035169   0.076540  -0.006516   0.019504  -0.023656
   41  O 10  S   -0.032065  -0.069859   0.006161  -0.018111   0.021369
   42  O 10  X   -0.003484   0.015527   0.019667  -0.042642   0.118324
   43  O 10  Y   -0.015850  -0.005196  -0.000243   0.041210  -0.080662
   44  O 10  Z   -0.004142  -0.007851   0.001587  -0.017204   0.063398
   45  O 10  S   -0.116638  -0.255467   0.025827  -0.077993   0.100147
   46  O 10  X   -0.002604   0.018549   0.021362  -0.040554   0.114665
   47  O 10  Y   -0.017890  -0.007289   0.001147   0.041912  -0.076765
   48  O 10  Z   -0.006988  -0.013340  -0.000849  -0.012854   0.062111
   49  H 11  S   -0.027078   0.004498   0.008873  -0.015858   0.045075
   50  H 11  S   -0.007143   0.011792   0.009727  -0.004494   0.041738
   51  H 12  S   -0.014359  -0.032030  -0.015049   0.058902  -0.128417
   52  H 12  S   -0.001939  -0.004485  -0.014003   0.056648  -0.134852
   53  O 13  S   -0.025841   0.047020   0.010127   0.024361   0.012345
   54  O 13  S    0.024434  -0.045380  -0.010545  -0.023044  -0.011009
   55  O 13  X   -0.005824   0.011534  -0.023290  -0.062281  -0.081280
   56  O 13  Y    0.004967  -0.010315  -0.025430  -0.089400  -0.082342
   57  O 13  Z   -0.008187   0.015036  -0.012978  -0.022121  -0.019589
   58  O 13  S    0.083665  -0.149846  -0.036508  -0.094606  -0.052654
   59  O 13  X   -0.007922   0.015063  -0.023082  -0.057015  -0.078992
   60  O 13  Y    0.004260  -0.010808  -0.023889  -0.086913  -0.076419
   61  O 13  Z   -0.010540   0.018946  -0.017584  -0.022612  -0.017379
   62  H 14  S    0.012123  -0.018878   0.033806   0.097701   0.089323
   63  H 14  S   -0.002542  -0.001083   0.021937   0.086260   0.092423
   64  H 15  S    0.013453  -0.025772  -0.018511  -0.056875  -0.052150
   65  H 15  S    0.002273  -0.002274  -0.004795  -0.032801  -0.034419
   66  O 16  S   -0.204834  -0.087519   0.001314  -0.001238  -0.000055
   67  O 16  S    0.189485   0.081376  -0.000891   0.000993  -0.000021
   68  O 16  X   -0.039092  -0.018923  -0.005053  -0.008202   0.025776
   69  O 16  Y   -0.014860  -0.009039   0.000616  -0.003433   0.004710
   70  O 16  Z   -0.033506  -0.012472   0.004175   0.004184  -0.011649
   71  O 16  S    0.652135   0.278874  -0.006259   0.004853   0.001767
   72  O 16  X   -0.050905  -0.024874  -0.003029  -0.007459   0.023647
   73  O 16  Y   -0.003966  -0.005411  -0.000881  -0.002636   0.004706
   74  O 16  Z   -0.043466  -0.015840   0.004487   0.003696  -0.009399
   75  H 17  S    0.094615   0.041899  -0.001793   0.002155  -0.001798
   76  H 17  S    0.018664   0.007683  -0.000404   0.000642  -0.000153
   77  H 18  S    0.020164  -0.013086   0.000742  -0.021341   0.041686
   78  H 18  S    0.012395   0.004070  -0.007900  -0.016030   0.038069

                     16         17         18         19         20
                   -0.8963    -0.8916    -0.8714    -0.8598    -0.8332
                     A          A          A          A          A   
    1  O  1  S    0.021530  -0.001333   0.000297   0.019153  -0.006938
    2  O  1  S   -0.018331   0.000732   0.000038  -0.015774   0.006330
    3  O  1  X   -0.196019   0.006397   0.014499   0.034085  -0.004934
    4  O  1  Y    0.153911  -0.008209  -0.034203  -0.185998   0.040957
    5  O  1  Z    0.247109  -0.017449   0.020486   0.277386  -0.073548
    6  O  1  S   -0.099451   0.008498  -0.002451  -0.090906   0.030298
    7  O  1  X   -0.207776   0.005042   0.016438   0.043718  -0.005316
    8  O  1  Y    0.162371  -0.008270  -0.036869  -0.200142   0.044062
    9  O  1  Z    0.251808  -0.018833   0.023089   0.292301  -0.074961
   10  H  2  S   -0.136752   0.014025   0.021852   0.112904  -0.026086
   11  H  2  S   -0.144397   0.007456   0.022347   0.118592  -0.028603
   12  H  3  S    0.187468  -0.012452   0.002270   0.106354  -0.030287
   13  H  3  S    0.128794  -0.005844   0.001844   0.079449  -0.024042
   14  O  4  S   -0.000353   0.008382  -0.014936   0.003383  -0.000526
   15  O  4  S    0.000513  -0.008601   0.014168  -0.003266  -0.000691
   16  O  4  X    0.003026  -0.065413   0.146952  -0.043101  -0.110420
   17  O  4  Y    0.000085  -0.048422  -0.174117   0.028726   0.090665
   18  O  4  Z    0.002845  -0.123678   0.071916  -0.040439  -0.123057
   19  O  4  S    0.000834  -0.029034   0.061703  -0.013433   0.006991
   20  O  4  X    0.003881  -0.068915   0.150317  -0.043863  -0.112458
   21  O  4  Y    0.000428  -0.052692  -0.170080   0.027395   0.091883
   22  O  4  Z    0.003153  -0.127896   0.068983  -0.040116  -0.125328
   23  H  5  S    0.002328  -0.071823   0.112628  -0.038705  -0.110385
   24  H  5  S    0.001052  -0.051173   0.083072  -0.027339  -0.083464
   25  H  6  S   -0.001023   0.000295  -0.156891   0.033478   0.082589
   26  H  6  S   -0.000436   0.008685  -0.165932   0.035143   0.081792
   27  O  7  S   -0.016120   0.001627  -0.015415  -0.030323  -0.026076
   28  O  7  S    0.015343  -0.001481   0.014348   0.029650   0.024411
   29  O  7  X   -0.033725  -0.021158   0.041005  -0.101451   0.159917
   30  O  7  Y   -0.080271  -0.017734   0.024871  -0.101028   0.103647
   31  O  7  Z    0.067607  -0.002057   0.062583   0.136133   0.049482
   32  O  7  S    0.074004  -0.007578   0.071759   0.139202   0.123524
   33  O  7  X   -0.039991  -0.023254   0.044152  -0.117001   0.186607
   34  O  7  Y   -0.086891  -0.018893   0.030287  -0.116709   0.124271
   35  O  7  Z    0.074238  -0.002184   0.065149   0.155260   0.052820
   36  H  8  S   -0.030919   0.002858  -0.032267  -0.040895  -0.039783
   37  H  8  S   -0.020078   0.001963  -0.017932  -0.034954  -0.028875
   38  H  9  S   -0.044173   0.008877  -0.013256  -0.122038   0.026546
   39  H  9  S   -0.033804  -0.006452  -0.009823  -0.095620   0.028382
   40  O 10  S   -0.000801  -0.001888  -0.001015   0.002140   0.011627
   41  O 10  S    0.001134   0.001771   0.001389  -0.002748  -0.009726
   42  O 10  X    0.001764   0.201354   0.049464   0.035914   0.082917
   43  O 10  Y   -0.007921   0.277067   0.020288  -0.007678  -0.078858
   44  O 10  Z   -0.002047  -0.017913   0.012896   0.036163   0.109772
   45  O 10  S    0.002723   0.008150   0.003602  -0.006493  -0.052463
   46  O 10  X    0.002279   0.215875   0.049730   0.035100   0.088939
   47  O 10  Y   -0.006449   0.295976   0.019743  -0.007810  -0.078764
   48  O 10  Z   -0.004962  -0.018648   0.012962   0.043889   0.120914
   49  H 11  S   -0.002070   0.154669   0.031604   0.020450   0.039301
   50  H 11  S   -0.001326   0.133831   0.035631   0.018146   0.039952
   51  H 12  S    0.003635   0.003762  -0.011338  -0.026167  -0.071930
   52  H 12  S   -0.012146   0.005684  -0.025832  -0.019535  -0.060555
   53  O 13  S   -0.001108  -0.000025   0.015325  -0.002339   0.023354
   54  O 13  S    0.001890   0.000388  -0.012185   0.003493  -0.019691
   55  O 13  X    0.017306   0.007103  -0.085363   0.056946   0.223646
   56  O 13  Y    0.031134  -0.009740   0.289009   0.003997   0.186396
   57  O 13  Z    0.004283  -0.000530  -0.089927   0.023231  -0.032141
   58  O 13  S    0.001718  -0.001858  -0.074530   0.006040  -0.107325
   59  O 13  X    0.018484   0.008700  -0.095938   0.062700   0.240954
   60  O 13  Y    0.032163  -0.010230   0.301746   0.004021   0.189463
   61  O 13  Z    0.006993  -0.002043  -0.090497   0.028440  -0.036602
   62  H 14  S   -0.019700  -0.004561  -0.033176  -0.028059  -0.113531
   63  H 14  S   -0.011011   0.007487  -0.023880  -0.013783  -0.096745
   64  H 15  S    0.018840  -0.003769   0.166989   0.004414   0.127790
   65  H 15  S    0.010490  -0.004804   0.120444  -0.001399   0.100146
   66  O 16  S   -0.018197  -0.008098   0.001133   0.005288  -0.002453
   67  O 16  S    0.017189   0.008492  -0.000748  -0.005417   0.001903
   68  O 16  X    0.111226  -0.085167  -0.024551  -0.088246   0.064992
   69  O 16  Y   -0.156435  -0.121734   0.014082   0.166010   0.031215
   70  O 16  Z   -0.055163   0.047291   0.016234   0.070545  -0.028358
   71  O 16  S    0.074353   0.028025  -0.005829  -0.020167   0.012623
   72  O 16  X    0.110687  -0.087487  -0.025150  -0.088989   0.070158
   73  O 16  Y   -0.156210  -0.126207   0.012800   0.167054   0.034619
   74  O 16  Z   -0.048151   0.054335   0.017677   0.073150  -0.030424
   75  H 17  S    0.099586   0.066448  -0.010261  -0.105710  -0.014575
   76  H 17  S    0.069949   0.043451  -0.008701  -0.080512  -0.010224
   77  H 18  S    0.006226  -0.162387  -0.015075   0.006632   0.058452
   78  H 18  S    0.012166  -0.146063  -0.010947   0.002504   0.060311

                     21         22         23         24         25
                   -0.8152    -0.7759    -0.7493    -0.7366    -0.7160
                     A          A          A          A          A   
    1  O  1  S    0.003731   0.053108   0.015367   0.016794  -0.000441
    2  O  1  S   -0.004199  -0.055226  -0.017943  -0.022589  -0.001226
    3  O  1  X   -0.012105   0.163894   0.144198   0.308265   0.136949
    4  O  1  Y    0.050869   0.338309   0.090544   0.018862  -0.034066
    5  O  1  Z    0.002036   0.085756   0.038224   0.114207   0.040751
    6  O  1  S   -0.014313  -0.222305  -0.059015  -0.054901   0.005450
    7  O  1  X   -0.009786   0.192262   0.170410   0.366933   0.163132
    8  O  1  Y    0.056758   0.390091   0.103204   0.018113  -0.042525
    9  O  1  Z   -0.001507   0.097511   0.045893   0.127281   0.048591
   10  H  2  S   -0.018739   0.032322   0.017620   0.010262  -0.020440
   11  H  2  S   -0.019719  -0.008170   0.001204   0.012371  -0.001363
   12  H  3  S    0.012779   0.070936   0.012302   0.018916  -0.002328
   13  H  3  S    0.006951   0.061022   0.012771   0.014085  -0.006027
   14  O  4  S    0.000351  -0.006025   0.038873  -0.015537  -0.021918
   15  O  4  S   -0.000819   0.004167  -0.030556   0.013099   0.018811
   16  O  4  X    0.001802  -0.010280   0.028721   0.003114  -0.002533
   17  O  4  Y   -0.126836   0.009009  -0.055757   0.058155  -0.044755
   18  O  4  Z   -0.063134  -0.034134   0.198918  -0.059325  -0.134808
   19  O  4  S    0.000100   0.031034  -0.190471   0.075031   0.099632
   20  O  4  X   -0.002357  -0.013864   0.037163   0.005592  -0.003634
   21  O  4  Y   -0.141211   0.010655  -0.067009   0.071648  -0.063852
   22  O  4  Z   -0.067086  -0.039871   0.221882  -0.063792  -0.150566
   23  H  5  S   -0.007720  -0.020639   0.117456  -0.041373  -0.061917
   24  H  5  S    0.001410  -0.016614   0.097818  -0.037168  -0.047801
   25  H  6  S   -0.056257   0.000578  -0.002649   0.013117  -0.028166
   26  H  6  S   -0.051248  -0.005150   0.041185  -0.016896  -0.008673
   27  O  7  S   -0.001326   0.026374  -0.018500   0.002271   0.005200
   28  O  7  S    0.000304  -0.026482   0.017730  -0.003387  -0.004793
   29  O  7  X    0.127311  -0.006209   0.110391   0.039228  -0.044773
   30  O  7  Y   -0.198496   0.094119   0.054185  -0.074658   0.097534
   31  O  7  Z   -0.151516  -0.049561   0.005364  -0.061594   0.038367
   32  O  7  S    0.010536  -0.123787   0.091428  -0.006796  -0.026612
   33  O  7  X    0.151250  -0.006308   0.127841   0.043960  -0.051695
   34  O  7  Y   -0.236416   0.109843   0.061302  -0.091464   0.103893
   35  O  7  Z   -0.174042  -0.048553   0.011870  -0.066842   0.052340
   36  H  8  S    0.001864   0.034659  -0.015202   0.004471   0.014638
   37  H  8  S   -0.001076   0.029362  -0.021352   0.003489   0.004646
   38  H  9  S    0.009333   0.083713   0.028335   0.015077  -0.008846
   39  H  9  S    0.006645   0.063567   0.014315  -0.011724   0.003429
   40  O 10  S    0.031777   0.011533  -0.023882  -0.017986   0.037366
   41  O 10  S   -0.026835  -0.010510   0.022151   0.019707  -0.041213
   42  O 10  X    0.155828  -0.069362   0.147287   0.062069  -0.200128
   43  O 10  Y   -0.071831   0.106025  -0.043201  -0.155589   0.084205
   44  O 10  Z    0.212581  -0.026816  -0.024718  -0.039214   0.181041
   45  O 10  S   -0.145179  -0.055090   0.109876   0.071904  -0.148751
   46  O 10  X    0.165916  -0.077277   0.176693   0.069084  -0.242019
   47  O 10  Y   -0.073278   0.126439  -0.047214  -0.192009   0.097852
   48  O 10  Z    0.236607  -0.029241  -0.026380  -0.050947   0.217264
   49  H 11  S    0.097222  -0.002216   0.012536  -0.016184   0.012421
   50  H 11  S    0.101828  -0.000412  -0.021486  -0.000595   0.017167
   51  H 12  S   -0.097075   0.054317  -0.060566  -0.060720   0.070651
   52  H 12  S   -0.083043   0.052902  -0.054626  -0.030894   0.045732
   53  O 13  S   -0.016694   0.011299  -0.042731   0.022099  -0.026922
   54  O 13  S    0.013707  -0.010761   0.043259  -0.023775   0.031741
   55  O 13  X   -0.121288  -0.016364   0.149258  -0.053080  -0.090962
   56  O 13  Y   -0.098889   0.017449  -0.013105  -0.018529   0.093828
   57  O 13  Z    0.022783  -0.055978   0.275404  -0.162803   0.255866
   58  O 13  S    0.077799  -0.050595   0.184233  -0.090974   0.102262
   59  O 13  X   -0.130233  -0.018416   0.170473  -0.059051  -0.110305
   60  O 13  Y   -0.105668   0.020068  -0.014569  -0.022834   0.116745
   61  O 13  Z    0.022242  -0.065349   0.323387  -0.192853   0.303880
   62  H 14  S    0.050044   0.009427  -0.086312   0.046851  -0.043727
   63  H 14  S    0.042495   0.017542  -0.080762   0.034356  -0.013011
   64  H 15  S   -0.068287   0.019348  -0.053961   0.022452  -0.025082
   65  H 15  S   -0.055268   0.017403  -0.050653   0.024046  -0.026360
   66  O 16  S   -0.009629  -0.029668   0.006771   0.044417   0.025470
   67  O 16  S    0.008109   0.022153  -0.005399  -0.039581  -0.024585
   68  O 16  X    0.089630  -0.000010  -0.052696  -0.094924   0.010779
   69  O 16  Y    0.100809   0.160497  -0.041611  -0.157539  -0.058678
   70  O 16  Z   -0.013436   0.102272   0.014600  -0.127305  -0.144911
   71  O 16  S    0.045117   0.148310  -0.031213  -0.201054  -0.111939
   72  O 16  X    0.099337  -0.004898  -0.064126  -0.111223   0.015061
   73  O 16  Y    0.108688   0.182755  -0.047612  -0.169868  -0.052495
   74  O 16  Z   -0.013196   0.115752   0.022819  -0.142312  -0.170219
   75  H 17  S   -0.056421  -0.106821   0.022827   0.118573   0.065927
   76  H 17  S   -0.045725  -0.088624   0.016229   0.100100   0.054750
   77  H 18  S    0.074983  -0.025649  -0.020853   0.018805   0.032432
   78  H 18  S    0.091472  -0.004406  -0.009992  -0.006609   0.016847

                     26         27         28         29         30
                   -0.7086    -0.6616    -0.6474    -0.6368    -0.6214
                     A          A          A          A          A   
    1  O  1  S   -0.001123  -0.023502   0.000158   0.001131  -0.001293
    2  O  1  S    0.000512   0.018518  -0.000738   0.001035   0.000224
    3  O  1  X    0.063399   0.228382  -0.005125   0.000145   0.005373
    4  O  1  Y   -0.031593  -0.151665  -0.001342   0.011160  -0.010369
    5  O  1  Z    0.024213   0.040943   0.004158  -0.010393   0.007571
    6  O  1  S    0.006281   0.122033   0.000687  -0.011705   0.008693
    7  O  1  X    0.075257   0.279264  -0.002342  -0.009478   0.012400
    8  O  1  Y   -0.037949  -0.177074  -0.004869   0.018913  -0.016558
    9  O  1  Z    0.028269   0.053851   0.002663  -0.005279   0.005499
   10  H  2  S   -0.014123  -0.100293  -0.001135   0.006824  -0.008301
   11  H  2  S    0.001378  -0.059990  -0.014888   0.037033  -0.024150
   12  H  3  S   -0.000496  -0.034528   0.003824  -0.005848   0.003352
   13  H  3  S   -0.003991  -0.029562   0.001026  -0.003581  -0.000273
   14  O  4  S    0.047137   0.000435  -0.021754  -0.019465   0.001146
   15  O  4  S   -0.046041  -0.000024   0.027113   0.025449   0.005814
   16  O  4  X   -0.085571   0.009770   0.215429   0.267129   0.252057
   17  O  4  Y   -0.100299  -0.002885  -0.196823   0.089042   0.296743
   18  O  4  Z    0.193232   0.001785  -0.175837  -0.076842   0.077137
   19  O  4  S   -0.205321  -0.002858   0.075805   0.066189  -0.022605
   20  O  4  X   -0.115577   0.012028   0.264452   0.328380   0.313236
   21  O  4  Y   -0.118638  -0.002053  -0.232525   0.106660   0.361349
   22  O  4  Z    0.210446  -0.000566  -0.215039  -0.090292   0.089338
   23  H  5  S    0.103391   0.004052  -0.006307  -0.013315   0.017404
   24  H  5  S    0.095048   0.003458  -0.013469  -0.012091   0.014902
   25  H  6  S    0.009338  -0.002220  -0.085662  -0.034579   0.014411
   26  H  6  S    0.023459  -0.001222  -0.041215   0.000074   0.040198
   27  O  7  S    0.010359  -0.001409  -0.001339  -0.001345   0.000067
   28  O  7  S   -0.011604   0.000234   0.001245  -0.001645  -0.000603
   29  O  7  X   -0.063208  -0.024881  -0.013726   0.005963  -0.004091
   30  O  7  Y    0.018399   0.001204   0.029382   0.005594  -0.013610
   31  O  7  Z    0.005799   0.014547   0.022243  -0.005544  -0.004713
   32  O  7  S   -0.047419   0.011021   0.006980   0.016157   0.001371
   33  O  7  X   -0.060644  -0.030028  -0.012967   0.019210   0.001343
   34  O  7  Y    0.019016  -0.004589   0.044218  -0.000340  -0.012961
   35  O  7  Z    0.013509   0.021538   0.027996  -0.000479  -0.004506
   36  H  8  S    0.017956   0.001238  -0.001037   0.003653   0.001321
   37  H  8  S    0.014768   0.000916  -0.001781   0.004990   0.001167
   38  H  9  S   -0.006873  -0.015649  -0.003721   0.007400  -0.005777
   39  H  9  S   -0.001213  -0.045420   0.005074   0.001676   0.004102
   40  O 10  S    0.028318   0.001995   0.009440  -0.007004  -0.002637
   41  O 10  S   -0.035419   0.004657   0.000501  -0.001529  -0.000779
   42  O 10  X   -0.090618   0.022701  -0.021285  -0.069127   0.133200
   43  O 10  Y    0.130872   0.052230  -0.002192  -0.048030   0.185545
   44  O 10  Z    0.240816  -0.091129  -0.143860   0.218220   0.074319
   45  O 10  S   -0.099138  -0.034161  -0.079892   0.065286   0.026581
   46  O 10  X   -0.103125   0.040065  -0.032734  -0.089037   0.173034
   47  O 10  Y    0.159015   0.077095  -0.016128  -0.065830   0.238888
   48  O 10  Z    0.300106  -0.116848  -0.187594   0.270295   0.088775
   49  H 11  S    0.028436  -0.000748   0.004855  -0.015816   0.020471
   50  H 11  S   -0.008916  -0.001721   0.069052  -0.007716  -0.053289
   51  H 12  S    0.034632   0.017246   0.018191  -0.004573  -0.004788
   52  H 12  S    0.033189   0.012629   0.039172  -0.044249  -0.012698
   53  O 13  S    0.019070  -0.000352  -0.020604  -0.008690   0.002949
   54  O 13  S   -0.022285   0.000424   0.014878   0.007725  -0.000846
   55  O 13  X    0.171845   0.010128   0.260591   0.094675  -0.029685
   56  O 13  Y   -0.099496  -0.006574  -0.144523  -0.064299   0.000777
   57  O 13  Z   -0.207283  -0.004733  -0.044409  -0.018631  -0.005235
   58  O 13  S   -0.074892   0.001141   0.110801   0.042409  -0.019227
   59  O 13  X    0.206772   0.013119   0.316668   0.113398  -0.041769
   60  O 13  Y   -0.123509  -0.007027  -0.178405  -0.071173   0.012812
   61  O 13  Z   -0.243792  -0.005200  -0.060860  -0.026705  -0.007442
   62  H 14  S    0.009353  -0.000742  -0.022661  -0.003277   0.011719
   63  H 14  S    0.014492   0.002778  -0.052530  -0.018454  -0.000487
   64  H 15  S    0.023024  -0.000722  -0.028725  -0.017091  -0.004571
   65  H 15  S    0.013628  -0.001613  -0.027519  -0.014811   0.000430
   66  O 16  S    0.013077  -0.036222   0.003386  -0.001476  -0.001660
   67  O 16  S   -0.012302   0.042017  -0.007242   0.007078  -0.002868
   68  O 16  X    0.010837   0.380619   0.020300  -0.066411   0.055434
   69  O 16  Y   -0.037035  -0.058141   0.080625  -0.158528   0.108112
   70  O 16  Z   -0.073873   0.135727  -0.157405   0.295083  -0.207443
   71  O 16  S   -0.058797   0.138143  -0.004227  -0.008286   0.019392
   72  O 16  X    0.015810   0.458256   0.022506  -0.072498   0.066832
   73  O 16  Y   -0.033069  -0.073684   0.099773  -0.190953   0.136161
   74  O 16  Z   -0.084687   0.169662  -0.196078   0.362521  -0.254156
   75  H 17  S    0.038759  -0.027086  -0.006052   0.014855  -0.006183
   76  H 17  S    0.028463  -0.028451  -0.000148   0.010980  -0.009725
   77  H 18  S    0.011090  -0.009818   0.005184   0.009683  -0.016839
   78  H 18  S    0.008125   0.057226   0.014814  -0.056761   0.017936

                     31         32         33         34         35
                   -0.0153     0.0752     0.0920     0.1322     0.1529
                     A          A          A          A          A   
    1  O  1  S    0.032427   0.096431  -0.026789  -0.018645   0.004656
    2  O  1  S   -0.020911  -0.049730   0.015213   0.001847   0.003569
    3  O  1  X   -0.026592  -0.010576  -0.002682  -0.051258   0.032733
    4  O  1  Y   -0.062104  -0.097072   0.034327   0.070144  -0.044602
    5  O  1  Z    0.009406  -0.142521   0.041121   0.074421  -0.034960
    6  O  1  S   -0.251408  -0.842010   0.229648   0.206805  -0.071808
    7  O  1  X   -0.037498  -0.002346  -0.009183  -0.088430   0.056933
    8  O  1  Y   -0.105509  -0.219700   0.066722   0.127083  -0.072492
    9  O  1  Z   -0.003762  -0.326846   0.100731   0.171990  -0.084594
   10  H  2  S    0.002242   0.028978  -0.006201   0.024272  -0.028822
   11  H  2  S    0.053959   0.186806  -0.037068   0.173309  -0.136084
   12  H  3  S    0.016610   0.086099  -0.027236  -0.036623   0.019283
   13  H  3  S    0.180165   1.008487  -0.303106  -0.456158   0.218944
   14  O  4  S    0.011221   0.014031   0.047987   0.052422   0.074408
   15  O  4  S   -0.006329  -0.008213  -0.027904  -0.025229  -0.033486
   16  O  4  X    0.019343   0.013749   0.049904   0.008780  -0.003493
   17  O  4  Y    0.001146   0.008232  -0.011572   0.066068   0.061042
   18  O  4  Z   -0.002109  -0.011223  -0.054667  -0.065533  -0.143789
   19  O  4  S   -0.083589  -0.110230  -0.382911  -0.449001  -0.661538
   20  O  4  X    0.031830   0.018121   0.072543   0.008408  -0.022031
   21  O  4  Y    0.005047   0.018599   0.001141   0.130539   0.134309
   22  O  4  Z   -0.005619  -0.030814  -0.128171  -0.165681  -0.339814
   23  H  5  S    0.004618   0.006527   0.026719   0.034209   0.060233
   24  H  5  S    0.044467   0.105405   0.350584   0.527388   0.890791
   25  H  6  S    0.002409   0.005927   0.031181   0.012784   0.029689
   26  H  6  S    0.048242   0.038496   0.202243   0.090023   0.157485
   27  O  7  S    0.097927  -0.000988  -0.001161   0.004618   0.002126
   28  O  7  S   -0.065609  -0.011916  -0.007446  -0.002819  -0.001741
   29  O  7  X    0.091607  -0.023123  -0.083245  -0.040958  -0.001161
   30  O  7  Y   -0.058413   0.067974  -0.035070   0.041331   0.015173
   31  O  7  Z    0.150288  -0.120365  -0.070679   0.022111   0.004049
   32  O  7  S   -0.828696   0.081367   0.056773  -0.035761  -0.016079
   33  O  7  X    0.198556  -0.083632  -0.140371  -0.066035  -0.010841
   34  O  7  Y   -0.127459   0.117346  -0.024212   0.070185   0.010738
   35  O  7  Z    0.330870  -0.241643  -0.146009   0.018917   0.003909
   36  H  8  S    0.123225  -0.059088  -0.043804  -0.001089   0.003335
   37  H  8  S    1.116018  -0.486705  -0.316341  -0.045481  -0.001109
   38  H  9  S    0.030795   0.049471  -0.022330  -0.023059   0.008947
   39  H  9  S    0.203131   0.342301  -0.066168  -0.016090  -0.007527
   40  O 10  S    0.022415   0.018229   0.017684   0.059822   0.011719
   41  O 10  S   -0.015716  -0.010435  -0.010021  -0.038983  -0.006676
   42  O 10  X    0.051723   0.013282  -0.010259   0.032604  -0.035115
   43  O 10  Y   -0.038598   0.009016  -0.026469  -0.006928  -0.058205
   44  O 10  Z   -0.008161  -0.024565  -0.019440  -0.056656  -0.010438
   45  O 10  S   -0.163316  -0.149572  -0.146214  -0.478749  -0.098828
   46  O 10  X    0.077775   0.029911  -0.006820   0.076080  -0.047779
   47  O 10  Y   -0.057501   0.009571  -0.046701  -0.026462  -0.087290
   48  O 10  Z   -0.013826  -0.041620  -0.035038  -0.109435  -0.022593
   49  H 11  S    0.003560   0.009660   0.009824   0.037330   0.026313
   50  H 11  S    0.060701   0.056422   0.124685   0.243892   0.149544
   51  H 12  S    0.018258  -0.003157   0.001635   0.034721   0.010012
   52  H 12  S    0.146337   0.098432   0.103069   0.316145   0.057469
   53  O 13  S    0.031076   0.015535   0.097703  -0.025894  -0.015518
   54  O 13  S   -0.018352  -0.006392  -0.049332   0.006780   0.000202
   55  O 13  X    0.033457  -0.002081  -0.021517  -0.024615  -0.029520
   56  O 13  Y    0.019009  -0.003596  -0.102142   0.077606   0.085782
   57  O 13  Z    0.058157   0.015151   0.137421  -0.052680  -0.048632
   58  O 13  S   -0.242832  -0.139883  -0.847978   0.259788   0.176618
   59  O 13  X    0.050880   0.008615  -0.041197  -0.027906  -0.028013
   60  O 13  Y    0.010976  -0.003467  -0.255673   0.161490   0.182288
   61  O 13  Z    0.104653   0.043350   0.297420  -0.118866  -0.101240
   62  H 14  S    0.024955  -0.003237   0.051231  -0.023328  -0.018884
   63  H 14  S    0.195909   0.138929   0.338148  -0.087737   0.003993
   64  H 15  S    0.014800   0.012377   0.076816  -0.033383  -0.031912
   65  H 15  S    0.174214   0.094577   1.006833  -0.428147  -0.407391
   66  O 16  S    0.011688   0.042550  -0.001735   0.076511  -0.059519
   67  O 16  S   -0.006631  -0.025635   0.000887  -0.037232   0.026384
   68  O 16  X    0.010998   0.060716  -0.020667   0.020339  -0.052207
   69  O 16  Y   -0.011932  -0.003205  -0.001534   0.077053  -0.110763
   70  O 16  Z    0.011667   0.030930   0.006613   0.099780  -0.070097
   71  O 16  S   -0.087198  -0.333538   0.015754  -0.657579   0.536699
   72  O 16  X    0.018117   0.102235  -0.033201   0.060335  -0.112938
   73  O 16  Y   -0.017942   0.025721  -0.004177   0.197496  -0.267430
   74  O 16  Z    0.023090   0.070583   0.011071   0.216188  -0.156998
   75  H 17  S    0.005549   0.022797  -0.000450   0.055333  -0.052044
   76  H 17  S    0.043256   0.285738  -0.015068   0.763610  -0.776659
   77  H 18  S    0.003130   0.008964   0.008499   0.040365  -0.016384
   78  H 18  S    0.063740   0.116982   0.039684   0.308623  -0.022183

                     36         37         38         39         40
                    0.2007     0.2398     0.2649     0.3249     0.3414
                     A          A          A          A          A   
    1  O  1  S    0.011444   0.038925  -0.035246  -0.014582   0.012636
    2  O  1  S   -0.008289  -0.029149   0.029878   0.016361  -0.020400
    3  O  1  X   -0.048700  -0.073767   0.062158   0.060929  -0.088520
    4  O  1  Y   -0.052753  -0.113236   0.050900  -0.091121   0.171232
    5  O  1  Z    0.116975   0.196089  -0.107018   0.001607  -0.029985
    6  O  1  S   -0.088684  -0.313289   0.267791   0.091854  -0.048852
    7  O  1  X   -0.109815  -0.201430   0.152391   0.135028  -0.167165
    8  O  1  Y   -0.105010  -0.240361   0.104854  -0.182535   0.331555
    9  O  1  Z    0.266146   0.467000  -0.240250  -0.021014  -0.050763
   10  H  2  S   -0.017882   0.012352  -0.016526  -0.084741   0.134338
   11  H  2  S    0.020806   0.047292  -0.242611  -0.736631   1.111903
   12  H  3  S   -0.027860  -0.059285   0.014328   0.031799  -0.028356
   13  H  3  S   -0.369035  -0.533327   0.262947   0.128055  -0.131631
   14  O  4  S   -0.019539   0.000608   0.004823  -0.022832  -0.045189
   15  O  4  S    0.002112   0.006412  -0.003701   0.021127   0.038236
   16  O  4  X    0.044336  -0.030711   0.037852  -0.071936  -0.119813
   17  O  4  Y    0.002053  -0.023616  -0.043999  -0.004694   0.041675
   18  O  4  Z    0.115331  -0.078605   0.008392  -0.097456  -0.110364
   19  O  4  S    0.216748  -0.044827  -0.036302   0.154650   0.336029
   20  O  4  X    0.089799  -0.068529   0.075415  -0.182418  -0.304074
   21  O  4  Y   -0.024701  -0.027585  -0.092320   0.012696   0.120399
   22  O  4  Z    0.252873  -0.166564   0.026513  -0.232913  -0.263084
   23  H  5  S   -0.033831   0.019167  -0.004137   0.045001   0.043040
   24  H  5  S   -0.513760   0.271135  -0.115119   0.352250   0.445313
   25  H  6  S   -0.019480   0.010504   0.019207  -0.033621  -0.080371
   26  H  6  S    0.010990  -0.019127   0.215863  -0.307848  -0.721784
   27  O  7  S    0.047296   0.027195   0.014695   0.024292   0.005820
   28  O  7  S   -0.059494  -0.030927  -0.015893  -0.030597  -0.006866
   29  O  7  X   -0.109602   0.137502  -0.113913  -0.079528  -0.084745
   30  O  7  Y    0.099081   0.000586  -0.199016   0.096014  -0.044323
   31  O  7  Z   -0.101890  -0.162390  -0.054021   0.023363   0.013748
   32  O  7  S   -0.288796  -0.188975  -0.103803  -0.176022  -0.043050
   33  O  7  X   -0.223231   0.184686  -0.195088  -0.168450  -0.139195
   34  O  7  Y    0.196198   0.021806  -0.309651   0.187744  -0.064935
   35  O  7  Z   -0.256124  -0.301112  -0.111682  -0.018067   0.007137
   36  H  8  S   -0.083099  -0.039205  -0.008862  -0.070122  -0.013461
   37  H  8  S   -0.452157  -0.175976  -0.080614  -0.122151  -0.033670
   38  H  9  S    0.051227   0.164208  -0.107956   0.025479  -0.095021
   39  H  9  S    0.575663   1.193331  -0.653977   0.115642  -0.436392
   40  O 10  S    0.073103  -0.074507  -0.021826  -0.022577  -0.020155
   41  O 10  S   -0.040969   0.041621   0.012300   0.020319   0.015321
   42  O 10  X    0.114866  -0.063911  -0.027664   0.162367   0.132388
   43  O 10  Y   -0.083891   0.058540  -0.020297  -0.143952   0.036890
   44  O 10  Z    0.000421   0.006705   0.009584   0.154001   0.056645
   45  O 10  S   -0.633560   0.652896   0.192730   0.181229   0.170560
   46  O 10  X    0.250940  -0.179172  -0.055089   0.378052   0.285485
   47  O 10  Y   -0.189754   0.147797  -0.012230  -0.329336   0.078802
   48  O 10  Z   -0.013339   0.049389   0.033308   0.331424   0.135334
   49  H 11  S    0.023038  -0.037834  -0.024729  -0.069018  -0.090174
   50  H 11  S    0.193044  -0.285822  -0.045051  -0.634912  -0.698198
   51  H 12  S    0.096752  -0.108736  -0.025519   0.146402   0.041588
   52  H 12  S    0.826076  -0.719478  -0.151041   1.023946   0.329807
   53  O 13  S    0.007671   0.014087   0.049161  -0.014782  -0.004968
   54  O 13  S   -0.005033  -0.009260  -0.037698   0.012209   0.010104
   55  O 13  X    0.059816   0.061494   0.148449   0.008061   0.123760
   56  O 13  Y    0.084748   0.060872   0.220047  -0.043402  -0.022952
   57  O 13  Z    0.017783   0.011622   0.054045   0.005405   0.048405
   58  O 13  S   -0.059899  -0.116286  -0.385105   0.111599   0.004870
   59  O 13  X    0.129622   0.135242   0.328689   0.018133   0.245807
   60  O 13  Y    0.197492   0.164271   0.538688  -0.115248  -0.040845
   61  O 13  Z    0.025223   0.040889   0.111082   0.001107   0.095447
   62  H 14  S    0.029876   0.055927   0.173842  -0.028743   0.074172
   63  H 14  S    0.425449   0.462101   1.309314  -0.164975   0.359437
   64  H 15  S   -0.016798  -0.014481  -0.059210   0.014415   0.010695
   65  H 15  S   -0.282965  -0.197643  -0.617660   0.113614   0.056960
   66  O 16  S   -0.015110  -0.001110  -0.008097  -0.045591   0.041010
   67  O 16  S   -0.000345   0.005842   0.009629   0.038305  -0.028466
   68  O 16  X   -0.039812   0.050959  -0.013049  -0.018581   0.144574
   69  O 16  Y   -0.107683   0.041747   0.080812   0.178465  -0.135451
   70  O 16  Z   -0.006779  -0.016961   0.007701   0.007387  -0.058275
   71  O 16  S    0.178415  -0.019276   0.041459   0.335872  -0.344823
   72  O 16  X   -0.074270   0.089536  -0.030963  -0.070004   0.323814
   73  O 16  Y   -0.230098   0.093230   0.182599   0.444397  -0.348049
   74  O 16  Z   -0.044440  -0.023100   0.029061   0.016899  -0.126052
   75  H 17  S   -0.031265   0.013687   0.019296   0.048070  -0.037256
   76  H 17  S   -0.456472   0.142335   0.259526   0.498224  -0.384362
   77  H 18  S    0.025724  -0.048775  -0.008932  -0.091916  -0.001668
   78  H 18  S    0.186255  -0.255404  -0.180867  -0.773315   0.017805

                     41         42         43         44         45
                    0.3568     0.4042     0.8620     0.9304     0.9368
                     A          A          A          A          A   
    1  O  1  S    0.018505   0.012060   0.012299  -0.019848   0.002719
    2  O  1  S   -0.022406  -0.013442  -0.036900   0.056865   0.004379
    3  O  1  X   -0.063427  -0.030743  -0.063607   0.054638  -0.015311
    4  O  1  Y    0.091669   0.050562  -0.065051   0.035046  -0.028553
    5  O  1  Z    0.003039   0.000828   0.036277   0.003224   0.023418
    6  O  1  S   -0.113461  -0.083695   0.045023  -0.126768  -0.000122
    7  O  1  X   -0.136088  -0.081369  -0.004365  -0.025110  -0.053273
    8  O  1  Y    0.172155   0.090146  -0.022344   0.062247   0.072957
    9  O  1  Z    0.019345   0.021747   0.049183   0.051911   0.012033
   10  H  2  S    0.096814   0.070148   0.055885  -0.267137  -0.433607
   11  H  2  S    0.753686   0.452889   0.002970   0.101128   0.549716
   12  H  3  S   -0.022241  -0.024020  -0.093451  -0.198603  -0.103120
   13  H  3  S   -0.116333  -0.063174   0.121204  -0.012172   0.092028
   14  O  4  S    0.040616   0.012333   0.001011  -0.011519  -0.000560
   15  O  4  S   -0.025508  -0.020510   0.005994   0.035112  -0.002521
   16  O  4  X    0.127410  -0.020999  -0.019554  -0.017827  -0.018246
   17  O  4  Y   -0.195389   0.191022  -0.017133  -0.002422   0.037612
   18  O  4  Z   -0.001278   0.115304  -0.006551  -0.012915  -0.004159
   19  O  4  S   -0.361597  -0.030757  -0.040630  -0.017050  -0.013503
   20  O  4  X    0.318730  -0.040401   0.040002  -0.010331  -0.075197
   21  O  4  Y   -0.427110   0.390572  -0.002474   0.035096   0.017320
   22  O  4  Z    0.029116   0.224078   0.045511   0.050499  -0.120425
   23  H  5  S   -0.019239   0.002598  -0.078208  -0.070191   0.306382
   24  H  5  S   -0.309530  -0.040628   0.024640   0.005148  -0.198447
   25  H  6  S    0.146793  -0.095277   0.065767  -0.127928  -0.491867
   26  H  6  S    1.236337  -0.655217  -0.011683  -0.004493   0.511452
   27  O  7  S   -0.004862   0.000799   0.031493   0.020235   0.012053
   28  O  7  S    0.008467  -0.001474  -0.130871   0.024145  -0.005013
   29  O  7  X   -0.021559  -0.007523  -0.001330   0.068004   0.059076
   30  O  7  Y    0.049985  -0.016745   0.015821  -0.054691  -0.021282
   31  O  7  Z    0.045037  -0.004864   0.033625   0.098805   0.059036
   32  O  7  S    0.027077  -0.004791   0.261711  -0.209876  -0.044672
   33  O  7  X   -0.023359  -0.007801   0.177392   0.068612  -0.134467
   34  O  7  Y    0.075363  -0.016651  -0.141543  -0.038713   0.036094
   35  O  7  Z    0.076657  -0.009359   0.268571  -0.007433   0.132841
   36  H  8  S    0.014688  -0.004718   0.944358   0.698918   0.402262
   37  H  8  S    0.019514  -0.003741  -0.521086  -0.595515  -0.314216
   38  H  9  S   -0.016126   0.002045   0.527880  -0.671283   0.374800
   39  H  9  S   -0.106645  -0.025057  -0.410196   0.701198  -0.535575
   40  O 10  S   -0.036623   0.003367   0.014622  -0.023762  -0.002425
   41  O 10  S    0.024775  -0.002757  -0.028915   0.046916  -0.004787
   42  O 10  X    0.044820  -0.189512   0.065693   0.016376  -0.002355
   43  O 10  Y   -0.112013  -0.235350  -0.047974  -0.010120   0.009108
   44  O 10  Z    0.078718   0.005727   0.004874   0.016454  -0.024075
   45  O 10  S    0.323442  -0.027536  -0.038690  -0.015660   0.026046
   46  O 10  X    0.084784  -0.428401   0.049677  -0.039563  -0.009747
[...]

                     11         12         13         14         15

                  1.000000   1.000000   1.000000   1.000000   1.000000

    1             0.048725   0.011447   0.030118   0.006938   0.414268
    2             0.018853   0.004071  -0.000002   0.003011   0.020088
    3             0.004041   0.000981   0.007180   0.001242   0.132552
    4             0.181053   0.598090   0.000257   0.007539   0.006159
    5             0.012020   0.041819   0.000024   0.000077   0.001749
    6             0.005289   0.016934   0.000005   0.002801   0.001099
    7             0.001791   0.010161   0.624168   0.501061   0.041464
    8             0.000191   0.001403   0.165375   0.000389   0.000441
    9             0.002094   0.000290   0.034184   0.000154   0.100432
   10             0.017346   0.095374   0.030598   0.142414   0.073992
   11             0.004962   0.001423   0.001742   0.017093   0.002309
   12             0.000611   0.003949   0.030591   0.106349   0.017726
   13             0.017102   0.056270   0.032308   0.097132   0.046155
   14             0.000899   0.002067   0.033310   0.079248   0.018125
   15             0.001340   0.004481   0.008187   0.021064   0.013467
   16             0.635816   0.140741   0.000277   0.004875   0.066112
   17             0.043145   0.009940   0.000015   0.000004   0.018762
   18             0.004722   0.000557   0.001664   0.008607   0.025100

                     16         17         18         19         20

                  1.000000   1.000000   1.000000   1.000000   1.000000

    1             0.077197   0.157025   0.098664   0.137040   0.016133
    2             0.019934   0.093755   0.043208   0.009192   0.005545
    3             0.020825   0.001525   0.003814   0.029958   0.000439
    4             0.091978   0.053079   0.255277   0.107328   0.097791
    5             0.017283   0.006200   0.059284   0.034331   0.001269
    6             0.000142   0.032160   0.130759   0.014188   0.016496
    7             0.002135   0.028262   0.015364   0.070938   0.296336
    8             0.000422   0.003578   0.000747   0.013608   0.000267
    9             0.001823   0.036564   0.034320   0.006566   0.000572
   10             0.440855   0.031281   0.005603   0.125645   0.230734
   11             0.112732   0.010057   0.000098   0.019119   0.038641
   12             0.000052   0.005909   0.001519   0.015058   0.006687
   13             0.000323   0.213071   0.215433   0.175260   0.149549
   14             0.000118   0.025281   0.008188   0.028625   0.004674
   15             0.000011   0.066612   0.021851   0.038493   0.033087
   16             0.095312   0.187947   0.086326   0.120243   0.070301
   17             0.001779   0.046977   0.017231   0.038326   0.004938
   18             0.117078   0.000716   0.002314   0.016083   0.026540

                     21         22         23         24         25

                  1.000000   1.000000   1.000000   1.000000   1.000000

    1             0.334048   0.166631   0.443285   0.052458   0.104610
    2             0.001751   0.005161  -0.000196   0.000297   0.000859
    3             0.016479   0.000295   0.002278   0.000039   0.000055
    4             0.115712   0.066617   0.181014   0.139501   0.060455
    5             0.032926   0.014878   0.038772   0.017547   0.011039
    6             0.000807   0.002007   0.004869   0.001397   0.000423
    7             0.040554   0.068190   0.021739   0.051074   0.059083
    8             0.000120   0.007657   0.002647   0.001529   0.002606
    9             0.046455   0.023835   0.016033   0.000068   0.010777
   10             0.054002   0.240305   0.037743   0.580968   0.045542
   11             0.000696   0.000285   0.000502   0.002206  -0.000007
   12             0.001039   0.031483   0.000454   0.012275   0.002055
   13             0.224533   0.062069   0.111087   0.051293   0.656949
   14             0.021572   0.008768   0.005075   0.001144   0.030574
   15             0.017678   0.000830   0.000123   0.000131   0.003782
   16             0.071909   0.244181   0.110393   0.074381   0.010515
   17             0.011697   0.056269   0.022924   0.012087   0.000438
   18             0.008022   0.000539   0.001256   0.001605   0.000245

                     26         27         28         29

                  1.000000   1.000000   1.000000   1.000000

    1             0.283239   0.005884   0.000574   0.000543
    2             0.022250   0.000739   0.001445   0.000978
    3             0.005757   0.000019   0.000007   0.000009
    4             0.003298   0.409709   0.344956   0.575356
    5             0.000031  -0.000009   0.000452   0.001114
    6             0.000229   0.014949   0.003113   0.002307
    7             0.006863   0.010324   0.000422   0.001225
    8             0.000102   0.000087   0.000006   0.000008
    9             0.012091   0.000761   0.000216   0.000025
   10             0.021498   0.088933   0.176341   0.197829
   11            -0.000024   0.006484   0.000785   0.003938
   12             0.000503   0.003187   0.002613   0.000213
   13             0.015865   0.308961   0.063650   0.003480
   14             0.000385   0.006866   0.000650   0.000306
   15             0.000025   0.003337   0.001275   0.000021
   16             0.624162   0.137994   0.397980   0.211705
   17             0.001216   0.000148   0.000668   0.000331
   18             0.002509   0.001628   0.004847   0.000612

     ATOMIC SPIN POPULATION (ALPHA MINUS BETA)
       ATOM         MULL.POP.                    LOW.POP.
    1 O             0.252097                     0.221265
    2 H            -0.005433                    -0.003151
    3 H            -0.011561                    -0.009024
    4 O            -0.000387                    -0.000532
    5 H            -0.000006                    -0.000008
    6 H            -0.001718                    -0.001002
    7 O             0.930739                     0.879175
    8 H            -0.051446                    -0.040064
    9 H            -0.143140                    -0.093741
   10 O             0.000628                    -0.000087
   11 H             0.000040                    -0.000047
   12 H            -0.011045                    -0.005685
   13 O             0.111715                     0.098527
   14 H            -0.067141                    -0.042984
   15 H            -0.005783                    -0.004574
   16 O             0.003312                     0.002560
   17 H            -0.000241                    -0.000212
   18 H            -0.000629                    -0.000414


          ********* ALL ELECTRONS ********

               ----- POPULATIONS IN EACH AO -----
                             MULLIKEN      LOWDIN
              1  O  1  S      1.98580     1.98018
              2  O  1  S      0.41980     0.57762
              3  O  1  X      0.82142     0.83292
              4  O  1  Y      0.64370     0.63713
              5  O  1  Z      0.60885     0.59004
              6  O  1  S      1.49418     1.06405
              7  O  1  X      1.04838     1.02548
              8  O  1  Y      0.87326     0.88207
              9  O  1  Z      0.79103     0.80283
             10  H  2  S      0.31229     0.33178
             11  H  2  S      0.22349     0.37388
             12  H  3  S      0.38804     0.40437
             13  H  3  S      0.16527     0.29076
             14  O  4  S      1.98544     1.97961
             15  O  4  S      0.40797     0.56473
             16  O  4  X      0.76056     0.76840
             17  O  4  Y      0.70424     0.70247
             18  O  4  Z      0.63481     0.62216
             19  O  4  S      1.49097     1.06172
             20  O  4  X      1.02323     1.00109
             21  O  4  Y      0.94606     0.94683
             22  O  4  Z      0.86338     0.87125
             23  H  5  S      0.39725     0.41486
             24  H  5  S      0.19782     0.31224
             25  H  6  S      0.31278     0.33287
             26  H  6  S      0.22538     0.37458
             27  O  7  S      1.98665     1.98174
             28  O  7  S      0.44143     0.60848
             29  O  7  X      0.62163     0.62164
             30  O  7  Y      0.69084     0.69579
             31  O  7  Z      0.72399     0.71564
             32  O  7  S      1.50651     1.09151
             33  O  7  X      0.74824     0.73398
             34  O  7  Y      0.82871     0.80896
             35  O  7  Z      0.88455     0.86785
             36  H  8  S      0.37583     0.38820
             37  H  8  S      0.12095     0.26833
             38  H  9  S      0.35968     0.37105
             39  H  9  S      0.24764     0.38519
             40  O 10  S      1.98565     1.97926
             41  O 10  S      0.40439     0.56422
             42  O 10  X      0.65812     0.65183
             43  O 10  Y      0.66667     0.66243
             44  O 10  Z      0.78895     0.79864
             45  O 10  S      1.49811     1.03220
             46  O 10  X      0.89462     0.88535
             47  O 10  Y      0.90849     0.88910
             48  O 10  Z      1.05064     1.02659
             49  H 11  S      0.28869     0.30961
             50  H 11  S      0.21749     0.36746
             51  H 12  S      0.33899     0.35544
             52  H 12  S      0.22328     0.36747
             53  O 13  S      1.98565     1.97996
             54  O 13  S      0.41513     0.57263
             55  O 13  X      0.72753     0.72798
             56  O 13  Y      0.62334     0.60919
             57  O 13  Z      0.73163     0.73397
             58  O 13  S      1.49328     1.06497
             59  O 13  X      0.95275     0.95497
             60  O 13  Y      0.81974     0.82361
             61  O 13  Z      0.99409     0.98526
             62  H 14  S      0.34676     0.36056
             63  H 14  S      0.23294     0.37935
             64  H 15  S      0.39316     0.41013
             65  H 15  S      0.18053     0.30078
             66  O 16  S      1.98544     1.97961
             67  O 16  S      0.40779     0.56454
             68  O 16  X      0.69282     0.69082
             69  O 16  Y      0.62148     0.60845
             70  O 16  Z      0.78470     0.79340
             71  O 16  S      1.49076     1.06234
             72  O 16  X      0.95138     0.95043
             73  O 16  Y      0.83493     0.83593
             74  O 16  Z      1.04873     1.03501
             75  H 17  S      0.39471     0.41271
             76  H 17  S      0.19239     0.30850
             77  H 18  S      0.29025     0.31128
             78  H 18  S      0.22192     0.36972

          ----- MULLIKEN ATOMIC OVERLAP POPULATIONS -----
          (OFF-DIAGONAL ELEMENTS NEED TO BE MULTIPLIED BY 2)

             1           2           3           4           5

    1    8.1977489
    2    0.0696606   0.3091075
    3    0.2528619  -0.0058052   0.3254349
    4    0.0000000   0.0000008   0.0000001   8.3030283
    5    0.0000001  -0.0000016  -0.0000000   0.2575294   0.3650620
    6   -0.0000013  -0.0000018  -0.0000000   0.1958231  -0.0204976
    7   -0.0131312   0.0004682   0.0008631  -0.0000754   0.0000007
    8    0.0008680  -0.0000196  -0.0000305  -0.0000000   0.0000001
    9    0.2085961  -0.0102797  -0.0212433  -0.0000048   0.0000000
   10   -0.0001206   0.0029286  -0.0000067  -0.0366219   0.0016368
   11   -0.0000119   0.0000028   0.0000008   0.1229594  -0.0097900
   12    0.0005017   0.0005428  -0.0000087   0.0022414  -0.0000494
   13    0.0000035  -0.0000008  -0.0000009  -0.0328028   0.0010950
   14    0.0001123   0.0000042   0.0000461   0.0026655  -0.0000027
   15   -0.0000001   0.0000000  -0.0000002   0.0013763  -0.0000314
   16   -0.0330744   0.2006224   0.0012533  -0.0000042   0.0000066
   17    0.0011644  -0.0207092  -0.0000312   0.0000003  -0.0000006
   18    0.0012464  -0.0107375  -0.0000256   0.0005470   0.0001192

             6           7           8           9          10

    6    0.3079256
    7    0.0005153   8.2042031
    8   -0.0000260   0.2271133   0.2709319
    9    0.0000057   0.0209362  -0.0017472   0.4110322
   10    0.0029407  -0.0259690   0.0007743   0.0008955   8.4024092
   11   -0.0105269   0.0009972  -0.0000310  -0.0000147   0.1554225
   12    0.0005260   0.0184117  -0.0009724  -0.0024902   0.2291206
   13    0.0782089  -0.0195339   0.0010593   0.0000871  -0.0001794
   14   -0.0095125   0.0156651  -0.0010528  -0.0017556   0.0008038
   15   -0.0072141   0.0009861  -0.0000399  -0.0000025  -0.0000036
   16    0.0000022  -0.0000830  -0.0000012   0.0028892  -0.0371406
   17   -0.0000001  -0.0000006  -0.0000000  -0.0000145   0.0014517
   18   -0.0000077   0.0012016  -0.0000386   0.0004285   0.1573015

            11          12          13          14          15

   11    0.2694466
   12   -0.0165722   0.3457314
   13    0.0012218   0.0009142   8.2348843
   14    0.0004132  -0.0005391   0.2237512   0.3705592
   15   -0.0000224   0.0000032   0.2544406  -0.0214464   0.3456432
   16    0.0001813   0.0025684   0.0000000  -0.0000034   0.0000000
   17   -0.0000069  -0.0000120   0.0000000  -0.0000000  -0.0000000
   18   -0.0074886  -0.0176471  -0.0000104  -0.0000088  -0.0000000

            16          17          18

   16    8.3014489
   17    0.2585150   0.3561240
   18    0.1208447  -0.0093872   0.2758355

          TOTAL MULLIKEN AND LOWDIN ATOMIC POPULATIONS
       ATOM         MULL.POP.    CHARGE          LOW.POP.     CHARGE
    1 O             8.686424   -0.686424         8.392318   -0.392318
    2 H             0.535782    0.464218         0.705653    0.294347
    3 H             0.553308    0.446692         0.695129    0.304871
    4 O             8.816663   -0.816663         8.518267   -0.518267
    5 H             0.595077    0.404923         0.727106    0.272894
    6 H             0.538160    0.461840         0.707441    0.292559
    7 O             8.432569   -0.432569         8.125605   -0.125605
    8 H             0.496788    0.503212         0.656531    0.343469
    9 H             0.607318    0.392682         0.756240    0.243760
   10 O             8.855644   -0.855644         8.489624   -0.489624
   11 H             0.506181    0.493819         0.677074    0.322926
   12 H             0.562270    0.437730         0.722912    0.277088
   13 O             8.743138   -0.743138         8.452544   -0.452544
   14 H             0.579699    0.420301         0.739916    0.260084
   15 H             0.573689    0.426311         0.710912    0.289088
   16 O             8.818025   -0.818025         8.520527   -0.520527
   17 H             0.587093    0.412907         0.721205    0.278795
   18 H             0.512173    0.487827         0.680995    0.319005

          -------------------------------
          BOND ORDER AND VALENCE ANALYSIS     BOND ORDER THRESHOLD=0.050
          -------------------------------

                   BOND                       BOND                       BOND
  ATOM PAIR DIST  ORDER      ATOM PAIR DIST  ORDER      ATOM PAIR DIST  ORDER
    1   2  1.405  0.185        1   3  0.991  0.769        1   7  2.484  0.083
    1   9  1.094  0.682        2  16  1.094  0.580        4   5  0.991  0.803
    4   6  1.087  0.572        4  11  1.407  0.282        6  13  1.421  0.199
    7   8  0.991  0.716        7   9  1.403  0.106        7  12  1.440  0.107
    7  13  2.489  0.055        7  14  1.410  0.101       10  11  1.094  0.469
   10  12  1.079  0.675       10  18  1.096  0.474       13  14  1.092  0.684
   13  15  0.992  0.786       16  17  0.991  0.798       16  18  1.400  0.281

                       TOTAL       BONDED        FREE
      ATOM            VALENCE     VALENCE     VALENCE
    1 O                 1.825       1.768       0.056
    2 H                 0.774       0.774       0.000
    3 H                 0.778       0.778       0.000
    4 O                 1.733       1.733       0.000
    5 H                 0.812       0.812      -0.000
    6 H                 0.779       0.779       0.000
    7 O                 1.952       1.201       0.751
    8 H                 0.728       0.725       0.003
    9 H                 0.821       0.800       0.021
   10 O                 1.732       1.732       0.000
   11 H                 0.756       0.756      -0.000
   12 H                 0.794       0.794       0.000
   13 O                 1.788       1.777       0.011
   14 H                 0.802       0.798       0.005
   15 H                 0.795       0.795       0.000
   16 O                 1.737       1.737       0.000
   17 H                 0.806       0.806       0.000
   18 H                 0.761       0.761       0.000

          -----------------------------------------
          ATOMIC SPIN DENSITY AT THE NUCLEUS (A.U.)
          -----------------------------------------
                            SPIN DENS    ALPHA DENS     BETA DENS
    1  O            8.0     0.0125363     116.71408     116.70155
    2  H            1.0    -0.0009447       0.12154       0.12249
    3  H            1.0    -0.0041608       0.15460       0.15877
    4  O            8.0    -0.0016425     116.61834     116.61999
    5  H            1.0    -0.0000008       0.16081       0.16081
    6  H            1.0    -0.0001775       0.12232       0.12250
    7  O            8.0     0.1407864     116.99669     116.85590
    8  H            1.0    -0.0211590       0.14048       0.16164
    9  H            1.0    -0.0463423       0.11756       0.16390
   10  O            8.0    -0.0059008     116.61717     116.62307
   11  H            1.0    -0.0000281       0.11182       0.11185
   12  H            1.0    -0.0007551       0.13335       0.13410
   13  O            8.0     0.0040943     116.67448     116.67039
   14  H            1.0    -0.0210472       0.12544       0.14648
   15  H            1.0    -0.0022623       0.15783       0.16010
   16  O            8.0    -0.0023981     116.61673     116.61913
   17  H            1.0    -0.0000899       0.15976       0.15985
   18  H            1.0    -0.0000916       0.11246       0.11255

          ---------------------
          ELECTROSTATIC MOMENTS
          ---------------------

 POINT   1           X           Y           Z (BOHR)    CHARGE
                 1.498521    4.672067    0.075606        1.00 (A.U.)
         DX          DY          DZ         /D/  (DEBYE)
    -5.763288    3.301980   -2.007970    6.939056
 ...... END OF PROPERTY EVALUATION ......
 CPU     0: STEP CPU TIME=     0.03 TOTAL CPU TIME=          1.2 (      0.0 MIN)
 TOTAL WALL CLOCK TIME=          1.2 SECONDS, CPU UTILIZATION IS    97.54%
               580000  WORDS OF DYNAMIC MEMORY USED
 EXECUTION OF GAMESS TERMINATED NORMALLY Sun May 17 21:55:25 2020
 DDI: 263640 bytes (0.3 MB / 0 MWords) used by master data server.
Note: The following floating-point exceptions are signalling: IEEE_DENORMALNote: The following floating-point exceptions are signalling: IEEE_DENORMALNote: The following floating-point exceptions are signalling: IEEE_DENORMALNote: The following floating-point exceptions are signalling: IEEE_DENORMALNote: The following floating-point exceptions are signalling: IEEE_DENORMAL
 ----------------------------------------
 CPU timing information for all processes
 ========================================
 0: 1.88 + 0.111 = 1.199
 1: 1.49 + 0.20 = 1.69
 2: 1.54 + 0.16 = 1.70
 3: 1.42 + 0.27 = 1.69
 4: 1.47 + 0.20 = 1.67
 5: 1.31 + 0.31 = 1.63
 ----------------------------------------





Note: The following floating-point exceptions are signalling: IEEE_DENORMAL
 ddikick.x: exited gracefully.
unset echo
----- accounting info -----
Files used on the master node pietdev were:
-rwxr-xr-x 1 piet piet     1133 mei 17 21:55 /home/piet/scr/6H2O_fukui_base.F05*
-rw-r--r-- 1 piet piet 68812800 mei 17 21:55 /home/piet/scr/6H2O_fukui_base.F10
ls: No match.
ls: No match.
ls: No match.
zo 17 mei 2020 21:55:28 CEST
0.083u 0.036s 0:04.35 2.5%	0+0k 0+8io 0pf+0w
