----- GAMESS execution script 'rungms' -----
This job is running on host pietdev
under operating system Linux at zo 17 mei 2020 21:46:35 CEST
Available scratch disk space (Kbyte units) at beginning of the job is
Filesystem     1K-blocks     Used Available Use% Mounted on
/dev/sda2      244568380 30477600 201597724  14% /
GAMESS temporary binary files will be written to /home/piet/scr
GAMESS supplementary output files will be written to /home/piet/gamess/scr
Copying input file 6H2O_geoopt.inp to your run's scratch directory...
cp 6H2O_geoopt.inp /home/piet/scr/6H2O_geoopt.F05
unset echo
 
Assuming a single but multicore node.
 
/home/piet/gamess/ddikick.x /home/piet/gamess/gamess.03.x 6H2O_geoopt -ddi 1 6 pietdev:cpus=6 -scr /home/piet/scr

 Distributed Data Interface kickoff program.
 Initiating 6 compute processes on 1 nodes to run the following command:
 /home/piet/gamess/gamess.03.x 6H2O_geoopt 

          ******************************************************
          *         GAMESS VERSION = 30 SEP 2019 (R2)          *
          *             FROM IOWA STATE UNIVERSITY             *
          * M.W.SCHMIDT, K.K.BALDRIDGE, J.A.BOATZ, S.T.ELBERT, *
          *   M.S.GORDON, J.H.JENSEN, S.KOSEKI, N.MATSUNAGA,   *
          *          K.A.NGUYEN, S.J.SU, T.L.WINDUS,           *
          *       TOGETHER WITH M.DUPUIS, J.A.MONTGOMERY       *
          *         J.COMPUT.CHEM.  14, 1347-1363(1993)        *
          **************** 64 BIT LINUX VERSION ****************

  SINCE 1993, STUDENTS AND POSTDOCS WORKING AT IOWA STATE UNIVERSITY
  AND ALSO IN THEIR VARIOUS JOBS AFTER LEAVING ISU HAVE MADE IMPORTANT
  CONTRIBUTIONS TO THE CODE:
     IVANA ADAMOVIC, CHRISTINE AIKENS, YURI ALEXEEV, POOJA ARORA,
     ANDREY ASADCHEV, ROB BELL, PRADIPTA BANDYOPADHYAY, JONATHAN BENTZ,
     COLLEEN BERTONI, BRETT BODE, KURT BRORSEN, CALEB CARLIN, GALINA CHABAN,
     WEI CHEN, CHEOL HO CHOI, PAUL DAY, ALBERT DEFUSCO, NUWAN DESILVA,
     TIM DUDLEY, DMITRI FEDOROV, ALEX FINDLATER, GRAHAM FLETCHER, 
     MARK FREITAG, KURT GLAESEMANN, EMILIE B GUIDEZ, ANASTASIA GUNINA, 
     DAN KEMP, SAROM SOK LEANG, GRANT MERRILL,
     NORIYUKI MINEZAWA, JONATHAN MULLIN,
     TAKESHI NAGATA, SEAN NEDD, HEATHER NETZLOFF, BOSILJKA NJEGIC, RYAN OLSON,
     MIKE PAK, BUU PHAM, DAVID POOLE,
     SPENCER PRUITT, LUKE ROSKOP, TOSAPORN SATTASATHUCHANA,
     JIM SHOEMAKER, LYUDMILA SLIPCHENKO,
     TONY SMITH, JIE SONG, TETSUYA TAKETSUGU, SIMON WEBB,
     JORGE LUIS GALVEZ VALLEJO, PENG XU, SOOHAENG YOO,
     FEDERICO ZAHARIEV

  ADDITIONAL CODE HAS BEEN PROVIDED BY COLLABORATORS IN OTHER GROUPS:
     IOWA STATE UNIVERSITY:
          JOE IVANIC, AARON WEST, LAIMUTIS BYTAUTAS, KLAUS RUEDENBERG
     UNIVERSITY OF TOKYO: KIMIHIKO HIRAO, TAKAHITO NAKAJIMA,
          TAKAO TSUNEDA, MUNEAKI KAMIYA, SUSUMU YANAGISAWA,
          KIYOSHI YAGI, MAHITO CHIBA, SEIKEN TOKURA, NAOAKI KAWAKAMI
     UNIVERSITY OF AARHUS: FRANK JENSEN
     UNIVERSITY OF IOWA: VISVALDAS KAIRYS, HUI LI
     NATIONAL INST. OF STANDARDS AND TECHNOLOGY: WALT STEVENS, DAVID GARMER
     UNIVERSITY OF PISA: BENEDETTA MENNUCCI, JACOPO TOMASI
     UNIVERSITY OF MEMPHIS: HENRY KURTZ, PRAKASHAN KORAMBATH
     UNIVERSITY OF ALBERTA: TOBY ZENG, MARIUSZ KLOBUKOWSKI
     UNIVERSITY OF NEW ENGLAND: MARK SPACKMAN
     MIE UNIVERSITY: HIROAKI UMEDA
     NAT. INST. OF ADVANCED INDUSTRIAL SCIENCE AND TECHNOLOGY: KAZUO KITAURA
     MICHIGAN STATE UNIVERSITY:
          KAROL KOWALSKI, MARTA WLOCH, JEFFREY GOUR, JESSE LUTZ,
          WEI LI, JUN SHEN, J. EMILIANO DEUSTUA, PIOTR PIECUCH
     UNIVERSITY OF MINNESOTA:
          ANDREW SAND, PRACHI SHARMA, YINAN SHU
     UNIVERSITY OF SILESIA: MONIKA MUSIAL, STANISLAW KUCHARSKI
     FACULTES UNIVERSITAIRES NOTRE-DAME DE LA PAIX:
          OLIVIER QUINET, BENOIT CHAMPAGNE
     UNIVERSITY OF CALIFORNIA - SANTA BARBARA: BERNARD KIRTMAN
     INSTITUTE FOR MOLECULAR SCIENCE:
          KAZUYA ISHIMURA, MICHIO KATOUDA, AND SHIGERU NAGASE
     UNIVERSITY OF NOTRE DAME: ANNA POMOGAEVA, DAN CHIPMAN
     KYUSHU UNIVERSITY:
          HARUYUKI NAKANO,
          FENG LONG GU, JACEK KORCHOWIEC, MARCIN MAKOWSKI, AND YURIKO AOKI,
          HIROTOSHI MORI AND EISAKU MIYOSHI
     PENNSYLVANIA STATE UNIVERSITY:
          TZVETELIN IORDANOV, CHET SWALINA, JONATHAN SKONE,
          SHARON HAMMES-SCHIFFER
     WASEDA UNIVERSITY:
          MASATO KOBAYASHI, TOMOKO AKAMA, TSUGUKI TOUMA,
          TAKESHI YOSHIKAWA, YASUHIRO IKABATA, JUNJI SEINO,
          YUYA NAKAJIMA, HIROMI NAKAI
     NANJING UNIVERSITY: SHUHUA LI
     UNIVERSITY OF NEBRASKA:
          PEIFENG SU, DEJUN SI, NANDUN THELLAMUREGE, YALI WANG, HUI LI
     UNIVERSITY OF ZURICH: ROBERTO PEVERATI, KIM BALDRIDGE
     N. COPERNICUS UNIVERSITY AND JACKSON STATE UNIVERSITY:
          MARIA BARYSZ
     UNIVERSITY OF COPENHAGEN: Jimmy Kromann, CASPER STEINMANN
     TOKYO INSTITUTE OF TECHNOLOGY: HIROYA NAKATA
     NAGOYA UNIVERSITY: YOSHIO NISHIMOTO, STEPHAN IRLE
     MOSCOW STATE UNIVERSITY: VLADIMIR MIRONOV
     A.N.NESMEYANOV INSTITUTE OF ORGANOELEMENT COMPOUNDS OF RUSSIAN ACADEMY OF SCIENCES:
          IGOR S. GERASIMOV
     JOHANNES KEPLER UNIVERSITY LINZ:
          CHRISTIAN FRIEDL


 PARALLEL VERSION RUNNING ON        6 PROCESSORS IN        1 NODES.

 EXECUTION OF GAMESS BEGUN Sun May 17 21:46:35 2020

            ECHO OF THE FIRST FEW INPUT CARDS -
 INPUT CARD> $BASIS GBASIS=N21 NGAUSS=3 $END                                                
 INPUT CARD> $CONTRL SCFTYP=RHF RUNTYP=OPTIMIZE DFTTYP=B3LYP MAXIT=60 MULT=1 ICHARG=0 $END  
 INPUT CARD> $SYSTEM MEMDDI=1000 MWORDS=30 $END                                             
 INPUT CARD> $STATPT NSTEP=999 $END                                                         
 INPUT CARD> $SCF DIRSCF=.TRUE. $END                                                        
 INPUT CARD> $DATA                                                                          
 INPUT CARD>                                                                                
 INPUT CARD>C1                                                                              
 INPUT CARD>O 8.0000000 -1.59615660 1.40966850 0.58726740                                   
 INPUT CARD>H 1.0000000 -0.87961600 0.72069560 0.60836440                                   
 INPUT CARD>H 1.0000000 -1.85167540 1.57470600 1.50277620                                   
 INPUT CARD>O 8.0000000 3.37873080 3.51897860 0.42851050                                    
 INPUT CARD>H 1.0000000 3.72394170 3.33177930 1.30946310                                    
 INPUT CARD>H 1.0000000 2.65257680 4.17279340 0.54298650                                    
 INPUT CARD>O 8.0000000 -0.49322020 3.32749150 -0.90596260                                  
 INPUT CARD>H 1.0000000 -1.07496500 3.53496530 -1.64744450                                  
 INPUT CARD>H 1.0000000 -0.98108670 2.67510080 -0.32986880                                  
 INPUT CARD>O 8.0000000 1.88462490 1.61241800 -0.97353660                                   
 INPUT CARD>H 1.0000000 2.54398650 2.17004240 -0.50478490                                   
 INPUT CARD>H 1.0000000 1.15573490 2.22174970 -1.19013560                                   
 INPUT CARD>O 8.0000000 1.11275520 5.09588650 0.52346540                                    
 INPUT CARD>H 1.0000000 0.46037840 4.57666630 0.00333390                                    
 INPUT CARD>H 1.0000000 1.09534330 5.99661340 0.17912470                                    
 INPUT CARD>O 8.0000000 0.55680170 -0.18876900 0.49385500                                   
 INPUT CARD>H 1.0000000 0.56781730 -1.05778940 0.07570830                                   
 INPUT CARD>H 1.0000000 1.15719850 0.40026280 -0.04090220                                   
 INPUT CARD> $END                                                                           
   30000000 WORDS OF MEMORY AVAILABLE

     BASIS OPTIONS
     -------------
     GBASIS=N21          IGAUSS=       3      POLAR=NONE    
     NDFUNC=       0     NFFUNC=       0     DIFFSP=       F
     NPFUNC=       0      DIFFS=       F     BASNAM=        


     RUN TITLE
     ---------
                                                                                 

 THE POINT GROUP OF THE MOLECULE IS C1      
 THE ORDER OF THE PRINCIPAL AXIS IS     0

 ATOM      ATOMIC                      COORDINATES (BOHR)
           CHARGE         X                   Y                   Z
 O           8.0    -3.0162986075        2.6638871985        1.1097744675
 H           1.0    -1.6622332144        1.3619172046        1.1496420167
 H           1.0    -3.4991591242        2.9757628512        2.8398352389
 O           8.0     6.3848753983        6.6499053107        0.8097674279
 H           1.0     7.0372294073        6.2961499286        2.4745264500
 H           1.0     5.0126433134        7.8854361294        1.0260957000
 O           8.0    -0.9320510296        6.2880471615       -1.7120210691
 H           1.0    -2.0313892964        6.6801157931       -3.1132186850
 H           1.0    -1.8539850332        5.0552075015       -0.6233616439
 O           8.0     3.5614246506        3.0470281977       -1.8397174130
 H           1.0     4.8074374015        4.1007855177       -0.9539051437
 H           1.0     2.1840222754        4.1984981463       -2.2490301722
 O           8.0     2.1028024194        9.6298291495        0.9892061701
 H           1.0     0.8699890267        8.6486452442        0.0063001575
 H           1.0     2.0698986995       11.3319561803        0.3384966006
 O           8.0     1.0522026425       -0.3567216850        0.9332506277
 H           1.0     1.0730191081       -1.9989321187        0.1430679420
 H           1.0     2.1867880784        0.7563870151       -0.0772939503

          INTERNUCLEAR DISTANCES (ANGS.)
          ------------------------------

                1 O          2 H          3 H          4 O          5 H     

   1 O       0.0000000    0.9942631 *  0.9647194 *  5.4059132    5.7025891  
   2 H       0.9942631 *  0.0000000    1.5729608 *  5.0986520    5.3387303  
   3 H       0.9647194 *  1.5729608 *  0.0000000    5.6825515    5.8491181  
   4 O       5.4059132    5.0986520    5.6825515    0.0000000    0.9645163 *
   5 H       5.7025891    5.3387303    5.8491181    0.9645163 *  0.0000000  
   6 H       5.0683879    4.9393967    5.2876783    0.9838080 *  1.5628864 *
   7 O       2.6691290 *  3.0393869    3.2740923    4.0999378    4.7636734  
   8 H       3.1276932    3.6120561    3.7907501    4.9137817    5.6403983  
   9 H       1.6795144 *  2.1703174 *  2.3081120 *  4.5050280    5.0255276  
  10 O       3.8200859    3.3073566    4.4825760    2.7987608 *  3.3987317  
  11 H       4.3487391    3.8808197    4.8689394    1.8405073 *  2.4563026 *
  12 H       3.3751362    3.1032916    4.0883929    3.0404817    3.7517790  
  13 O       4.5749838    4.8082269    4.7059123    2.7622998 *  3.2477933  
  14 H       3.8210194    4.1267611    4.0750074    3.1330910    3.7291504  
  15 H       5.3339306    5.6497805    5.4763343    3.3785686    3.9100557  
  16 O       2.6830874 *  1.7039760 *  3.1509567    4.6599298    4.8052318  
  17 H       3.3215695    2.3541016 *  3.8497402    5.3826118    5.5454112  
  18 H       2.9990767 *  2.1616747 *  3.5798857    3.8577121    4.1237660  

                6 H          7 O          8 H          9 H         10 O     

   1 O       5.0683879    2.6691290 *  3.1276932    1.6795144 *  3.8200859  
   2 H       4.9393967    3.0393869    3.6120561    2.1703174 *  3.3073566  
   3 H       5.2876783    3.2740923    3.7907501    2.3081120 *  4.4825760  
   4 O       0.9838080 *  4.0999378    4.9137817    4.5050280    2.7987608 *
   5 H       1.5628864 *  4.7636734    5.6403983    5.0255276    3.3987317  
   6 H       0.0000000    3.5651126    4.3702838    4.0259744    3.0732905  
   7 O       3.5651126    0.0000000    0.9650222 *  0.9977532 *  2.9326082 *
   8 H       4.3702838    0.9650222 *  0.0000000    1.5761300 *  3.5929810  
   9 H       4.0259744    0.9977532 *  1.5761300 *  0.0000000    3.1234446  
  10 O       3.0732905    2.9326082 *  3.5929810    3.1234446    0.0000000  
  11 H       2.2628805 *  3.2749437    4.0330504    3.5653640    0.9825634 *
  12 H       3.0084580    2.0056102 *  2.6286287 *  2.3476782 *  0.9744131 *
  13 O       1.7954199 *  2.7838179 *  3.4547713    3.3124850    3.8692830  
  14 H       2.2934847 *  1.8156564 *  2.4834431 *  2.4093146 *  3.4306737  
  15 H       2.4256321 *  3.2901611    3.7558361    3.9500737    4.6013871  
  16 O       4.8392059    3.9276104    4.5949998    3.3534120    2.6759348 *
  17 H       5.6500945    4.6173766    5.1731407    4.0617811    3.1567237  
  18 H       4.0998865    3.4699970    4.1701189    3.1353873    1.6935986 *

               11 H         12 H         13 O         14 H         15 H     

   1 O       4.3487391    3.3751362    4.5749838    3.8210194    5.3339306  
   2 H       3.8808197    3.1032916    4.8082269    4.1267611    5.6497805  
   3 H       4.8689394    4.0883929    4.7059123    4.0750074    5.4763343  
   4 O       1.8405073 *  3.0404817    2.7622998 *  3.1330910    3.3785686  
   5 H       2.4563026 *  3.7517790    3.2477933    3.7291504    3.9100557  
   6 H       2.2628805 *  3.0084580    1.7954199 *  2.2934847 *  2.4256321 *
   7 O       3.2749437    2.0056102 *  2.7838179 *  1.8156564 *  3.2901611  
   8 H       4.0330504    2.6286287 *  3.4547713    2.4834431 *  3.7558361  
   9 H       3.5653640    2.3476782 *  3.3124850    2.4093146 *  3.9500737  
  10 O       0.9825634 *  0.9744131 *  3.8692830    3.4306737    4.6013871  
  11 H       0.0000000    1.5490712 *  3.4155944    3.2235766    4.1483666  
  12 H       1.5490712 *  0.0000000    3.3464814    2.7301140 *  4.0159827  
  13 O       3.4155944    3.3464814    0.0000000    0.9827115 *  0.9644598 *
  14 H       3.2235766    2.7301140 *  0.9827115 *  0.0000000    1.5653538 *
  15 H       4.1483666    4.0159827    0.9644598 *  1.5653538 *  0.0000000  
  16 O       3.2419402    3.0008575    5.3139011    4.7915845    6.2167546  
  17 H       3.8289836    3.5641808    6.1939624    5.6359447    7.0748553  
  18 H       2.2957543 *  2.1537303 *  4.7296266    4.2343667    5.6010158  

               16 O         17 H         18 H     

   1 O       2.6830874 *  3.3215695    2.9990767 *
   2 H       1.7039760 *  2.3541016 *  2.1616747 *
   3 H       3.1509567    3.8497402    3.5798857  
   4 O       4.6599298    5.3826118    3.8577121  
   5 H       4.8052318    5.5454112    4.1237660  
   6 H       4.8392059    5.6500945    4.0998865  
   7 O       3.9276104    4.6173766    3.4699970  
   8 H       4.5949998    5.1731407    4.1701189  
   9 H       3.3534120    4.0617811    3.1353873  
  10 O       2.6759348 *  3.1567237    1.6935986 *
  11 H       3.2419402    3.8289836    2.2957543 *
  12 H       3.0008575    3.5641808    2.1537303 *
  13 O       5.3139011    6.1939624    4.7296266  
  14 H       4.7915845    5.6359447    4.2343667  
  15 H       6.2167546    7.0748553    5.6010158  
  16 O       0.0000000    0.9644503 *  0.9966946 *
  17 H       0.9644503 *  0.0000000    1.5769859 *
  18 H       0.9966946 *  1.5769859 *  0.0000000  

  * ... LESS THAN  3.000


     ATOMIC BASIS SET
     ----------------
 THE CONTRACTED PRIMITIVE FUNCTIONS HAVE BEEN UNNORMALIZED
 THE CONTRACTED BASIS FUNCTIONS ARE NOW NORMALIZED TO UNITY

  SHELL TYPE  PRIMITIVE        EXPONENT          CONTRACTION COEFFICIENT(S)

 O         

      1   S       1           322.0370000    0.059239393389
      1   S       2            48.4308000    0.351499960776
      1   S       3            10.4206000    0.707657921031

      2   L       4             7.4029400   -0.404453583190    0.244586106967
      2   L       5             1.5762000    1.221561761397    0.853955373466

      3   L       6             0.3736840    1.000000000000    1.000000000000

 H         

      4   S       7             5.4471780    0.156284978695
      4   S       8             0.8245472    0.904690876670

      5   S       9             0.1831916    1.000000000000

 H         

      6   S      10             5.4471780    0.156284978695
      6   S      11             0.8245472    0.904690876670

      7   S      12             0.1831916    1.000000000000

 O         

      8   S      13           322.0370000    0.059239393389
      8   S      14            48.4308000    0.351499960776
      8   S      15            10.4206000    0.707657921031

      9   L      16             7.4029400   -0.404453583190    0.244586106967
      9   L      17             1.5762000    1.221561761397    0.853955373466

     10   L      18             0.3736840    1.000000000000    1.000000000000

 H         

     11   S      19             5.4471780    0.156284978695
     11   S      20             0.8245472    0.904690876670

     12   S      21             0.1831916    1.000000000000

 H         

     13   S      22             5.4471780    0.156284978695
     13   S      23             0.8245472    0.904690876670

     14   S      24             0.1831916    1.000000000000

 O         

     15   S      25           322.0370000    0.059239393389
     15   S      26            48.4308000    0.351499960776
     15   S      27            10.4206000    0.707657921031

     16   L      28             7.4029400   -0.404453583190    0.244586106967
     16   L      29             1.5762000    1.221561761397    0.853955373466

     17   L      30             0.3736840    1.000000000000    1.000000000000

 H         

     18   S      31             5.4471780    0.156284978695
     18   S      32             0.8245472    0.904690876670

     19   S      33             0.1831916    1.000000000000

 H         

     20   S      34             5.4471780    0.156284978695
     20   S      35             0.8245472    0.904690876670

     21   S      36             0.1831916    1.000000000000

 O         

     22   S      37           322.0370000    0.059239393389
     22   S      38            48.4308000    0.351499960776
     22   S      39            10.4206000    0.707657921031

     23   L      40             7.4029400   -0.404453583190    0.244586106967
     23   L      41             1.5762000    1.221561761397    0.853955373466

     24   L      42             0.3736840    1.000000000000    1.000000000000

 H         

     25   S      43             5.4471780    0.156284978695
     25   S      44             0.8245472    0.904690876670

     26   S      45             0.1831916    1.000000000000

 H         

     27   S      46             5.4471780    0.156284978695
     27   S      47             0.8245472    0.904690876670

     28   S      48             0.1831916    1.000000000000

 O         

     29   S      49           322.0370000    0.059239393389
     29   S      50            48.4308000    0.351499960776
     29   S      51            10.4206000    0.707657921031

     30   L      52             7.4029400   -0.404453583190    0.244586106967
     30   L      53             1.5762000    1.221561761397    0.853955373466

     31   L      54             0.3736840    1.000000000000    1.000000000000

 H         

     32   S      55             5.4471780    0.156284978695
     32   S      56             0.8245472    0.904690876670

     33   S      57             0.1831916    1.000000000000

 H         

     34   S      58             5.4471780    0.156284978695
     34   S      59             0.8245472    0.904690876670

     35   S      60             0.1831916    1.000000000000

 O         

     36   S      61           322.0370000    0.059239393389
     36   S      62            48.4308000    0.351499960776
     36   S      63            10.4206000    0.707657921031

     37   L      64             7.4029400   -0.404453583190    0.244586106967
     37   L      65             1.5762000    1.221561761397    0.853955373466

     38   L      66             0.3736840    1.000000000000    1.000000000000

 H         

     39   S      67             5.4471780    0.156284978695
     39   S      68             0.8245472    0.904690876670

     40   S      69             0.1831916    1.000000000000

 H         

     41   S      70             5.4471780    0.156284978695
     41   S      71             0.8245472    0.904690876670

     42   S      72             0.1831916    1.000000000000

 TOTAL NUMBER OF BASIS SET SHELLS             =   42
 NUMBER OF CARTESIAN GAUSSIAN BASIS FUNCTIONS =   78
 NUMBER OF ELECTRONS                          =   60
 CHARGE OF MOLECULE                           =    0
 SPIN MULTIPLICITY                            =    1
 NUMBER OF OCCUPIED ORBITALS (ALPHA)          =   30
 NUMBER OF OCCUPIED ORBITALS (BETA )          =   30
 TOTAL NUMBER OF ATOMS                        =   18
 THE NUCLEAR REPULSION ENERGY IS      286.0376228181

 SELECTED MURRAY-HANDY-LAMING RADIAL GRID

 LEGACY BECKE'S FUZZY CELL METHOD

 SELECTED ORIGINAL BECKE'S PARTITION FUNCTION

     LEBEDEV GRID-BASED DFT OPTIONS
     ------------------------------
     DFTTYP=B3LYP   
     NRAD  =      96     NLEB  =     302
     NRAD0 =      24     NLEB0 =     110
     SWOFF =    5.00E-03 (PURE SCF -> DFT)
     SWITCH=    3.00E-04 (COARSE -> TIGHT GRID)
     THRESH=    0.00E+00 GTHRE=    1.00E+00

 GRIMME'S EMPIRICAL DISPERSION CORRECTION= F

     $CONTRL OPTIONS
     ---------------
 SCFTYP=RHF          RUNTYP=OPTIMIZE     EXETYP=RUN     
 MPLEVL=       0     CITYP =NONE         CCTYP =NONE         VBTYP =NONE    
 DFTTYP=B3LYP        TDDFT =NONE    
 MULT  =       1     ICHARG=       0     NZVAR =       0     COORD =UNIQUE  
 PP    =NONE         RELWFN=NONE         LOCAL =NONE         NUMGRD=       F
 ISPHER=      -1     NOSYM =       0     MAXIT =      60     UNITS =ANGS    
 PLTORB=       F     MOLPLT=       F     AIMPAC=       F     FRIEND=        
 NPRINT=       7     IREST =       0     GEOM  =INPUT   
 NORMF =       0     NORMP =       0     ITOL  =      20     ICUT  =       9
 INTTYP=BEST         GRDTYP=BEST         QMTTOL= 1.0E-06

     $SYSTEM OPTIONS
     ---------------
  REPLICATED MEMORY=    30000000 WORDS (ON EVERY NODE).
 DISTRIBUTED MEMDDI=        1000 MILLION WORDS IN AGGREGATE,
 MEMDDI DISTRIBUTED OVER   6 PROCESSORS IS   166666666 WORDS/PROCESSOR.
 TOTAL MEMORY REQUESTED ON EACH PROCESSOR=   196666666 WORDS.
 TIMLIM=      525600.00 MINUTES, OR     365.0 DAYS.
 PARALL= T  BALTYP=  DLB     KDIAG=    0  COREFL= F
 MXSEQ2=     300 MXSEQ3=     150  mem10=         0

          ----------------
          PROPERTIES INPUT
          ----------------

     MOMENTS            FIELD           POTENTIAL          DENSITY
 IEMOM =       1   IEFLD =       0   IEPOT =       0   IEDEN =       0
 WHERE =COMASS     WHERE =NUCLEI     WHERE =NUCLEI     WHERE =NUCLEI  
 OUTPUT=BOTH       OUTPUT=BOTH       OUTPUT=BOTH       OUTPUT=BOTH    
 IEMINT=       0   IEFINT=       0                     IEDINT=       0
                                                       MORB  =       0
          EXTRAPOLATION IN EFFECT
          DIIS IN EFFECT
 ORBITAL PRINTING OPTION: NPREO=     1    78     2     1

     -------------------------------
     INTEGRAL TRANSFORMATION OPTIONS
     -------------------------------
     NWORD  =            0
     CUTOFF = 1.0E-09     MPTRAN =       0
     DIRTRF =       T     AOINTS =DUP     

          ----------------------
          INTEGRAL INPUT OPTIONS
          ----------------------
 NOPK  =       1 NORDER=       0 SCHWRZ=       T

     ------------------------------------------
     THE POINT GROUP IS C1 , NAXIS= 0, ORDER= 1
     ------------------------------------------

     DIMENSIONS OF THE SYMMETRY SUBSPACES ARE
 A   =   78

 ..... DONE SETTING UP THE RUN .....
 CPU     0: STEP CPU TIME=     0.02 TOTAL CPU TIME=          0.0 (      0.0 MIN)
 TOTAL WALL CLOCK TIME=          0.1 SECONDS, CPU UTILIZATION IS    33.33%


          -----------------------------
          STATIONARY POINT LOCATION RUN
          -----------------------------

 OBTAINING INITIAL HESSIAN, HESS=GUESS   
 CARTESIAN COORDINATE OPTIMIZATION USING BADGER'S RULE FORCE CONSTANT GUESS

          PARAMETERS CONTROLLING GEOMETRY SEARCH ARE
          METHOD =QA                  UPHESS =BFGS    
          NNEG   =         0          NFRZ   =         0
          NSTEP  =       999          IFOLOW =         1
          HESS   =GUESS               RESTAR =         F
          IHREP  =         0          HSSEND =         F
          NPRT   =         0          NPUN   =         0
          OPTTOL = 1.000E-04          RMIN   = 1.500E-03
          RMAX   = 1.000E-01          RLIM   = 7.000E-02
          DXMAX  = 3.000E-01          PURIFY =         F
          MOVIE  =         F          TRUPD  =         T
          TRMAX  = 5.000E-01          TRMIN  = 5.000E-02
          ITBMAT =         5          STPT   =         F
          STSTEP = 1.000E-02          PROJCT=          T

 BEGINNING GEOMETRY SEARCH POINT NSERCH=   0 ...

 COORDINATES OF ALL ATOMS ARE (ANGS)
   ATOM   CHARGE       X              Y              Z
 ------------------------------------------------------------
 O           8.0  -1.5961566000   1.4096685000   0.5872674000
 H           1.0  -0.8796160000   0.7206956000   0.6083644000
 H           1.0  -1.8516754000   1.5747060000   1.5027762000
 O           8.0   3.3787308000   3.5189786000   0.4285105000
 H           1.0   3.7239417000   3.3317793000   1.3094631000
 H           1.0   2.6525768000   4.1727934000   0.5429865000
 O           8.0  -0.4932202000   3.3274915000  -0.9059626000
 H           1.0  -1.0749650000   3.5349653000  -1.6474445000
 H           1.0  -0.9810867000   2.6751008000  -0.3298688000
 O           8.0   1.8846249000   1.6124180000  -0.9735366000
 H           1.0   2.5439865000   2.1700424000  -0.5047849000
 H           1.0   1.1557349000   2.2217497000  -1.1901356000
 O           8.0   1.1127552000   5.0958865000   0.5234654000
 H           1.0   0.4603784000   4.5766663000   0.0033339000
 H           1.0   1.0953433000   5.9966134000   0.1791247000
 O           8.0   0.5568017000  -0.1887690000   0.4938550000
 H           1.0   0.5678173000  -1.0577894000   0.0757083000
 H           1.0   1.1571985000   0.4002628000  -0.0409022000

          ********************
          1 ELECTRON INTEGRALS
          ********************
 ...... END OF ONE-ELECTRON INTEGRALS ......
 CPU     0: STEP CPU TIME=     0.01 TOTAL CPU TIME=          0.0 (      0.0 MIN)
 TOTAL WALL CLOCK TIME=          0.1 SECONDS, CPU UTILIZATION IS    42.86%

          -------------
          GUESS OPTIONS
          -------------
          GUESS =HUCKEL            NORB  =       0          NORDER=       0
          MIX   =       F          PRTMO =       F          PUNMO =       F
          TOLZ  = 1.0E-08          TOLE  = 1.0E-05
          SYMDEN=       F          PURIFY=       F

 INITIAL GUESS ORBITALS GENERATED BY HUCKEL   ROUTINE.
 HUCKEL GUESS REQUIRES     64146 WORDS.

 SYMMETRIES FOR INITIAL GUESS ORBITALS FOLLOW.   BOTH SET(S).
    30 ORBITALS ARE OCCUPIED (    6 CORE ORBITALS).
     7=A        8=A        9=A       10=A       11=A       12=A       13=A   
    14=A       15=A       16=A       17=A       18=A       19=A       20=A   
    21=A       22=A       23=A       24=A       25=A       26=A       27=A   
    28=A       29=A       30=A       31=A       32=A       33=A       34=A   
    35=A       36=A       37=A       38=A       39=A       40=A   
 ...... END OF INITIAL ORBITAL SELECTION ......
 CPU     0: STEP CPU TIME=     0.02 TOTAL CPU TIME=          0.0 (      0.0 MIN)
 TOTAL WALL CLOCK TIME=          0.1 SECONDS, CPU UTILIZATION IS    62.50%

                    ----------------------
                    AO INTEGRAL TECHNOLOGY
                    ----------------------
     S,P,L SHELL ROTATED AXIS INTEGRALS, REPROGRAMMED BY
        KAZUYA ISHIMURA (IMS) AND JOSE SIERRA (SYNSTAR).
     S,P,D,L SHELL ROTATED AXIS INTEGRALS PROGRAMMED BY
        KAZUYA ISHIMURA (INSTITUTE FOR MOLECULAR SCIENCE).
     S,P,D,F,G SHELL TO TOTAL QUARTET ANGULAR MOMENTUM SUM 5,
        ERIC PROGRAM BY GRAHAM FLETCHER (ELORET AND NASA ADVANCED
        SUPERCOMPUTING DIVISION, AMES RESEARCH CENTER).
     S,P,D,F,G,L SHELL GENERAL RYS QUADRATURE PROGRAMMED BY
        MICHEL DUPUIS (PACIFIC NORTHWEST NATIONAL LABORATORY).

          --------------------
          2 ELECTRON INTEGRALS
          --------------------

 DIRECT SCF METHOD SKIPS INTEGRAL STORAGE ON DISK.
 DIRECT TRANSFORMATION SKIPS AO INTEGRAL STORAGE ON DISK.
  ...... END OF TWO-ELECTRON INTEGRALS .....
 CPU     0: STEP CPU TIME=     0.00 TOTAL CPU TIME=          0.0 (      0.0 MIN)
 TOTAL WALL CLOCK TIME=          0.1 SECONDS, CPU UTILIZATION IS    50.00%

          --------------------------
             R-B3LYP SCF CALCULATION
          --------------------------

     NUCLEAR ENERGY =       286.0376228181
     MAXIT =   60     NPUNCH=    2
     EXTRAP=T  DAMP=F  SHIFT=F  RSTRCT=F  DIIS=T  DEM=F  SOSCF=F
         DENSITY MATRIX CONVERGENCE THRESHOLD=  2.00E-05
     COARSE -> FINE DFT GRID SWITCH THRESHOLD=  3.00E-04 (SWITCH IN $DFT)
                   HF -> DFT SWITCH THRESHOLD=  5.00E-03 (SWOFF IN $DFT)
     MEMORY REQUIRED FOR RHF ITERS=    684424 WORDS.

 DIRECT SCF CALCULATION, SCHWRZ=T   FDIFF=T,  DIRTHR=  0.00E+00 NITDIR=10
 SCHWARZ INEQUALITY OVERHEAD:      2738 INTEGRALS, T=        0.00

 DFT CODE IS SWITCHING FROM THE FINE GRID NRAD= 96,  NLEB=  302
                      TO THE COARSE GRID NRAD0= 24, NLEB0=  110

     EXCHANGE FUNCTIONAL   =B88&HFX   
     CORRELATION FUNCTIONAL=LYP88&VWN5
     DFT THRESHOLD         =.766E-08
     GRID CHANGE THRESHOLD =.300E-03
 FOR AN EULER-MACLAURIN QUADRATURE USING  96 RADIAL POINTS:
 SMALLEST GAUSSIAN PRIMITIVE EXPONENT=        0.1831915800 OF TYPE -S-
 ON ATOM NUMBER   2 HAS RADIAL NORMALIZATION=  1.000000
  LARGEST GAUSSIAN PRIMITIVE EXPONENT=      322.0370000000 OF TYPE -S-
 ON ATOM NUMBER   1 HAS RADIAL NORMALIZATION=  1.000000
 DFT IS SWITCHED OFF, PERFORMING PURE SCF UNTIL SWOFF THRESHOLD IS REACHED.

                                                                                   NONZERO     BLOCKS
 ITER EX DEM     TOTAL ENERGY        E CHANGE  DENSITY CHANGE    DIIS ERROR      INTEGRALS    SKIPPED
   1  0  0     -452.3207148671  -452.3207148671   0.540617171   0.837755894        1953524     216230
          * * *   INITIATING DIIS PROCEDURE   * * *
   2  1  0     -453.6042190471    -1.2835041800   0.127144853   0.084088162        1945006     219125
   3  2  0     -453.6629483109    -0.0587292638   0.038369740   0.024020925        1885075     232077
   4  3  0     -453.6683949698    -0.0054466588   0.006211599   0.005125706        1826710     241047
   5  4  0     -453.6686365942    -0.0002416244   0.001119551   0.002229327        1716092     255588
 CONVERGED TO SWOFF, SO DFT CALCULATION IS NOW SWITCHED ON.
          * * *   INITIATING DIIS PROCEDURE   * * *
   6  5  0     -455.7781183356    -2.1094817414   0.059388423   0.075944701        1957631     214220
   7  6  0     -455.8112635100    -0.0331451745   0.012675205   0.017623489        1910224     228910
   8  7  0     -455.8110950592     0.0001684508   0.006765410   0.018960257        1814665     243456
   9  8  0     -455.8127046637    -0.0016096044   0.000311738   0.000263780        1742075     251401
  10  9  0     -455.8127049775    -0.0000003138   0.000149847   0.000201677        1459619     280217
 DFT CODE IS SWITCHING BACK TO THE FINE GRID
          * * *   INITIATING DIIS PROCEDURE   * * *
  11 10  0     -455.8131770816    -0.0004721041   0.001694771   0.000853766        1961130     212748
  12 11  0     -455.8131855702    -0.0000084886   0.000378959   0.000486008        1574600     269673
  13 12  0     -455.8131858876    -0.0000003174   0.000164705   0.000394439        1424034     283019
  14 13  0     -455.8131864313    -0.0000005436   0.000018172   0.000018976        1324196     291467
  15 14  0     -455.8131864324    -0.0000000012   0.000008787   0.000013384        1097401     311923
  16 15  0     -455.8131864334    -0.0000000010   0.000000888   0.000000860        1003005     321659

          -----------------
          DENSITY CONVERGED
          -----------------
     TIME TO FORM FOCK OPERATORS=       5.6 SECONDS (       0.4 SEC/ITER)
     FOCK TIME ON FIRST ITERATION=       0.0, LAST ITERATION=       0.9
     TIME TO SOLVE SCF EQUATIONS=       0.1 SECONDS (       0.0 SEC/ITER)

 FINAL R-B3LYP ENERGY IS     -455.8131864334 AFTER  16 ITERATIONS
 DFT EXCHANGE + CORRELATION ENERGY =       -45.1162712271
 TOTAL ELECTRON NUMBER             =        60.0000068719

          ------------
          EIGENVECTORS
          ------------

                      1          2          3          4          5
                  -19.0238   -19.0031   -19.0019   -18.9872   -18.9854
                     A          A          A          A          A   
    1  O  1  S    0.012818  -0.029843   0.981629  -0.018112  -0.001098
    2  O  1  S    0.002445  -0.003301   0.103991  -0.000816  -0.000042
    3  O  1  X    0.000244  -0.000075   0.001685   0.000357   0.000011
    4  O  1  Y    0.000772  -0.000072  -0.000841  -0.000485   0.000007
    5  O  1  Z   -0.000557   0.000001   0.002140  -0.000087  -0.000019
    6  O  1  S   -0.002722   0.001682  -0.045689  -0.002560  -0.000159
    7  O  1  X   -0.000927   0.000232  -0.004408  -0.001781  -0.000069
    8  O  1  Y   -0.002846   0.000300   0.002317   0.002192  -0.000020
    9  O  1  Z    0.002127  -0.000137  -0.003959   0.000205   0.000072
   10  H  2  S    0.000551  -0.000146   0.002462  -0.000134  -0.000025
   11  H  2  S   -0.001645  -0.000090   0.011047   0.006100   0.000210
   12  H  3  S    0.000159  -0.000098   0.002938   0.000338   0.000021
   13  H  3  S   -0.000796  -0.000107   0.005873  -0.001481  -0.000091
   14  O  4  S   -0.001310   0.013965   0.001320  -0.014836   0.981962
   15  O  4  S   -0.000337   0.002456   0.000226  -0.001667   0.103676
   16  O  4  X    0.000041  -0.000389  -0.000022   0.000053  -0.001469
   17  O  4  Y   -0.000000   0.000436   0.000001   0.000062   0.000928
   18  O  4  Z    0.000027   0.000028  -0.000010   0.000016   0.002547
   19  O  4  S    0.000643  -0.003660  -0.000305   0.000857  -0.044817
   20  O  4  X   -0.000221   0.001722   0.000110  -0.000169   0.003773
   21  O  4  Y    0.000018  -0.001819  -0.000012  -0.000228  -0.002382
   22  O  4  Z   -0.000112  -0.000091   0.000045  -0.000119  -0.004973
   23  H  5  S   -0.000091   0.000398   0.000036  -0.000037   0.002886
   24  H  5  S    0.000260  -0.001213  -0.000095  -0.000058   0.006232
   25  H  6  S    0.000144  -0.000340  -0.000029  -0.000117   0.002428
   26  H  6  S   -0.000845   0.005726   0.000321   0.000059   0.010458
   27  O  7  S    0.982192  -0.009831  -0.012843   0.001924   0.001411
   28  O  7  S    0.104036  -0.000284  -0.000170  -0.000086  -0.000063
   29  O  7  X   -0.002398   0.000536  -0.000267   0.000004  -0.000137
   30  O  7  Y   -0.000996   0.000720  -0.000378   0.000086  -0.000054
   31  O  7  Z   -0.000135   0.000407   0.000426  -0.000055  -0.000030
   32  O  7  S   -0.045520  -0.000793  -0.003117   0.000818   0.000320
   33  O  7  X    0.005123  -0.001929   0.001322  -0.000070   0.000503
   34  O  7  Y    0.002825  -0.002491   0.001850  -0.000428   0.000200
   35  O  7  Z   -0.000686  -0.001377  -0.001898   0.000272   0.000124
   36  H  8  S    0.002844  -0.000094   0.000399  -0.000115  -0.000032
   37  H  8  S    0.005859  -0.000703  -0.001526   0.000411   0.000190
   38  H  9  S    0.002464   0.000164  -0.000071   0.000249  -0.000100
   39  H  9  S    0.011075  -0.001718   0.006539  -0.001644   0.000378
   40  O 10  S    0.002675  -0.001768  -0.002324   0.018146   0.016325
   41  O 10  S    0.000795  -0.000396  -0.000528   0.002989   0.002591
   42  O 10  X   -0.000327  -0.000022   0.000065  -0.000377   0.000455
   43  O 10  Y    0.000213  -0.000031   0.000042  -0.000768   0.000264
   44  O 10  Z   -0.000151   0.000026   0.000023   0.000482   0.000257
   45  O 10  S   -0.001639   0.000874   0.000963  -0.002875  -0.003338
   46  O 10  X    0.001250   0.000103  -0.000372   0.001476  -0.001899
   47  O 10  Y   -0.000834   0.000190  -0.000162   0.002851  -0.001101
   48  O 10  Z    0.000586  -0.000049  -0.000029  -0.001725  -0.001081
   49  H 11  S    0.000273   0.000228  -0.000114   0.000360  -0.000374
   50  H 11  S   -0.001114  -0.000970   0.000463  -0.001337   0.005361
   51  H 12  S   -0.000477   0.000252   0.000236   0.000573   0.000431
   52  H 12  S    0.003415  -0.000718  -0.001222  -0.001206  -0.001550
   53  O 13  S    0.010402   0.981703   0.029645  -0.000871  -0.013777
   54  O 13  S    0.001954   0.103688   0.002989  -0.000036  -0.000533
   55  O 13  X   -0.000379  -0.001371   0.000013  -0.000018   0.000862
   56  O 13  Y   -0.000294   0.000666   0.000060  -0.000012  -0.000448
   57  O 13  Z   -0.000216  -0.002541  -0.000038  -0.000007   0.000170
   58  O 13  S   -0.003087  -0.044875  -0.000880  -0.000151  -0.000997
   59  O 13  X    0.001565   0.003115  -0.000148   0.000070  -0.002971
   60  O 13  Y    0.001268  -0.000571  -0.000203   0.000062   0.001578
   61  O 13  Z    0.000945   0.005484  -0.000003   0.000041  -0.000543
   62  H 14  S   -0.000302   0.002365   0.000193  -0.000079   0.000375
   63  H 14  S    0.004956   0.010327  -0.000668   0.000373  -0.001692
   64  H 15  S    0.000334   0.002850   0.000017   0.000029   0.000010
   65  H 15  S   -0.001088   0.006193   0.000404  -0.000097  -0.000859
   66  O 16  S   -0.001806   0.000589   0.018442   0.981884   0.014483
   67  O 16  S   -0.000456   0.000102   0.002994   0.103970   0.001431
   68  O 16  X    0.000037   0.000030  -0.000844   0.001048  -0.000019
   69  O 16  Y   -0.000069   0.000005   0.000435  -0.000310  -0.000041
   70  O 16  Z   -0.000012  -0.000012   0.000150  -0.002674  -0.000011
   71  O 16  S    0.000838  -0.000187  -0.002841  -0.045604  -0.000329
   72  O 16  X   -0.000159  -0.000115   0.003090  -0.002643   0.000119
   73  O 16  Y    0.000346  -0.000043  -0.001690  -0.000448   0.000153
   74  O 16  Z   -0.000002   0.000055  -0.000604   0.005920  -0.000036
   75  H 17  S   -0.000091   0.000028   0.000098   0.002891   0.000001
   76  H 17  S    0.000316  -0.000069  -0.000664   0.005946   0.000239
   77  H 18  S    0.000160  -0.000071   0.000620   0.002451   0.000140
   78  H 18  S   -0.000866   0.000411  -0.001663   0.011221  -0.000570

                      6          7          8          9         10
                  -18.9721    -1.0024    -0.9856    -0.9801    -0.9688
                     A          A          A          A          A   
    1  O  1  S    0.002525  -0.078822   0.093292  -0.156615   0.076224
    2  O  1  S   -0.000048   0.072937  -0.088117   0.149741  -0.071874
    3  O  1  X   -0.000037   0.015099  -0.016512   0.027387  -0.010799
    4  O  1  Y    0.000019  -0.006804   0.012748  -0.025142   0.009236
    5  O  1  Z    0.000055   0.026210  -0.035640   0.062877  -0.031143
    6  O  1  S    0.000859   0.240219  -0.283758   0.473921  -0.236383
    7  O  1  X    0.000287   0.018687  -0.018686   0.028720  -0.013248
    8  O  1  Y   -0.000093  -0.001879   0.011853  -0.028618   0.011965
    9  O  1  Z   -0.000226   0.019495  -0.031580   0.060437  -0.028927
   10  H  2  S    0.000229   0.035360  -0.045508   0.081386  -0.029320
   11  H  2  S   -0.001408   0.009080  -0.007954   0.012955   0.005881
   12  H  3  S   -0.000122   0.041279  -0.051589   0.088310  -0.043944
   13  H  3  S    0.000432   0.011230  -0.012319   0.019226  -0.011298
   14  O  4  S   -0.015857  -0.013626  -0.061539  -0.042361  -0.151907
   15  O  4  S   -0.000878   0.012985   0.059503   0.040550   0.143197
   16  O  4  X   -0.000254  -0.003002  -0.011785  -0.007374  -0.021807
   17  O  4  Y   -0.000661   0.002460   0.011325   0.006713   0.019941
   18  O  4  Z   -0.000534   0.005285   0.025470   0.017444   0.063593
   19  O  4  S   -0.000585   0.039735   0.180021   0.125874   0.464259
   20  O  4  X    0.000915  -0.003068  -0.010589  -0.007461  -0.026894
   21  O  4  Y    0.002209   0.001293   0.008956   0.005601   0.020479
   22  O  4  Z    0.001772   0.004402   0.023571   0.016010   0.058225
   23  H  5  S   -0.000004   0.007044   0.033461   0.023224   0.084893
   24  H  5  S   -0.000756   0.001523   0.006017   0.004748   0.021315
   25  H  6  S    0.000512   0.009902   0.040891   0.024378   0.069776
   26  H  6  S   -0.001749   0.005033   0.019709   0.009297   0.004694
   27  O  7  S   -0.002690  -0.200867   0.024071   0.103079  -0.019864
   28  O  7  S    0.000218   0.190633  -0.024544  -0.097717   0.018740
   29  O  7  X    0.000593  -0.080971   0.013498   0.042590  -0.007197
   30  O  7  Y   -0.000334  -0.025134   0.007412   0.010335  -0.002539
   31  O  7  Z   -0.000145  -0.020193   0.002937   0.015719  -0.004470
   32  O  7  S   -0.000534   0.610695  -0.070055  -0.321278   0.062847
   33  O  7  X   -0.001869  -0.077830   0.016449   0.045138  -0.007539
   34  O  7  Y    0.001065  -0.026588   0.011608   0.015164  -0.007186
   35  O  7  Z    0.000425  -0.013371   0.006130   0.011359  -0.004707
   36  H  8  S   -0.000005   0.111111  -0.014197  -0.060255   0.012038
   37  H  8  S   -0.000445   0.025208  -0.001325  -0.014683   0.002657
   38  H  9  S    0.000489   0.097205  -0.019742  -0.036009   0.002870
   39  H  9  S   -0.001255   0.014056  -0.006658   0.012399  -0.005400
   40  O 10  S    0.982039  -0.020181  -0.000045  -0.024879  -0.099829
   41  O 10  S    0.104136   0.020140   0.000609   0.022488   0.094036
   42  O 10  X   -0.000520  -0.003455   0.001430  -0.001253  -0.005546
   43  O 10  Y    0.002671   0.009289   0.001406   0.008002   0.042032
   44  O 10  Z    0.001202   0.002162   0.000140   0.004952   0.014592
   45  O 10  S   -0.046039   0.054563  -0.001946   0.077146   0.300281
   46  O 10  X    0.001063  -0.000975   0.000948  -0.004172  -0.009533
   47  O 10  Y   -0.005888   0.006742   0.001414   0.006477   0.037117
   48  O 10  Z   -0.002799   0.004524  -0.000496   0.005277   0.016258
   49  H 11  S    0.002522   0.009871   0.003528   0.013543   0.056138
   50  H 11  S    0.009314   0.000557   0.004652   0.006188   0.019731
   51  H 12  S    0.002715   0.016819  -0.000939   0.007683   0.050869
   52  H 12  S    0.008220   0.017094  -0.000042  -0.002167   0.011154
   53  O 13  S    0.002009  -0.061884  -0.192851  -0.069046   0.067278
   54  O 13  S   -0.000036   0.060039   0.182691   0.064562  -0.064782
   55  O 13  X   -0.000053  -0.016254  -0.043375  -0.014012   0.018483
   56  O 13  Y    0.000065   0.008516   0.035117   0.013640  -0.015133
   57  O 13  Z   -0.000020  -0.023554  -0.069178  -0.023993   0.024924
   58  O 13  S    0.000582   0.180212   0.587002   0.214230  -0.205993
   59  O 13  X    0.000214  -0.012750  -0.042786  -0.015118   0.023709
   60  O 13  Y   -0.000295   0.009095   0.028150   0.009385  -0.015226
   61  O 13  Z    0.000023  -0.021086  -0.068097  -0.024670   0.025312
   62  H 14  S    0.000254   0.040519   0.092974   0.028059  -0.033920
   63  H 14  S   -0.000745   0.021985   0.010043  -0.005751   0.002432
   64  H 15  S   -0.000089   0.033642   0.107700   0.038808  -0.039401
   65  H 15  S    0.000341   0.005530   0.025847   0.010747  -0.009020
   66  O 16  S   -0.018103  -0.021168   0.036719  -0.099842  -0.089917
   67  O 16  S   -0.000772   0.019631  -0.034060   0.093038   0.086105
   68  O 16  X    0.000416   0.002187  -0.004392   0.014462   0.019101
   69  O 16  Y    0.000379  -0.001338   0.003906  -0.011987  -0.012968
   70  O 16  Z   -0.000189  -0.007625   0.013249  -0.036925  -0.035738
   71  O 16  S   -0.002689   0.063555  -0.111747   0.304473   0.270914
   72  O 16  X   -0.001900   0.000722  -0.001776   0.009372   0.020931
   73  O 16  Y   -0.001737   0.000174   0.000949  -0.004475  -0.011349
   74  O 16  Z    0.001141  -0.007225   0.012514  -0.035397  -0.035330
   75  H 17  S    0.000376   0.010807  -0.019582   0.054052   0.050659
   76  H 17  S   -0.001526   0.002514  -0.005047   0.014389   0.011280
   77  H 18  S   -0.000079   0.010143  -0.015649   0.045876   0.049987
   78  H 18  S    0.006199   0.003989  -0.004559   0.009459   0.009785

                     11         12         13         14         15
                   -0.9644    -0.9463    -0.5244    -0.5106    -0.5049
                     A          A          A          A          A   
    1  O  1  S    0.079938  -0.025471  -0.000789  -0.002658   0.003313
    2  O  1  S   -0.074957   0.024112  -0.002235   0.000722  -0.002605
    3  O  1  X   -0.010273   0.002361   0.076549   0.093619  -0.188994
    4  O  1  Y    0.008351  -0.002144   0.001685  -0.063626   0.192093
    5  O  1  Z   -0.032834   0.011163  -0.114387  -0.101151   0.157046
    6  O  1  S   -0.250182   0.080701   0.006455   0.014545  -0.017125
    7  O  1  X   -0.013564   0.003215   0.071605   0.083310  -0.165258
    8  O  1  Y    0.011375  -0.005305   0.011070  -0.051935   0.172286
    9  O  1  Z   -0.029989   0.011593  -0.102305  -0.089484   0.130076
   10  H  2  S   -0.026001   0.005037   0.035551   0.074123  -0.178084
   11  H  2  S    0.010593  -0.007717   0.037972   0.065244  -0.150176
   12  H  3  S   -0.046528   0.015616  -0.086272  -0.090302   0.164035
   13  H  3  S   -0.012469   0.003726  -0.063601  -0.073403   0.138442
   14  O  4  S    0.139350   0.059890   0.000507  -0.001371  -0.000559
   15  O  4  S   -0.132280  -0.058251  -0.000293   0.001871   0.000592
   16  O  4  X    0.019280   0.006737  -0.006026   0.056157   0.024330
   17  O  4  Y   -0.020388  -0.011476   0.007649  -0.037421  -0.019750
   18  O  4  Z   -0.060239  -0.028919  -0.001275   0.040250   0.015170
   19  O  4  S   -0.425379  -0.183104  -0.002404   0.004398   0.002004
   20  O  4  X    0.022051   0.004972  -0.005364   0.050790   0.021658
   21  O  4  Y   -0.022886  -0.017635   0.006583  -0.029650  -0.016579
   22  O  4  Z   -0.056979  -0.031230  -0.000421   0.034102   0.012185
   23  H  5  S   -0.078980  -0.035780  -0.003793   0.045843   0.019231
   24  H  5  S   -0.019074  -0.007764  -0.003589   0.036959   0.015541
   25  H  6  S   -0.066668  -0.031405   0.006728  -0.044611  -0.021165
   26  H  6  S   -0.004064   0.003166   0.007064  -0.039493  -0.017992
   27  O  7  S   -0.008596   0.021723  -0.007349   0.006075  -0.004232
   28  O  7  S    0.007375  -0.021522   0.004150  -0.003804   0.003777
   29  O  7  X   -0.001774   0.011926   0.048882  -0.052929  -0.008750
   30  O  7  Y    0.000734   0.000979  -0.190481  -0.071231  -0.093790
   31  O  7  Z   -0.002223   0.003517   0.316189   0.004812   0.117795
   32  O  7  S    0.029131  -0.068381   0.035788  -0.025372   0.020658
   33  O  7  X   -0.000654   0.017843   0.041866  -0.054932  -0.014219
   34  O  7  Y    0.001042  -0.001202  -0.167009  -0.073218  -0.084012
   35  O  7  Z   -0.000218   0.002002   0.274327  -0.002834   0.101945
   36  H  8  S    0.005160  -0.013834  -0.214596   0.000709  -0.074794
   37  H  8  S    0.002037  -0.002715  -0.173076  -0.003161  -0.063514
   38  H  9  S   -0.003184  -0.009646   0.188972   0.045899   0.082651
   39  H  9  S   -0.005207   0.006391   0.163093   0.034309   0.062758
   40  O 10  S   -0.037747  -0.199514   0.005579  -0.002396  -0.001830
   41  O 10  S    0.033465   0.188530  -0.004929   0.001247   0.001920
   42  O 10  X   -0.006190  -0.012565  -0.034291  -0.009334   0.013856
   43  O 10  Y    0.011423   0.088463  -0.000686  -0.012734   0.020058
   44  O 10  Z    0.005187   0.023225  -0.010743   0.000837  -0.005959
   45  O 10  S    0.120754   0.613954  -0.025090   0.013520   0.009508
   46  O 10  X   -0.006206  -0.009497  -0.030667  -0.010152   0.012835
   47  O 10  Y    0.007102   0.089154  -0.000780  -0.011712   0.019508
   48  O 10  Z    0.009153   0.023156  -0.005793   0.000626  -0.008006
   49  H 11  S    0.009414   0.097198  -0.021199  -0.007924   0.011000
   50  H 11  S   -0.006547   0.008276  -0.014149  -0.010074   0.006681
   51  H 12  S    0.019006   0.106461   0.021993  -0.000496   0.004946
   52  H 12  S    0.006936   0.015529   0.027878  -0.008594  -0.007691
   53  O 13  S   -0.038651  -0.010904   0.000013   0.004345   0.002882
   54  O 13  S    0.037956   0.011136  -0.000395  -0.002349  -0.001697
   55  O 13  X   -0.011953  -0.003508  -0.034526   0.126572   0.048156
   56  O 13  Y    0.009018   0.002934  -0.084893   0.328811   0.130067
   57  O 13  Z   -0.014814  -0.004218  -0.007979   0.033549   0.012808
   58  O 13  S    0.116748   0.032427   0.000624  -0.021288  -0.014587
   59  O 13  X   -0.016215  -0.006296  -0.029178   0.105996   0.040651
   60  O 13  Y    0.010842   0.004726  -0.073737   0.280607   0.111390
   61  O 13  Z   -0.014866  -0.004444  -0.005206   0.031130   0.013055
   62  H 14  S    0.021123   0.004587   0.051659  -0.188792  -0.072196
   63  H 14  S    0.001251   0.000529   0.046301  -0.162535  -0.057649
   64  H 15  S    0.023114   0.006975  -0.052363   0.205515   0.081531
   65  H 15  S    0.004133   0.000197  -0.045384   0.168898   0.065630
   66  O 16  S   -0.154027   0.093112   0.000540  -0.000368   0.003139
   67  O 16  S    0.146660  -0.087492  -0.001025  -0.000722   0.000527
   68  O 16  X    0.029857  -0.014315  -0.002900  -0.002215   0.006778
   69  O 16  Y   -0.024222   0.019631   0.034393   0.071691  -0.170229
   70  O 16  Z   -0.059744   0.033886   0.002113   0.005327  -0.015059
   71  O 16  S    0.468319  -0.291820  -0.001996   0.002090  -0.018200
   72  O 16  X    0.032330  -0.018238  -0.004494  -0.006463   0.015750
   73  O 16  Y   -0.019687   0.014403   0.030844   0.063104  -0.152117
   74  O 16  Z   -0.059187   0.034922   0.000357   0.003800  -0.011498
   75  H 17  S    0.087583  -0.055146  -0.021572  -0.045339   0.107982
   76  H 17  S    0.020485  -0.015033  -0.017150  -0.035532   0.082513
   77  H 18  S    0.075071  -0.027971   0.010467   0.025611  -0.059681
   78  H 18  S    0.008996   0.014665   0.014365   0.029060  -0.054598

                     16         17         18         19         20
                   -0.4922    -0.4883    -0.4704    -0.3874    -0.3558
                     A          A          A          A          A   
    1  O  1  S    0.003331   0.007561  -0.000785   0.040152  -0.055047
    2  O  1  S   -0.002348  -0.006219  -0.000087  -0.031544   0.045208
    3  O  1  X   -0.038108  -0.095809  -0.001978   0.020931  -0.039384
    4  O  1  Y    0.029372   0.093632   0.016344  -0.118577   0.059181
    5  O  1  Z    0.044101   0.096110  -0.008206   0.167620  -0.192564
    6  O  1  S   -0.015705  -0.034823   0.005064  -0.187512   0.264010
    7  O  1  X   -0.032645  -0.081099  -0.000635   0.023407  -0.044001
    8  O  1  Y    0.025123   0.085505   0.017069  -0.123057   0.051587
    9  O  1  Z    0.039484   0.082393  -0.008746   0.176893  -0.196996
   10  H  2  S   -0.029852  -0.082699  -0.005846   0.054806  -0.048501
   11  H  2  S   -0.024496  -0.066099  -0.010506   0.078445  -0.106658
   12  H  3  S    0.038463   0.090985  -0.002583   0.068949  -0.086398
   13  H  3  S    0.032012   0.077879   0.001247   0.057991  -0.081740
   14  O  4  S    0.005181  -0.001693  -0.002053  -0.017540  -0.035514
   15  O  4  S   -0.002744   0.001588   0.000011   0.012009   0.026893
   16  O  4  X    0.247891  -0.098301   0.024615  -0.014517  -0.011766
   17  O  4  Y   -0.179740   0.086640  -0.079136  -0.024974  -0.002969
   18  O  4  Z    0.191146  -0.065704  -0.019982  -0.067976  -0.117335
   19  O  4  S   -0.026052   0.007978   0.009722   0.090223   0.181892
   20  O  4  X    0.213185  -0.083054   0.017865  -0.019671  -0.014908
   21  O  4  Y   -0.151114   0.076991  -0.078168  -0.023255   0.008243
   22  O  4  Z    0.162886  -0.052609  -0.023444  -0.070838  -0.117485
   23  H  5  S    0.209805  -0.080242   0.008294  -0.035077  -0.063033
   24  H  5  S    0.174432  -0.067831   0.014252  -0.026636  -0.055270
   25  H  6  S   -0.191446   0.083425  -0.046641  -0.014497  -0.016565
   26  H  6  S   -0.165703   0.069345  -0.040119  -0.046593  -0.090279
   27  O  7  S   -0.002690  -0.000797   0.001902  -0.068772  -0.005952
   28  O  7  S    0.001501   0.001158  -0.000440   0.056116   0.007828
   29  O  7  X    0.024605  -0.004270  -0.056451   0.268850   0.083824
   30  O  7  Y    0.021776  -0.017788  -0.002201   0.088316   0.111185
   31  O  7  Z    0.001150   0.015084   0.045403   0.096905  -0.004843
   32  O  7  S    0.011317   0.002807  -0.008355   0.323534   0.002572
   33  O  7  X    0.026362  -0.005723  -0.061906   0.274033   0.097442
   34  O  7  Y    0.023370  -0.016037   0.004904   0.091955   0.132394
   35  O  7  Z    0.003043   0.012705   0.044515   0.099236  -0.012302
   36  H  8  S   -0.004606  -0.009046  -0.004810  -0.114713  -0.007498
   37  H  8  S   -0.001485  -0.010029  -0.009353  -0.099092  -0.001673
   38  H  9  S   -0.016189   0.010868   0.034852  -0.075549  -0.034188
   39  H  9  S   -0.008344   0.012222   0.025552  -0.124924   0.043720
   40  O 10  S   -0.003630   0.003088  -0.003259   0.025383  -0.002037
   41  O 10  S    0.002472  -0.005441   0.002281  -0.017393   0.002862
   42  O 10  X   -0.067824  -0.053704   0.346660   0.032663  -0.031909
   43  O 10  Y   -0.029718  -0.065118  -0.028334   0.078306  -0.065328
   44  O 10  Z   -0.019675   0.012457   0.178676   0.016239   0.011413
   45  O 10  S    0.016333  -0.010776   0.015203  -0.134924  -0.003233
   46  O 10  X   -0.060303  -0.052855   0.300172   0.037494  -0.038779
   47  O 10  Y   -0.032304  -0.063969  -0.023409   0.073402  -0.075516
   48  O 10  Z   -0.014503   0.018222   0.156665   0.022835   0.009435
   49  H 11  S   -0.050470  -0.041386   0.205040   0.043383  -0.020774
   50  H 11  S   -0.040709  -0.025049   0.181688   0.050474   0.022704
   51  H 12  S    0.029177  -0.002721  -0.217707   0.016303  -0.006747
   52  H 12  S    0.019967   0.006016  -0.192081   0.075245  -0.004750
   53  O 13  S    0.002283  -0.000867  -0.000431   0.040230   0.056168
   54  O 13  S   -0.000080  -0.000124   0.000683  -0.029927  -0.047111
   55  O 13  X   -0.097027   0.042509  -0.027713  -0.035547  -0.157871
   56  O 13  Y   -0.039734   0.018234  -0.014793   0.123666   0.110594
   57  O 13  Z   -0.028736   0.012746  -0.007036  -0.070173  -0.158606
   58  O 13  S   -0.009887   0.003837   0.002855  -0.205506  -0.257981
   59  O 13  X   -0.096695   0.042749  -0.028809  -0.025857  -0.165426
   60  O 13  Y   -0.027179   0.012452  -0.011578   0.125304   0.112633
   61  O 13  Z   -0.025117   0.011535  -0.006379  -0.068216  -0.170917
   62  H 14  S    0.066251  -0.028489   0.017211   0.011597   0.067971
   63  H 14  S    0.048653  -0.021227   0.010607   0.097007   0.082235
   64  H 15  S   -0.023133   0.010593  -0.008609   0.083119   0.082796
   65  H 15  S   -0.025094   0.011598  -0.009271   0.067227   0.078814
   66  O 16  S   -0.001382  -0.006419  -0.003980  -0.021544   0.041938
   67  O 16  S    0.001012   0.004866   0.003814   0.015876  -0.034722
   68  O 16  X    0.055350   0.149614   0.030379  -0.067328   0.146710
   69  O 16  Y    0.111652   0.299682   0.060913   0.054640  -0.073472
   70  O 16  Z   -0.012412  -0.030942  -0.000002   0.060428  -0.138848
   71  O 16  S    0.006954   0.032111   0.016164   0.105233  -0.189869
   72  O 16  X    0.049570   0.136720   0.028901  -0.067366   0.156203
   73  O 16  Y    0.095549   0.257718   0.050774   0.057980  -0.074720
   74  O 16  Z   -0.012442  -0.030968   0.003500   0.062687  -0.150339
   75  H 17  S   -0.067093  -0.179758  -0.036746  -0.041272   0.064453
   76  H 17  S   -0.057012  -0.153531  -0.034412  -0.031674   0.058121
   77  H 18  S    0.071478   0.188099   0.033420  -0.024226   0.061112
   78  H 18  S    0.062871   0.158116   0.033274  -0.054614   0.065177

                     21         22         23         24         25
                   -0.3452    -0.3308    -0.3153    -0.2927    -0.2834
                     A          A          A          A          A   
    1  O  1  S    0.000690   0.046593  -0.029771  -0.017717   0.003614
    2  O  1  S    0.001586  -0.041082   0.029451   0.018447  -0.004503
    3  O  1  X   -0.023979   0.082409  -0.088095  -0.081962   0.033954
    4  O  1  Y    0.102475  -0.075976   0.142745   0.053967  -0.052602
    5  O  1  Z   -0.024744   0.167182  -0.138856  -0.085327   0.024986
    6  O  1  S   -0.023094  -0.209562   0.111317   0.063976  -0.004053
    7  O  1  X   -0.030270   0.094308  -0.108046  -0.101865   0.037796
    8  O  1  Y    0.122631  -0.078134   0.164983   0.062792  -0.063140
    9  O  1  Z   -0.031074   0.176214  -0.146520  -0.087561   0.034875
   10  H  2  S   -0.027625   0.057657  -0.053486  -0.025584   0.019679
   11  H  2  S    0.039737   0.052931   0.013540   0.014688  -0.031037
   12  H  3  S    0.005626   0.060454  -0.038731  -0.024160  -0.003308
   13  H  3  S    0.005776   0.065528  -0.036643  -0.021701   0.002586
   14  O  4  S   -0.048684  -0.011220   0.051985  -0.044258   0.012690
   15  O  4  S    0.039162   0.007738  -0.046743   0.041938  -0.011176
   16  O  4  X    0.020144  -0.008629  -0.076954   0.123948  -0.046839
   17  O  4  Y   -0.105814   0.097655   0.153190  -0.054481  -0.048308
   18  O  4  Z   -0.184770  -0.010897   0.217252  -0.185103   0.041943
   19  O  4  S    0.228480   0.072562  -0.221867   0.186223  -0.062225
   20  O  4  X    0.018065  -0.007640  -0.091596   0.153265  -0.057631
   21  O  4  Y   -0.111905   0.120898   0.171140  -0.056524  -0.059482
   22  O  4  Z   -0.196927  -0.002676   0.232130  -0.195878   0.042184
   23  H  5  S   -0.071589  -0.023400   0.067372  -0.054566   0.017091
   24  H  5  S   -0.066160  -0.023776   0.066697  -0.059290   0.018847
   25  H  6  S   -0.062356   0.022882   0.078758  -0.054599   0.004639
   26  H  6  S   -0.081475  -0.058852   0.035819  -0.020149   0.024658
   27  O  7  S    0.044552   0.025088  -0.000049  -0.018234   0.009137
   28  O  7  S   -0.039453  -0.025251   0.002512   0.018581  -0.008807
   29  O  7  X   -0.146402  -0.225418   0.022678   0.013303  -0.214037
   30  O  7  Y   -0.083768   0.008322   0.131756   0.207108   0.300491
   31  O  7  Z   -0.064749   0.091328   0.028390   0.107833   0.224538
   32  O  7  S   -0.205343  -0.091941  -0.020064   0.072600  -0.039422
   33  O  7  X   -0.147938  -0.255513   0.027510   0.005240  -0.244876
   34  O  7  Y   -0.093058   0.013469   0.158954   0.240592   0.346951
   35  O  7  Z   -0.065101   0.114158   0.028114   0.116867   0.261576
   36  H  8  S    0.061389   0.027564  -0.001320  -0.022834   0.009250
   37  H  8  S    0.067042   0.028009   0.004636  -0.028947   0.009237
   38  H  9  S    0.045314   0.052356  -0.012865  -0.024865   0.006732
   39  H  9  S    0.058075  -0.013344   0.045063   0.011141   0.008340
   40  O 10  S    0.042278  -0.053889  -0.014142  -0.040047   0.030809
   41  O 10  S   -0.034490   0.044093   0.009135   0.037593  -0.033001
   42  O 10  X   -0.053816  -0.020379   0.062788  -0.018468  -0.061502
   43  O 10  Y    0.204456  -0.201271   0.031546  -0.185326   0.213608
   44  O 10  Z   -0.041797  -0.048649  -0.025505  -0.091028   0.001053
   45  O 10  S   -0.194297   0.256113   0.089489   0.167257  -0.103024
   46  O 10  X   -0.068446  -0.028119   0.079803  -0.026129  -0.079492
   47  O 10  Y    0.216349  -0.205888   0.049014  -0.200397   0.244113
   48  O 10  Z   -0.049820  -0.063110  -0.024253  -0.113785  -0.000065
   49  H 11  S    0.036408  -0.077470   0.004845  -0.067012   0.031615
   50  H 11  S    0.088173  -0.063875  -0.071403  -0.000397   0.031427
   51  H 12  S    0.088320  -0.057511  -0.015405  -0.038425   0.063182
   52  H 12  S    0.041655  -0.112633  -0.023410  -0.068474  -0.038825
   53  O 13  S    0.015495   0.039027   0.034767  -0.030984  -0.000762
   54  O 13  S   -0.015038  -0.035652  -0.030179   0.030615   0.003582
   55  O 13  X   -0.141313  -0.164946  -0.015986   0.068596   0.062762
   56  O 13  Y    0.013811   0.051534   0.044791  -0.004979   0.012205
   57  O 13  Z   -0.074886  -0.143389  -0.124704   0.198095   0.041756
   58  O 13  S   -0.052152  -0.163298  -0.164822   0.120641  -0.017451
   59  O 13  X   -0.163232  -0.181518  -0.007409   0.074845   0.074771
   60  O 13  Y    0.014732   0.052453   0.042842   0.004443   0.017618
   61  O 13  Z   -0.087031  -0.157729  -0.135384   0.228086   0.054532
   62  H 14  S    0.043595   0.066261   0.032597  -0.044419  -0.014119
   63  H 14  S   -0.012412   0.021914   0.053105   0.011731   0.047752
   64  H 15  S    0.014653   0.045467   0.044377  -0.033024   0.002476
   65  H 15  S    0.013599   0.049261   0.050528  -0.037059   0.001035
   66  O 16  S   -0.048365   0.005695  -0.051704  -0.026315   0.013470
   67  O 16  S    0.038802  -0.002679   0.045927   0.025787  -0.015314
   68  O 16  X   -0.078966  -0.090173  -0.099336  -0.101827   0.095638
   69  O 16  Y    0.091829  -0.024600   0.059403   0.009627   0.006185
   70  O 16  Z    0.132994   0.016168   0.194648   0.141102  -0.097994
   71  O 16  S    0.234696  -0.046442   0.231215   0.101612  -0.038963
   72  O 16  X   -0.073633  -0.111381  -0.102820  -0.115797   0.109305
   73  O 16  Y    0.097153  -0.028140   0.052845  -0.000201   0.016892
   74  O 16  Z    0.137457   0.024302   0.213748   0.159337  -0.113676
   75  H 17  S   -0.075213   0.012561  -0.069750  -0.033066   0.015093
   76  H 17  S   -0.070357   0.014226  -0.073937  -0.032622   0.016258
   77  H 18  S   -0.044322  -0.020975  -0.060750  -0.042177   0.031719
   78  H 18  S   -0.100202   0.047953  -0.054386   0.008942  -0.032123

                     26         27         28         29         30
                   -0.2685    -0.2656    -0.2549    -0.2492    -0.2379
                     A          A          A          A          A   
    1  O  1  S    0.014513   0.002925  -0.000670   0.000736   0.001030
    2  O  1  S   -0.014087  -0.003121  -0.003321  -0.000473   0.000653
    3  O  1  X    0.342873   0.103002   0.145754  -0.023052  -0.011164
    4  O  1  Y    0.332977   0.087829  -0.030682   0.011346  -0.003995
    5  O  1  Z    0.068056   0.019817   0.046115  -0.004810  -0.003854
    6  O  1  S   -0.058925  -0.008672   0.035344  -0.007251  -0.012103
    7  O  1  X    0.406574   0.122598   0.175504  -0.025857  -0.017968
    8  O  1  Y    0.384837   0.100154  -0.037844   0.013209  -0.005160
    9  O  1  Z    0.083527   0.025261   0.061472  -0.009886   0.000344
   10  H  2  S    0.009164   0.003001   0.015582  -0.001164  -0.002321
   11  H  2  S   -0.006901  -0.010107  -0.076161   0.010425   0.015966
   12  H  3  S    0.010610   0.001380  -0.010819   0.004712  -0.001172
   13  H  3  S    0.011279   0.000818  -0.007207   0.002681  -0.001219
   14  O  4  S   -0.002460   0.007367  -0.005139  -0.007146  -0.002068
   15  O  4  S    0.003246  -0.009583   0.005363   0.007450   0.001965
   16  O  4  X    0.015106  -0.066914   0.112260   0.311518   0.113604
   17  O  4  Y   -0.046002   0.103463   0.102032   0.315396   0.111271
   18  O  4  Z   -0.022451   0.065312  -0.033691  -0.069916  -0.029012
   19  O  4  S    0.002277  -0.009128   0.018974   0.022006   0.003169
   20  O  4  X    0.017976  -0.078953   0.133745   0.367749   0.130829
   21  O  4  Y   -0.053868   0.118774   0.119987   0.365460   0.124031
   22  O  4  Z   -0.027018   0.080355  -0.040807  -0.089504  -0.034747
   23  H  5  S   -0.000176  -0.001984  -0.002740  -0.001115  -0.003451
   24  H  5  S   -0.000887   0.004164  -0.005350  -0.002794   0.002853
   25  H  6  S   -0.010088   0.026713  -0.004899  -0.008381  -0.006515
   26  H  6  S    0.016973  -0.045012   0.005073   0.021296   0.017053
   27  O  7  S    0.004736  -0.001884  -0.001517  -0.000286   0.003839
   28  O  7  S   -0.001319   0.002961   0.000283   0.000180  -0.003736
   29  O  7  X    0.067450   0.042127  -0.000042   0.000810  -0.021480
   30  O  7  Y    0.094331   0.015158  -0.012696   0.000368   0.024239
   31  O  7  Z   -0.038979  -0.023102  -0.003040   0.000971   0.010366
   32  O  7  S   -0.048924   0.000060   0.013454   0.001643  -0.022183
   33  O  7  X    0.087794   0.044537   0.000590   0.001187  -0.013355
   34  O  7  Y    0.112102   0.014455  -0.016618   0.003985   0.023425
   35  O  7  Z   -0.042400  -0.026572  -0.000555   0.001498   0.014162
   36  H  8  S    0.014277   0.000634  -0.000147  -0.001058   0.008342
   37  H  8  S    0.011775  -0.004143  -0.001042   0.000076   0.007982
   38  H  9  S   -0.009521  -0.009957   0.003917   0.001498  -0.005022
   39  H  9  S    0.071639   0.018324  -0.018409  -0.000541   0.022172
   40  O 10  S    0.000313   0.004582  -0.004643   0.006156   0.014421
   41  O 10  S    0.001443  -0.005957   0.004943  -0.008869  -0.016044
   42  O 10  X   -0.012528   0.018200   0.056808   0.104798  -0.202060
   43  O 10  Y   -0.030762   0.044222   0.036123   0.140311  -0.011604
   44  O 10  Z    0.019549   0.022042  -0.092489  -0.055295   0.437641
   45  O 10  S   -0.012237  -0.008013   0.024932  -0.001707  -0.040412
   46  O 10  X   -0.013872   0.023980   0.077690   0.124454  -0.235069
   47  O 10  Y   -0.035332   0.053646   0.047419   0.156556  -0.002738
   48  O 10  Z    0.021256   0.028028  -0.109655  -0.063829   0.514640
   49  H 11  S   -0.002999   0.014718  -0.005354   0.030209   0.013021
   50  H 11  S    0.010123  -0.025663  -0.020709  -0.055653  -0.021863
   51  H 12  S   -0.006715   0.004858   0.006239   0.005393   0.015597
   52  H 12  S    0.013398   0.002953  -0.010223   0.011356  -0.022897
   53  O 13  S    0.000944  -0.007135  -0.001268  -0.002482  -0.000214
   54  O 13  S    0.000027   0.007279   0.001152   0.002716   0.001101
   55  O 13  X    0.112937  -0.323966   0.020611   0.024696   0.009048
   56  O 13  Y   -0.023224   0.109534  -0.011813  -0.016029  -0.003176
   57  O 13  Z   -0.067521   0.345498  -0.020064  -0.015110  -0.001165
   58  O 13  S   -0.010717   0.023101   0.007666   0.012762  -0.002088
   59  O 13  X    0.132361  -0.374736   0.022409   0.023876   0.008399
   60  O 13  Y   -0.026371   0.126898  -0.010203  -0.009100   0.001846
   61  O 13  Z   -0.080063   0.410692  -0.025050  -0.020711  -0.001414
   62  H 14  S   -0.005008  -0.006765   0.001632   0.003933   0.000022
   63  H 14  S    0.015776   0.015686  -0.007464  -0.013010   0.005023
   64  H 15  S    0.001003  -0.003051  -0.003968  -0.009050  -0.002337
   65  H 15  S    0.001173  -0.001101  -0.003147  -0.005101  -0.002958
   66  O 16  S    0.008093   0.002481  -0.011304   0.005511   0.001690
   67  O 16  S   -0.007699  -0.002758   0.010274  -0.007778   0.001686
   68  O 16  X   -0.062372   0.014677   0.361493  -0.077400  -0.023932
   69  O 16  Y   -0.001023  -0.000882  -0.101558   0.069083  -0.064143
   70  O 16  Z   -0.055961  -0.017771   0.270372  -0.180225   0.124322
   71  O 16  S   -0.040304  -0.008427   0.050638  -0.001963  -0.036301
   72  O 16  X   -0.079155   0.015417   0.418840  -0.086757  -0.030573
   73  O 16  Y    0.012190   0.003042  -0.118253   0.082292  -0.070035
   74  O 16  Z   -0.061246  -0.019181   0.323778  -0.216577   0.153684
   75  H 17  S    0.017425   0.005241  -0.007307   0.000820   0.012584
   76  H 17  S    0.013886   0.002452  -0.009743  -0.000448   0.010007
   77  H 18  S   -0.005438   0.002007  -0.003561   0.016008  -0.012663
   78  H 18  S    0.024495  -0.000153  -0.002209  -0.049717   0.067927

                     31         32         33         34         35
                    0.0806     0.1142     0.1266     0.1422     0.1474
                     A          A          A          A          A   
    1  O  1  S    0.052953  -0.067747  -0.023657   0.041708  -0.046637
    2  O  1  S   -0.038361   0.043172   0.011280  -0.022340   0.025289
    3  O  1  X   -0.032932   0.018889   0.017230   0.030194  -0.057143
    4  O  1  Y   -0.036134  -0.004073  -0.050481  -0.011903   0.048903
    5  O  1  Z   -0.048964   0.130787   0.072802  -0.126645   0.147310
    6  O  1  S   -0.400357   0.563162   0.221758  -0.373737   0.416230
    7  O  1  X   -0.038428   0.014493   0.021563   0.055770  -0.101422
    8  O  1  Y   -0.045804   0.000203  -0.058473  -0.035630   0.088683
    9  O  1  Z   -0.116985   0.255116   0.119605  -0.235715   0.284715
   10  H  2  S    0.023775  -0.043956  -0.028721   0.021502  -0.008460
   11  H  2  S    0.159128  -0.221400  -0.144514   0.031369   0.048426
   12  H  3  S    0.041885  -0.063059  -0.021587   0.051709  -0.065893
   13  H  3  S    0.375236  -0.645137  -0.247019   0.573725  -0.711494
   14  O  4  S    0.035208   0.046928  -0.057470  -0.054166  -0.045317
   15  O  4  S   -0.024128  -0.029092   0.036041   0.033588   0.025670
   16  O  4  X    0.037675   0.026103  -0.000848   0.037345   0.032529
   17  O  4  Y   -0.003372  -0.025473  -0.012383  -0.054719  -0.014989
   18  O  4  Z   -0.041889  -0.090083   0.111990   0.118086   0.121382
   19  O  4  S   -0.273909  -0.394099   0.478459   0.453656   0.399470
   20  O  4  X    0.047198   0.028928   0.014220   0.076628   0.065404
   21  O  4  Y   -0.007137  -0.033996  -0.024711  -0.088910  -0.032838
   22  O  4  Z   -0.085211  -0.168576   0.217380   0.235976   0.230859
   23  H  5  S    0.026019   0.038654  -0.052590  -0.059510  -0.051390
   24  H  5  S    0.223039   0.393301  -0.560306  -0.645728  -0.575304
   25  H  6  S    0.020482   0.037360  -0.033548  -0.014125  -0.022530
   26  H  6  S    0.169317   0.228762  -0.170967  -0.039604  -0.074885
   27  O  7  S    0.090773  -0.009803   0.058993  -0.023498   0.004267
   28  O  7  S   -0.065175   0.003355  -0.033629   0.011881  -0.003143
   29  O  7  X    0.080590  -0.054730   0.120029  -0.033035  -0.013637
   30  O  7  Y   -0.007397  -0.061494  -0.036910  -0.003611  -0.031888
   31  O  7  Z    0.067731  -0.006684   0.129074  -0.099098   0.033916
   32  O  7  S   -0.695348   0.105620  -0.521207   0.214332  -0.031229
   33  O  7  X    0.172128  -0.077972   0.217524  -0.070536  -0.007910
   34  O  7  Y   -0.017588  -0.074955  -0.070120   0.021616  -0.043779
   35  O  7  Z    0.150512  -0.009178   0.251765  -0.168466   0.061481
   36  H  8  S    0.075594  -0.007474   0.075285  -0.039558   0.011316
   37  H  8  S    0.715144  -0.090429   0.800356  -0.394204   0.110213
   38  H  9  S    0.047130  -0.019084   0.028744   0.005391  -0.014842
   39  H  9  S    0.252280  -0.134000   0.047281   0.048226  -0.081476
   40  O 10  S    0.035958  -0.003487  -0.022109  -0.035606   0.008647
   41  O 10  S   -0.025014   0.005144   0.019397   0.025989  -0.010070
   42  O 10  X    0.046224  -0.036721   0.027567  -0.005000   0.039677
   43  O 10  Y   -0.056627  -0.038382  -0.009669   0.053441   0.038546
   44  O 10  Z   -0.026624   0.003289   0.051620   0.029989  -0.007816
   45  O 10  S   -0.280644   0.006484   0.150864   0.279904  -0.044578
   46  O 10  X    0.070161  -0.051063   0.048697  -0.009387   0.055520
   47  O 10  Y   -0.095669  -0.045596   0.000623   0.096449   0.035097
   48  O 10  Z   -0.031972   0.001402   0.077553   0.045444  -0.004448
   49  H 11  S    0.018468   0.001687  -0.023756  -0.031960  -0.003397
   50  H 11  S    0.143450   0.065338  -0.177992  -0.215451  -0.041688
   51  H 12  S    0.021481  -0.002917   0.004229  -0.027437   0.005292
   52  H 12  S    0.262116  -0.023620   0.003815  -0.198247   0.060828
   53  O 13  S    0.060959   0.069450  -0.017026   0.053565   0.019099
   54  O 13  S   -0.039611  -0.044831   0.013574  -0.026484  -0.007613
   55  O 13  X    0.035484  -0.006570   0.051831   0.040196   0.033450
   56  O 13  Y   -0.029848  -0.109750   0.038409  -0.166044  -0.068065
   57  O 13  Z    0.089060   0.078968   0.000229   0.074191   0.035391
   58  O 13  S   -0.493215  -0.571162   0.122545  -0.496677  -0.189591
   59  O 13  X    0.065253   0.001240   0.066104   0.046708   0.038197
   60  O 13  Y   -0.082635  -0.225749   0.080359  -0.305221  -0.124122
   61  O 13  Z    0.152065   0.145699  -0.008975   0.136915   0.059676
   62  H 14  S    0.041171   0.035590   0.009116   0.031582   0.015685
   63  H 14  S    0.306106   0.156879   0.057350   0.071744   0.038241
   64  H 15  S    0.047459   0.066382  -0.020516   0.066816   0.025803
   65  H 15  S    0.434008   0.700869  -0.200183   0.771574   0.305587
   66  O 16  S    0.032782  -0.050291  -0.060986  -0.016840   0.064901
   67  O 16  S   -0.023414   0.035029   0.038898   0.007440  -0.035105
   68  O 16  X    0.012778  -0.030091   0.004510   0.038317  -0.036403
   69  O 16  Y    0.003375  -0.050690  -0.084100  -0.027998   0.153447
   70  O 16  Z    0.040098  -0.053290  -0.082488  -0.040182   0.105519
   71  O 16  S   -0.246931   0.393043   0.505001   0.160145  -0.579405
   72  O 16  X    0.010491  -0.031454   0.014991   0.048046  -0.041091
   73  O 16  Y    0.024706  -0.117744  -0.177948  -0.049610   0.294332
   74  O 16  Z    0.070854  -0.103723  -0.153550  -0.065329   0.189226
   75  H 17  S    0.024985  -0.045857  -0.058412  -0.015167   0.073139
   76  H 17  S    0.208766  -0.440711  -0.605565  -0.183808   0.831766
   77  H 18  S    0.013687  -0.019929  -0.033654  -0.017543   0.040139
   78  H 18  S    0.120632  -0.107324  -0.164559  -0.099169   0.115066

                     36         37         38         39         40
                    0.2102     0.2709     0.2858     0.3054     0.3173
                     A          A          A          A          A   
    1  O  1  S   -0.001055   0.011456   0.043832  -0.027259   0.017340
    2  O  1  S    0.001445  -0.016440  -0.048378   0.024951  -0.014592
    3  O  1  X    0.021559  -0.040557  -0.167686   0.109148  -0.059992
    4  O  1  Y    0.006183  -0.046691   0.042652  -0.104960   0.060865
    5  O  1  Z   -0.029265   0.079791   0.154529  -0.048164   0.024524
    6  O  1  S   -0.002247  -0.036043  -0.274412   0.215666  -0.145574
    7  O  1  X    0.035370  -0.079056  -0.318713   0.215238  -0.121877
    8  O  1  Y    0.011389  -0.061510   0.121512  -0.198337   0.115163
    9  O  1  Z   -0.058537   0.145505   0.284249  -0.101778   0.050759
   10  H  2  S    0.010640   0.005572   0.087783  -0.098156   0.052674
   11  H  2  S   -0.048941   0.061731   0.739242  -0.634454   0.398497
   12  H  3  S    0.006097  -0.026394  -0.056562   0.034703  -0.014026
   13  H  3  S    0.105672  -0.199421  -0.518545   0.257831  -0.136994
   14  O  4  S    0.006389   0.007144  -0.028573  -0.035746   0.024564
   15  O  4  S    0.009164  -0.001183   0.030178   0.035604  -0.010295
   16  O  4  X   -0.085399   0.047922  -0.145080  -0.154383   0.113218
   17  O  4  Y   -0.039464  -0.088201   0.070891   0.081024  -0.202281
   18  O  4  Z   -0.139348  -0.016616  -0.083066  -0.082258  -0.032252
   19  O  4  S   -0.139370  -0.091178   0.192410   0.253399  -0.278067
   20  O  4  X   -0.142102   0.093074  -0.274274  -0.307596   0.237695
   21  O  4  Y   -0.022521  -0.139538   0.158041   0.175372  -0.333270
   22  O  4  Z   -0.234389  -0.011175  -0.154644  -0.163753  -0.020749
   23  H  5  S    0.037098  -0.006447   0.040931   0.054856  -0.019041
   24  H  5  S    0.478094  -0.084445   0.397834   0.403481  -0.197954
   25  H  6  S    0.017171   0.044674  -0.075466  -0.103828   0.126863
   26  H  6  S   -0.099907   0.319594  -0.637776  -0.727265   0.863960
   27  O  7  S   -0.006017   0.039495   0.024896   0.013823  -0.002946
   28  O  7  S    0.023479  -0.045852  -0.019257  -0.027499   0.001885
   29  O  7  X    0.156338  -0.039958   0.061636  -0.114611  -0.023236
   30  O  7  Y   -0.081859  -0.027803   0.139895   0.026535   0.103283
   31  O  7  Z    0.076249  -0.207882  -0.112341  -0.009680   0.054884
   32  O  7  S   -0.069345  -0.222386  -0.224433  -0.018695   0.020789
   33  O  7  X    0.214291  -0.077930   0.093624  -0.147206  -0.016719
   34  O  7  Y   -0.119261   0.038254   0.244551   0.037988   0.111301
   35  O  7  Z    0.175535  -0.363261  -0.225203  -0.048128   0.057629
   36  H  8  S    0.043553  -0.045766  -0.034798  -0.030912  -0.007454
   37  H  8  S    0.480353  -0.438719  -0.245533  -0.161661   0.005473
   38  H  9  S    0.012925   0.075541   0.100679  -0.014387  -0.003340
   39  H  9  S   -0.161967   0.556821   0.713904   0.002674   0.003391
   40  O 10  S   -0.100548  -0.044249  -0.011490   0.006029  -0.021963
   41  O 10  S    0.070889   0.033769   0.005482   0.004384   0.024721
   42  O 10  X   -0.077526   0.006988   0.083196   0.171988   0.173291
   43  O 10  Y    0.145844   0.025983   0.067088  -0.104800  -0.080554
   44  O 10  Z    0.027832   0.028424   0.015859   0.135328   0.140061
   45  O 10  S    0.828937   0.350860   0.124767  -0.111468   0.125498
   46  O 10  X   -0.149661   0.000947   0.131447   0.344306   0.338582
   47  O 10  Y    0.272391   0.077719   0.108019  -0.180123  -0.106568
   48  O 10  Z    0.054470   0.065532   0.039316   0.228262   0.252040
   49  H 11  S   -0.067594  -0.053892  -0.039024  -0.055121  -0.084852
   50  H 11  S   -0.477219  -0.291444  -0.336183  -0.456879  -0.682028
   51  H 12  S   -0.103490  -0.047801  -0.001659   0.127277   0.081314
   52  H 12  S   -0.787024  -0.193466   0.034932   0.807551   0.659785
   53  O 13  S   -0.003351   0.044897  -0.021017  -0.006787  -0.007599
   54  O 13  S    0.003257  -0.043290   0.027328   0.017307  -0.007914
   55  O 13  X   -0.007384   0.116296   0.045686   0.112550  -0.197775
   56  O 13  Y   -0.049614   0.249296  -0.114715  -0.040062  -0.014820
   57  O 13  Z   -0.008451   0.070510  -0.003505   0.035301  -0.071250
   58  O 13  S    0.021395  -0.327375   0.102550  -0.028427   0.163472
   59  O 13  X   -0.017689   0.232165   0.041383   0.162284  -0.291641
   60  O 13  Y   -0.092020   0.493397  -0.211120  -0.059084  -0.067491
   61  O 13  Z   -0.009321   0.135126  -0.007772   0.055305  -0.122738
   62  H 14  S    0.005674   0.141309  -0.024756   0.024038  -0.103787
   63  H 14  S   -0.158037   1.056278  -0.251769   0.184501  -0.572263
   64  H 15  S    0.006423  -0.065402   0.031128   0.012888   0.007416
   65  H 15  S    0.142318  -0.590854   0.261727   0.084652   0.035218
   66  O 16  S    0.002391  -0.007901   0.022022  -0.032126  -0.014755
   67  O 16  S    0.004405   0.007249  -0.028472   0.035677   0.006419
   68  O 16  X    0.043669   0.045962   0.068625  -0.019515   0.128833
   69  O 16  Y    0.142945   0.056583  -0.131754   0.155354   0.060567
   70  O 16  Z   -0.009300  -0.020763  -0.014599  -0.003473  -0.054034
   71  O 16  S   -0.052750   0.062766  -0.100337   0.196687   0.166384
   72  O 16  X    0.075664   0.078578   0.085197  -0.000150   0.207372
   73  O 16  Y    0.262293   0.110726  -0.245202   0.304396   0.137885
   74  O 16  Z   -0.001143  -0.036102  -0.024008  -0.020988  -0.101605
   75  H 17  S    0.037529   0.015276  -0.028878   0.038633   0.017314
   76  H 17  S    0.431732   0.129428  -0.316299   0.350085   0.119138
   77  H 18  S   -0.029050  -0.039376   0.010236  -0.057534  -0.087845
   78  H 18  S   -0.321329  -0.257747   0.236381  -0.480718  -0.558218

                     41         42         43         44         45
                    0.3316     0.3500     0.9255     0.9325     0.9468
                     A          A          A          A          A   
    1  O  1  S   -0.005477  -0.025600   0.013455  -0.002544   0.013155
    2  O  1  S   -0.012455   0.019005  -0.035177  -0.003365  -0.024215
    3  O  1  X    0.063461   0.081500  -0.049906  -0.040212   0.055358
    4  O  1  Y   -0.243331  -0.115471   0.026174  -0.028981  -0.054209
    5  O  1  Z    0.088431  -0.015213  -0.047470   0.055543  -0.111489
    6  O  1  S    0.166997   0.234248   0.061516   0.003625  -0.046935
    7  O  1  X    0.136282   0.184457   0.002147  -0.023289   0.131027
    8  O  1  Y   -0.372204  -0.205130   0.129782   0.029456  -0.098172
    9  O  1  Z    0.111895  -0.052646  -0.132803   0.072365  -0.176948
   10  H  2  S   -0.122106  -0.110731   0.373456   0.117259  -0.624831
   11  H  2  S   -0.714188  -0.635653  -0.177297  -0.146686   0.641558
   12  H  3  S    0.006192   0.031299   0.257219  -0.298911   0.849159
   13  H  3  S    0.024274   0.165783  -0.077393   0.209949  -0.671339
   14  O  4  S    0.015926  -0.001115   0.000984  -0.002476   0.000876
[...]
   13             0.017884   0.185988   0.489933   0.449466   0.023514
   14             0.000009   0.023775   0.022144   0.034138   0.004262
   15             0.000024   0.014715   0.043024   0.040790   0.002291
   16             0.183216   0.243101   0.411421   0.029025   0.447763
   17             0.000112   0.018813   0.034578   0.002473   0.042371
   18             0.000133   0.045027   0.007630   0.029333   0.001753

                     11         12         13         14         15

                  2.000000   2.000000   2.000000   2.000000   2.000000

    1             0.428929   0.224643   0.065803   0.399312   0.212363
    2             0.004859   0.001050   0.004447   0.078854   0.038756
    3             0.041377   0.024577   0.021529   0.143136   0.078051
    4             0.482968   0.144469   0.124842   0.149130   0.413130
    5             0.046433   0.015503   0.039159   0.051739   0.151720
    6             0.006511   0.001202   0.055448   0.014653   0.097162
    7             0.003492   0.800399   0.405841   0.123430   0.124363
    8             0.000040   0.091489   0.145585   0.026073   0.011667
    9             0.018458   0.000836   0.031664   0.124713   0.046113
   10             0.003084   0.290390   0.129965   0.248104   0.171391
   11             0.005428   0.005866   0.001030   0.109699   0.080048
   12             0.000022   0.001460   0.070275   0.011653   0.002238
   13             0.395571   0.197518   0.488302   0.029130   0.269686
   14             0.016021   0.000886   0.181352   0.006697   0.143631
   15             0.038798   0.021681   0.173087   0.010234   0.038788
   16             0.456639   0.155770   0.019532   0.295303   0.069748
   17             0.044299   0.016811   0.000607   0.103984   0.004682
   18             0.007070   0.005449   0.041532   0.074154   0.046462

                     16         17         18         19         20

                  2.000000   2.000000   2.000000   2.000000   2.000000

    1             0.234538   0.082680   0.202727   0.279110   0.363243
    2             0.151899   0.116738   0.039875   0.008746   0.009787
    3             0.016461   0.007276   0.034057   0.085636   0.055227
    4             0.098311   0.406828   0.052285   0.160483   0.252678
    5             0.028315   0.050154   0.001164   0.035356   0.065878
    6             0.044191   0.211136   0.008641   0.005816   0.015160
    7             0.152942   0.023238   0.187771   0.494819   0.206502
    8             0.032050   0.000619   0.000045   0.157608   0.000233
    9             0.121242   0.007122   0.094531   0.002010   0.031134
   10             0.110825   0.386183   0.643472   0.100150   0.135563
   11             0.000117   0.148939   0.082450   0.033152   0.006595
   12             0.038189   0.000854   0.307966   0.001621   0.000087
   13             0.126845   0.146877   0.104421   0.267232   0.482053
   14             0.020914   0.025944   0.040469   0.002078   0.043071
   15             0.046076   0.004251   0.025004   0.088856   0.063381
   16             0.532956   0.235192   0.090918   0.201494   0.207881
   17             0.190461   0.018431   0.001866   0.045190   0.050554
   18             0.053666   0.127536   0.082339   0.030642   0.010974

                     21         22         23         24         25

                  2.000000   2.000000   2.000000   2.000000   2.000000

    1             0.168933   0.358992   0.197670   0.381269   0.216215
    2             0.041873   0.004092   0.023749   0.006230   0.000297
    3             0.005911   0.019909   0.026333   0.012130   0.000338
    4             0.305953   0.215684   0.488963   0.365442   0.175180
    5             0.026496   0.011094   0.037397   0.007887   0.000078
    6             0.033181   0.004266   0.032088   0.003712   0.000929
    7             0.354311   0.346091   0.296051   0.063776   0.622859
    8             0.079003   0.011581   0.000070   0.022611   0.000006
    9             0.002556   0.035635   0.008293   0.011018   0.004384
   10             0.313463   0.360595   0.159263   0.417641   0.422692
   11             0.009054   0.037211   0.001848   0.003694   0.003577
   12             0.063695   0.015709   0.000042   0.004185   0.013552
   13             0.149695   0.283986   0.306039   0.313781   0.529262
   14             0.003056   0.028019   0.014311   0.007395   0.005162
   15             0.007234   0.013509   0.031620   0.006943   0.000151
   16             0.390081   0.203583   0.348507   0.355174   0.004874
   17             0.037441   0.012600   0.025326   0.013517   0.000003
   18             0.008065   0.037442   0.002431   0.003595   0.000439

                     26         27         28         29         30

                  2.000000   2.000000   2.000000   2.000000   2.000000

    1             0.090017   0.898782   0.278139   0.465235   0.060606
    2             0.001991   0.001607   0.002221   0.004311   0.000762
    3             0.000020   0.000108   0.000044   0.001776   0.000021
    4             0.143983   0.208951   0.390974   0.070444   0.929851
    5             0.000068  -0.000013   0.000478   0.000248   0.001080
    6             0.003960   0.001011   0.000206   0.000879   0.004726
    7             0.621261   0.039213   0.495649   0.197249   0.176740
    8            -0.000002   0.000314   0.000071   0.001348   0.000980
    9             0.000182   0.000919   0.002803   0.002706   0.002611
   10             0.216334   0.180259   0.282595   0.252082   0.462190
   11             0.001755   0.001850   0.003549   0.000924   0.001814
   12             0.000271   0.000663   0.000010   0.003007   0.004450
   13             0.364070   0.241276   0.416028   0.097208   0.338669
   14             0.003937   0.000132   0.001656   0.002387   0.001410
   15             0.000060   0.000026   0.000485  -0.000034   0.000832
   16             0.550544   0.417828   0.122788   0.897869   0.012024
   17             0.000012   0.000283   0.000269   0.001329   0.000222
   18             0.001536   0.006790   0.002036   0.001030   0.001011

               ----- POPULATIONS IN EACH AO -----
                             MULLIKEN      LOWDIN
              1  O  1  S      1.98413     1.97833
              2  O  1  S      0.41803     0.57456
              3  O  1  X      0.81588     0.82410
              4  O  1  Y      0.71671     0.70896
              5  O  1  Z      0.61830     0.59270
              6  O  1  S      1.47686     1.06597
              7  O  1  X      1.03061     1.02215
              8  O  1  Y      0.89973     0.92162
              9  O  1  Z      0.73532     0.77846
             10  H  2  S      0.33633     0.35040
             11  H  2  S      0.29896     0.40783
             12  H  3  S      0.42419     0.43520
             13  H  3  S      0.24484     0.33936
             14  O  4  S      1.98414     1.97834
             15  O  4  S      0.41839     0.57474
             16  O  4  X      0.78572     0.78983
             17  O  4  Y      0.72520     0.71713
             18  O  4  Z      0.64028     0.61835
             19  O  4  S      1.47744     1.06465
             20  O  4  X      0.98873     0.97889
             21  O  4  Y      0.89071     0.91461
             22  O  4  Z      0.78261     0.82409
             23  H  5  S      0.42393     0.43470
             24  H  5  S      0.24398     0.33883
             25  H  6  S      0.33918     0.35328
             26  H  6  S      0.29755     0.40682
             27  O  7  S      1.98407     1.97839
             28  O  7  S      0.41678     0.57525
             29  O  7  X      0.73295     0.72836
             30  O  7  Y      0.75085     0.74996
             31  O  7  Z      0.65598     0.63733
             32  O  7  S      1.46693     1.07956
             33  O  7  X      0.92060     0.94196
             34  O  7  Y      0.95022     0.96668
             35  O  7  Z      0.80498     0.84658
             36  H  8  S      0.42333     0.43405
             37  H  8  S      0.24770     0.34683
             38  H  9  S      0.33543     0.34969
             39  H  9  S      0.29637     0.40875
             40  O 10  S      1.98422     1.97773
             41  O 10  S      0.41212     0.57003
             42  O 10  X      0.69240     0.68195
             43  O 10  Y      0.68861     0.67805
             44  O 10  Z      0.79284     0.79810
             45  O 10  S      1.47153     1.03013
             46  O 10  X      0.85336     0.86518
             47  O 10  Y      0.84904     0.85934
             48  O 10  Z      1.01148     1.00335
             49  H 11  S      0.33233     0.34551
             50  H 11  S      0.29155     0.40053
             51  H 12  S      0.34039     0.35537
             52  H 12  S      0.30123     0.40327
             53  O 13  S      1.98414     1.97837
             54  O 13  S      0.41838     0.57513
             55  O 13  X      0.74549     0.74085
             56  O 13  Y      0.63604     0.61434
             57  O 13  Z      0.76804     0.76883
             58  O 13  S      1.47806     1.06793
             59  O 13  X      0.92217     0.94452
             60  O 13  Y      0.75685     0.79277
             61  O 13  Z      0.98420     0.98408
             62  H 14  S      0.33653     0.35067
             63  H 14  S      0.29858     0.41042
             64  H 15  S      0.42508     0.43613
             65  H 15  S      0.24759     0.34116
             66  O 16  S      1.98414     1.97834
             67  O 16  S      0.41803     0.57471
             68  O 16  X      0.72321     0.71641
             69  O 16  Y      0.63257     0.61046
             70  O 16  Z      0.79528     0.79894
             71  O 16  S      1.47751     1.06585
             72  O 16  X      0.90515     0.92412
             73  O 16  Y      0.75452     0.79019
             74  O 16  Z      1.00639     1.00760
             75  H 17  S      0.42369     0.43471
             76  H 17  S      0.24329     0.33816
             77  H 18  S      0.33289     0.34631
             78  H 18  S      0.29712     0.40314

          ----- MULLIKEN ATOMIC OVERLAP POPULATIONS -----
          (OFF-DIAGONAL ELEMENTS NEED TO BE MULTIPLIED BY 2)

             1           2           3           4           5

    1    8.2363009
    2    0.1278835   0.4016345
    3    0.2375697  -0.0121396   0.4622647
    4   -0.0000000   0.0000012   0.0000002   8.2300028
    5    0.0000002  -0.0000019  -0.0000001   0.2375702   0.4602958
    6    0.0000007  -0.0000029  -0.0000015   0.1612864  -0.0218825
    7   -0.0380116   0.0010067   0.0020967  -0.0001144   0.0000062
    8    0.0019650  -0.0000293  -0.0000800   0.0000027  -0.0000001
    9    0.1630474  -0.0120958  -0.0226733  -0.0000028  -0.0000001
   10   -0.0001969   0.0034113  -0.0000008  -0.0385815   0.0024726
   11   -0.0000075  -0.0000235  -0.0000001   0.1319400  -0.0123422
   12    0.0014303   0.0007950  -0.0000347   0.0021445  -0.0000611
   13   -0.0000041   0.0000012   0.0000064  -0.0369928   0.0017715
   14    0.0004766  -0.0000174   0.0000306   0.0027823  -0.0000136
   15    0.0000006  -0.0000001  -0.0000009   0.0021766  -0.0000680
   16   -0.0382729   0.1600066   0.0020940  -0.0000060   0.0000115
   17    0.0019080  -0.0220936  -0.0000691   0.0000006  -0.0000011
   18    0.0014847  -0.0130521  -0.0000328   0.0010127   0.0001553

             6           7           8           9          10

    6    0.4030047
    7    0.0008930   8.2038604
    8   -0.0000358   0.2268138   0.4659009
    9   -0.0000069   0.1203370  -0.0103542   0.3960000
   10    0.0034806  -0.0359529   0.0015964   0.0016647   8.3652697
   11   -0.0130092   0.0013031  -0.0000636  -0.0000393   0.1628161
   12    0.0008382   0.1151889  -0.0070997  -0.0059631   0.1644989
   13    0.1266270  -0.0373311   0.0020707   0.0003048  -0.0002099
   14   -0.0116931   0.1197229  -0.0095051  -0.0018423   0.0017720
   15   -0.0127286   0.0022542  -0.0000832  -0.0000242  -0.0000026
   16    0.0000029  -0.0001263   0.0000018   0.0028111  -0.0391646
   17   -0.0000001   0.0000048  -0.0000004  -0.0000333   0.0021705
   18   -0.0000394   0.0014013  -0.0000758   0.0006703   0.1605498

            11          12          13          14          15

   11    0.3807335
   12   -0.0187580   0.4101670
   13    0.0014469   0.0016908   8.2346575
   14    0.0005709  -0.0062071   0.1632267   0.3980296
   15   -0.0000282   0.0000276   0.2361191  -0.0222061   0.4672362
   16    0.0005366   0.0024616  -0.0000000  -0.0000010   0.0000000
   17   -0.0000253   0.0000010   0.0000000  -0.0000001  -0.0000000
   18   -0.0111700  -0.0194976  -0.0000066  -0.0000069  -0.0000005

            16          17          18

   16    8.2361833
   17    0.2383229   0.4589556
   18    0.1319432  -0.0121531   0.3888284

          TOTAL MULLIKEN AND LOWDIN ATOMIC POPULATIONS
       ATOM         MULL.POP.    CHARGE          LOW.POP.     CHARGE
    1 O             8.695575   -0.695575         8.466844   -0.466844
    2 H             0.635284    0.364716         0.758233    0.241767
    3 H             0.669029    0.330971         0.774560    0.225440
    4 O             8.693223   -0.693223         8.460637   -0.460637
    5 H             0.667913    0.332087         0.773530    0.226470
    6 H             0.636734    0.363266         0.760098    0.239902
    7 O             8.683353   -0.683353         8.504062   -0.504062
    8 H             0.671024    0.328976         0.780877    0.219123
    9 H             0.631800    0.368200         0.758439    0.241561
   10 O             8.755593   -0.755593         8.463860   -0.463860
   11 H             0.623880    0.376120         0.746044    0.253956
   12 H             0.641622    0.358378         0.758646    0.241354
   13 O             8.693378   -0.693378         8.466833   -0.466833
   14 H             0.635119    0.364881         0.761094    0.238906
   15 H             0.672672    0.327328         0.777292    0.222708
   16 O             8.696805   -0.696805         8.466627   -0.466627
   17 H             0.666987    0.333013         0.772869    0.227131
   18 H             0.630011    0.369989         0.749454    0.250546

          -------------------------------
          BOND ORDER AND VALENCE ANALYSIS     BOND ORDER THRESHOLD=0.050
          -------------------------------

                   BOND                       BOND                       BOND
  ATOM PAIR DIST  ORDER      ATOM PAIR DIST  ORDER      ATOM PAIR DIST  ORDER
    1   2  1.405  0.319        1   3  0.991  0.847        1   7  2.484  0.056
    1   9  1.094  0.539        1  16  2.485  0.058        2  16  1.094  0.538
    4   5  0.991  0.845        4   6  1.087  0.547        4  10  2.479  0.057
    4  11  1.407  0.318        4  13  2.494  0.057        6  13  1.421  0.312
    7   8  0.991  0.838        7   9  1.403  0.312        7  10  2.491  0.056
    7  12  1.440  0.298        7  13  2.489  0.056        7  14  1.410  0.310
   10  11  1.094  0.536       10  12  1.079  0.565       10  16  2.477  0.058
   10  18  1.096  0.535       13  14  1.092  0.544       13  15  0.992  0.849
   16  17  0.991  0.846       16  18  1.400  0.322

                       TOTAL       BONDED        FREE
      ATOM            VALENCE     VALENCE     VALENCE
    1 O                 1.835       1.835       0.000
    2 H                 0.864       0.864      -0.000
    3 H                 0.860       0.860       0.000
    4 O                 1.839       1.839      -0.000
    5 H                 0.859       0.859       0.000
    6 H                 0.867       0.867      -0.000
    7 O                 1.944       1.944       0.000
    8 H                 0.861       0.861       0.000
    9 H                 0.861       0.861      -0.000
   10 O                 1.840       1.840      -0.000
   11 H                 0.859       0.859      -0.000
   12 H                 0.874       0.874       0.000
   13 O                 1.835       1.835       0.000
   14 H                 0.865       0.865      -0.000
   15 H                 0.862       0.862       0.000
   16 O                 1.837       1.837       0.000
   17 H                 0.858       0.858       0.000
   18 H                 0.862       0.862       0.000

          ---------------------
          ELECTROSTATIC MOMENTS
          ---------------------

 POINT   1           X           Y           Z (BOHR)    CHARGE
                 1.498521    4.672067    0.075606        0.00 (A.U.)
         DX          DY          DZ         /D/  (DEBYE)
    -1.710787    1.141550   -0.053521    2.057375
 ...... END OF PROPERTY EVALUATION ......
 CPU     0: STEP CPU TIME=     0.04 TOTAL CPU TIME=        404.4 (      6.7 MIN)
 TOTAL WALL CLOCK TIME=        409.3 SECONDS, CPU UTILIZATION IS    98.79%
  $VIB   
          IVIB=   0 IATOM=   0 ICOORD=   0 E=     -455.8574549653
  4.481842109E-07-1.312941001E-05-9.620026472E-06-7.860207331E-06 9.301939072E-07
  7.335379774E-06-2.405843525E-06-2.052985751E-06 9.587823104E-06-3.635083716E-06
 -2.398672912E-06-3.606070787E-05 2.081828937E-05-8.329654420E-06 4.137542528E-05
 -1.100665469E-05 9.726209187E-06-1.562355588E-06-1.024514022E-05-2.486186843E-05
  1.662310356E-05-3.550639989E-07 5.623998538E-06-3.448679630E-06 2.013125441E-05
  2.675415669E-05-1.292528119E-05 1.541287775E-05-9.434351660E-06 9.594570241E-06
  5.086588809E-06 4.991647665E-06-2.016062394E-06-1.832169109E-05 5.949752279E-06
  1.850359792E-07-1.261685547E-05-6.673121370E-06-2.951476057E-06 8.566610442E-06
  1.104885422E-05 4.149824701E-07 3.407470263E-06 4.727120252E-06-1.862812460E-06
 -2.005456441E-05-1.654226915E-06 1.864377946E-05 3.734619052E-06-1.724238128E-05
 -4.024469542E-06 8.895210153E-06 1.602474001E-05-2.928822868E-05
 -1.710786718E+00 1.141550250E+00-5.352119031E-02
 ......END OF GEOMETRY SEARCH......
 CPU     0: STEP CPU TIME=     0.00 TOTAL CPU TIME=        404.4 (      6.7 MIN)
 TOTAL WALL CLOCK TIME=        409.3 SECONDS, CPU UTILIZATION IS    98.79%
               684874  WORDS OF DYNAMIC MEMORY USED
 EXECUTION OF GAMESS TERMINATED NORMALLY Sun May 17 21:53:25 2020
 DDI: 263640 bytes (0.3 MB / 0 MWords) used by master data server.
Note: The following floating-point exceptions are signalling:Note: The following floating-point exceptions are signalling:Note: The following floating-point exceptions are signalling: IEEE_UNDERFLOW_FLAG IEEE_UNDERFLOW_FLAG IEEE_DENORMAL IEEE_UNDERFLOW_FLAG IEEE_DENORMAL
 ----------------------------------------
 CPU timing information for all processes
 ========================================
 0: 399.435 + 4.962 = 404.397
 1: 400.154 + 2.70 = 402.224
 2: 400.17 + 1.449 = 401.466
 3: 399.664 + 1.768 = 401.433
 4: 398.729 + 1.673 = 400.402
 5: 399.298 + 1.253 = 400.552
 ----------------------------------------
 IEEE_DENORMAL


Note: The following floating-point exceptions are signalling: IEEE_UNDERFLOW_FLAGNote: The following floating-point exceptions are signalling: IEEE_UNDERFLOW_FLAGNote: The following floating-point exceptions are signalling: IEEE_DENORMAL
 IEEE_DENORMAL
 IEEE_UNDERFLOW_FLAG IEEE_DENORMAL
 ddikick.x: exited gracefully.
unset echo
----- accounting info -----
Files used on the master node pietdev were:
-rwxr-xr-x 1 piet piet     1040 mei 17 21:46 /home/piet/scr/6H2O_geoopt.F05*
-rw-r--r-- 1 piet piet 57344000 mei 17 21:53 /home/piet/scr/6H2O_geoopt.F10
-rw-r--r-- 1 piet piet  4715296 mei 17 21:53 /home/piet/scr/6H2O_geoopt.F22
-rw-r--r-- 1 piet piet  4715296 mei 17 21:53 /home/piet/scr/6H2O_geoopt.F22.001
-rw-r--r-- 1 piet piet  4715296 mei 17 21:53 /home/piet/scr/6H2O_geoopt.F22.002
-rw-r--r-- 1 piet piet  4715296 mei 17 21:53 /home/piet/scr/6H2O_geoopt.F22.003
-rw-r--r-- 1 piet piet  4715296 mei 17 21:53 /home/piet/scr/6H2O_geoopt.F22.004
-rw-r--r-- 1 piet piet  4715296 mei 17 21:53 /home/piet/scr/6H2O_geoopt.F22.005
ls: No match.
ls: No match.
ls: No match.
zo 17 mei 2020 21:53:28 CEST
0.113u 0.020s 6:52.50 0.0%	0+0k 440+8io 3pf+0w
