----- GAMESS execution script 'rungms' -----
This job is running on host pietdev
under operating system Linux at zo 24 mei 2020 20:36:08 CEST
Available scratch disk space (Kbyte units) at beginning of the job is
Filesystem     1K-blocks     Used Available Use% Mounted on
/dev/sda2      244568380 31203504 200871820  14% /
GAMESS temporary binary files will be written to /home/piet/scr
GAMESS supplementary output files will be written to /home/piet/gamess/scr
Copying input file 8H2O_fukui_base.inp to your run's scratch directory...
cp 8H2O_fukui_base.inp /home/piet/scr/8H2O_fukui_base.F05
unset echo
 
Assuming a single but multicore node.
 
/home/piet/gamess/ddikick.x /home/piet/gamess/gamess.03.x 8H2O_fukui_base -ddi 1 6 pietdev:cpus=6 -scr /home/piet/scr

 Distributed Data Interface kickoff program.
 Initiating 6 compute processes on 1 nodes to run the following command:
 /home/piet/gamess/gamess.03.x 8H2O_fukui_base 

          ******************************************************
          *         GAMESS VERSION = 30 SEP 2019 (R2)          *
          *             FROM IOWA STATE UNIVERSITY             *
          * M.W.SCHMIDT, K.K.BALDRIDGE, J.A.BOATZ, S.T.ELBERT, *
          *   M.S.GORDON, J.H.JENSEN, S.KOSEKI, N.MATSUNAGA,   *
          *          K.A.NGUYEN, S.J.SU, T.L.WINDUS,           *
          *       TOGETHER WITH M.DUPUIS, J.A.MONTGOMERY       *
          *         J.COMPUT.CHEM.  14, 1347-1363(1993)        *
          **************** 64 BIT LINUX VERSION ****************

  SINCE 1993, STUDENTS AND POSTDOCS WORKING AT IOWA STATE UNIVERSITY
  AND ALSO IN THEIR VARIOUS JOBS AFTER LEAVING ISU HAVE MADE IMPORTANT
  CONTRIBUTIONS TO THE CODE:
     IVANA ADAMOVIC, CHRISTINE AIKENS, YURI ALEXEEV, POOJA ARORA,
     ANDREY ASADCHEV, ROB BELL, PRADIPTA BANDYOPADHYAY, JONATHAN BENTZ,
     COLLEEN BERTONI, BRETT BODE, KURT BRORSEN, CALEB CARLIN, GALINA CHABAN,
     WEI CHEN, CHEOL HO CHOI, PAUL DAY, ALBERT DEFUSCO, NUWAN DESILVA,
     TIM DUDLEY, DMITRI FEDOROV, ALEX FINDLATER, GRAHAM FLETCHER, 
     MARK FREITAG, KURT GLAESEMANN, EMILIE B GUIDEZ, ANASTASIA GUNINA, 
     DAN KEMP, SAROM SOK LEANG, GRANT MERRILL,
     NORIYUKI MINEZAWA, JONATHAN MULLIN,
     TAKESHI NAGATA, SEAN NEDD, HEATHER NETZLOFF, BOSILJKA NJEGIC, RYAN OLSON,
     MIKE PAK, BUU PHAM, DAVID POOLE,
     SPENCER PRUITT, LUKE ROSKOP, TOSAPORN SATTASATHUCHANA,
     JIM SHOEMAKER, LYUDMILA SLIPCHENKO,
     TONY SMITH, JIE SONG, TETSUYA TAKETSUGU, SIMON WEBB,
     JORGE LUIS GALVEZ VALLEJO, PENG XU, SOOHAENG YOO,
     FEDERICO ZAHARIEV

  ADDITIONAL CODE HAS BEEN PROVIDED BY COLLABORATORS IN OTHER GROUPS:
     IOWA STATE UNIVERSITY:
          JOE IVANIC, AARON WEST, LAIMUTIS BYTAUTAS, KLAUS RUEDENBERG
     UNIVERSITY OF TOKYO: KIMIHIKO HIRAO, TAKAHITO NAKAJIMA,
          TAKAO TSUNEDA, MUNEAKI KAMIYA, SUSUMU YANAGISAWA,
          KIYOSHI YAGI, MAHITO CHIBA, SEIKEN TOKURA, NAOAKI KAWAKAMI
     UNIVERSITY OF AARHUS: FRANK JENSEN
     UNIVERSITY OF IOWA: VISVALDAS KAIRYS, HUI LI
     NATIONAL INST. OF STANDARDS AND TECHNOLOGY: WALT STEVENS, DAVID GARMER
     UNIVERSITY OF PISA: BENEDETTA MENNUCCI, JACOPO TOMASI
     UNIVERSITY OF MEMPHIS: HENRY KURTZ, PRAKASHAN KORAMBATH
     UNIVERSITY OF ALBERTA: TOBY ZENG, MARIUSZ KLOBUKOWSKI
     UNIVERSITY OF NEW ENGLAND: MARK SPACKMAN
     MIE UNIVERSITY: HIROAKI UMEDA
     NAT. INST. OF ADVANCED INDUSTRIAL SCIENCE AND TECHNOLOGY: KAZUO KITAURA
     MICHIGAN STATE UNIVERSITY:
          KAROL KOWALSKI, MARTA WLOCH, JEFFREY GOUR, JESSE LUTZ,
          WEI LI, JUN SHEN, J. EMILIANO DEUSTUA, PIOTR PIECUCH
     UNIVERSITY OF MINNESOTA:
          ANDREW SAND, PRACHI SHARMA, YINAN SHU
     UNIVERSITY OF SILESIA: MONIKA MUSIAL, STANISLAW KUCHARSKI
     FACULTES UNIVERSITAIRES NOTRE-DAME DE LA PAIX:
          OLIVIER QUINET, BENOIT CHAMPAGNE
     UNIVERSITY OF CALIFORNIA - SANTA BARBARA: BERNARD KIRTMAN
     INSTITUTE FOR MOLECULAR SCIENCE:
          KAZUYA ISHIMURA, MICHIO KATOUDA, AND SHIGERU NAGASE
     UNIVERSITY OF NOTRE DAME: ANNA POMOGAEVA, DAN CHIPMAN
     KYUSHU UNIVERSITY:
          HARUYUKI NAKANO,
          FENG LONG GU, JACEK KORCHOWIEC, MARCIN MAKOWSKI, AND YURIKO AOKI,
          HIROTOSHI MORI AND EISAKU MIYOSHI
     PENNSYLVANIA STATE UNIVERSITY:
          TZVETELIN IORDANOV, CHET SWALINA, JONATHAN SKONE,
          SHARON HAMMES-SCHIFFER
     WASEDA UNIVERSITY:
          MASATO KOBAYASHI, TOMOKO AKAMA, TSUGUKI TOUMA,
          TAKESHI YOSHIKAWA, YASUHIRO IKABATA, JUNJI SEINO,
          YUYA NAKAJIMA, HIROMI NAKAI
     NANJING UNIVERSITY: SHUHUA LI
     UNIVERSITY OF NEBRASKA:
          PEIFENG SU, DEJUN SI, NANDUN THELLAMUREGE, YALI WANG, HUI LI
     UNIVERSITY OF ZURICH: ROBERTO PEVERATI, KIM BALDRIDGE
     N. COPERNICUS UNIVERSITY AND JACKSON STATE UNIVERSITY:
          MARIA BARYSZ
     UNIVERSITY OF COPENHAGEN: Jimmy Kromann, CASPER STEINMANN
     TOKYO INSTITUTE OF TECHNOLOGY: HIROYA NAKATA
     NAGOYA UNIVERSITY: YOSHIO NISHIMOTO, STEPHAN IRLE
     MOSCOW STATE UNIVERSITY: VLADIMIR MIRONOV
     A.N.NESMEYANOV INSTITUTE OF ORGANOELEMENT COMPOUNDS OF RUSSIAN ACADEMY OF SCIENCES:
          IGOR S. GERASIMOV
     JOHANNES KEPLER UNIVERSITY LINZ:
          CHRISTIAN FRIEDL


 PARALLEL VERSION RUNNING ON        6 PROCESSORS IN        1 NODES.

 EXECUTION OF GAMESS BEGUN Sun May 24 20:36:08 2020

            ECHO OF THE FIRST FEW INPUT CARDS -
 INPUT CARD> $BASIS GBASIS=N21 NGAUSS=3 $END                                                
 INPUT CARD> $CONTRL SCFTYP=UHF MAXIT=60 MULT=2 ICHARG=1 $END                               
 INPUT CARD> $SYSTEM MEMDDI=1000 MWORDS=30 $END                                             
 INPUT CARD> $SCF DIRSCF=.TRUE. $END                                                        
 INPUT CARD> $STATPT OPTTOL=0.0001 NSTEP=999 $END                                           
 INPUT CARD> $DATA                                                                          
 INPUT CARD>                                                                                
 INPUT CARD>C1                                                                              
 INPUT CARD>O 8.0000000 -1.7806591866 0.9430936885 -0.5109505863                            
 INPUT CARD>H 1.0000000 -1.0546552962 0.1840590839 -0.5384073990                            
 INPUT CARD>H 1.0000000 -1.8994902076 1.1937606528 0.6894712801                             
 INPUT CARD>O 8.0000000 1.8243621023 1.9719512111 1.5731773503                              
 INPUT CARD>H 1.0000000 1.3490672085 1.1184368966 1.9610039231                              
 INPUT CARD>H 1.0000000 1.0983722426 2.7309379576 1.6005225290                              
 INPUT CARD>O 8.0000000 -0.3115907127 2.9415360862 -1.0436649743                            
 INPUT CARD>H 1.0000000 -0.4642362921 3.6322633140 -1.7357931134                            
 INPUT CARD>H 1.0000000 -1.3050332513 1.7965344292 -0.8987040986                            
 INPUT CARD>O 8.0000000 1.7053022944 1.4216851947 -0.7985229919                             
 INPUT CARD>H 1.0000000 1.9434923176 1.7212758886 0.3727336074                              
 INPUT CARD>H 1.0000000 0.9620021964 2.1070952558 -1.0859462713                             
 INPUT CARD>O 8.0000000 -0.1929068155 3.4921606680 1.3184689406                             
 INPUT CARD>H 1.0000000 -0.2748515708 3.3620770890 0.1063849889                             
 INPUT CARD>H 1.0000000 -0.2895515052 4.4218981120 1.6432400112                             
 INPUT CARD>O 8.0000000 0.2367669436 -0.5767805983 -0.2563905203                            
 INPUT CARD>H 1.0000000 0.3346622177 -1.5062314292 -0.5818827922                            
 INPUT CARD>H 1.0000000 1.2159756810 0.4947732122 -0.7268125608                             
 INPUT CARD>O 8.0000000 0.3557441134 -0.0268620437 2.1059422984                             
 INPUT CARD>H 1.0000000 0.3188304550 -0.4469156334 0.9561982511                             
 INPUT CARD>H 1.0000000 0.5075983151 -0.7181009132 2.7975417201                             
 INPUT CARD>O 8.0000000 -1.6609292925 1.4934679290 1.8606587780                             
 INPUT CARD>H 1.0000000 -0.9177691369 0.8079293550 2.1479579057                             
 INPUT CARD>H 1.0000000 -1.1718828201 2.4204842936 1.7891640240                             
 INPUT CARD> $END                                                                           
   30000000 WORDS OF MEMORY AVAILABLE

     BASIS OPTIONS
     -------------
     GBASIS=N21          IGAUSS=       3      POLAR=NONE    
     NDFUNC=       0     NFFUNC=       0     DIFFSP=       F
     NPFUNC=       0      DIFFS=       F     BASNAM=        


     RUN TITLE
     ---------
                                                                                 

 THE POINT GROUP OF THE MOLECULE IS C1      
 THE ORDER OF THE PRINCIPAL AXIS IS     0

 ATOM      ATOMIC                      COORDINATES (BOHR)
           CHARGE         X                   Y                   Z
 O           8.0    -3.3649579402        1.7821886520       -0.9655566014
 H           1.0    -1.9930095213        0.3478212341       -1.0174424539
 H           1.0    -3.5895160087        2.2558805287        1.3029117958
 O           8.0     3.4475444757        3.7264474501        2.9728741222
 H           1.0     2.5493673631        2.1135392691        3.7057600755
 H           1.0     2.0756225710        5.1607244293        3.0245490170
 O           8.0    -0.5888210673        5.5586971859       -1.9722408244
 H           1.0    -0.8772793856        6.8639823787       -3.2801733557
 H           1.0    -2.4661552498        3.3949577987       -1.6983044904
 O           8.0     3.2225540626        2.6865954588       -1.5089896496
 H           1.0     3.6726679395        3.2527397787        0.7043643844
 H           1.0     1.8179205508        3.9818326635       -2.0521408901
 O           8.0    -0.3645410225        6.5992267676        2.4915450211
 H           1.0    -0.5193941561        6.3534044478        0.2010384782
 H           1.0    -0.5471730042        8.3561757773        3.1052733532
 O           8.0     0.4474246464       -1.0899572858       -0.4845078292
 H           1.0     0.6324198899       -2.8463646753       -1.0995990342
 H           1.0     2.2978608448        0.9349857971       -1.3734765843
 O           8.0     0.6722588961       -0.0507619021        3.9796538899
 H           1.0     0.6025021965       -0.8445480868        1.8069526845
 H           1.0     0.9592217274       -1.3570139575        5.2865872902
 O           8.0    -3.1387012478        2.8222451573        3.5161352471
 H           1.0    -1.7343321887        1.5267650984        4.0590518749
 H           1.0    -2.2145374197        4.5740520725        3.3810297524

          INTERNUCLEAR DISTANCES (ANGS.)
          ------------------------------

                1 O          2 H          3 H          4 O          5 H     

   1 O       0.0000000    1.0506993 *  1.2320582 *  4.2893258    3.9920536  
   2 H       1.0506993 *  0.0000000    1.8002581 *  3.9930051    3.5913787  
   3 H       1.2320582 *  1.8002581 *  0.0000000    3.9055848    3.4893544  
   4 O       4.2893258    3.9930051    3.9055848    0.0000000    1.0510953 *
   5 H       3.9920536    3.5913787    3.4893544    1.0510953 *  0.0000000  
   6 H       3.9929347    3.9619617    3.4900011    1.0506521 *  1.6712135 *
   7 O       2.5368719 *  2.9001913 *  2.9291475 *  3.5142927    3.8870954  
   8 H       3.2349408    3.6976262    3.7266817    4.3524251    4.8242825  
   9 H       1.0511584 *  1.6711013 *  1.7997267 *  3.9917520    3.9600499  
  10 O       3.5303931    3.0359092    3.9064825    2.4376075 *  2.7989019 *
  11 H       3.9058635    3.4902869    3.8919288    1.2321101 *  1.7998218 *
  12 H       3.0344211    2.8398546 *  3.4891871    2.7987260 *  3.2266345  
  13 O       3.5164579    3.8902617    2.9309909 *  2.5387570 *  2.9026022 *
  14 H       2.9154829 *  3.3352136    2.7714683 *  2.9138682 *  3.3332634  
  15 H       4.3549994    4.8274474    3.7312798    3.2366309    3.7012027  
  16 O       2.5386664 *  1.5251826 *  2.9313931 *  3.5162211    3.0046318  
  17 H       3.2370989    2.1884184 *  3.7279667    4.3544511    3.7926474  
  18 H       3.0376649    2.2995227 *  3.4929316    2.8003826 *  2.7624314 *
  19 O       3.5147065    3.0043801    2.9295719 *  2.5369138 *  1.5229601 *
  20 H       2.9141909 *  2.1256618 *  2.7719864 *  2.9151682 *  2.1263468 *
  21 H       4.3522191    3.7925039    3.7273651    3.2356322    2.1864895 *
  22 O       2.4375763 *  2.7995782 *  1.2322402 *  3.5297093    3.0349294  
  23 H       2.7986859 *  2.7612516 *  1.7999515 *  3.0339089    2.2956293 *
  24 H       2.8006819 *  3.2300044    1.8009963 *  3.0373205    2.8425421 *

                6 H          7 O          8 H          9 H         10 O     

   1 O       3.9929347    2.5368719 *  3.2349408    1.0511584 *  3.5303931  
   2 H       3.9619617    2.9001913 *  3.6976262    1.6711013 *  3.0359092  
   3 H       3.4900011    2.9291475 *  3.7266817    1.7997267 *  3.9064825  
   4 O       1.0506521 *  3.5142927    4.3524251    3.9917520    2.4376075 *
   5 H       1.6712135 *  3.8870954    4.8242825    3.9600499    2.7989019 *
   6 H       0.0000000    3.0040098    3.7927740    3.5910446    2.7996297 *
   7 O       3.0040098    0.0000000    0.9896697 *  1.5228166 *  2.5373015 *
   8 H       3.7927740    0.9896697 *  0.0000000    2.1857626 *  3.2360514  
   9 H       3.5910446    1.5228166 *  2.1857626 *  0.0000000    3.0352378  
  10 O       2.7996297 *  2.5373015 *  3.2360514    3.0352378    0.0000000  
  11 H       1.8003086 *  2.9292694 *  3.7275884    3.4892888    1.2322058 *
  12 H       2.7613205 *  1.5231934 *  2.1869144 *  2.2958566 *  1.0511394 *
  13 O       1.5252593 *  2.4283636 *  3.0694894    3.0046347    3.5173458  
  14 H       2.1252123 *  1.2250794 *  1.8714933 *  2.1265940 *  2.9163313 *
  15 H       2.1880364 *  3.0678031    3.4744644    3.7927849    4.3523472  
  16 O       3.8899218    3.6467862    4.5162029    2.9021266 *  2.5385762 *
  17 H       4.8269815    4.5181325    5.3267134    3.7009782    3.2401054  
  18 H       3.2296675    2.9018103 *  3.6993240    2.8424664 *  1.0505945 *
  19 O       2.9004149 *  4.3791265    5.3684725    3.8872685    3.5150413  
  20 H       3.3349052    3.9847822    4.9497184    3.3332663    2.9142786 *
  21 H       3.6983426    5.3683221    6.3577713    4.8240292    4.3525695  
  22 O       3.0352509    3.5146426    4.3521243    2.7986773 *  4.2904447  
  23 H       2.8394495 *  3.8866678    4.8234921    3.2263699    3.9923614  
  24 H       2.2991357 *  3.0060801    3.7940078    2.7625491 *  3.9964882  

               11 H         12 H         13 O         14 H         15 H     

   1 O       3.9058635    3.0344211    3.5164579    2.9154829 *  4.3549994  
   2 H       3.4902869    2.8398546 *  3.8902617    3.3352136    4.8274474  
   3 H       3.8919288    3.4891871    2.9309909 *  2.7714683 *  3.7312798  
   4 O       1.2321101 *  2.7987260 *  2.5387570 *  2.9138682 *  3.2366309  
   5 H       1.7998218 *  3.2266345    2.9026022 *  3.3332634    3.7012027  
   6 H       1.8003086 *  2.7613205 *  1.5252593 *  2.1252123 *  2.1880364 *
   7 O       2.9292694 *  1.5231934 *  2.4283636 *  1.2250794 *  3.0678031  
   8 H       3.7275884    2.1869144 *  3.0694894    1.8714933 *  3.4744644  
   9 H       3.4892888    2.2958566 *  3.0046347    2.1265940 *  3.7927849  
  10 O       1.2322058 *  1.0511394 *  3.5173458    2.9163313 *  4.3523472  
  11 H       0.0000000    1.7999796 *  2.9316633 *  2.7720425 *  3.7274699  
  12 H       1.7999796 *  0.0000000    3.0055671    2.1275433 *  3.7911946  
  13 O       2.9316633 *  3.0055671    0.0000000    1.2217955 *  0.9895596 *
  14 H       2.7720425 *  2.1275433 *  1.2217955 *  0.0000000    1.8669119 *
  15 H       3.7274699    3.7911946    0.9895596 *  1.8669119 *  0.0000000  
  16 O       2.9308313 *  2.9012615 *  4.3841858    3.9884783    5.3733040  
  17 H       3.7304732    3.7018597    5.3734151    4.9543564    6.3626672  
  18 H       1.8007196 *  1.6712456 *  3.8926158    3.3373965    4.8276362  
  19 O       2.9293247 *  3.8870908    3.6475544    3.9850707    4.5190670  
  20 H       2.7714638 *  3.3327160    3.9886636    3.9475393    4.9545436  
  21 H       3.7272034    4.8238673    4.5171525    4.9499904    5.3279874  
  22 O       3.9061071    3.9923413    2.5384705 *  2.9138271 *  3.2409337  
  23 H       3.4889025    3.9597359    2.9014781 *  3.3324216    3.7027244  
  24 H       3.4929543    3.5941532    1.5259221 *  2.1267363 *  2.1921359 *

               16 O         17 H         18 H         19 O         20 H     

   1 O       2.5386664 *  3.2370989    3.0376649    3.5147065    2.9141909 *
   2 H       1.5251826 *  2.1884184 *  2.2995227 *  3.0043801    2.1256618 *
   3 H       2.9313931 *  3.7279667    3.4929316    2.9295719 *  2.7719864 *
   4 O       3.5162211    4.3544511    2.8003826 *  2.5369138 *  2.9151682 *
   5 H       3.0046318    3.7926474    2.7624314 *  1.5229601 *  2.1263468 *
   6 H       3.8899218    4.8269815    3.2296675    2.9004149 *  3.3349052  
   7 O       3.6467862    4.5181325    2.9018103 *  4.3791265    3.9847822  
   8 H       4.5162029    5.3267134    3.6993240    5.3684725    4.9497184  
   9 H       2.9021266 *  3.7009782    2.8424664 *  3.8872685    3.3332663  
  10 O       2.5385762 *  3.2401054    1.0505945 *  3.5150413    2.9142786 *
  11 H       2.9308313 *  3.7304732    1.8007196 *  2.9293247 *  2.7714638 *
  12 H       2.9012615 *  3.7018597    1.6712456 *  3.8870908    3.3327160  
  13 O       4.3841858    5.3734151    3.8926158    3.6475544    3.9886636  
  14 H       3.9884783    4.9543564    3.3373965    3.9850707    3.9475393  
  15 H       5.3733040    6.3626672    4.8276362    4.5190670    4.9545436  
  16 O       0.0000000    0.9896502 *  1.5259011 *  2.4284115 *  1.2222810 *
  17 H       0.9896502 *  0.0000000    2.1912868 *  3.0681235    1.8676439 *
  18 H       1.5259011 *  2.1912868 *  0.0000000    3.0060941    2.1270103 *
  19 O       2.4284115 *  3.0681235    3.0060941    0.0000000    1.2246302 *
  20 H       1.2222810 *  1.8676439 *  2.1270103 *  1.2246302 *  0.0000000  
  21 H       3.0691730    3.4744160    3.7939340    0.9895356 *  1.8707540 *
  22 O       3.5169700    4.3527682    3.9961208    2.5374276 *  2.9159194 *
  23 H       3.0052066    3.7915636    3.5937778    1.5233115 *  2.1269945 *
  24 H       3.8925807    4.8281091    3.9674135    2.9023261 *  3.3373703  

               21 H         22 O         23 H         24 H     

   1 O       4.3522191    2.4375763 *  2.7986859 *  2.8006819 *
   2 H       3.7925039    2.7995782 *  2.7612516 *  3.2300044  
   3 H       3.7273651    1.2322402 *  1.7999515 *  1.8009963 *
   4 O       3.2356322    3.5297093    3.0339089    3.0373205  
   5 H       2.1864895 *  3.0349294    2.2956293 *  2.8425421 *
   6 H       3.6983426    3.0352509    2.8394495 *  2.2991357 *
   7 O       5.3683221    3.5146426    3.8866678    3.0060801  
   8 H       6.3577713    4.3521243    4.8234921    3.7940078  
   9 H       4.8240292    2.7986773 *  3.2263699    2.7625491 *
  10 O       4.3525695    4.2904447    3.9923614    3.9964882  
  11 H       3.7272034    3.9061071    3.4889025    3.4929543  
  12 H       4.8238673    3.9923413    3.9597359    3.5941532  
  13 O       4.5171525    2.5384705 *  2.9014781 *  1.5259221 *
  14 H       4.9499904    2.9138271 *  3.3324216    2.1267363 *
  15 H       5.3279874    3.2409337    3.7027244    2.1921359 *
  16 O       3.0691730    3.5169700    3.0052066    3.8925807  
  17 H       3.4744160    4.3527682    3.7915636    4.8281091  
  18 H       3.7939340    3.9961208    3.5937778    3.9674135  
  19 O       0.9895356 *  2.5374276 *  1.5233115 *  2.9023261 *
  20 H       1.8707540 *  2.9159194 *  2.1269945 *  3.3373703  
  21 H       0.0000000    3.2359386    2.1868699 *  3.6997567  
  22 O       3.2359386    0.0000000    1.0510904 *  1.0505414 *
  23 H       2.1868699 *  1.0510904 *  0.0000000    1.6714186 *
  24 H       3.6997567    1.0505414 *  1.6714186 *  0.0000000  

  * ... LESS THAN  3.000


     ATOMIC BASIS SET
     ----------------
 THE CONTRACTED PRIMITIVE FUNCTIONS HAVE BEEN UNNORMALIZED
 THE CONTRACTED BASIS FUNCTIONS ARE NOW NORMALIZED TO UNITY

  SHELL TYPE  PRIMITIVE        EXPONENT          CONTRACTION COEFFICIENT(S)

 O         

      1   S       1           322.0370000    0.059239393389
      1   S       2            48.4308000    0.351499960776
      1   S       3            10.4206000    0.707657921031

      2   L       4             7.4029400   -0.404453583190    0.244586106967
      2   L       5             1.5762000    1.221561761397    0.853955373466

      3   L       6             0.3736840    1.000000000000    1.000000000000

 H         

      4   S       7             5.4471780    0.156284978695
      4   S       8             0.8245472    0.904690876670

      5   S       9             0.1831916    1.000000000000

 H         

      6   S      10             5.4471780    0.156284978695
      6   S      11             0.8245472    0.904690876670

      7   S      12             0.1831916    1.000000000000

 O         

      8   S      13           322.0370000    0.059239393389
      8   S      14            48.4308000    0.351499960776
      8   S      15            10.4206000    0.707657921031

      9   L      16             7.4029400   -0.404453583190    0.244586106967
      9   L      17             1.5762000    1.221561761397    0.853955373466

     10   L      18             0.3736840    1.000000000000    1.000000000000

 H         

     11   S      19             5.4471780    0.156284978695
     11   S      20             0.8245472    0.904690876670

     12   S      21             0.1831916    1.000000000000

 H         

     13   S      22             5.4471780    0.156284978695
     13   S      23             0.8245472    0.904690876670

     14   S      24             0.1831916    1.000000000000

 O         

     15   S      25           322.0370000    0.059239393389
     15   S      26            48.4308000    0.351499960776
     15   S      27            10.4206000    0.707657921031

     16   L      28             7.4029400   -0.404453583190    0.244586106967
     16   L      29             1.5762000    1.221561761397    0.853955373466

     17   L      30             0.3736840    1.000000000000    1.000000000000

 H         

     18   S      31             5.4471780    0.156284978695
     18   S      32             0.8245472    0.904690876670

     19   S      33             0.1831916    1.000000000000

 H         

     20   S      34             5.4471780    0.156284978695
     20   S      35             0.8245472    0.904690876670

     21   S      36             0.1831916    1.000000000000

 O         

     22   S      37           322.0370000    0.059239393389
     22   S      38            48.4308000    0.351499960776
     22   S      39            10.4206000    0.707657921031

     23   L      40             7.4029400   -0.404453583190    0.244586106967
     23   L      41             1.5762000    1.221561761397    0.853955373466

     24   L      42             0.3736840    1.000000000000    1.000000000000

 H         

     25   S      43             5.4471780    0.156284978695
     25   S      44             0.8245472    0.904690876670

     26   S      45             0.1831916    1.000000000000

 H         

     27   S      46             5.4471780    0.156284978695
     27   S      47             0.8245472    0.904690876670

     28   S      48             0.1831916    1.000000000000

 O         

     29   S      49           322.0370000    0.059239393389
     29   S      50            48.4308000    0.351499960776
     29   S      51            10.4206000    0.707657921031

     30   L      52             7.4029400   -0.404453583190    0.244586106967
     30   L      53             1.5762000    1.221561761397    0.853955373466

     31   L      54             0.3736840    1.000000000000    1.000000000000

 H         

     32   S      55             5.4471780    0.156284978695
     32   S      56             0.8245472    0.904690876670

     33   S      57             0.1831916    1.000000000000

 H         

     34   S      58             5.4471780    0.156284978695
     34   S      59             0.8245472    0.904690876670

     35   S      60             0.1831916    1.000000000000

 O         

     36   S      61           322.0370000    0.059239393389
     36   S      62            48.4308000    0.351499960776
     36   S      63            10.4206000    0.707657921031

     37   L      64             7.4029400   -0.404453583190    0.244586106967
     37   L      65             1.5762000    1.221561761397    0.853955373466

     38   L      66             0.3736840    1.000000000000    1.000000000000

 H         

     39   S      67             5.4471780    0.156284978695
     39   S      68             0.8245472    0.904690876670

     40   S      69             0.1831916    1.000000000000

 H         

     41   S      70             5.4471780    0.156284978695
     41   S      71             0.8245472    0.904690876670

     42   S      72             0.1831916    1.000000000000

 O         

     43   S      73           322.0370000    0.059239393389
     43   S      74            48.4308000    0.351499960776
     43   S      75            10.4206000    0.707657921031

     44   L      76             7.4029400   -0.404453583190    0.244586106967
     44   L      77             1.5762000    1.221561761397    0.853955373466

     45   L      78             0.3736840    1.000000000000    1.000000000000

 H         

     46   S      79             5.4471780    0.156284978695
     46   S      80             0.8245472    0.904690876670

     47   S      81             0.1831916    1.000000000000

 H         

     48   S      82             5.4471780    0.156284978695
     48   S      83             0.8245472    0.904690876670

     49   S      84             0.1831916    1.000000000000

 O         

     50   S      85           322.0370000    0.059239393389
     50   S      86            48.4308000    0.351499960776
     50   S      87            10.4206000    0.707657921031

     51   L      88             7.4029400   -0.404453583190    0.244586106967
     51   L      89             1.5762000    1.221561761397    0.853955373466

     52   L      90             0.3736840    1.000000000000    1.000000000000

 H         

     53   S      91             5.4471780    0.156284978695
     53   S      92             0.8245472    0.904690876670

     54   S      93             0.1831916    1.000000000000

 H         

     55   S      94             5.4471780    0.156284978695
     55   S      95             0.8245472    0.904690876670

     56   S      96             0.1831916    1.000000000000

 TOTAL NUMBER OF BASIS SET SHELLS             =   56
 NUMBER OF CARTESIAN GAUSSIAN BASIS FUNCTIONS =  104
 NUMBER OF ELECTRONS                          =   79
 CHARGE OF MOLECULE                           =    1
 SPIN MULTIPLICITY                            =    2
 NUMBER OF OCCUPIED ORBITALS (ALPHA)          =   40
 NUMBER OF OCCUPIED ORBITALS (BETA )          =   39
 TOTAL NUMBER OF ATOMS                        =   24
 THE NUCLEAR REPULSION ENERGY IS      555.2346340131

     $CONTRL OPTIONS
     ---------------
 SCFTYP=UHF          RUNTYP=ENERGY       EXETYP=RUN     
 MPLEVL=       0     CITYP =NONE         CCTYP =NONE         VBTYP =NONE    
 DFTTYP=NONE         TDDFT =NONE    
 MULT  =       2     ICHARG=       1     NZVAR =       0     COORD =UNIQUE  
 PP    =NONE         RELWFN=NONE         LOCAL =NONE         NUMGRD=       F
 ISPHER=      -1     NOSYM =       0     MAXIT =      60     UNITS =ANGS    
 PLTORB=       F     MOLPLT=       F     AIMPAC=       F     FRIEND=        
 NPRINT=       7     IREST =       0     GEOM  =INPUT   
 NORMF =       0     NORMP =       0     ITOL  =      20     ICUT  =       9
 INTTYP=BEST         GRDTYP=BEST         QMTTOL= 1.0E-06

     $SYSTEM OPTIONS
     ---------------
  REPLICATED MEMORY=    30000000 WORDS (ON EVERY NODE).
 DISTRIBUTED MEMDDI=        1000 MILLION WORDS IN AGGREGATE,
 MEMDDI DISTRIBUTED OVER   6 PROCESSORS IS   166666666 WORDS/PROCESSOR.
 TOTAL MEMORY REQUESTED ON EACH PROCESSOR=   196666666 WORDS.
 TIMLIM=      525600.00 MINUTES, OR     365.0 DAYS.
 PARALL= T  BALTYP=  DLB     KDIAG=    0  COREFL= F
 MXSEQ2=     300 MXSEQ3=     150  mem10=         0

          ----------------
          PROPERTIES INPUT
          ----------------

     MOMENTS            FIELD           POTENTIAL          DENSITY
 IEMOM =       1   IEFLD =       0   IEPOT =       0   IEDEN =       0
 WHERE =COMASS     WHERE =NUCLEI     WHERE =NUCLEI     WHERE =NUCLEI  
 OUTPUT=BOTH       OUTPUT=BOTH       OUTPUT=BOTH       OUTPUT=BOTH    
 IEMINT=       0   IEFINT=       0                     IEDINT=       0
                                                       MORB  =       0
          EXTRAPOLATION IN EFFECT
          SOSCF IN EFFECT
          DIIS or SOSCF will be reset if energy rises
 ORBITAL PRINTING OPTION: NPREO=     1   104     2     1

     -------------------------------
     INTEGRAL TRANSFORMATION OPTIONS
     -------------------------------
     NWORD  =            0
     CUTOFF = 1.0E-09     MPTRAN =       0
     DIRTRF =       T     AOINTS =DUP     

          ----------------------
          INTEGRAL INPUT OPTIONS
          ----------------------
 NOPK  =       1 NORDER=       0 SCHWRZ=       T

     ------------------------------------------
     THE POINT GROUP IS C1 , NAXIS= 0, ORDER= 1
     ------------------------------------------

     DIMENSIONS OF THE SYMMETRY SUBSPACES ARE
 A   =  104

 ..... DONE SETTING UP THE RUN .....
 CPU     0: STEP CPU TIME=     0.02 TOTAL CPU TIME=          0.0 (      0.0 MIN)
 TOTAL WALL CLOCK TIME=          0.0 SECONDS, CPU UTILIZATION IS    50.00%

          ********************
          1 ELECTRON INTEGRALS
          ********************
 ...... END OF ONE-ELECTRON INTEGRALS ......
 CPU     0: STEP CPU TIME=     0.02 TOTAL CPU TIME=          0.0 (      0.0 MIN)
 TOTAL WALL CLOCK TIME=          0.1 SECONDS, CPU UTILIZATION IS    66.67%

          -------------
          GUESS OPTIONS
          -------------
          GUESS =HUCKEL            NORB  =       0          NORDER=       0
          MIX   =       F          PRTMO =       F          PUNMO =       F
          TOLZ  = 1.0E-08          TOLE  = 1.0E-05
          SYMDEN=       F          PURIFY=       F

 INITIAL GUESS ORBITALS GENERATED BY HUCKEL   ROUTINE.
 HUCKEL GUESS REQUIRES    108264 WORDS.

 SYMMETRIES FOR INITIAL GUESS ORBITALS FOLLOW.  ALPHA SET(S).
    40 ORBITALS ARE OCCUPIED (    8 CORE ORBITALS).
     9=A       10=A       11=A       12=A       13=A       14=A       15=A   
    16=A       17=A       18=A       19=A       20=A       21=A       22=A   
    23=A       24=A       25=A       26=A       27=A       28=A       29=A   
    30=A       31=A       32=A       33=A       34=A       35=A       36=A   
    37=A       38=A       39=A       40=A       41=A       42=A       43=A   
    44=A       45=A       46=A       47=A       48=A       49=A       50=A   

 SYMMETRIES FOR INITIAL GUESS ORBITALS FOLLOW.   BETA SET(S).
    39 ORBITALS ARE OCCUPIED (    8 CORE ORBITALS).
     9=A       10=A       11=A       12=A       13=A       14=A       15=A   
    16=A       17=A       18=A       19=A       20=A       21=A       22=A   
    23=A       24=A       25=A       26=A       27=A       28=A       29=A   
    30=A       31=A       32=A       33=A       34=A       35=A       36=A   
    37=A       38=A       39=A       40=A       41=A       42=A       43=A   
    44=A       45=A       46=A       47=A       48=A       49=A   
 ...... END OF INITIAL ORBITAL SELECTION ......
 CPU     0: STEP CPU TIME=     0.04 TOTAL CPU TIME=          0.1 (      0.0 MIN)
 TOTAL WALL CLOCK TIME=          0.1 SECONDS, CPU UTILIZATION IS    88.89%

                    ----------------------
                    AO INTEGRAL TECHNOLOGY
                    ----------------------
     S,P,L SHELL ROTATED AXIS INTEGRALS, REPROGRAMMED BY
        KAZUYA ISHIMURA (IMS) AND JOSE SIERRA (SYNSTAR).
     S,P,D,L SHELL ROTATED AXIS INTEGRALS PROGRAMMED BY
        KAZUYA ISHIMURA (INSTITUTE FOR MOLECULAR SCIENCE).
     S,P,D,F,G SHELL TO TOTAL QUARTET ANGULAR MOMENTUM SUM 5,
        ERIC PROGRAM BY GRAHAM FLETCHER (ELORET AND NASA ADVANCED
        SUPERCOMPUTING DIVISION, AMES RESEARCH CENTER).
     S,P,D,F,G,L SHELL GENERAL RYS QUADRATURE PROGRAMMED BY
        MICHEL DUPUIS (PACIFIC NORTHWEST NATIONAL LABORATORY).

          --------------------
          2 ELECTRON INTEGRALS
          --------------------

 DIRECT SCF METHOD SKIPS INTEGRAL STORAGE ON DISK.
 DIRECT TRANSFORMATION SKIPS AO INTEGRAL STORAGE ON DISK.
  ...... END OF TWO-ELECTRON INTEGRALS .....
 CPU     0: STEP CPU TIME=     0.02 TOTAL CPU TIME=          0.1 (      0.0 MIN)
 TOTAL WALL CLOCK TIME=          0.1 SECONDS, CPU UTILIZATION IS    90.91%

          ---------------------------
                  UHF SCF CALCULATION
          ---------------------------

     NUCLEAR ENERGY =       555.2346340131
     MAXIT = 60     NPUNCH=  2     MULT=  2
     EXTRAP=T  DAMP=F  SHIFT=F  RSTRCT=F  DIIS=F  SOSCF=T
     DENSITY MATRIX CONV=  2.00E-05
     SOSCF WILL OPTIMIZE    2560 ALPHA AND    2535 BETA ROTATION ANGLES.
     SOGTOL= 2.500E-01
     MEMORY REQUIRED FOR UHF/ROHF ITERS=    193037 WORDS.

 DIRECT SCF CALCULATION, SCHWRZ=T   FDIFF=T
 SCHWARZ INEQUALITY OVERHEAD:      5164 INTEGRALS, T=        0.00

                                                                                NONZERO     BLOCKS
 ITER EX      TOTAL ENERGY        E CHANGE  DENSITY CHANGE    ORB. GRAD       INTEGRALS    SKIPPED
   1  0     -602.6649324177  -602.6649324177   0.572402355   0.000000000        7842519     579789
          ---------------START SECOND ORDER SCF---------------
   2  1     -604.4062847440    -1.7413523264   0.116515985   0.068076991        7758070     592095
   3  2     -604.4774938298    -0.0712090857   0.048667453   0.028111328        7540612     628599
   4  3     -604.4880090827    -0.0105152529   0.015971658   0.009476212        7353450     647767
   5  4     -604.4895866230    -0.0015775403   0.002963930   0.004146771        6852797     692265
   6  5     -604.4898628003    -0.0002761773   0.004965925   0.002959551        6774223     706848
   7  6     -604.4901782718    -0.0003154715   0.006637831   0.003621380        7114107     684837
   8  7     -604.4905114733    -0.0003332015   0.029384207   0.004657023        7204893     681110
   9  8     -604.4908063662    -0.0002948929   0.010919969   0.011647737        7583306     635985
  10  9     -604.4918539611    -0.0010475948   0.010055832   0.006043571        7389855     659270
  11 10     -604.4933668600    -0.0015128989   0.137108410   0.005206900        7278982     677237
  12 11     -604.3070701799     0.1862966801   0.130249723   0.113828593        7789924     597043
  13 12     -604.4927643605    -0.1856941806   0.028173308   0.016008013        7788139     597995
  14 13     -604.4956389850    -0.0028746245   0.015907712   0.007254100        7479147     647836
  15 14     -604.4969698500    -0.0013308650   0.030945313   0.008495518        7339676     664063
  16 15     -604.4993144914    -0.0023446414   0.254774452   0.017910276        7414497     659481
  17 16     -603.8641203686     0.6351941227   0.248045827   0.228835538        7818433     586334
  18 17     -604.4793601101    -0.6152397415   0.022029376   0.031171731        7820946     586068
  19 18     -604.4916479143    -0.0122878042   0.044050838   0.019069083        7542808     636238
 SOSCF IS SCALING ROTATION ANGLE MATRIX, SQCDF=    0.859114
  20 19     -604.5006737064    -0.0090257920   1.765277291   0.018562988        7505122     643795
 SOSCF IS SCALING ROTATION ANGLE MATRIX, SQCDF=    0.281476
  21 20     -591.2368709085    13.2638027979   1.504066484   0.696003179        7924476     544823
 SOSCF IS SCALING ROTATION ANGLE MATRIX, SQCDF=    0.280577
  22 21     -601.7384334735   -10.5015625651   0.850965648   0.364507586        7921262     548334
 SOSCF IS SCALING ROTATION ANGLE MATRIX, SQCDF=    0.101830
  23 22     -601.1465863594     0.5918471141   0.715094133   0.354206608        7924333     546415
  24 23     -603.8374081477    -2.6908217883   0.150047573   0.175680538        7909495     555234
  25 24     -604.1185637868    -0.2811556391   0.110215881   0.179055972        7871329     571508
  26 25     -604.3387439050    -0.2201801182   0.051570527   0.120775384        7834856     581855
  27 26     -604.3403025120    -0.0015586069   0.052372827   0.151212963        7777043     595022
  28 27     -604.3908636284    -0.0505611164   0.037836404   0.121385543        7742390     600455
  29 28     -604.4052143729    -0.0143507445   0.024442226   0.069932341        7669423     612915
  30 29     -604.3835874686     0.0216269043   0.025232540   0.119221154        7615419     623957
  31 30     -604.4063408845    -0.0227534159   0.001255728   0.070898802        7623707     622831
  32 31     -604.4076296121    -0.0012887276   0.043537718   0.070661856        6578766     726257
  33 32     -604.4412467442    -0.0336171321   0.045134471   0.050445157        7697495     612509
  34 33     -604.4627072406    -0.0214604964   0.087903953   0.044031771        7606364     626525
  35 34     -604.4844878762    -0.0217806356   0.021379433   0.037672779        7712882     611057
  36 35     -604.5045213171    -0.0200334409   0.058857476   0.033030795        7536541     631570
  37 36     -604.5196070142    -0.0150856971   0.038750499   0.034110876        7541976     632705
  38 37     -604.5291841484    -0.0095771342   0.016369365   0.026257377        7497114     637692
  39 38     -604.5346894899    -0.0055053415   0.011469266   0.015982892        7422474     647685
  40 39     -604.5371082846    -0.0024187946   0.004426643   0.019340739        7314112     653530
  41 40     -604.5376686037    -0.0005603191   0.003200170   0.019411381        6935277     690087
  42 41     -604.5377159401    -0.0000473364   0.001171668   0.019503657        6767099     705507
  43 42     -604.5376716673     0.0000442728   0.001447928   0.019944249        6339997     743283
  44 43     -604.5377337617    -0.0000620944   0.000340362   0.019386580        6430413     734044
  45 44     -604.5377541407    -0.0000203790   0.002356842   0.019214473        5680001     799861
  46 45     -604.5379355549    -0.0001814142   0.004297363   0.018084248        6572640     722842
  47 46     -604.5382131682    -0.0002776133   0.005031391   0.015549752        6682712     721363
  48 47     -604.5387863868    -0.0005732187   0.007731315   0.012539599        6839167     701574
  49 48     -604.5398050112    -0.0010186244   0.007510467   0.007647017        6909905     695357
  50 49     -604.5406639990    -0.0008589878   0.004058797   0.003682703        6991433     688256
  51 50     -604.5409524063    -0.0002884073   0.005948067   0.003619516        6709930     709819
  52 51     -604.5411256201    -0.0001732137   0.006392633   0.003055041        6645783     718525
  53 52     -604.5412649904    -0.0001393704   0.004437656   0.002233167        6455383     736571
  54 53     -604.5413417800    -0.0000767896   0.000748706   0.000871449        6424825     738755
  55 54     -604.5413552565    -0.0000134764   0.000624380   0.000196044        6105380     761941
  56 55     -604.5413581491    -0.0000028927   0.000603948   0.000178132        5767771     790931
  57 56     -604.5413600436    -0.0000018945   0.000933466   0.000143403        5499803     812311
  58 57     -604.5413621478    -0.0000021042   0.001007710   0.000144240        5648537     798770
  59 58     -604.5413638261    -0.0000016783   0.001962591   0.000136392        5512550     811387
  60 59     -604.5413665442    -0.0000027181   0.002048094   0.000143268        5702718     795464

 SCF IS UNCONVERGED, TOO MANY ITERATIONS
     TIME TO FORM FOCK OPERATORS=      11.5 SECONDS (       0.2 SEC/ITER)
     FOCK TIME ON FIRST ITERATION=       0.2, LAST ITERATION=       0.1
     TIME TO SOLVE SCF EQUATIONS=       0.6 SECONDS (       0.0 SEC/ITER)

 FINAL UHF ENERGY IS        0.0000000000 AFTER  60 ITERATIONS

          --------------------
          SPIN SZ   =    0.500
          S-SQUARED =    0.820
          --------------------

  ----- ALPHA SET ----- 

          ------------
          EIGENVECTORS
          ------------

                      1          2          3          4          5
                  -20.8259   -20.8212   -20.6198   -20.6198   -20.6192
                     A          A          A          A          A   
    1  O  1  S    0.981458  -0.060301  -0.000092  -0.000975   0.000815
    2  O  1  S    0.099095  -0.004793   0.000090   0.000928  -0.000787
    3  O  1  X    0.002530  -0.000464   0.000078   0.000336  -0.000057
    4  O  1  Y    0.000608   0.000076  -0.000626  -0.000189  -0.000366
    5  O  1  Z    0.000955   0.000660   0.000132  -0.000215   0.000251
    6  O  1  S   -0.044783  -0.000680  -0.000374  -0.002784   0.002669
    7  O  1  X   -0.005599   0.001467  -0.000447  -0.001853   0.000560
    8  O  1  Y   -0.001391  -0.000563   0.003058   0.000965   0.002018
    9  O  1  Z   -0.002300  -0.003532  -0.000720   0.001123  -0.001097
   10  H  2  S    0.002664   0.000286   0.000304   0.000701  -0.000423
   11  H  2  S    0.008450  -0.002207   0.004546   0.004213   0.001753
   12  H  3  S    0.002321   0.002049  -0.000118   0.000733  -0.000067
   13  H  3  S    0.009113   0.008069   0.000520  -0.003243   0.000290
   14  O  4  S    0.000104  -0.000188  -0.002139   0.002845   0.004756
   15  O  4  S    0.000115  -0.000193  -0.000543   0.000714   0.001200
   16  O  4  X    0.000031  -0.000046   0.000128  -0.000268  -0.000159
   17  O  4  Y    0.000007  -0.000018  -0.000338   0.000144   0.000498
   18  O  4  Z    0.000011  -0.000051   0.000006   0.000100   0.000021
   19  O  4  S   -0.000438   0.000793   0.001065  -0.001061  -0.002537
   20  O  4  X   -0.000057  -0.000008  -0.000684   0.001271   0.001037
   21  O  4  Y   -0.000004   0.000051   0.001561  -0.000809  -0.002488
   22  O  4  Z    0.000022   0.000237  -0.000028  -0.000699   0.000103
   23  H  5  S   -0.000067   0.000349   0.000187   0.000548   0.000246
   24  H  5  S    0.000271  -0.001108   0.000908  -0.000197  -0.002642
   25  H  6  S   -0.000068   0.000349  -0.000533   0.000479   0.000198
   26  H  6  S    0.000273  -0.001105  -0.002510   0.002673   0.005965
   27  O  7  S    0.001176  -0.000363  -0.575014   0.413245  -0.675885
   28  O  7  S    0.001046  -0.000341  -0.057867   0.041504  -0.066063
   29  O  7  X   -0.000551   0.000064   0.000207  -0.000147   0.000252
   30  O  7  Y   -0.000550   0.000017  -0.000796   0.000678  -0.000477
   31  O  7  Z   -0.000035   0.000012  -0.000414   0.000422   0.000437
   32  O  7  S   -0.002118   0.001009   0.026541  -0.018871   0.025578
   33  O  7  X    0.002238  -0.000359  -0.000067   0.000062  -0.000165
   34  O  7  Y    0.002338  -0.000142   0.001599  -0.001807  -0.000160
   35  O  7  Z    0.000109   0.000164   0.002698  -0.002561  -0.001551
   36  H  8  S    0.000189  -0.000208  -0.001857   0.001249  -0.001517
   37  H  8  S   -0.000677   0.000345  -0.001926   0.001464  -0.004002
   38  H  9  S    0.002667   0.000284  -0.000360   0.000729  -0.000243
   39  H  9  S    0.008466  -0.002204  -0.004204   0.000961  -0.005672
   40  O 10  S   -0.000171   0.000128   0.000601   0.006684  -0.005676
   41  O 10  S   -0.000178   0.000138   0.000154   0.001681  -0.001421
   42  O 10  X   -0.000037   0.000035   0.000112  -0.000318   0.000210
   43  O 10  Y    0.000006   0.000000  -0.000613  -0.000274  -0.000326
   44  O 10  Z    0.000056  -0.000023   0.000126  -0.000148   0.000223
   45  O 10  S    0.000734  -0.000532  -0.000390  -0.003075   0.002911
   46  O 10  X   -0.000039  -0.000055  -0.000501   0.001691  -0.001277
   47  O 10  Y   -0.000056  -0.000005   0.002997   0.001426   0.001737
   48  O 10  Z   -0.000235   0.000016  -0.000695   0.000786  -0.000934
   49  H 11  S   -0.000088  -0.000078  -0.000122   0.000754  -0.000067
   50  H 11  S    0.000513   0.000453   0.000504  -0.003120   0.000273
   51  H 12  S    0.000339  -0.000110  -0.000349   0.000735  -0.000239
   52  H 12  S   -0.001072   0.000406  -0.004108   0.000996  -0.005666
   53  O 13  S   -0.000211   0.001228  -0.497839   0.471651   0.696144
   54  O 13  S   -0.000212   0.001075  -0.050155   0.047423   0.068119
   55  O 13  X   -0.000004  -0.000534   0.000231  -0.000213  -0.000217
   56  O 13  Y   -0.000048  -0.000462  -0.000480   0.000474   0.000648
   57  O 13  Z    0.000016   0.000326   0.000763  -0.000622   0.000162
   58  O 13  S    0.000746  -0.002207   0.023124  -0.021719  -0.026549
   59  O 13  X   -0.000102   0.002181  -0.000363   0.000314   0.000001
   60  O 13  Y    0.000054   0.001997   0.000341  -0.000371  -0.000535
   61  O 13  Z   -0.000217  -0.001318  -0.003421   0.002819  -0.001355
   62  H 14  S    0.000403   0.000355  -0.002286   0.001685   0.000075
   63  H 14  S   -0.001633  -0.001433  -0.010126   0.009196   0.000122
   64  H 15  S   -0.000184   0.000203  -0.001576   0.001523   0.001584
   65  H 15  S    0.000261  -0.000703  -0.001640   0.001591   0.004065
   66  O 16  S    0.001174  -0.000365   0.595741   0.727989  -0.021941
   67  O 16  S    0.001043  -0.000343   0.059424   0.072468  -0.002124
   68  O 16  X   -0.000682   0.000065  -0.000018  -0.000008  -0.000021
   69  O 16  Y    0.000301   0.000008  -0.000588  -0.000760   0.000039
   70  O 16  Z   -0.000225   0.000013   0.000490   0.000638  -0.000190
   71  O 16  S   -0.002108   0.001013  -0.025951  -0.031369   0.000741
   72  O 16  X    0.002797  -0.000394  -0.000127  -0.000236   0.000128
   73  O 16  Y   -0.001320   0.000090   0.000333   0.000670  -0.000241
   74  O 16  Z    0.000927   0.000117  -0.001886  -0.002595   0.000912
   75  H 17  S    0.000187  -0.000208   0.001728   0.002058   0.000053
   76  H 17  S   -0.000675   0.000348   0.002481   0.003136  -0.000187
   77  H 18  S    0.000338  -0.000110   0.000291   0.000700  -0.000431
   78  H 18  S   -0.001061   0.000407   0.004462   0.004192   0.001660
   79  O 19  S   -0.000209   0.001232   0.184275   0.209848  -0.157483
   80  O 19  S   -0.000210   0.001082   0.019169   0.021792  -0.015931
   81  O 19  X   -0.000019  -0.000668  -0.000021  -0.000014   0.000017
   82  O 19  Y    0.000047   0.000381  -0.000419  -0.000553   0.000158
   83  O 19  Z   -0.000006   0.000137  -0.000444  -0.000568  -0.000007
   84  O 19  S    0.000743  -0.002227  -0.010274  -0.011673   0.007540
   85  O 19  X   -0.000066   0.002762   0.000062   0.000022  -0.000056
   86  O 19  Y   -0.000167  -0.001650   0.001208   0.001830   0.000010
   87  O 19  Z   -0.000165  -0.000502   0.002449   0.003172  -0.000238
   88  H 20  S    0.000404   0.000356   0.001729   0.001802  -0.000368
   89  H 20  S   -0.001629  -0.001443   0.007098   0.009692  -0.001750
   90  H 21  S   -0.000184   0.000211   0.000786   0.000883  -0.000622
   91  H 21  S    0.000260  -0.000714   0.000077   0.000095  -0.000416
   92  O 22  S    0.060603   0.981444   0.000322  -0.000421  -0.000707
   93  O 22  S    0.007402   0.098913  -0.000299   0.000383   0.000664
   94  O 22  X   -0.000226   0.002455  -0.000022   0.000227   0.000003
   95  O 22  Y   -0.000201   0.000094  -0.000363   0.000215   0.000525
   96  O 22  Z   -0.000743  -0.001303   0.000016   0.000071   0.000010
   97  O 22  S   -0.006167  -0.044353   0.000967  -0.000914  -0.002327
   98  O 22  X    0.001141  -0.005493   0.000209  -0.001106  -0.000257
   99  O 22  Y    0.000990  -0.000230   0.001711  -0.001155  -0.002694
  100  O 22  Z    0.003628   0.002778  -0.000099  -0.000551   0.000220
  101  H 23  S    0.000610   0.002608   0.000195   0.000541   0.000237
  102  H 23  S   -0.001150   0.008676   0.000962  -0.000199  -0.002745
  103  H 24  S    0.000610   0.002609  -0.000535   0.000473   0.000197
  104  H 24  S   -0.001148   0.008635  -0.002534   0.002701   0.005964

                      6          7          8          9         10
                  -20.6187   -20.5858   -20.5851    -1.7153    -1.6770
                     A          A          A          A          A   
    1  O  1  S    0.000612   0.000090  -0.000157  -0.176657   0.161143
    2  O  1  S   -0.000597  -0.000095   0.000182   0.169190  -0.155824
    3  O  1  X   -0.000027   0.000020  -0.000051   0.047549  -0.046030
    4  O  1  Y    0.000150   0.000012  -0.000017   0.011924  -0.007294
    5  O  1  Z    0.000068   0.000040  -0.000040   0.020239  -0.000661
    6  O  1  S    0.002202   0.000463  -0.000833   0.568723  -0.521971
    7  O  1  X    0.000452   0.000054   0.000034   0.064773  -0.061734
    8  O  1  Y   -0.000732  -0.000041   0.000031   0.016194  -0.010162
    9  O  1  Z   -0.000052  -0.000228   0.000116   0.027315  -0.002522
   10  H  2  S    0.000062   0.000253  -0.000242   0.050473  -0.050954
   11  H  2  S   -0.003026  -0.000819   0.000855  -0.006276   0.010733
   12  H  3  S    0.000266  -0.000121  -0.000035   0.059346   0.003901
   13  H  3  S   -0.001176   0.000693   0.000201   0.001672   0.000369
   14  O  4  S    0.007819   0.474338   0.861498  -0.001221  -0.001287
   15  O  4  S    0.001950   0.048651   0.085684   0.001245   0.001827
   16  O  4  X   -0.000159  -0.001000  -0.002450  -0.000666  -0.000709
   17  O  4  Y   -0.000434  -0.000378  -0.000455  -0.000098  -0.000071
   18  O  4  Z    0.000336  -0.000993  -0.000331   0.000030   0.000180
   19  O  4  S   -0.003883  -0.024546  -0.037472   0.002656   0.000629
   20  O  4  X    0.001060   0.001789   0.005551  -0.000537  -0.000721
   21  O  4  Y    0.002275   0.001213   0.000868  -0.000291  -0.000255
   22  O  4  Z   -0.001531   0.004160   0.000002  -0.000925  -0.000634
   23  H  5  S    0.000626   0.001673   0.002113   0.000417   0.000241
   24  H  5  S    0.006495   0.002697   0.008336   0.002760   0.004734
   25  H  6  S    0.000470   0.001673   0.002110   0.000415   0.000235
   26  H  6  S   -0.000895   0.002690   0.008328   0.002751   0.004731
   27  O  7  S   -0.093737  -0.005010   0.004480  -0.009997   0.009410
   28  O  7  S   -0.008929   0.000214  -0.000245   0.008304  -0.007015
   29  O  7  X    0.000032   0.000580  -0.000345  -0.003022   0.002872
   30  O  7  Y   -0.000073  -0.000357   0.000168  -0.002392   0.002570
   31  O  7  Z    0.000046  -0.000116   0.000074   0.000949   0.000142
   32  O  7  S    0.002822  -0.001240   0.001643   0.031407  -0.032807
   33  O  7  X   -0.000030  -0.002316   0.001543  -0.007110   0.007371
   34  O  7  Y    0.000114   0.001509  -0.000743  -0.007374   0.007050
   35  O  7  Z   -0.000248   0.000535  -0.000110   0.000949  -0.001258
   36  H  8  S   -0.000049   0.000064  -0.000261   0.002833  -0.002344
   37  H  8  S   -0.000807  -0.000494   0.000642   0.001090  -0.002517
   38  H  9  S   -0.000249   0.000254  -0.000241   0.050386  -0.050862
   39  H  9  S    0.000312  -0.000824   0.000855  -0.006294   0.010754
   40  O 10  S   -0.004301   0.861665  -0.474036  -0.001318   0.001056
   41  O 10  S   -0.001071   0.086943  -0.046357   0.001416  -0.001597
   42  O 10  X    0.000012  -0.002036   0.001547  -0.000724   0.000607
   43  O 10  Y    0.000154  -0.000016   0.000242  -0.000096   0.000111
   44  O 10  Z    0.000066   0.001358  -0.000000   0.000069   0.000082
   45  O 10  S    0.002371  -0.040777   0.018520   0.002544  -0.000076
   46  O 10  X   -0.000275   0.004089  -0.003920  -0.000486   0.000552
   47  O 10  Y   -0.000827  -0.000309  -0.000967   0.000161  -0.000044
   48  O 10  Z   -0.000012  -0.004217  -0.001596   0.001089  -0.000609
   49  H 11  S    0.000275   0.002955   0.000859   0.000731   0.000056
   50  H 11  S   -0.001134   0.011635   0.003369  -0.002613  -0.000146
   51  H 12  S   -0.000252   0.002542  -0.000888   0.000402  -0.000138
   52  H 12  S    0.000247   0.006743  -0.005603   0.003340  -0.004375
   53  O 13  S    0.110032  -0.001772  -0.006412  -0.008905  -0.010773
   54  O 13  S    0.010499   0.000054   0.000326   0.007522   0.008184
   55  O 13  X   -0.000038   0.000313   0.000617  -0.002688  -0.003144
   56  O 13  Y    0.000129  -0.000171  -0.000259  -0.002196  -0.002445
   57  O 13  Z   -0.000044   0.000117   0.000199   0.000300   0.001544
   58  O 13  S   -0.003421  -0.000163  -0.002046   0.027537   0.037029
   59  O 13  X    0.000045  -0.001176  -0.002589  -0.006018  -0.008052
   60  O 13  Y   -0.000380   0.000637   0.001181  -0.005962  -0.007457
   61  O 13  Z    0.000142  -0.000631  -0.000722   0.002693   0.002933
   62  H 14  S   -0.000047   0.000504   0.000148   0.001386   0.000154
   63  H 14  S    0.000505  -0.002186  -0.000631   0.008969   0.000528
   64  H 15  S    0.000076  -0.000084   0.000256   0.002606   0.002783
   65  H 15  S    0.000908  -0.000071  -0.000807   0.000737   0.002604
   66  O 16  S   -0.285766  -0.004942   0.004442  -0.009959   0.009372
   67  O 16  S   -0.026978   0.000215  -0.000247   0.008270  -0.006979
   68  O 16  X    0.000076   0.000456  -0.000285  -0.003621   0.003459
   69  O 16  Y    0.000271   0.000425  -0.000213   0.001565  -0.001306
   70  O 16  Z    0.000589  -0.000291   0.000158   0.000079   0.000995
   71  O 16  S    0.008041  -0.001225   0.001637   0.031283  -0.032690
   72  O 16  X   -0.000247  -0.001798   0.001259  -0.008959   0.009138
   73  O 16  Y   -0.000307  -0.001735   0.001036   0.004675  -0.004461
   74  O 16  Z   -0.003227   0.001262  -0.000505  -0.001738   0.001294
   75  H 17  S   -0.000307   0.000060  -0.000257   0.002827  -0.002336
   76  H 17  S   -0.002555  -0.000486   0.000638   0.001078  -0.002516
   77  H 18  S    0.000062   0.002543  -0.000888   0.000399  -0.000134
   78  H 18  S   -0.003053   0.006711  -0.005582   0.003299  -0.004340
   79  O 19  S    0.929636  -0.001825  -0.006550  -0.008928  -0.010806
   80  O 19  S    0.091760   0.000051   0.000313   0.007543   0.008213
   81  O 19  X   -0.000055   0.000243   0.000502  -0.003246  -0.003839
   82  O 19  Y   -0.000979   0.000287   0.000484   0.001254   0.001859
   83  O 19  Z    0.000125   0.000013   0.000033  -0.000458   0.000597
   84  O 19  S   -0.037741  -0.000169  -0.002046   0.027612   0.037138
   85  O 19  X   -0.000042  -0.000902  -0.002092  -0.007677  -0.010075
   86  O 19  Y    0.001066  -0.001154  -0.002070   0.004534   0.005339
   87  O 19  Z    0.000406  -0.000226   0.000003   0.000354   0.000095
   88  H 20  S    0.001304   0.000502   0.000147   0.001380   0.000140
   89  H 20  S    0.006322  -0.002180  -0.000640   0.008972   0.000542
   90  H 21  S    0.002351  -0.000084   0.000254   0.002602   0.002777
   91  H 21  S    0.004728  -0.000074  -0.000806   0.000762   0.002633
   92  O 22  S   -0.001142  -0.000009   0.000184  -0.155540  -0.181282
   93  O 22  S    0.001072   0.000018  -0.000204   0.148613   0.174902
   94  O 22  X    0.000300  -0.000012   0.000048   0.039140   0.050547
   95  O 22  Y   -0.000373  -0.000004  -0.000006   0.000204   0.005284
   96  O 22  Z    0.000308  -0.000011  -0.000064  -0.026824  -0.012216
   97  O 22  S   -0.003547  -0.000055   0.000951   0.500372   0.586665
   98  O 22  X   -0.001833   0.000077   0.000021   0.053430   0.067781
   99  O 22  Y    0.001905   0.000037   0.000049   0.000347   0.006707
  100  O 22  Z   -0.001317   0.000119   0.000220  -0.036098  -0.017770
  101  H 23  S    0.000623   0.000086   0.000341   0.044016   0.056819
  102  H 23  S    0.006503  -0.000240  -0.001169  -0.004612  -0.011101
  103  H 24  S    0.000457   0.000085   0.000341   0.044095   0.056925
  104  H 24  S   -0.001000  -0.000233  -0.001158  -0.004598  -0.011036

                     11         12         13         14         15
                   -1.5126    -1.4978    -1.4709    -1.4705    -1.4556
                     A          A          A          A          A   
    1  O  1  S    0.016458   0.000049  -0.018841  -0.008758   0.000186
    2  O  1  S   -0.015185  -0.000043   0.017618   0.008100  -0.000177
    3  O  1  X    0.001116   0.001914  -0.000999  -0.001525  -0.002064
    4  O  1  Y   -0.000805  -0.012321   0.000350   0.000630   0.013496
    5  O  1  Z   -0.004414   0.002747   0.002540   0.003283  -0.003076
    6  O  1  S   -0.061626  -0.000193   0.070732   0.033175  -0.000690
    7  O  1  X   -0.000485   0.001421   0.000683  -0.001004  -0.001736
    8  O  1  Y   -0.000820  -0.009177   0.000294   0.000756   0.011334
    9  O  1  Z   -0.003360   0.002054   0.001094   0.003585  -0.002601
   10  H  2  S    0.004308   0.016090  -0.005150  -0.005229  -0.018366
   11  H  2  S    0.010799   0.013043  -0.012450  -0.004626  -0.010210
   12  H  3  S   -0.009210  -0.000001   0.001161   0.007686  -0.000118
   13  H  3  S   -0.000574   0.000004  -0.000523  -0.003042   0.000042
   14  O  4  S   -0.102558   0.000039  -0.127086  -0.104388   0.001106
   15  O  4  S    0.092998  -0.000038   0.115333   0.094120  -0.001001
   16  O  4  X   -0.029301   0.001027  -0.037363  -0.023356   0.001335
   17  O  4  Y   -0.006701  -0.006492  -0.005965  -0.006856  -0.006988
   18  O  4  Z   -0.009618   0.001442  -0.000538  -0.014182   0.001715
   19  O  4  S    0.323161  -0.000111   0.408096   0.339244  -0.003602
   20  O  4  X   -0.040730   0.000851  -0.050395  -0.033556   0.001401
   21  O  4  Y   -0.009837  -0.005330  -0.009330  -0.009695  -0.006753
   22  O  4  Z   -0.015619   0.001189  -0.006414  -0.019722   0.001732
   23  H  5  S    0.042915   0.011872   0.054945   0.028379   0.013731
   24  H  5  S    0.010662   0.007815   0.009084   0.000188   0.005479
   25  H  6  S    0.042979  -0.011940   0.054847   0.028213  -0.014289
   26  H  6  S    0.010692  -0.007853   0.009052   0.000109  -0.005478
   27  O  7  S   -0.086358   0.115512   0.099513   0.060469  -0.119667
   28  O  7  S    0.079191  -0.106175  -0.091360  -0.055964   0.110101
   29  O  7  X    0.000786   0.004624   0.000796   0.007628  -0.005744
   30  O  7  Y    0.011970  -0.019494  -0.012690  -0.015578   0.017477
   31  O  7  Z    0.001141  -0.001254   0.009682  -0.001982  -0.013866
   32  O  7  S    0.272188  -0.365554  -0.318303  -0.192748   0.384118
   33  O  7  X    0.001828   0.006043  -0.000221   0.010920  -0.007241
   34  O  7  Y    0.009967  -0.017898  -0.010987  -0.017378   0.015113
   35  O  7  Z    0.006683  -0.008961   0.004227  -0.006907  -0.007754
   36  H  8  S    0.037474  -0.051753  -0.047253  -0.028711   0.058956
   37  H  8  S    0.007720  -0.010998  -0.010157  -0.006530   0.012770
   38  H  9  S    0.004344  -0.016076  -0.005313  -0.004894   0.018562
   39  H  9  S    0.010812  -0.012969  -0.012524  -0.004421   0.010403
   40  O 10  S   -0.103400  -0.000192   0.085602  -0.140728   0.001156
   41  O 10  S    0.093771   0.000176  -0.077890   0.127141  -0.001048
   42  O 10  X   -0.028354   0.000972   0.027732  -0.032756  -0.000858
   43  O 10  Y   -0.001260  -0.006565   0.004265  -0.000846   0.006968
   44  O 10  Z    0.014345   0.001479  -0.000370   0.019079  -0.001732
   45  O 10  S    0.325830   0.000593  -0.273616   0.455798  -0.003758
   46  O 10  X   -0.039181   0.000762   0.036223  -0.045877  -0.000724
   47  O 10  Y   -0.001187  -0.005390   0.004424  -0.000802   0.006753
   48  O 10  Z    0.022209   0.001241  -0.005519   0.028443  -0.001772
   49  H 11  S    0.039942   0.000030   0.008976   0.053058  -0.000505
   50  H 11  S    0.013756   0.000009   0.002119   0.012269  -0.000097
   51  H 12  S    0.043340  -0.011961  -0.042445   0.044872   0.013565
   52  H 12  S    0.010782  -0.007870  -0.008470   0.003111   0.005403
   53  O 13  S   -0.085784   0.115132  -0.074466   0.090962   0.119104
   54  O 13  S    0.078677  -0.105847   0.068224  -0.083947  -0.109590
   55  O 13  X    0.000491   0.004970   0.002595   0.007604   0.004502
   56  O 13  Y    0.010234  -0.017079   0.010587  -0.017953  -0.021870
   57  O 13  Z   -0.006614   0.009571   0.005260   0.006630  -0.004935
   58  O 13  S    0.270339  -0.364289   0.238410  -0.290309  -0.382310
   59  O 13  X    0.001081   0.007008   0.004377   0.010970   0.006405
   60  O 13  Y    0.006040  -0.012365   0.007039  -0.016184  -0.017135
   61  O 13  Z   -0.010829   0.015702   0.002742   0.012747  -0.000561
   62  H 14  S    0.037474  -0.051899  -0.005890  -0.036829  -0.000125
   63  H 14  S    0.013000  -0.014698  -0.000635  -0.003780   0.000011
   64  H 15  S    0.037210  -0.051563   0.035345  -0.043180  -0.058646
   65  H 15  S    0.007656  -0.010932   0.007483  -0.009619  -0.012685
   66  O 16  S   -0.086616  -0.116553   0.099071   0.063060   0.117834
   67  O 16  S    0.079444   0.107159  -0.090969  -0.058366  -0.108426
   68  O 16  X    0.004096   0.001127  -0.003486   0.002893  -0.000468
   69  O 16  Y   -0.009720  -0.017846   0.015232   0.015283   0.022208
   70  O 16  Z    0.006141   0.009790   0.003271  -0.008843   0.004808
   71  O 16  S    0.273012   0.368851  -0.316932  -0.201023  -0.378298
   72  O 16  X    0.004155  -0.001196  -0.003632   0.005889   0.001972
   73  O 16  Y   -0.005390  -0.013671   0.011238   0.015672   0.018113
   74  O 16  Z    0.010306   0.016297  -0.000948  -0.014402   0.000194
   75  H 17  S    0.037601   0.052240  -0.047057  -0.029955  -0.058071
   76  H 17  S    0.007724   0.011070  -0.010097  -0.006793  -0.012559
   77  H 18  S    0.043360   0.012124  -0.042374   0.044693  -0.014141
   78  H 18  S    0.010770   0.007942  -0.008462   0.002995  -0.005425
   79  O 19  S   -0.085272  -0.114247  -0.075614   0.088678  -0.121001
   80  O 19  S    0.078204   0.105023   0.069287  -0.081836   0.111344
   81  O 19  X    0.003774   0.000668   0.005136   0.001791   0.001519
   82  O 19  Y   -0.011244  -0.019889  -0.006236   0.020009  -0.018355
   83  O 19  Z   -0.001640  -0.001111   0.009193  -0.001880   0.014138
   84  O 19  S    0.268715   0.361482   0.242018  -0.282995   0.388309
   85  O 19  X    0.003390  -0.002255   0.005928   0.005085  -0.001486
   86  O 19  Y   -0.009204  -0.018943  -0.003663   0.022005  -0.016624
   87  O 19  Z   -0.007197  -0.008427   0.005315   0.004039   0.008284
   88  H 20  S    0.037392   0.051896  -0.005833  -0.036820   0.000599
   89  H 20  S    0.012951   0.014669  -0.000439  -0.003784   0.000240
   90  H 21  S    0.036971   0.051141   0.035882  -0.042075   0.059560
   91  H 21  S    0.007608   0.010859   0.007582  -0.009386   0.012883
   92  O 22  S    0.016578  -0.000045   0.015353  -0.014434   0.000186
   93  O 22  S   -0.015289   0.000039  -0.014368   0.013394  -0.000179
   94  O 22  X    0.001393   0.001888   0.000538  -0.001987   0.002149
   95  O 22  Y    0.001152  -0.012008   0.000295  -0.001218  -0.013426
   96  O 22  Z    0.004209   0.002676   0.001416  -0.003636   0.003054
   97  O 22  S   -0.061884   0.000182  -0.057410   0.054360  -0.000671
   98  O 22  X   -0.000292   0.001400  -0.001042  -0.000956   0.001797
   99  O 22  Y    0.000717  -0.008915  -0.000215  -0.001025  -0.011252
  100  O 22  Z    0.003453   0.002005   0.000196  -0.003644   0.002587
  101  H 23  S    0.004098   0.015764   0.003376  -0.006154   0.018611
  102  H 23  S    0.010615   0.012775   0.010474  -0.008096   0.010469
  103  H 24  S    0.004091  -0.015755   0.003125  -0.006406  -0.018398
  104  H 24  S    0.010619  -0.012860   0.010339  -0.008300  -0.010319

                     16         17         18         19         20
                   -1.4275    -1.0470    -1.0148    -0.9994    -0.9160
                     A          A          A          A          A   
    1  O  1  S    0.012512   0.012119  -0.000027  -0.000007   0.045413
    2  O  1  S   -0.012322  -0.013842   0.000030   0.000008  -0.052856
    3  O  1  X    0.001486  -0.086256  -0.050133   0.039986   0.290713
    4  O  1  Y   -0.000094   0.057579   0.323682  -0.261011   0.062269
    5  O  1  Z   -0.001769   0.311832  -0.072333   0.059367   0.077958
    6  O  1  S   -0.045108  -0.043090   0.000125   0.000003  -0.171007
    7  O  1  X    0.000579  -0.085143  -0.051045   0.040400   0.319004
    8  O  1  Y   -0.000076   0.059501   0.329516  -0.263809   0.071263
    9  O  1  Z   -0.001039   0.319649  -0.073642   0.060008   0.098554
   10  H  2  S    0.006338  -0.057531  -0.129984   0.107336   0.053940
   11  H  2  S    0.005707  -0.031113  -0.086066   0.059670   0.046001
   12  H  3  S    0.000080   0.168873  -0.000130   0.000532  -0.002080
   13  H  3  S    0.000003   0.123936  -0.000106   0.000519  -0.025412
   14  O  4  S   -0.128328  -0.000548   0.000007   0.000000   0.006266
   15  O  4  S    0.116814   0.000274  -0.000003   0.000001  -0.006361
   16  O  4  X   -0.032823   0.001301   0.000465   0.000528  -0.014953
   17  O  4  Y   -0.005011  -0.000131  -0.002989  -0.003328  -0.001081
   18  O  4  Z    0.000197  -0.001485   0.000671   0.000741   0.005332
   19  O  4  S    0.420389   0.003284  -0.000041  -0.000005  -0.024766
   20  O  4  X   -0.044496   0.000810   0.000273   0.000457  -0.018433
   21  O  4  Y   -0.007775  -0.000001  -0.001730  -0.002849  -0.002271
   22  O  4  Z   -0.003967  -0.000588   0.000386   0.000636   0.002425
   23  H  5  S    0.041811   0.000244   0.001980   0.002731   0.004022
   24  H  5  S    0.000349  -0.003566   0.005653   0.004228   0.009374
   25  H  6  S    0.041991   0.000244  -0.001967  -0.002709   0.004088
   26  H  6  S    0.000396  -0.003583  -0.005595  -0.004225   0.009410
   27  O  7  S   -0.080060  -0.002763   0.009653  -0.007561   0.003641
   28  O  7  S    0.074855   0.002994  -0.009425   0.007989  -0.004699
   29  O  7  X   -0.008859   0.009181  -0.033224   0.025248  -0.007953
   30  O  7  Y    0.016783   0.018515  -0.050839   0.040000  -0.071527
   31  O  7  Z   -0.010239   0.004450   0.016076  -0.014341   0.101204
   32  O  7  S    0.256339   0.008269  -0.034787   0.025434  -0.009845
   33  O  7  X   -0.012515   0.009062  -0.035818   0.028050  -0.011989
   34  O  7  Y    0.017935   0.018521  -0.053210   0.041961  -0.085009
   35  O  7  Z   -0.006754   0.005083   0.015662  -0.014566   0.107325
   36  H  8  S    0.042521   0.006450  -0.028129   0.023862  -0.071954
   37  H  8  S    0.008130   0.002028  -0.016376   0.011890  -0.051367
   38  H  9  S    0.006507  -0.056542   0.129975  -0.107740   0.053606
   39  H  9  S    0.005781  -0.030667   0.086175  -0.060051   0.045865
   40  O 10  S    0.127323  -0.000557  -0.000013   0.000004   0.007723
   41  O 10  S   -0.115911   0.000283   0.000011  -0.000005  -0.007501
   42  O 10  X    0.032346   0.001455   0.000592  -0.000399  -0.017850
   43  O 10  Y    0.004044   0.000504  -0.003709   0.002563  -0.003455
   44  O 10  Z   -0.004978   0.001265   0.000833  -0.000569  -0.003070
   45  O 10  S   -0.417117   0.003317   0.000055  -0.000007  -0.031781
   46  O 10  X    0.043425   0.000882   0.000376  -0.000370  -0.021438
   47  O 10  Y    0.004445   0.000240  -0.002360   0.002389  -0.003241
   48  O 10  Z   -0.010927   0.000460   0.000535  -0.000536   0.000606
   49  H 11  S    0.000247   0.000880   0.000004   0.000001  -0.009757
   50  H 11  S    0.000069   0.004222  -0.000006   0.000015  -0.009172
   51  H 12  S   -0.041542   0.000246  -0.002620   0.002234   0.004513
   52  H 12  S   -0.000355  -0.003591  -0.006490   0.002784   0.012452
   53  O 13  S    0.080382  -0.002695   0.007385   0.009336   0.003280
   54  O 13  S   -0.075165   0.002954  -0.007093  -0.009713  -0.003877
   55  O 13  X    0.008112   0.008312  -0.026822  -0.032924  -0.010905
   56  O 13  Y   -0.019931   0.014392  -0.041291  -0.053176  -0.090807
   57  O 13  Z   -0.002321  -0.012924   0.009364   0.009351  -0.059692
   58  O 13  S   -0.257382   0.007938  -0.027010  -0.031913  -0.010111
   59  O 13  X    0.012094   0.008205  -0.028660  -0.036258  -0.014008
   60  O 13  Y   -0.019578   0.014222  -0.042800  -0.055481  -0.102899
   61  O 13  Z    0.001091  -0.013395   0.010777   0.010661  -0.059703
   62  H 14  S   -0.000280   0.007267  -0.008636  -0.000849   0.043442
   63  H 14  S    0.000052   0.015333   0.002151   0.000498   0.062234
   64  H 15  S   -0.042660   0.006425  -0.022003  -0.030106  -0.062448
   65  H 15  S   -0.008156   0.002008  -0.013334  -0.015709  -0.045424
   66  O 16  S   -0.079554  -0.002799  -0.009571   0.007497   0.003625
   67  O 16  S    0.074404   0.003040   0.009358  -0.007928  -0.004699
   68  O 16  X   -0.002951   0.014054   0.047254  -0.036283  -0.034842
   69  O 16  Y   -0.021257  -0.011615  -0.040732   0.032906   0.101618
   70  O 16  Z   -0.001554   0.011198   0.004594  -0.001969   0.062029
   71  O 16  S    0.254745   0.008360   0.034476  -0.025225  -0.009769
   72  O 16  X   -0.006318   0.013930   0.050402  -0.039546  -0.042979
   73  O 16  Y   -0.021919  -0.011416  -0.041854   0.033880   0.114605
   74  O 16  Z    0.002368   0.011770   0.005791  -0.002410   0.062151
   75  H 17  S    0.042263   0.006583   0.027979  -0.023706  -0.071861
   76  H 17  S    0.008076   0.002081   0.016286  -0.011805  -0.051268
   77  H 18  S   -0.041746   0.000254   0.002594  -0.002215   0.004487
   78  H 18  S   -0.000397  -0.003561   0.006460  -0.002811   0.012242
   79  O 19  S    0.080871  -0.002681  -0.007480  -0.009463   0.003276
   80  O 19  S   -0.075613   0.002931   0.007174   0.009831  -0.003850
   81  O 19  X    0.002255   0.012744   0.038231   0.047693  -0.032527
   82  O 19  Y    0.018547  -0.015223  -0.031752  -0.040455   0.049796
   83  O 19  Z   -0.011110  -0.006248   0.007120   0.011605  -0.090745
   84  O 19  S   -0.258908   0.007931   0.027377   0.032373  -0.010140
   85  O 19  X    0.005972   0.012584   0.040477   0.051599  -0.038892
   86  O 19  Y    0.020746  -0.015284  -0.033075  -0.041988   0.059231
   87  O 19  Z   -0.008157  -0.006759   0.006350   0.011163  -0.095606
   88  H 20  S   -0.000212   0.007263   0.008640   0.000958   0.043170
   89  H 20  S   -0.000132   0.015316  -0.002152  -0.000253   0.061914
   90  H 21  S   -0.042907   0.006297   0.022039   0.030219  -0.062050
   91  H 21  S   -0.008208   0.001946   0.013346   0.015751  -0.045193
   92  O 22  S   -0.012736   0.012833   0.000040   0.000038   0.033205
   93  O 22  S    0.012515  -0.014347  -0.000039  -0.000031  -0.039973
   94  O 22  X   -0.001602  -0.114681  -0.039638  -0.052126   0.196166
   95  O 22  Y   -0.000540  -0.082512   0.253294   0.327628   0.003352
   96  O 22  Z   -0.001628  -0.284411  -0.056144  -0.074160  -0.123756
   97  O 22  S    0.045861  -0.046164  -0.000159  -0.000169  -0.121348
   98  O 22  X   -0.000621  -0.114215  -0.040441  -0.052824   0.215462
   99  O 22  Y   -0.000244  -0.084112   0.258499   0.331901   0.000582
  100  O 22  Z   -0.001060  -0.291884  -0.057290  -0.075119  -0.149994
  101  H 23  S   -0.006458  -0.055840  -0.101528  -0.135184   0.033913
  102  H 23  S   -0.005765  -0.030084  -0.070408  -0.079366   0.033878
  103  H 24  S   -0.006283  -0.056753   0.101719   0.134824   0.033979
  104  H 24  S   -0.005752  -0.030487   0.070396   0.078966   0.033605

                     21         22         23         24         25
                   -0.9070    -0.8954    -0.8853    -0.8680    -0.8531
                     A          A          A          A          A   
    1  O  1  S   -0.041194   0.000067   0.021010   0.005069  -0.000052
    2  O  1  S    0.040509  -0.000040  -0.026363  -0.012396   0.000058
    3  O  1  X   -0.250482   0.005452   0.177774   0.128354  -0.001169
    4  O  1  Y   -0.004085  -0.033460   0.049127   0.095364   0.003433
    5  O  1  Z    0.156335   0.006375   0.097326   0.338052  -0.001268
    6  O  1  S    0.176338  -0.000364  -0.072016   0.003206   0.000203
    7  O  1  X   -0.270498   0.005368   0.191403   0.140839  -0.000905
    8  O  1  Y   -0.002776  -0.032873   0.055220   0.104867   0.001564
    9  O  1  Z    0.176080   0.006088   0.115029   0.371872  -0.000908
   10  H  2  S   -0.070756   0.010298   0.026228  -0.000496  -0.003981
   11  H  2  S   -0.047098   0.009569   0.022063  -0.017504  -0.000035
   12  H  3  S   -0.002101  -0.000004   0.010089  -0.003504  -0.000008
   13  H  3  S   -0.003925   0.000122  -0.034674   0.000179   0.000045
   14  O  4  S    0.006785  -0.000024  -0.004985  -0.002704  -0.000025
   15  O  4  S   -0.005623   0.000014   0.005664   0.001898   0.000028
   16  O  4  X   -0.012458  -0.009583   0.001014   0.006722  -0.030758
   17  O  4  Y   -0.001039   0.062212   0.005070   0.000335   0.198759
   18  O  4  Z    0.003160  -0.014016   0.020847  -0.004646  -0.044655
   19  O  4  S   -0.031429   0.000126   0.016751   0.014373   0.000069
   20  O  4  X   -0.014882  -0.010090   0.005404   0.007326  -0.030893
   21  O  4  Y   -0.001599   0.065443   0.006155   0.000608   0.199751
   22  O  4  Z    0.002353  -0.014735   0.022740  -0.003858  -0.044915
   23  H  5  S    0.002728  -0.035343   0.002374  -0.002585  -0.108270
   24  H  5  S    0.012300  -0.030172   0.007600  -0.008803  -0.111388
   25  H  6  S    0.002937   0.035253   0.002627  -0.002247   0.108087
   26  H  6  S    0.012529   0.029951   0.007949  -0.008460   0.111221
   27  O  7  S   -0.000696   0.002882  -0.002241  -0.002204  -0.003755
   28  O  7  S    0.002019  -0.003725   0.002491   0.000043   0.003437
   29  O  7  X    0.019911   0.043324  -0.028447   0.003086   0.078482
   30  O  7  Y    0.056645  -0.042646  -0.004338  -0.013939  -0.079500
   31  O  7  Z   -0.007418   0.179630  -0.164489   0.024383  -0.077029
   32  O  7  S   -0.002076  -0.006798   0.006422   0.014980   0.016501
   33  O  7  X    0.023490   0.046812  -0.032906  -0.000993   0.088359
   34  O  7  Y    0.064487  -0.047100  -0.008499  -0.020595  -0.088186
   35  O  7  Z   -0.006635   0.189598  -0.173208   0.031264  -0.082459
   36  H  8  S    0.025575  -0.100355   0.074168  -0.015397  -0.004338
   37  H  8  S    0.015092  -0.071396   0.052549  -0.009838  -0.002910
   38  H  9  S   -0.070790  -0.009952   0.026009  -0.000650   0.003798
   39  H  9  S   -0.047184  -0.009386   0.021838  -0.017828  -0.000091
   40  O 10  S   -0.004548  -0.000014  -0.005240   0.002748   0.000071
   41  O 10  S    0.003375   0.000025   0.005917  -0.002059  -0.000070
   42  O 10  X    0.007488  -0.009845  -0.000555  -0.003191  -0.033172
   43  O 10  Y    0.001462   0.063149  -0.004405   0.000533   0.210515
   44  O 10  Z    0.000705  -0.014005  -0.020920   0.003045  -0.046791
   45  O 10  S    0.022524   0.000016   0.017718  -0.013938  -0.000277
   46  O 10  X    0.008639  -0.010328   0.003712  -0.003951  -0.033348
   47  O 10  Y    0.001651   0.066391  -0.004276   0.000636   0.211570
   48  O 10  Z    0.000600  -0.014724  -0.023458   0.004117  -0.047012
   49  H 11  S   -0.001428   0.000084  -0.008825   0.002473   0.000120
   50  H 11  S   -0.000963   0.000089  -0.024893   0.003827   0.000111
   51  H 12  S   -0.001379   0.035835   0.002465   0.000592   0.114971
   52  H 12  S   -0.009493   0.030539   0.007785   0.005497   0.117296
   53  O 13  S    0.001554   0.003094  -0.002298   0.002537  -0.003392
   54  O 13  S   -0.003133  -0.003909   0.002704  -0.000337   0.003196
   55  O 13  X   -0.021946   0.026362  -0.013435   0.001285   0.081838
   56  O 13  Y   -0.085703  -0.117335   0.066516   0.022338  -0.032184
   57  O 13  Z   -0.004888  -0.145669   0.152640  -0.002458   0.096906
   58  O 13  S   -0.000143  -0.007759   0.006297  -0.016212   0.014658
   59  O 13  X   -0.026042   0.028961  -0.016525   0.006673   0.091759
   60  O 13  Y   -0.096034  -0.125633   0.067260   0.032505  -0.037286
   61  O 13  Z   -0.000871  -0.152849   0.163098  -0.001367   0.104537
   62  H 14  S    0.009313   0.105354  -0.109058   0.006405  -0.066638
   63  H 14  S    0.011790   0.116479  -0.111765   0.005865  -0.071720
   64  H 15  S   -0.048785  -0.099638   0.072679   0.010330   0.000059
   65  H 15  S   -0.031734  -0.070908   0.051509   0.006371   0.000171
   66  O 16  S   -0.000693  -0.002904  -0.002299  -0.002182   0.003843
   67  O 16  S    0.002015   0.003751   0.002562   0.000034  -0.003524
   68  O 16  X    0.035676  -0.017588  -0.018078  -0.002968  -0.056541
   69  O 16  Y   -0.046726  -0.124657  -0.074347   0.022863  -0.057937
   70  O 16  Z    0.014689  -0.142235  -0.149560   0.016053   0.108873
   71  O 16  S   -0.002089   0.006904   0.006617   0.014838  -0.016843
   72  O 16  X    0.041292  -0.019002  -0.023002  -0.009241  -0.063751
   73  O 16  Y   -0.052173  -0.133663  -0.075757   0.030253  -0.065977
   74  O 16  Z    0.018400  -0.149132  -0.158867   0.019739   0.118097
   75  H 17  S    0.026120   0.100434   0.074765  -0.015288   0.003775
   76  H 17  S    0.015475   0.071487   0.052991  -0.009757   0.002455
   77  H 18  S   -0.001512  -0.035893   0.002086   0.000230  -0.114913
   78  H 18  S   -0.009526  -0.030483   0.007502   0.005043  -0.117084
   79  O 19  S    0.001595  -0.003017  -0.002198   0.002537   0.003368
   80  O 19  S   -0.003159   0.003834   0.002601  -0.000328  -0.003179
   81  O 19  X   -0.045352  -0.000835  -0.003945   0.007600  -0.062780
   82  O 19  Y    0.065095  -0.048096   0.002703  -0.020161  -0.092414
   83  O 19  Z   -0.037515   0.182309   0.166785   0.007228  -0.068825
   84  O 19  S   -0.000337   0.007408   0.005880  -0.016256  -0.014524
   85  O 19  X   -0.052435  -0.001335  -0.007344   0.015559  -0.070320
   86  O 19  Y    0.074401  -0.053075   0.005510  -0.026900  -0.102863
   87  O 19  Z   -0.037867   0.192449   0.176797   0.012151  -0.072996
   88  H 20  S    0.008501  -0.105169  -0.109167   0.006397   0.066836
   89  H 20  S    0.010810  -0.116326  -0.111892   0.005944   0.071901
   90  H 21  S   -0.048034   0.099695   0.072662   0.010493   0.000223
   91  H 21  S   -0.031231   0.070923   0.051462   0.006511   0.000064
   92  O 22  S    0.049665  -0.000235   0.022829  -0.011629   0.000038
   93  O 22  S   -0.050385   0.000234  -0.026986   0.020035  -0.000044
   94  O 22  X    0.314545   0.003740   0.167774  -0.129926  -0.000409
   95  O 22  Y    0.069861  -0.034238   0.011908   0.065188   0.005051
   96  O 22  Z    0.092349   0.007178  -0.065948   0.384376  -0.001607
   97  O 22  S   -0.208226   0.000999  -0.083650   0.021676  -0.000141
   98  O 22  X    0.341582   0.003526   0.179774  -0.142830  -0.000125
   99  O 22  Y    0.076518  -0.033602   0.010662   0.072232   0.003414
  100  O 22  Z    0.103008   0.007020  -0.079898   0.425035  -0.001279
  101  H 23  S    0.081090   0.010169   0.030586  -0.005016  -0.004068
  102  H 23  S    0.057041   0.009568   0.027678   0.011720  -0.000051
  103  H 24  S    0.080999  -0.010959   0.030720  -0.004909   0.004179
  104  H 24  S    0.056749  -0.010200   0.027746   0.011664   0.000070

                     26         27         28         29         30
                   -0.8479    -0.8422    -0.7960    -0.7548    -0.7516
                     A          A          A          A          A   
    1  O  1  S    0.000000  -0.003036  -0.003366   0.005186   0.000163
    2  O  1  S    0.000014   0.005236   0.007042   0.000470  -0.000008
    3  O  1  X   -0.003967  -0.055154  -0.127974  -0.089981   0.012082
    4  O  1  Y    0.024771  -0.009172  -0.017958  -0.010293  -0.095038
    5  O  1  Z   -0.005567  -0.002100   0.008963   0.004802   0.021416
    6  O  1  S   -0.000057   0.003706  -0.005332  -0.050642  -0.001498
    7  O  1  X   -0.004565  -0.061246  -0.141487  -0.105745   0.015260
    8  O  1  Y    0.028388  -0.010281  -0.017984  -0.011236  -0.118451
    9  O  1  Z   -0.006375  -0.002805   0.018088   0.008492   0.026780
   10  H  2  S   -0.003399  -0.008969  -0.013061  -0.000113   0.004168
   11  H  2  S   -0.000702   0.006374   0.023928   0.041820  -0.033694
   12  H  3  S    0.000036   0.006406   0.000069   0.012845   0.000310
   13  H  3  S   -0.000015   0.004471  -0.000475   0.008201   0.000290
   14  O  4  S   -0.000082   0.004747  -0.033075   0.038085   0.001141
[...]
   15             0.000942   0.000021   0.000153   0.000102
   16             0.204976   0.200036   0.135046   0.016109
   17             0.000926   0.000034   0.000132   0.000104
   18             0.000977   0.002159   0.003035   0.002325
   19             0.230541   0.207875   0.139963   0.016368
   20             0.000001   0.000001   0.000001   0.000000
   21             0.001110   0.000021   0.000155   0.000103
   22             0.035029   0.000037   0.000675   0.000168
   23             0.005329   0.000026   0.000030   0.000085
   24             0.004800   0.000027   0.000028   0.000084

     ATOMIC SPIN POPULATION (ALPHA MINUS BETA)
       ATOM         MULL.POP.                    LOW.POP.
    1 O             0.677962                     0.630268
    2 H            -0.020075                    -0.015485
    3 H            -0.251172                    -0.174251
    4 O            -0.000648                    -0.000496
    5 H             0.000279                     0.000204
    6 H             0.000399                     0.000275
    7 O            -0.004388                    -0.004382
    8 H            -0.000395                    -0.000285
    9 H            -0.019865                    -0.015379
   10 O            -0.000646                    -0.000497
   11 H            -0.000061                    -0.000049
   12 H             0.000410                     0.000284
   13 O            -0.004132                    -0.004155
   14 H            -0.000139                    -0.000105
   15 H            -0.000441                    -0.000321
   16 O            -0.003390                    -0.003610
   17 H            -0.000613                    -0.000458
   18 H             0.000253                     0.000187
   19 O            -0.003511                    -0.003696
   20 H            -0.000690                    -0.000476
   21 H            -0.000550                    -0.000409
   22 O             0.671105                     0.623527
   23 H            -0.019853                    -0.015335
   24 H            -0.019838                    -0.015354


          ********* ALL ELECTRONS ********

               ----- POPULATIONS IN EACH AO -----
                             MULLIKEN      LOWDIN
              1  O  1  S      1.98654     1.98087
              2  O  1  S      0.43107     0.59571
              3  O  1  X      0.81617     0.81991
              4  O  1  Y      0.70958     0.70166
              5  O  1  Z      0.53436     0.52903
              6  O  1  S      1.51814     1.05380
              7  O  1  X      1.00030     0.97086
              8  O  1  Y      0.87751     0.84540
              9  O  1  Z      0.69646     0.69976
             10  H  2  S      0.30221     0.32034
             11  H  2  S      0.19776     0.35456
             12  H  3  S      0.33159     0.33996
             13  H  3  S      0.26839     0.39113
             14  O  4  S      1.98565     1.97949
             15  O  4  S      0.40459     0.56547
             16  O  4  X      0.74705     0.75268
             17  O  4  Y      0.63511     0.62408
             18  O  4  Z      0.72620     0.73114
             19  O  4  S      1.50239     1.04593
             20  O  4  X      1.02031     0.99845
             21  O  4  Y      0.85635     0.85221
             22  O  4  Z      0.98876     0.97346
             23  H  5  S      0.32922     0.35016
             24  H  5  S      0.22181     0.36629
             25  H  6  S      0.32958     0.35052
             26  H  6  S      0.22201     0.36628
             27  O  7  S      1.98530     1.97946
             28  O  7  S      0.40147     0.56109
             29  O  7  X      0.77598     0.78644
             30  O  7  Y      0.67256     0.66954
             31  O  7  Z      0.65084     0.64580
             32  O  7  S      1.48366     1.07064
             33  O  7  X      1.06169     1.05244
             34  O  7  Y      0.94243     0.93897
             35  O  7  Z      0.89798     0.88793
             36  H  8  S      0.38783     0.40574
             37  H  8  S      0.18348     0.30940
             38  H  9  S      0.30191     0.32007
             39  H  9  S      0.19798     0.35479
             40  O 10  S      1.98565     1.97949
             41  O 10  S      0.40460     0.56546
             42  O 10  X      0.73461     0.73844
             43  O 10  Y      0.62701     0.61480
             44  O 10  Z      0.74668     0.75459
             45  O 10  S      1.50236     1.04593
             46  O 10  X      1.00416     0.98485
             47  O 10  Y      0.84590     0.84337
             48  O 10  Z      1.01528     0.99580
             49  H 11  S      0.26819     0.28908
             50  H 11  S      0.24425     0.37795
             51  H 12  S      0.32921     0.35016
             52  H 12  S      0.22198     0.36637
             53  O 13  S      1.98529     1.97945
             54  O 13  S      0.40140     0.56097
             55  O 13  X      0.77990     0.79091
             56  O 13  Y      0.61544     0.60368
             57  O 13  Z      0.70382     0.70692
             58  O 13  S      1.48365     1.07041
             59  O 13  X      1.06618     1.05630
             60  O 13  Y      0.86277     0.85763
             61  O 13  Z      0.97302     0.96505
             62  H 14  S      0.26824     0.29113
             63  H 14  S      0.24915     0.39136
             64  H 15  S      0.38793     0.40582
             65  H 15  S      0.18338     0.30933
             66  O 16  S      1.98530     1.97946
             67  O 16  S      0.40152     0.56110
             68  O 16  X      0.76903     0.77867
             69  O 16  Y      0.62304     0.61216
             70  O 16  Z      0.70720     0.71074
             71  O 16  S      1.48373     1.07054
             72  O 16  X      1.05851     1.05377
             73  O 16  Y      0.86775     0.85906
             74  O 16  Z      0.97544     0.96602
             75  H 17  S      0.38787     0.40575
             76  H 17  S      0.18330     0.30927
             77  H 18  S      0.32964     0.35054
             78  H 18  S      0.22165     0.36608
             79  O 19  S      1.98530     1.97946
             80  O 19  S      0.40152     0.56111
             81  O 19  X      0.76810     0.77762
             82  O 19  Y      0.68164     0.67973
             83  O 19  Z      0.64978     0.64455
             84  O 19  S      1.48363     1.07052
             85  O 19  X      1.05640     1.05108
             86  O 19  Y      0.94857     0.94073
             87  O 19  Z      0.89697     0.88733
             88  H 20  S      0.26835     0.29121
             89  H 20  S      0.24910     0.39133
             90  H 21  S      0.38789     0.40579
             91  H 21  S      0.18331     0.30929
             92  O 22  S      1.98653     1.98085
             93  O 22  S      0.43077     0.59525
             94  O 22  X      0.81342     0.81615
             95  O 22  Y      0.70729     0.69866
             96  O 22  Z      0.53961     0.53596
             97  O 22  S      1.51776     1.05352
             98  O 22  X      0.99629     0.96739
             99  O 22  Y      0.87475     0.84301
            100  O 22  Z      0.70692     0.70965
            101  H 23  S      0.30209     0.32027
            102  H 23  S      0.19797     0.35478
            103  H 24  S      0.30232     0.32048
            104  H 24  S      0.19749     0.35440

          ----- MULLIKEN ATOMIC OVERLAP POPULATIONS -----
          (OFF-DIAGONAL ELEMENTS NEED TO BE MULTIPLIED BY 2)

             1           2           3           4           5

    1    8.2675320
    2    0.1261449   0.2734562
    3    0.1096961  -0.0094079   0.4129685
    4   -0.0000002  -0.0000039  -0.0000108   8.4026577
    5   -0.0000010  -0.0000157  -0.0000326   0.2055550   0.3079009
    6   -0.0000009   0.0000078  -0.0000325   0.2057967  -0.0178490
    7   -0.0276470   0.0003106   0.0004916  -0.0001112   0.0000028
    8    0.0007541  -0.0000155  -0.0000130  -0.0000007   0.0000002
    9    0.1256089  -0.0097939  -0.0093597  -0.0000039   0.0000080
   10   -0.0000774   0.0007736  -0.0000109  -0.0455624   0.0026600
   11   -0.0000061  -0.0000488   0.0000067   0.1373853  -0.0129108
   12    0.0005420   0.0004514  -0.0000328   0.0026655  -0.0001079
   13   -0.0000927  -0.0000013   0.0004969  -0.0251481   0.0008910
   14    0.0014926  -0.0000186   0.0007820   0.0014968  -0.0000190
   15    0.0000008   0.0000000  -0.0000131   0.0007600  -0.0000340
   16   -0.0274373   0.1289513   0.0004909  -0.0001100   0.0005385
   17    0.0007469  -0.0057770  -0.0000130  -0.0000007  -0.0000113
   18    0.0005305  -0.0015339  -0.0000326   0.0026469   0.0004144
   19   -0.0000935   0.0009834   0.0005061  -0.0253340   0.0716319
   20    0.0015018  -0.0055711   0.0007797   0.0014853  -0.0038106
   21    0.0000008  -0.0000251  -0.0000133   0.0007654  -0.0031975
   22   -0.0104644   0.0006936   0.1116759  -0.0000776   0.0005412
   23    0.0007021   0.0004429  -0.0094924   0.0007843  -0.0015614
   24    0.0006967  -0.0000410  -0.0094486   0.0007677   0.0004444

             6           7           8           9          10

    6    0.3083089
    7    0.0005367   8.3822721
    8   -0.0000113   0.2556973   0.3313650
    9   -0.0000156   0.1293423  -0.0058179   0.2735283
   10    0.0026534  -0.0253010   0.0007647   0.0007823   8.4022902
   11   -0.0128943   0.0008004  -0.0000290  -0.0000489   0.1372506
   12    0.0004181   0.0715445  -0.0031972  -0.0015729   0.2056073
   13    0.0714935  -0.0469967   0.0014041   0.0009802  -0.0001094
   14   -0.0038368   0.1278271  -0.0094385  -0.0055383   0.0014740
   15   -0.0031911   0.0014043  -0.0001011  -0.0000249  -0.0000007
   16    0.0000027  -0.0000444   0.0000010   0.0003015  -0.0250720
   17    0.0000002   0.0000010   0.0000000  -0.0000155   0.0007561
   18   -0.0001077   0.0009014  -0.0000345   0.0004460   0.2059970
   19    0.0009044  -0.0000001   0.0000000  -0.0000016  -0.0001109
   20   -0.0000189   0.0000013   0.0000001  -0.0000179   0.0014911
   21   -0.0000346   0.0000000  -0.0000000   0.0000000  -0.0000007
   22    0.0005331  -0.0000943   0.0000008   0.0006992  -0.0000002
   23    0.0004513  -0.0000013   0.0000000  -0.0000410  -0.0000040
   24   -0.0015260   0.0009740  -0.0000252   0.0004395  -0.0000037

            11          12          13          14          15

   11    0.2855231
   12   -0.0129125   0.3080482
   13    0.0007922   0.0005346   8.3813050
   14    0.0005049  -0.0037853   0.1289325   0.2911561
   15   -0.0000289  -0.0000112   0.2558191  -0.0095741   0.3312966
   16    0.0007927   0.0008965  -0.0000001   0.0000013   0.0000000
   17   -0.0000290  -0.0000345   0.0000000   0.0000001  -0.0000000
   18   -0.0128784  -0.0178406   0.0000029  -0.0000193   0.0000001
   19    0.0008019   0.0000028  -0.0000442   0.0000013   0.0000010
   20    0.0005044  -0.0000190   0.0000012   0.0000062   0.0000001
   21   -0.0000292   0.0000002   0.0000010   0.0000001   0.0000000
   22   -0.0000062  -0.0000009  -0.0273631   0.0015016   0.0007419
   23   -0.0000490   0.0000079   0.0003078  -0.0000183  -0.0000157
   24   -0.0000489  -0.0000159   0.1282696  -0.0055336  -0.0057177

            16          17          18          19          20

   16    8.3814102
   17    0.2557031   0.3312403
   18    0.0712583  -0.0031445   0.3079745
   19   -0.0469924   0.0014061   0.0005345   8.3821713
   20    0.1285306  -0.0095352  -0.0038053   0.1281862   0.2912671
   21    0.0014055  -0.0001012  -0.0000114   0.2557061  -0.0094676
   22   -0.0000929   0.0000008  -0.0000009  -0.0275772   0.0014947
   23    0.0009805  -0.0000251  -0.0000158   0.1289113  -0.0055345
   24   -0.0000014   0.0000000   0.0000076   0.0003111  -0.0000187

            21          22          23          24

   21    0.3312564
   22    0.0007513   8.2667051
   23   -0.0057902   0.1264219   0.2734188
   24   -0.0000156   0.1272567  -0.0098211   0.2728601

          TOTAL MULLIKEN AND LOWDIN ATOMIC POPULATIONS
       ATOM         MULL.POP.    CHARGE          LOW.POP.     CHARGE
    1 O             8.570129   -0.570129         8.196994   -0.196994
    2 H             0.499962    0.500038         0.674897    0.325103
    3 H             0.599981    0.400019         0.731090    0.268910
    4 O             8.866403   -0.866403         8.522915   -0.522915
    5 H             0.551038    0.448962         0.716449    0.283551
    6 H             0.551588    0.448412         0.716799    0.283201
    7 O             8.871912   -0.871912         8.592310   -0.592310
    8 H             0.571303    0.428697         0.715140    0.284860
    9 H             0.499884    0.500116         0.674867    0.325133
   10 O             8.866247   -0.866247         8.522729   -0.522729
   11 H             0.512442    0.487558         0.667025    0.332975
   12 H             0.551188    0.448812         0.716536    0.283464
   13 O             8.871476   -0.871476         8.591326   -0.591326
   14 H             0.517395    0.482605         0.682494    0.317506
   15 H             0.571312    0.428688         0.715147    0.284853
   16 O             8.871514   -0.871514         8.591528   -0.591528
   17 H             0.571167    0.428833         0.715020    0.284980
   18 H             0.551289    0.448711         0.716625    0.283375
   19 O             8.871906   -0.871906         8.592139   -0.592139
   20 H             0.517451    0.482549         0.682535    0.317465
   21 H             0.571200    0.428800         0.715078    0.284922
   22 O             8.573340   -0.573340         8.200432   -0.200432
   23 H             0.500059    0.499941         0.675050    0.324950
   24 H             0.499810    0.500190         0.674877    0.325123

          -------------------------------
          BOND ORDER AND VALENCE ANALYSIS     BOND ORDER THRESHOLD=0.050
          -------------------------------

                   BOND                       BOND                       BOND
  ATOM PAIR DIST  ORDER      ATOM PAIR DIST  ORDER      ATOM PAIR DIST  ORDER
    1   2  1.051  0.457        1   3  1.232  0.374        1   9  1.051  0.456
    1  22  2.438  0.209        2  16  1.525  0.304        3  22  1.232  0.379
    4   5  1.051  0.615        4   6  1.051  0.616        4  11  1.232  0.374
    5  19  1.523  0.179        6  13  1.525  0.178        7   8  0.990  0.782
    7   9  1.523  0.305        7  12  1.523  0.179        7  14  1.225  0.367
   10  11  1.232  0.373       10  12  1.051  0.615       10  18  1.051  0.616
   13  14  1.222  0.371       13  15  0.990  0.782       13  24  1.526  0.302
   16  17  0.990  0.782       16  18  1.526  0.178       16  20  1.222  0.370
   19  20  1.225  0.368       19  21  0.990  0.782       19  23  1.523  0.304
   22  23  1.051  0.457       22  24  1.051  0.459

                       TOTAL       BONDED        FREE
      ATOM            VALENCE     VALENCE     VALENCE
    1 O                 1.967       1.562       0.405
    2 H                 0.768       0.767       0.000
    3 H                 0.818       0.754       0.063
    4 O                 1.724       1.724       0.000
    5 H                 0.801       0.801       0.000
    6 H                 0.802       0.802       0.000
    7 O                 1.736       1.735       0.000
    8 H                 0.795       0.795       0.000
    9 H                 0.767       0.767       0.000
   10 O                 1.724       1.724       0.000
   11 H                 0.749       0.749       0.000
   12 H                 0.801       0.801       0.000
   13 O                 1.736       1.736       0.000
   14 H                 0.750       0.750       0.000
   15 H                 0.795       0.795       0.000
   16 O                 1.736       1.736       0.000
   17 H                 0.795       0.795       0.000
   18 H                 0.801       0.801       0.000
   19 O                 1.736       1.735       0.000
   20 H                 0.750       0.750       0.000
   21 H                 0.795       0.795       0.000
   22 O                 1.966       1.569       0.397
   23 H                 0.767       0.767       0.000
   24 H                 0.767       0.767       0.000

          -----------------------------------------
          ATOMIC SPIN DENSITY AT THE NUCLEUS (A.U.)
          -----------------------------------------
                            SPIN DENS    ALPHA DENS     BETA DENS
    1  O            8.0     0.0870687     116.89329     116.80622
    2  H            1.0    -0.0102313       0.11284       0.12307
    3  H            1.0    -0.0889812       0.08281       0.17179
    4  O            8.0    -0.0003742     116.63395     116.63432
    5  H            1.0     0.0001230       0.13079       0.13067
    6  H            1.0     0.0001381       0.13096       0.13082
    7  O            8.0    -0.0104339     116.58192     116.59235
    8  H            1.0    -0.0001455       0.15680       0.15695
    9  H            1.0    -0.0102600       0.11269       0.12295
   10  O            8.0    -0.0003845     116.63381     116.63419
   11  H            1.0    -0.0000236       0.10209       0.10212
   12  H            1.0     0.0001412       0.13080       0.13065
   13  O            8.0    -0.0102218     116.58104     116.59127
   14  H            1.0     0.0000081       0.10244       0.10243
   15  H            1.0    -0.0001616       0.15684       0.15700
   16  O            8.0    -0.0092106     116.58251     116.59172
   17  H            1.0    -0.0002275       0.15678       0.15701
   18  H            1.0     0.0001169       0.13098       0.13086
   19  O            8.0    -0.0093283     116.58263     116.59196
   20  H            1.0    -0.0001618       0.10239       0.10255
   21  H            1.0    -0.0002066       0.15680       0.15701
   22  O            8.0     0.0874618     116.89000     116.80254
   23  H            1.0    -0.0101475       0.11283       0.12298
   24  H            1.0    -0.0102043       0.11292       0.12313

          ---------------------
          ELECTROSTATIC MOMENTS
          ---------------------

 POINT   1           X           Y           Z (BOHR)    CHARGE
                 0.041600    2.754332    1.003604        1.00 (A.U.)
         DX          DY          DZ         /D/  (DEBYE)
    -5.865954   -0.813684    0.456724    5.939705
 ...... END OF PROPERTY EVALUATION ......
 CPU     0: STEP CPU TIME=     0.03 TOTAL CPU TIME=         12.2 (      0.2 MIN)
 TOTAL WALL CLOCK TIME=         19.0 SECONDS, CPU UTILIZATION IS    64.54%
               580000  WORDS OF DYNAMIC MEMORY USED
 EXECUTION OF GAMESS TERMINATED NORMALLY Sun May 24 20:36:27 2020
 DDI: 263640 bytes (0.3 MB / 0 MWords) used by master data server.
Note: The following floating-point exceptions are signalling: IEEE_DENORMALNote: The following floating-point exceptions are signalling: IEEE_DENORMALNote: The following floating-point exceptions are signalling:

 ----------------------------------------
 CPU timing information for all processes
 ========================================
 0: 11.959 + 0.304 = 12.263
 1: 11.746 + 0.75 = 11.822
 2: 11.876 + 0.68 = 11.945
 3: 11.689 + 0.84 = 11.773
 4: 11.845 + 0.60 = 11.906
 5: 11.801 + 0.68 = 11.869
 ----------------------------------------

 IEEE_DENORMAL
Note: The following floating-point exceptions are signalling: IEEE_DENORMALNote: The following floating-point exceptions are signalling: IEEE_DENORMALNote: The following floating-point exceptions are signalling: IEEE_DENORMAL


 ddikick.x: exited gracefully.
unset echo
----- accounting info -----
Files used on the master node pietdev were:
-rwxr-xr-x 1 piet piet     1450 mei 24 20:36 /home/piet/scr/8H2O_fukui_base.F05*
-rw-r--r-- 1 piet piet 68812800 mei 24 20:36 /home/piet/scr/8H2O_fukui_base.F10
ls: No match.
ls: No match.
ls: No match.
zo 24 mei 2020 20:36:30 CEST
0.136u 0.025s 0:22.16 0.6%	0+0k 0+8io 0pf+0w
