----- GAMESS execution script 'rungms' -----
This job is running on host pietdev
under operating system Linux at zo 17 mei 2020 17:50:38 CEST
Available scratch disk space (Kbyte units) at beginning of the job is
Filesystem     1K-blocks     Used Available Use% Mounted on
/dev/sda2      244568380 30400392 201674932  14% /
GAMESS temporary binary files will be written to /home/piet/scr
GAMESS supplementary output files will be written to /home/piet/gamess/scr
Copying input file thyrosine_fukui_base.inp to your run's scratch directory...
cp thyrosine_fukui_base.inp /home/piet/scr/thyrosine_fukui_base.F05
unset echo
 
Assuming a single but multicore node.
 
/home/piet/gamess/ddikick.x /home/piet/gamess/gamess.03.x thyrosine_fukui_base -ddi 1 6 pietdev:cpus=6 -scr /home/piet/scr

 Distributed Data Interface kickoff program.
 Initiating 6 compute processes on 1 nodes to run the following command:
 /home/piet/gamess/gamess.03.x thyrosine_fukui_base 

          ******************************************************
          *         GAMESS VERSION = 30 SEP 2019 (R2)          *
          *             FROM IOWA STATE UNIVERSITY             *
          * M.W.SCHMIDT, K.K.BALDRIDGE, J.A.BOATZ, S.T.ELBERT, *
          *   M.S.GORDON, J.H.JENSEN, S.KOSEKI, N.MATSUNAGA,   *
          *          K.A.NGUYEN, S.J.SU, T.L.WINDUS,           *
          *       TOGETHER WITH M.DUPUIS, J.A.MONTGOMERY       *
          *         J.COMPUT.CHEM.  14, 1347-1363(1993)        *
          **************** 64 BIT LINUX VERSION ****************

  SINCE 1993, STUDENTS AND POSTDOCS WORKING AT IOWA STATE UNIVERSITY
  AND ALSO IN THEIR VARIOUS JOBS AFTER LEAVING ISU HAVE MADE IMPORTANT
  CONTRIBUTIONS TO THE CODE:
     IVANA ADAMOVIC, CHRISTINE AIKENS, YURI ALEXEEV, POOJA ARORA,
     ANDREY ASADCHEV, ROB BELL, PRADIPTA BANDYOPADHYAY, JONATHAN BENTZ,
     COLLEEN BERTONI, BRETT BODE, KURT BRORSEN, CALEB CARLIN, GALINA CHABAN,
     WEI CHEN, CHEOL HO CHOI, PAUL DAY, ALBERT DEFUSCO, NUWAN DESILVA,
     TIM DUDLEY, DMITRI FEDOROV, ALEX FINDLATER, GRAHAM FLETCHER, 
     MARK FREITAG, KURT GLAESEMANN, EMILIE B GUIDEZ, ANASTASIA GUNINA, 
     DAN KEMP, SAROM SOK LEANG, GRANT MERRILL,
     NORIYUKI MINEZAWA, JONATHAN MULLIN,
     TAKESHI NAGATA, SEAN NEDD, HEATHER NETZLOFF, BOSILJKA NJEGIC, RYAN OLSON,
     MIKE PAK, BUU PHAM, DAVID POOLE,
     SPENCER PRUITT, LUKE ROSKOP, TOSAPORN SATTASATHUCHANA,
     JIM SHOEMAKER, LYUDMILA SLIPCHENKO,
     TONY SMITH, JIE SONG, TETSUYA TAKETSUGU, SIMON WEBB,
     JORGE LUIS GALVEZ VALLEJO, PENG XU, SOOHAENG YOO,
     FEDERICO ZAHARIEV

  ADDITIONAL CODE HAS BEEN PROVIDED BY COLLABORATORS IN OTHER GROUPS:
     IOWA STATE UNIVERSITY:
          JOE IVANIC, AARON WEST, LAIMUTIS BYTAUTAS, KLAUS RUEDENBERG
     UNIVERSITY OF TOKYO: KIMIHIKO HIRAO, TAKAHITO NAKAJIMA,
          TAKAO TSUNEDA, MUNEAKI KAMIYA, SUSUMU YANAGISAWA,
          KIYOSHI YAGI, MAHITO CHIBA, SEIKEN TOKURA, NAOAKI KAWAKAMI
     UNIVERSITY OF AARHUS: FRANK JENSEN
     UNIVERSITY OF IOWA: VISVALDAS KAIRYS, HUI LI
     NATIONAL INST. OF STANDARDS AND TECHNOLOGY: WALT STEVENS, DAVID GARMER
     UNIVERSITY OF PISA: BENEDETTA MENNUCCI, JACOPO TOMASI
     UNIVERSITY OF MEMPHIS: HENRY KURTZ, PRAKASHAN KORAMBATH
     UNIVERSITY OF ALBERTA: TOBY ZENG, MARIUSZ KLOBUKOWSKI
     UNIVERSITY OF NEW ENGLAND: MARK SPACKMAN
     MIE UNIVERSITY: HIROAKI UMEDA
     NAT. INST. OF ADVANCED INDUSTRIAL SCIENCE AND TECHNOLOGY: KAZUO KITAURA
     MICHIGAN STATE UNIVERSITY:
          KAROL KOWALSKI, MARTA WLOCH, JEFFREY GOUR, JESSE LUTZ,
          WEI LI, JUN SHEN, J. EMILIANO DEUSTUA, PIOTR PIECUCH
     UNIVERSITY OF MINNESOTA:
          ANDREW SAND, PRACHI SHARMA, YINAN SHU
     UNIVERSITY OF SILESIA: MONIKA MUSIAL, STANISLAW KUCHARSKI
     FACULTES UNIVERSITAIRES NOTRE-DAME DE LA PAIX:
          OLIVIER QUINET, BENOIT CHAMPAGNE
     UNIVERSITY OF CALIFORNIA - SANTA BARBARA: BERNARD KIRTMAN
     INSTITUTE FOR MOLECULAR SCIENCE:
          KAZUYA ISHIMURA, MICHIO KATOUDA, AND SHIGERU NAGASE
     UNIVERSITY OF NOTRE DAME: ANNA POMOGAEVA, DAN CHIPMAN
     KYUSHU UNIVERSITY:
          HARUYUKI NAKANO,
          FENG LONG GU, JACEK KORCHOWIEC, MARCIN MAKOWSKI, AND YURIKO AOKI,
          HIROTOSHI MORI AND EISAKU MIYOSHI
     PENNSYLVANIA STATE UNIVERSITY:
          TZVETELIN IORDANOV, CHET SWALINA, JONATHAN SKONE,
          SHARON HAMMES-SCHIFFER
     WASEDA UNIVERSITY:
          MASATO KOBAYASHI, TOMOKO AKAMA, TSUGUKI TOUMA,
          TAKESHI YOSHIKAWA, YASUHIRO IKABATA, JUNJI SEINO,
          YUYA NAKAJIMA, HIROMI NAKAI
     NANJING UNIVERSITY: SHUHUA LI
     UNIVERSITY OF NEBRASKA:
          PEIFENG SU, DEJUN SI, NANDUN THELLAMUREGE, YALI WANG, HUI LI
     UNIVERSITY OF ZURICH: ROBERTO PEVERATI, KIM BALDRIDGE
     N. COPERNICUS UNIVERSITY AND JACKSON STATE UNIVERSITY:
          MARIA BARYSZ
     UNIVERSITY OF COPENHAGEN: Jimmy Kromann, CASPER STEINMANN
     TOKYO INSTITUTE OF TECHNOLOGY: HIROYA NAKATA
     NAGOYA UNIVERSITY: YOSHIO NISHIMOTO, STEPHAN IRLE
     MOSCOW STATE UNIVERSITY: VLADIMIR MIRONOV
     A.N.NESMEYANOV INSTITUTE OF ORGANOELEMENT COMPOUNDS OF RUSSIAN ACADEMY OF SCIENCES:
          IGOR S. GERASIMOV
     JOHANNES KEPLER UNIVERSITY LINZ:
          CHRISTIAN FRIEDL


 PARALLEL VERSION RUNNING ON        6 PROCESSORS IN        1 NODES.

 EXECUTION OF GAMESS BEGUN Sun May 17 17:50:38 2020

            ECHO OF THE FIRST FEW INPUT CARDS -
 INPUT CARD> $BASIS GBASIS=N21 NGAUSS=3 $END                                                
 INPUT CARD> $CONTRL SCFTYP=UHF MAXIT=60 MULT=2 ICHARG=1 $END                               
 INPUT CARD> $SYSTEM MEMDDI=1000 MWORDS=30 $END                                             
 INPUT CARD> $SCF DIRSCF=.TRUE. $END                                                        
 INPUT CARD> $STATPT OPTTOL=0.0001 NSTEP=999 $END                                           
 INPUT CARD> $DATA                                                                          
 INPUT CARD>                                                                                
 INPUT CARD>C1                                                                              
 INPUT CARD>C 6.0000000 -1.7490373551 0.0642315777 -0.4693473103                            
 INPUT CARD>H 1.0000000 -1.4837665225 -0.6131941929 -1.2882378885                           
 INPUT CARD>C 6.0000000 -0.9385355405 -0.2924703482 0.8044097794                            
 INPUT CARD>C 6.0000000 0.5578503178 -0.1861260827 0.5587442105                             
 INPUT CARD>C 6.0000000 1.2210385776 1.0464170476 0.6712511076                              
 INPUT CARD>C 6.0000000 2.5803303461 1.1619299704 0.4008543725                              
 INPUT CARD>C 6.0000000 3.3177801857 0.0395266159 0.0074758586                              
 INPUT CARD>C 6.0000000 2.6717068649 -1.1938715533 -0.1070556239                            
 INPUT CARD>C 6.0000000 1.3067498292 -1.3004520538 0.1655878006                             
 INPUT CARD>O 8.0000000 4.6710131176 0.2258160966 -0.2448510767                             
 INPUT CARD>H 1.0000000 -1.2283426770 0.3816927803 1.6201140465                             
 INPUT CARD>H 1.0000000 -1.1876422647 -1.3132889909 1.1191306821                            
 INPUT CARD>H 1.0000000 0.6641485188 1.9254758159 0.9800910173                              
 INPUT CARD>H 1.0000000 3.0960274626 2.1092552613 0.4902488396                              
 INPUT CARD>H 1.0000000 3.2311964432 -2.0755117362 -0.4056648666                            
 INPUT CARD>H 1.0000000 0.8204928827 -2.2666543181 0.0748621823                             
 INPUT CARD>H 1.0000000 5.0852296761 -0.6349879215 -0.5141784807                            
 INPUT CARD>H 1.0000000 -2.8265906928 -0.0149961618 -0.2826980459                           
 INPUT CARD>H 1.0000000 -1.5236891696 1.0878281936 -0.7875266045                            
 INPUT CARD> $END                                                                           
   30000000 WORDS OF MEMORY AVAILABLE

     BASIS OPTIONS
     -------------
     GBASIS=N21          IGAUSS=       3      POLAR=NONE    
     NDFUNC=       0     NFFUNC=       0     DIFFSP=       F
     NPFUNC=       0      DIFFS=       F     BASNAM=        


     RUN TITLE
     ---------
                                                                                 

 THE POINT GROUP OF THE MOLECULE IS C1      
 THE ORDER OF THE PRINCIPAL AXIS IS     0

 ATOM      ATOMIC                      COORDINATES (BOHR)
           CHARGE         X                   Y                   Z
 C           6.0    -3.3052013434        0.1213800816       -0.8869378095
 H           1.0    -2.8039121573       -1.1587690018       -2.4344166163
 C           6.0    -1.7735750013       -0.5526888176        1.5201140649
 C           6.0     1.0541842428       -0.3517272955        1.0558734551
 C           6.0     2.3074283321        1.9774414888        1.2684806623
 C           6.0     4.8761173119        2.1957292610        0.7575049250
 C           6.0     6.2696954385        0.0746944733        0.0141273243
 C           6.0     5.0487938942       -2.2560901003       -0.2023057946
 C           6.0     2.4693991117       -2.4574980419        0.3129155700
 O           8.0     8.8269348773        0.4267305462       -0.4627014428
 H           1.0    -2.3212310786        0.7212947663        3.0615716167
 H           1.0    -2.2443184517       -2.4817563355        2.1148503336
 H           1.0     1.2550587157        3.6386216880        1.8521034657
 H           1.0     5.8506435548        3.9859144820        0.9264359726
 H           1.0     6.1060758901       -3.9221484657       -0.7665954407
 H           1.0     1.5505067232       -4.2833555701        0.1414690114
 H           1.0     9.6096906725       -1.1999531771       -0.9716564373
 H           1.0    -5.3414818888       -0.0283386367       -0.5342218440
 H           1.0    -2.8793550210        2.0556972076       -1.4882094905

          INTERNUCLEAR DISTANCES (ANGS.)
          ------------------------------

                1 C          2 H          3 C          4 C          5 C     

   1 C       0.0000000    1.0953794 *  1.5513241 *  2.5379878 *  3.3297153  
   2 H       1.0953794 *  0.0000000    2.1861644 *  2.7860239 *  3.7295948  
   3 C       1.5513241 *  2.1861644 *  0.0000000    1.5201419 *  2.5444275 *
   4 C       2.5379878 *  2.7860239 *  1.5201419 *  0.0000000    1.4041506 *
   5 C       3.3297153    3.7295948    2.5444275 *  1.4041506 *  0.0000000  
   6 C       4.5503426    4.7456277    3.8289103    2.4356949 *  1.3907307 *
   7 C       5.0892643    5.0159515    4.3429885    2.8234781 *  2.4188326 *
   8 C       4.6105377    4.3589376    3.8310760    2.4345903 *  2.7801246 *
   9 C       3.4063675    3.2207009    2.5427204 *  1.3989799 *  2.4022565 *
  10 O       6.4260062    6.2987226    5.7303233    4.2111245    3.6626430  
  11 H       2.1766381 *  3.0844047    1.0972044 *  2.1539289 *  2.7095512 *
  12 H       2.1762329 *  2.5245288 *  1.0968929 *  2.1520394 *  3.4015514  
  13 H       3.3746952    4.0253820    2.7420331 *  2.1558513 *  1.0854736 *
  14 H       5.3458021    5.6168727    4.7058136    3.4228366    2.1628616 *
  15 H       5.4208196    5.0147965    4.6936321    3.4127178    3.8661249  
  16 H       3.5116490    3.1466782    2.7429588 *  2.1521433 *  3.3900676  
  17 H       6.8700891    6.6144806    6.1759000    4.6743774    4.3777093  
  18 H       1.0964653 *  1.7810469 *  2.1962576 *  3.4916689    4.2918434  
  19 H       1.0953401 *  1.7736355 *  2.1867534 *  2.7871511 *  3.1085813  

                6 C          7 C          8 C          9 C         10 O     

   1 C       4.5503426    5.0892643    4.6105377    3.4063675    6.4260062  
   2 H       4.7456277    5.0159515    4.3589376    3.2207009    6.2987226  
   3 C       3.8289103    4.3429885    3.8310760    2.5427204 *  5.7303233  
   4 C       2.4356949 *  2.8234781 *  2.4345903 *  1.3989799 *  4.2111245  
   5 C       1.3907307 *  2.4188326 *  2.7801246 *  2.4022565 *  3.6626430  
   6 C       0.0000000    1.3994171 *  2.4116640 *  2.7822083 *  2.3799578 *
   7 C       1.3994171 *  0.0000000    1.3970681 *  2.4217319 *  1.3891048 *
   8 C       2.4116640 *  1.3970681 *  0.0000000    1.3959948 *  2.4559573 *
   9 C       2.7822083 *  2.4217319 *  1.3959948 *  0.0000000    3.7170179  
  10 O       2.3799578 *  1.3891048 *  2.4559573 *  3.7170179    0.0000000  
  11 H       4.0744760    4.8357949    4.5470765    3.3722325    6.1890865  
  12 H       4.5651120    4.8337064    4.0512182    2.6704683 *  6.2091170  
  13 H       2.1424916 *  3.3977265    3.8655538    3.3886520    4.5215363  
  14 H       1.0822939 *  2.1368249 *  3.3834106    3.8643270    2.5628685 *
  15 H       3.3992836    2.1567497 *  1.0860412 *  2.1518694 *  2.7193828 *
  16 H       3.8676206    3.3999199    2.1473123 *  1.0854602 *  4.5979486  
  17 H       3.2156989    1.9623891 *  2.5106159 *  3.8963874    0.9925201 *
  18 H       5.5755891    6.1514606    5.6259998    4.3517653    7.5015656  
  19 H       4.2732560    5.0170500    4.8239551    3.8240939    6.2778896  

               11 H         12 H         13 H         14 H         15 H     

   1 C       2.1766381 *  2.1762329 *  3.3746952    5.3458021    5.4208196  
   2 H       3.0844047    2.5245288 *  4.0253820    5.6168727    5.0147965  
   3 C       1.0972044 *  1.0968929 *  2.7420331 *  4.7058136    4.6936321  
   4 C       2.1539289 *  2.1520394 *  2.1558513 *  3.4228366    3.4127178  
   5 C       2.7095512 *  3.4015514    1.0854736 *  2.1628616 *  3.8661249  
   6 C       4.0744760    4.5651120    2.1424916 *  1.0822939 *  3.3992836  
   7 C       4.8357949    4.8337064    3.3977265    2.1368249 *  2.1567497 *
   8 C       4.5470765    4.0512182    3.8655538    3.3834106    1.0860412 *
   9 C       3.3722325    2.6704683 *  3.3886520    3.8643270    2.1518694 *
  10 O       6.1890865    6.2091170    4.5215363    2.5628685 *  2.7193828 *
  11 H       0.0000000    1.7679378 *  2.5247611 *  4.7917893    5.4798835  
  12 H       1.7679378 *  0.0000000    3.7333709    5.5189789    4.7362560  
  13 H       2.5247611 *  3.7333709    0.0000000    2.4875199 *  4.9515609  
  14 H       4.7917893    5.5189789    2.4875199 *  0.0000000    4.2817294  
  15 H       5.4798835    4.7362560    4.9515609    4.2817294    0.0000000  
  16 H       3.6877192    2.4560148 *  4.2916009    4.9496655    2.4655493 *
  17 H       6.7416645    6.5174162    5.3230418    3.5350630    2.3503879 *
  18 H       2.5164365 *  2.5173081 *  4.1887144    6.3393451    6.3998149  
  19 H       2.5263789 *  3.0844178    2.9347503 *  4.9007964    5.7237641  

               16 H         17 H         18 H         19 H     

   1 C       3.5116490    6.8700891    1.0964653 *  1.0953401 *
   2 H       3.1466782    6.6144806    1.7810469 *  1.7736355 *
   3 C       2.7429588 *  6.1759000    2.1962576 *  2.1867534 *
   4 C       2.1521433 *  4.6743774    3.4916689    2.7871511 *
   5 C       3.3900676    4.3777093    4.2918434    3.1085813  
   6 C       3.8676206    3.2156989    5.5755891    4.2732560  
   7 C       3.3999199    1.9623891 *  6.1514606    5.0170500  
   8 C       2.1473123 *  2.5106159 *  5.6259998    4.8239551  
   9 C       1.0854602 *  3.8963874    4.3517653    3.8240939  
  10 O       4.5979486    0.9925201 *  7.5015656    6.2778896  
  11 H       3.6877192    6.7416645    2.5164365 *  2.5263789 *
  12 H       2.4560148 *  6.5174162    2.5173081 *  3.0844178  
  13 H       4.2916009    5.3230418    4.1887144    2.9347503 *
  14 H       4.9496655    3.5350630    6.3393451    4.9007964  
  15 H       2.4655493 *  2.3503879 *  6.3998149    5.7237641  
  16 H       0.0000000    4.6040508    4.3010501    4.1822789  
  17 H       4.6040508    0.0000000    7.9394505    6.8352486  
  18 H       4.3010501    7.9394505    0.0000000    1.7800634 *
  19 H       4.1822789    6.8352486    1.7800634 *  0.0000000  

  * ... LESS THAN  3.000


     ATOMIC BASIS SET
     ----------------
 THE CONTRACTED PRIMITIVE FUNCTIONS HAVE BEEN UNNORMALIZED
 THE CONTRACTED BASIS FUNCTIONS ARE NOW NORMALIZED TO UNITY

  SHELL TYPE  PRIMITIVE        EXPONENT          CONTRACTION COEFFICIENT(S)

 C         

      1   S       1           172.2560000    0.061766907377
      1   S       2            25.9109000    0.358794042852
      1   S       3             5.5333500    0.700713083689

      2   L       4             3.6649800   -0.395895162119    0.236459946619
      2   L       5             0.7705450    1.215834355681    0.860618805716

      3   L       6             0.1958570    1.000000000000    1.000000000000

 H         

      4   S       7             5.4471780    0.156284978695
      4   S       8             0.8245472    0.904690876670

      5   S       9             0.1831916    1.000000000000

 C         

      6   S      10           172.2560000    0.061766907377
      6   S      11            25.9109000    0.358794042852
      6   S      12             5.5333500    0.700713083689

      7   L      13             3.6649800   -0.395895162119    0.236459946619
      7   L      14             0.7705450    1.215834355681    0.860618805716

      8   L      15             0.1958570    1.000000000000    1.000000000000

 C         

      9   S      16           172.2560000    0.061766907377
      9   S      17            25.9109000    0.358794042852
      9   S      18             5.5333500    0.700713083689

     10   L      19             3.6649800   -0.395895162119    0.236459946619
     10   L      20             0.7705450    1.215834355681    0.860618805716

     11   L      21             0.1958570    1.000000000000    1.000000000000

 C         

     12   S      22           172.2560000    0.061766907377
     12   S      23            25.9109000    0.358794042852
     12   S      24             5.5333500    0.700713083689

     13   L      25             3.6649800   -0.395895162119    0.236459946619
     13   L      26             0.7705450    1.215834355681    0.860618805716

     14   L      27             0.1958570    1.000000000000    1.000000000000

 C         

     15   S      28           172.2560000    0.061766907377
     15   S      29            25.9109000    0.358794042852
     15   S      30             5.5333500    0.700713083689

     16   L      31             3.6649800   -0.395895162119    0.236459946619
     16   L      32             0.7705450    1.215834355681    0.860618805716

     17   L      33             0.1958570    1.000000000000    1.000000000000

 C         

     18   S      34           172.2560000    0.061766907377
     18   S      35            25.9109000    0.358794042852
     18   S      36             5.5333500    0.700713083689

     19   L      37             3.6649800   -0.395895162119    0.236459946619
     19   L      38             0.7705450    1.215834355681    0.860618805716

     20   L      39             0.1958570    1.000000000000    1.000000000000

 C         

     21   S      40           172.2560000    0.061766907377
     21   S      41            25.9109000    0.358794042852
     21   S      42             5.5333500    0.700713083689

     22   L      43             3.6649800   -0.395895162119    0.236459946619
     22   L      44             0.7705450    1.215834355681    0.860618805716

     23   L      45             0.1958570    1.000000000000    1.000000000000

 C         

     24   S      46           172.2560000    0.061766907377
     24   S      47            25.9109000    0.358794042852
     24   S      48             5.5333500    0.700713083689

     25   L      49             3.6649800   -0.395895162119    0.236459946619
     25   L      50             0.7705450    1.215834355681    0.860618805716

     26   L      51             0.1958570    1.000000000000    1.000000000000

 O         

     27   S      52           322.0370000    0.059239393389
     27   S      53            48.4308000    0.351499960776
     27   S      54            10.4206000    0.707657921031

     28   L      55             7.4029400   -0.404453583190    0.244586106967
     28   L      56             1.5762000    1.221561761397    0.853955373466

     29   L      57             0.3736840    1.000000000000    1.000000000000

 H         

     30   S      58             5.4471780    0.156284978695
     30   S      59             0.8245472    0.904690876670

     31   S      60             0.1831916    1.000000000000

 H         

     32   S      61             5.4471780    0.156284978695
     32   S      62             0.8245472    0.904690876670

     33   S      63             0.1831916    1.000000000000

 H         

     34   S      64             5.4471780    0.156284978695
     34   S      65             0.8245472    0.904690876670

     35   S      66             0.1831916    1.000000000000

 H         

     36   S      67             5.4471780    0.156284978695
     36   S      68             0.8245472    0.904690876670

     37   S      69             0.1831916    1.000000000000

 H         

     38   S      70             5.4471780    0.156284978695
     38   S      71             0.8245472    0.904690876670

     39   S      72             0.1831916    1.000000000000

 H         

     40   S      73             5.4471780    0.156284978695
     40   S      74             0.8245472    0.904690876670

     41   S      75             0.1831916    1.000000000000

 H         

     42   S      76             5.4471780    0.156284978695
     42   S      77             0.8245472    0.904690876670

     43   S      78             0.1831916    1.000000000000

 H         

     44   S      79             5.4471780    0.156284978695
     44   S      80             0.8245472    0.904690876670

     45   S      81             0.1831916    1.000000000000

 H         

     46   S      82             5.4471780    0.156284978695
     46   S      83             0.8245472    0.904690876670

     47   S      84             0.1831916    1.000000000000

 TOTAL NUMBER OF BASIS SET SHELLS             =   47
 NUMBER OF CARTESIAN GAUSSIAN BASIS FUNCTIONS =  101
 NUMBER OF ELECTRONS                          =   65
 CHARGE OF MOLECULE                           =    1
 SPIN MULTIPLICITY                            =    2
 NUMBER OF OCCUPIED ORBITALS (ALPHA)          =   33
 NUMBER OF OCCUPIED ORBITALS (BETA )          =   32
 TOTAL NUMBER OF ATOMS                        =   19
 THE NUCLEAR REPULSION ENERGY IS      416.6241173716

     $CONTRL OPTIONS
     ---------------
 SCFTYP=UHF          RUNTYP=ENERGY       EXETYP=RUN     
 MPLEVL=       0     CITYP =NONE         CCTYP =NONE         VBTYP =NONE    
 DFTTYP=NONE         TDDFT =NONE    
 MULT  =       2     ICHARG=       1     NZVAR =       0     COORD =UNIQUE  
 PP    =NONE         RELWFN=NONE         LOCAL =NONE         NUMGRD=       F
 ISPHER=      -1     NOSYM =       0     MAXIT =      60     UNITS =ANGS    
 PLTORB=       F     MOLPLT=       F     AIMPAC=       F     FRIEND=        
 NPRINT=       7     IREST =       0     GEOM  =INPUT   
 NORMF =       0     NORMP =       0     ITOL  =      20     ICUT  =       9
 INTTYP=BEST         GRDTYP=BEST         QMTTOL= 1.0E-06

     $SYSTEM OPTIONS
     ---------------
  REPLICATED MEMORY=    30000000 WORDS (ON EVERY NODE).
 DISTRIBUTED MEMDDI=        1000 MILLION WORDS IN AGGREGATE,
 MEMDDI DISTRIBUTED OVER   6 PROCESSORS IS   166666666 WORDS/PROCESSOR.
 TOTAL MEMORY REQUESTED ON EACH PROCESSOR=   196666666 WORDS.
 TIMLIM=      525600.00 MINUTES, OR     365.0 DAYS.
 PARALL= T  BALTYP=  DLB     KDIAG=    0  COREFL= F
 MXSEQ2=     300 MXSEQ3=     150  mem10=         0

          ----------------
          PROPERTIES INPUT
          ----------------

     MOMENTS            FIELD           POTENTIAL          DENSITY
 IEMOM =       1   IEFLD =       0   IEPOT =       0   IEDEN =       0
 WHERE =COMASS     WHERE =NUCLEI     WHERE =NUCLEI     WHERE =NUCLEI  
 OUTPUT=BOTH       OUTPUT=BOTH       OUTPUT=BOTH       OUTPUT=BOTH    
 IEMINT=       0   IEFINT=       0                     IEDINT=       0
                                                       MORB  =       0
          EXTRAPOLATION IN EFFECT
          SOSCF IN EFFECT
          DIIS or SOSCF will be reset if energy rises
 ORBITAL PRINTING OPTION: NPREO=     1   101     2     1

     -------------------------------
     INTEGRAL TRANSFORMATION OPTIONS
     -------------------------------
     NWORD  =            0
     CUTOFF = 1.0E-09     MPTRAN =       0
     DIRTRF =       T     AOINTS =DUP     

          ----------------------
          INTEGRAL INPUT OPTIONS
          ----------------------
 NOPK  =       1 NORDER=       0 SCHWRZ=       T

     ------------------------------------------
     THE POINT GROUP IS C1 , NAXIS= 0, ORDER= 1
     ------------------------------------------

     DIMENSIONS OF THE SYMMETRY SUBSPACES ARE
 A   =  101

 ..... DONE SETTING UP THE RUN .....
 CPU     0: STEP CPU TIME=     0.02 TOTAL CPU TIME=          0.0 (      0.0 MIN)
 TOTAL WALL CLOCK TIME=          0.0 SECONDS, CPU UTILIZATION IS    66.67%

          ********************
          1 ELECTRON INTEGRALS
          ********************
 ...... END OF ONE-ELECTRON INTEGRALS ......
 CPU     0: STEP CPU TIME=     0.00 TOTAL CPU TIME=          0.0 (      0.0 MIN)
 TOTAL WALL CLOCK TIME=          0.0 SECONDS, CPU UTILIZATION IS    50.00%

          -------------
          GUESS OPTIONS
          -------------
          GUESS =HUCKEL            NORB  =       0          NORDER=       0
          MIX   =       F          PRTMO =       F          PUNMO =       F
          TOLZ  = 1.0E-08          TOLE  = 1.0E-05
          SYMDEN=       F          PURIFY=       F

 INITIAL GUESS ORBITALS GENERATED BY HUCKEL   ROUTINE.
 HUCKEL GUESS REQUIRES    100138 WORDS.

 SYMMETRIES FOR INITIAL GUESS ORBITALS FOLLOW.  ALPHA SET(S).
    33 ORBITALS ARE OCCUPIED (    9 CORE ORBITALS).
    10=A       11=A       12=A       13=A       14=A       15=A       16=A   
    17=A       18=A       19=A       20=A       21=A       22=A       23=A   
    24=A       25=A       26=A       27=A       28=A       29=A       30=A   
    31=A       32=A       33=A       34=A       35=A       36=A       37=A   
    38=A       39=A       40=A       41=A       42=A       43=A   

 SYMMETRIES FOR INITIAL GUESS ORBITALS FOLLOW.   BETA SET(S).
    32 ORBITALS ARE OCCUPIED (    9 CORE ORBITALS).
    10=A       11=A       12=A       13=A       14=A       15=A       16=A   
    17=A       18=A       19=A       20=A       21=A       22=A       23=A   
    24=A       25=A       26=A       27=A       28=A       29=A       30=A   
    31=A       32=A       33=A       34=A       35=A       36=A       37=A   
    38=A       39=A       40=A       41=A       42=A   
 ...... END OF INITIAL ORBITAL SELECTION ......
 CPU     0: STEP CPU TIME=     0.04 TOTAL CPU TIME=          0.1 (      0.0 MIN)
 TOTAL WALL CLOCK TIME=          0.1 SECONDS, CPU UTILIZATION IS   100.00%

                    ----------------------
                    AO INTEGRAL TECHNOLOGY
                    ----------------------
     S,P,L SHELL ROTATED AXIS INTEGRALS, REPROGRAMMED BY
        KAZUYA ISHIMURA (IMS) AND JOSE SIERRA (SYNSTAR).
     S,P,D,L SHELL ROTATED AXIS INTEGRALS PROGRAMMED BY
        KAZUYA ISHIMURA (INSTITUTE FOR MOLECULAR SCIENCE).
     S,P,D,F,G SHELL TO TOTAL QUARTET ANGULAR MOMENTUM SUM 5,
        ERIC PROGRAM BY GRAHAM FLETCHER (ELORET AND NASA ADVANCED
        SUPERCOMPUTING DIVISION, AMES RESEARCH CENTER).
     S,P,D,F,G,L SHELL GENERAL RYS QUADRATURE PROGRAMMED BY
        MICHEL DUPUIS (PACIFIC NORTHWEST NATIONAL LABORATORY).

          --------------------
          2 ELECTRON INTEGRALS
          --------------------

 DIRECT SCF METHOD SKIPS INTEGRAL STORAGE ON DISK.
 DIRECT TRANSFORMATION SKIPS AO INTEGRAL STORAGE ON DISK.
  ...... END OF TWO-ELECTRON INTEGRALS .....
 CPU     0: STEP CPU TIME=     0.01 TOTAL CPU TIME=          0.1 (      0.0 MIN)
 TOTAL WALL CLOCK TIME=          0.1 SECONDS, CPU UTILIZATION IS   100.00%

          ---------------------------
                  UHF SCF CALCULATION
          ---------------------------

     NUCLEAR ENERGY =       416.6241173716
     MAXIT = 60     NPUNCH=  2     MULT=  2
     EXTRAP=T  DAMP=F  SHIFT=F  RSTRCT=F  DIIS=F  SOSCF=T
     DENSITY MATRIX CONV=  2.00E-05
     SOSCF WILL OPTIMIZE    2244 ALPHA AND    2208 BETA ROTATION ANGLES.
     SOGTOL= 2.500E-01
     MEMORY REQUIRED FOR UHF/ROHF ITERS=    181402 WORDS.

 DIRECT SCF CALCULATION, SCHWRZ=T   FDIFF=T
 SCHWARZ INEQUALITY OVERHEAD:      4910 INTEGRALS, T=        0.00

                                                                                NONZERO     BLOCKS
 ITER EX      TOTAL ENERGY        E CHANGE  DENSITY CHANGE    ORB. GRAD       INTEGRALS    SKIPPED
   1  0     -380.3313235880  -380.3313235880   0.632985439   0.000000000        8951280     293550
          ---------------START SECOND ORDER SCF---------------
   2  1     -381.1774638986    -0.8461403106   0.121100213   0.040786954        8919267     301451
   3  2     -381.2189794154    -0.0415155168   0.073771964   0.020771863        8803339     319615
   4  3     -381.2256972808    -0.0067178654   0.028920296   0.007132755        8673556     333348
   5  4     -381.2271671698    -0.0014698890   0.024962387   0.005883592        8531708     344594
   6  5     -381.2282773544    -0.0011101846   0.021097895   0.003103818        8532104     346662
   7  6     -381.2288525156    -0.0005751613   0.011543468   0.002413937        8471684     350634
   8  7     -381.2291132843    -0.0002607686   0.015077012   0.001959178        8358219     357575
   9  8     -381.2293543523    -0.0002410681   0.016594007   0.002183416        8404532     355196
  10  9     -381.2295447216    -0.0001903693   0.019119631   0.001997870        8388754     356929
  11 10     -381.2297185403    -0.0001738186   0.009973989   0.001903250        8402219     356259
  12 11     -381.2298222398    -0.0001036996   0.004701288   0.001336154        8314449     362032
  13 12     -381.2298642686    -0.0000420288   0.001909745   0.000475425        8159078     370756
  14 13     -381.2298726711    -0.0000084024   0.001063746   0.000323587        7924140     383253
  15 14     -381.2298755985    -0.0000029275   0.000545034   0.000147342        7765802     391333
  16 15     -381.2298766355    -0.0000010370   0.000956236   0.000118828        7566462     401587
  17 16     -381.2298776353    -0.0000009998   0.001626722   0.000105900        7636245     399113
  18 17     -381.2298788736    -0.0000012382   0.002887094   0.000181329        7759068     394273
  19 18     -381.2298806612    -0.0000017877   0.003040503   0.000232629        7915728     387260
  20 19     -381.2298822375    -0.0000015762   0.001589260   0.000183221        7934865     387347
  21 20     -381.2298830362    -0.0000007987   0.000216749   0.000071050        7769764     394439
  22 21     -381.2298832266    -0.0000001904   0.000143167   0.000028851        7242669     413768
  23 22     -381.2298832553    -0.0000000287   0.000039258   0.000013309        7014738     426066
  24 23     -381.2298832612    -0.0000000059   0.000028033   0.000007048        6647366     441970
  25 24     -381.2298832627    -0.0000000015   0.000019341   0.000002217        6394887     453901
  26 25     -381.2298832631    -0.0000000004   0.000005255   0.000000952        6098723     467210

          -----------------
          DENSITY CONVERGED
          -----------------
     TIME TO FORM FOCK OPERATORS=       2.6 SECONDS (       0.1 SEC/ITER)
     FOCK TIME ON FIRST ITERATION=       0.1, LAST ITERATION=       0.1
     TIME TO SOLVE SCF EQUATIONS=       0.1 SECONDS (       0.0 SEC/ITER)

 FINAL UHF ENERGY IS     -381.2298832631 AFTER  26 ITERATIONS

          --------------------
          SPIN SZ   =    0.500
          S-SQUARED =    0.925
          --------------------

  ----- ALPHA SET ----- 

          ------------
          EIGENVECTORS
          ------------

                      1          2          3          4          5
                  -20.7431   -11.5210   -11.4162   -11.4101   -11.4099
                     A          A          A          A          A   
    1  C  1  S   -0.000014  -0.000032  -0.002800  -0.000002  -0.000017
    2  C  1  S   -0.000106  -0.000045  -0.002828   0.000021   0.000101
    3  C  1  X   -0.000027  -0.000031  -0.001646  -0.000010  -0.000125
    4  C  1  Y    0.000015   0.000018   0.000016  -0.000095   0.000031
    5  C  1  Z   -0.000033  -0.000057  -0.000107  -0.000034  -0.000053
    6  C  1  S    0.000247  -0.000110   0.006827  -0.000094  -0.000925
    7  C  1  X    0.000165  -0.000050   0.007250  -0.000146  -0.000316
    8  C  1  Y   -0.000027  -0.000014  -0.000168   0.001073  -0.000246
    9  C  1  Z    0.000050   0.000042   0.001432   0.000350  -0.000166
   10  H  2  S   -0.000011   0.000018  -0.001093   0.000108   0.000025
   11  H  2  S   -0.000070   0.000006  -0.000708   0.000491   0.000017
   12  C  3  S   -0.000036  -0.000184  -0.000127  -0.000339  -0.001461
   13  C  3  S   -0.000115  -0.000414  -0.000288  -0.000273  -0.001159
   14  C  3  X    0.000325   0.000236   0.000011  -0.000130  -0.000424
   15  C  3  Y    0.000028   0.000030   0.000127   0.000308  -0.000168
   16  C  3  Z   -0.000112  -0.000059  -0.000254   0.000120   0.000143
   17  C  3  S    0.004506   0.005881   0.005940  -0.000185  -0.000078
   18  C  3  X    0.001773   0.002559   0.007529   0.000292   0.000716
   19  C  3  Y   -0.000088   0.000111  -0.001239  -0.002699   0.001009
   20  C  3  Z    0.000221  -0.000147   0.003217  -0.000872  -0.000730
   21  C  4  S   -0.000163  -0.001050   0.987128   0.003064   0.012238
   22  C  4  S   -0.000779  -0.001346   0.101571   0.000544   0.001931
   23  C  4  X   -0.000546  -0.000709   0.000528  -0.000209  -0.000736
   24  C  4  Y   -0.000087  -0.000069   0.000053   0.000668  -0.000284
   25  C  4  Z    0.000098   0.000146  -0.000605   0.000187   0.000109
   26  C  4  S    0.010417   0.016785  -0.094787  -0.006434  -0.022200
   27  C  4  X    0.011375   0.014796  -0.013726  -0.003616  -0.011854
   28  C  4  Y    0.001494   0.000922  -0.000674   0.003733  -0.001361
   29  C  4  Z   -0.002174  -0.002987   0.003887   0.001595   0.002417
   30  C  5  S    0.000228  -0.000145  -0.006605   0.001925  -0.009452
   31  C  5  S    0.000883   0.000598  -0.004543   0.001685  -0.005408
   32  C  5  X   -0.000776  -0.001176   0.000514   0.000572  -0.001534
   33  C  5  Y    0.000118   0.000090   0.001390  -0.000009   0.000514
   34  C  5  Z    0.000189   0.000271   0.000172  -0.000112   0.000439
   35  C  5  S   -0.021985  -0.022326   0.031826  -0.009909   0.040538
   36  C  5  X   -0.008502  -0.007521  -0.003108  -0.004298   0.018919
   37  C  5  Y    0.006798   0.010976  -0.018886   0.002202  -0.013404
   38  C  5  Z    0.003288   0.003928  -0.003586   0.001336  -0.006923
   39  C  6  S   -0.000263  -0.002778  -0.009050  -0.491273   0.856096
   40  C  6  S   -0.001505  -0.005160  -0.000835  -0.050068   0.086860
   41  C  6  X    0.000915  -0.000004   0.000730  -0.000110  -0.000622
   42  C  6  Y    0.000308   0.001523   0.000133   0.001707  -0.001075
   43  C  6  Z   -0.000127   0.000324  -0.000130   0.000373  -0.000087
   44  C  6  S    0.022283   0.044973  -0.007528   0.038377  -0.087058
   45  C  6  X   -0.016573  -0.006502   0.001471   0.001193   0.012422
   46  C  6  Y   -0.017876  -0.029077   0.006936  -0.007614   0.022704
   47  C  6  Z   -0.000191  -0.004674   0.001234  -0.001811   0.002038
   48  C  7  S   -0.000072   0.987316   0.000625   0.000620   0.002442
   49  C  7  S    0.001733   0.099533  -0.000801  -0.001613  -0.005920
   50  C  7  X    0.000158  -0.001129   0.000143   0.000262   0.001183
   51  C  7  Y    0.000051  -0.000114   0.000011   0.001786  -0.000340
   52  C  7  Z   -0.000027   0.000227  -0.000010   0.000313  -0.000326
   53  C  7  S   -0.004548  -0.094253   0.010803   0.014105   0.051373
   54  C  7  X    0.040682   0.038995  -0.005721  -0.005846  -0.025739
   55  C  7  Y    0.003240   0.004713  -0.000922  -0.021119   0.001893
   56  C  7  Z   -0.008074  -0.007489   0.000943  -0.003107   0.005976
   57  C  8  S   -0.000262  -0.002750  -0.009025   0.855889   0.490695
   58  C  8  S   -0.001476  -0.005230  -0.000769   0.086978   0.049721
   59  C  8  X    0.001195   0.000103   0.000747  -0.000329  -0.000571
   60  C  8  Y   -0.000077  -0.001566  -0.000007   0.001868  -0.000071
   61  C  8  Z   -0.000267  -0.000339  -0.000170   0.000463   0.000107
   62  C  8  S    0.023533   0.046400  -0.008135  -0.077686  -0.057366
   63  C  8  X   -0.019676  -0.007316   0.001547   0.006185   0.011281
   64  C  8  Y    0.014512   0.029292  -0.007169  -0.017185  -0.015191
   65  C  8  Z    0.007185   0.007587  -0.001666  -0.004902  -0.005551
   66  C  9  S    0.000250  -0.000187  -0.015785  -0.025165  -0.028920
   67  C  9  S    0.001015   0.000619  -0.005559  -0.006007  -0.005977
   68  C  9  X   -0.000748  -0.001153   0.000650  -0.001203  -0.000966
   69  C  9  Y   -0.000256  -0.000250  -0.001386  -0.000497  -0.000688
   70  C  9  Z    0.000105   0.000194  -0.000403   0.000144   0.000071
   71  C  9  S   -0.022979  -0.021956   0.033088   0.030246   0.031252
   72  C  9  X   -0.009447  -0.006122  -0.005003   0.012291   0.012577
   73  C  9  Y   -0.007799  -0.012737   0.019023   0.011242   0.013607
   74  C  9  Z    0.000456  -0.001299   0.004609  -0.000298   0.000051
   75  O 10  S    0.983773   0.000247  -0.000022  -0.000016  -0.000054
   76  O 10  S    0.100862   0.002879  -0.000207  -0.000197  -0.000778
   77  O 10  X   -0.003077  -0.001048   0.000047   0.000005   0.000355
   78  O 10  Y   -0.002860  -0.000071  -0.000029  -0.000215  -0.000065
   79  O 10  Z    0.000063   0.000207  -0.000021  -0.000045  -0.000089
   80  O 10  S   -0.057822  -0.007663   0.001110   0.001377   0.003665
   81  O 10  X    0.012794   0.004915  -0.000336  -0.000154  -0.001119
   82  O 10  Y    0.006208   0.000361   0.000122   0.002255   0.000009
   83  O 10  Z   -0.001453  -0.000964   0.000121   0.000497   0.000235
   84  H 11  S   -0.000104  -0.000160  -0.000652   0.000343  -0.000303
   85  H 11  S   -0.000347  -0.000221   0.000105   0.000740   0.000310
   86  H 12  S   -0.000083  -0.000158  -0.000609  -0.000457  -0.000097
   87  H 12  S   -0.000475  -0.000236  -0.000591  -0.000482   0.000726
   88  H 13  S   -0.000217  -0.000638  -0.000430   0.000120   0.000179
   89  H 13  S   -0.001761  -0.002162   0.002876  -0.000737   0.005174
   90  H 14  S    0.001817   0.000581  -0.000532   0.000685  -0.002307
   91  H 14  S    0.007483   0.007777  -0.001117  -0.003456   0.004639
   92  H 15  S    0.002117   0.000531  -0.000500  -0.001680  -0.001497
   93  H 15  S    0.006888   0.008019  -0.001135   0.005450   0.001883
   94  H 16  S   -0.000192  -0.000692  -0.000431   0.000039   0.000306
   95  H 16  S   -0.001804  -0.002336   0.002880   0.003136   0.004010
   96  H 17  S    0.003443   0.000078   0.000019   0.000326  -0.000020
   97  H 17  S    0.002932  -0.000798   0.000306  -0.000457   0.001561
   98  H 18  S   -0.000022  -0.000026  -0.000013  -0.000016  -0.000005
   99  H 18  S    0.000166   0.000152   0.003556  -0.000018   0.000087
  100  H 19  S   -0.000004   0.000026  -0.000966  -0.000082   0.000054
  101  H 19  S   -0.000073  -0.000014  -0.001115  -0.000437   0.000289

                      6          7          8          9         10
                  -11.4033   -11.3829   -11.3353   -11.3032    -1.6376
                     A          A          A          A          A   
    1  C  1  S    0.000089   0.000081  -0.003241   0.987494   0.000022
    2  C  1  S    0.000167   0.000159  -0.002753   0.101623   0.000367
    3  C  1  X   -0.000165  -0.000188   0.000500   0.000475   0.000208
    4  C  1  Y    0.000071  -0.000004  -0.000133  -0.000067  -0.000050
    5  C  1  Z   -0.000151  -0.000146   0.000503   0.000233   0.000136
    6  C  1  S   -0.001387  -0.001231   0.022119  -0.079633  -0.000751
    7  C  1  X   -0.000087  -0.000039   0.007186  -0.003133  -0.000622
    8  C  1  Y   -0.000501   0.000413  -0.002676   0.000889   0.000094
    9  C  1  Z    0.000087   0.000434   0.009647  -0.003202  -0.000293
   10  H  2  S   -0.000172   0.000161  -0.001412   0.000238   0.000045
   11  H  2  S    0.000500   0.000397   0.000362   0.014477   0.000202
   12  C  3  S   -0.001927  -0.002462   0.988049   0.002561   0.000001
   13  C  3  S   -0.001391  -0.001360   0.104947  -0.001167   0.001009
   14  C  3  X   -0.000064  -0.000046   0.000542  -0.000625  -0.000584
   15  C  3  Y    0.000113  -0.000113   0.000135  -0.000017  -0.000079
   16  C  3  Z    0.000070   0.000022  -0.000382  -0.000019   0.000242
   17  C  3  S    0.010141   0.010002  -0.095831   0.011972  -0.016776
   18  C  3  X    0.004784   0.004977  -0.005994  -0.008250  -0.007558
   19  C  3  Y    0.002625  -0.002087  -0.002041   0.002505   0.000191
   20  C  3  Z   -0.000312  -0.001321   0.006596  -0.009361  -0.000553
   21  C  4  S    0.015437   0.006006  -0.000019   0.002239  -0.001808
   22  C  4  S   -0.002461  -0.003408  -0.001108  -0.002103   0.004345
   23  C  4  X   -0.001649  -0.001529   0.000479   0.001475   0.004286
   24  C  4  Y    0.001139  -0.001331   0.000132  -0.000119   0.000384
   25  C  4  Z    0.000584   0.000044  -0.000274   0.000370  -0.000843
   26  C  4  S    0.033935   0.035436   0.015906   0.006881  -0.020402
   27  C  4  X    0.026458   0.026076  -0.020793  -0.006364  -0.035786
   28  C  4  Y   -0.012455   0.016608  -0.001862   0.000279  -0.003958
   29  C  4  Z   -0.008104  -0.001989   0.003057   0.000183   0.006910
   30  C  5  S   -0.003803   0.987450   0.002247  -0.000034  -0.004126
   31  C  5  S   -0.000479   0.099606  -0.000511   0.000110   0.002287
   32  C  5  X    0.000266   0.000964   0.000845  -0.000261   0.006173
   33  C  5  Y    0.001002  -0.001368   0.000304   0.000013  -0.002468
   34  C  5  Z    0.000137  -0.000497  -0.000028  -0.000048  -0.001844
   35  C  5  S   -0.012021  -0.098038   0.000961   0.001323   0.073382
   36  C  5  X   -0.007733  -0.013272  -0.002405   0.004189   0.029187
   37  C  5  Y    0.005846   0.023742  -0.004275  -0.000103  -0.016590
   38  C  5  Z    0.002894   0.007772  -0.000521  -0.000099  -0.009839
   39  C  6  S    0.012061   0.008194   0.000921   0.000040  -0.018157
   40  C  6  S    0.000225  -0.003846  -0.000762   0.000090   0.025780
   41  C  6  X    0.000184   0.001414   0.000426   0.000099   0.011595
   42  C  6  Y    0.000335   0.000723   0.000175   0.000071  -0.016786
   43  C  6  Z    0.000037  -0.000148  -0.000111   0.000030  -0.006007
   44  C  6  S    0.011498   0.040249   0.003608  -0.003131  -0.050993
   45  C  6  X   -0.005328  -0.018517  -0.003328   0.001549   0.059481
   46  C  6  Y   -0.006600  -0.016774  -0.001316   0.000045   0.057523
   47  C  6  Z   -0.000245   0.000498   0.000666  -0.000710  -0.000740
   48  C  7  S    0.000703   0.000593   0.000115   0.000027  -0.086464
   49  C  7  S    0.000227   0.000388  -0.000121  -0.000055   0.093961
   50  C  7  X    0.000593   0.000616   0.000109   0.000065   0.084995
   51  C  7  Y    0.000720  -0.000597  -0.000003   0.000013   0.006627
   52  C  7  Z    0.000022  -0.000257  -0.000021  -0.000049  -0.016875
   53  C  7  S   -0.013948  -0.015625  -0.000546  -0.000007   0.162995
   54  C  7  X    0.008497   0.009451   0.001642  -0.000833  -0.123881
   55  C  7  Y    0.002060  -0.000918   0.000369  -0.000172  -0.012534
   56  C  7  Z   -0.001415  -0.002232  -0.000415   0.000453   0.024088
   57  C  8  S    0.035120   0.002776   0.000885   0.000031  -0.018628
   58  C  8  S   -0.001040  -0.000747  -0.000720   0.000091   0.025692
   59  C  8  X    0.001365   0.000218   0.000431   0.000098   0.010176
   60  C  8  Y   -0.000444  -0.000304  -0.000082  -0.000078   0.018608
   61  C  8  Z   -0.000380  -0.000103  -0.000175   0.000018   0.001634
   62  C  8  S    0.036857   0.013005   0.003132  -0.002983  -0.054386
   63  C  8  X   -0.018711  -0.006163  -0.002782   0.001411   0.068268
   64  C  8  Y    0.012684   0.006175   0.000933   0.000312  -0.048986
   65  C  8  Z    0.006642   0.002574   0.001068  -0.000719  -0.024680
   66  C  9  S    0.986603   0.003694   0.001675  -0.000074  -0.004333
   67  C  9  S    0.099416   0.000366  -0.000626   0.000101   0.002178
   68  C  9  X    0.000770   0.000374   0.000833  -0.000299   0.005994
   69  C  9  Y    0.001436  -0.000918  -0.000198   0.000016   0.003516
   70  C  9  Z    0.000130  -0.000287  -0.000084  -0.000115  -0.000561
   71  C  9  S   -0.095865  -0.013590   0.001282   0.001774   0.076614
   72  C  9  X   -0.010533  -0.007636  -0.001861   0.003784   0.031313
   73  C  9  Y   -0.024806  -0.007712   0.003631   0.000661   0.021392
   74  C  9  Z   -0.002914   0.000062   0.000881   0.000353  -0.002396
   75  O 10  S    0.000019   0.000014   0.000014  -0.000010  -0.222857
   76  O 10  S    0.000098   0.000047   0.000087  -0.000079   0.204811
   77  O 10  X    0.000143   0.000144   0.000036   0.000003  -0.051587
   78  O 10  Y    0.000135  -0.000205  -0.000018   0.000006  -0.060532
   79  O 10  Z   -0.000004  -0.000074  -0.000015   0.000013  -0.001569
   80  O 10  S   -0.001551  -0.001296  -0.000667   0.000439   0.738461
   81  O 10  X   -0.000161  -0.000300   0.000095  -0.000134  -0.096219
   82  O 10  Y   -0.000506   0.000988   0.000104  -0.000044  -0.079747
   83  O 10  Z   -0.000065   0.000272   0.000025  -0.000045   0.003997
   84  H 11  S   -0.000569  -0.000143   0.001218  -0.000991   0.000401
   85  H 11  S   -0.000281   0.000418   0.013918   0.001565   0.001286
   86  H 12  S   -0.000153  -0.000587   0.001206  -0.001015   0.000352
   87  H 12  S    0.000351  -0.000351   0.013951   0.001593   0.001718
   88  H 13  S   -0.000572  -0.002321  -0.000023   0.000520   0.000984
   89  H 13  S   -0.001770   0.004840   0.001118   0.000183   0.003380
   90  H 14  S    0.000263   0.000144   0.000009   0.000076   0.000898
   91  H 14  S    0.002415   0.005741   0.001116   0.000048  -0.025900
   92  H 15  S    0.000051   0.000295   0.000013   0.000076   0.000953
   93  H 15  S    0.005532   0.002397   0.001092   0.000043  -0.026853
   94  H 16  S   -0.002328  -0.000602   0.000056   0.000443   0.001023
   95  H 16  S    0.005120  -0.001860   0.000830   0.000362   0.003826
   96  H 17  S   -0.000324   0.000288   0.000023  -0.000018   0.087240
   97  H 17  S    0.000589  -0.000122   0.000075  -0.000010   0.013608
   98  H 18  S    0.000006  -0.000007  -0.001048   0.000200   0.000105
   99  H 18  S    0.000459   0.000488  -0.000067   0.013429  -0.000786
  100  H 19  S    0.000148  -0.000216  -0.001386   0.000196   0.000012
  101  H 19  S    0.000417   0.000532   0.000295   0.014559   0.000286

                     11         12         13         14         15
                   -1.3905    -1.2753    -1.2399    -1.1638    -1.0679
                     A          A          A          A          A   
    1  C  1  S   -0.008462  -0.042716   0.008748  -0.130787  -0.026210
    2  C  1  S    0.010904   0.047145  -0.009172   0.127907   0.024026
    3  C  1  X    0.007524   0.021903  -0.003648   0.023865  -0.002430
    4  C  1  Y   -0.001335  -0.005604  -0.000205  -0.010399   0.007031
    5  C  1  Z    0.005067   0.020264  -0.003914   0.036602  -0.000165
    6  C  1  S    0.010645   0.081537  -0.019301   0.340801   0.083005
    7  C  1  X   -0.007493  -0.011847   0.001264   0.005929   0.002708
    8  C  1  Y    0.001003   0.000707  -0.002803  -0.001293   0.003341
    9  C  1  Z   -0.003916  -0.005627  -0.000433   0.005294   0.002531
   10  H  2  S    0.004687   0.021050  -0.003569   0.064494   0.011705
   11  H  2  S   -0.000821  -0.001992  -0.000558  -0.000502   0.001359
   12  C  3  S   -0.028477  -0.093732   0.015118  -0.132661   0.003544
   13  C  3  S    0.029015   0.086913  -0.013859   0.121699  -0.003213
   14  C  3  X    0.022553   0.040297  -0.003847  -0.035160  -0.020390
   15  C  3  Y    0.001578   0.003783  -0.010235   0.009046   0.033118
   16  C  3  Z   -0.005061  -0.015359   0.000659  -0.033962  -0.003000
   17  C  3  S    0.056949   0.242537  -0.042699   0.386254  -0.011753
   18  C  3  X   -0.005622   0.012266  -0.002963   0.013249  -0.003311
   19  C  3  Y    0.000877   0.005998   0.000919   0.003276   0.015179
   20  C  3  Z   -0.004038  -0.014368   0.002384  -0.012883   0.001906
   21  C  4  S   -0.102368  -0.139335   0.014936   0.036817   0.019064
   22  C  4  S    0.112700   0.149404  -0.015994  -0.035315  -0.019519
   23  C  4  X    0.053028  -0.010016   0.008744  -0.126553   0.002677
   24  C  4  Y    0.000547  -0.011597  -0.084320  -0.006929   0.175328
   25  C  4  Z   -0.012076  -0.004143  -0.018598   0.014200   0.033031
   26  C  4  S    0.227369   0.351142  -0.041467  -0.129187  -0.057406
   27  C  4  X    0.020150   0.027143  -0.006509  -0.019311   0.005081
   28  C  4  Y    0.002616  -0.002366  -0.017044  -0.000564   0.070777
   29  C  4  Z   -0.005380  -0.007928  -0.001921   0.003293   0.012508
   30  C  5  S   -0.084482  -0.035365   0.102709   0.062857  -0.110548
   31  C  5  S    0.098658   0.038831  -0.113845  -0.067789   0.116227
   32  C  5  X    0.028392  -0.071531  -0.053152  -0.007292  -0.027712
   33  C  5  Y   -0.049240  -0.052955   0.001697   0.030685   0.004738
   34  C  5  Z   -0.016617   0.003746   0.011923   0.006189   0.006552
   35  C  5  S    0.118506   0.064712  -0.196160  -0.138326   0.311256
   36  C  5  X    0.004528   0.009178  -0.000764  -0.011959   0.002471
   37  C  5  Y   -0.000252   0.005713   0.002382   0.014416  -0.009759
   38  C  5  Z   -0.000631  -0.000655   0.000863   0.003215  -0.003566
   39  C  6  S   -0.096111   0.077854   0.126842  -0.003954   0.042516
   40  C  6  S    0.109299  -0.084728  -0.136330   0.006036  -0.045378
   41  C  6  X   -0.022734  -0.042290   0.038616   0.072250  -0.153196
   42  C  6  Y   -0.060183   0.050151   0.010563  -0.028724   0.031349
   43  C  6  Z   -0.007566   0.019481  -0.006201  -0.022074   0.039452
   44  C  6  S    0.194206  -0.188890  -0.330027  -0.000154  -0.126059
   45  C  6  X   -0.008472   0.003555   0.012940   0.028337  -0.050427
   46  C  6  Y   -0.018305   0.005876   0.027077   0.013646   0.000102
   47  C  6  Z   -0.002165   0.000102   0.002761  -0.003076   0.011053
   48  C  7  S   -0.090284   0.104592  -0.005346  -0.071089   0.026314
   49  C  7  S    0.108610  -0.120749   0.005804   0.080159  -0.028338
   50  C  7  X   -0.095282   0.071611  -0.002964  -0.017719  -0.030240
   51  C  7  Y   -0.007063  -0.008701  -0.151286  -0.007979  -0.207895
   52  C  7  Z    0.019204  -0.017379  -0.030708   0.002122  -0.036629
   53  C  7  S    0.174751  -0.257762   0.012136   0.214398  -0.111546
   54  C  7  X   -0.037008   0.054337  -0.002194  -0.047304   0.024481
   55  C  7  Y   -0.012061   0.016174  -0.027262  -0.018828  -0.094706
   56  C  7  Z    0.005695  -0.008243  -0.005188   0.005936  -0.025131
   57  C  8  S   -0.096592   0.054505  -0.136823  -0.019317  -0.077944
   58  C  8  S    0.110453  -0.060171   0.145894   0.022903   0.077816
   59  C  8  X   -0.029400  -0.044997  -0.035112   0.065746   0.094518
   60  C  8  Y    0.054892  -0.054198   0.008680   0.039995   0.020209
   61  C  8  Z    0.017717  -0.001543   0.009447  -0.006365  -0.016340
   62  C  8  S    0.176121  -0.112042   0.343634   0.029172   0.275517
   63  C  8  X   -0.009255   0.007121  -0.004306   0.018847   0.025915
   64  C  8  Y    0.008280   0.008267   0.025217  -0.014170   0.037860
   65  C  8  Z    0.003491  -0.000186   0.006257  -0.006647   0.002314
   66  C  9  S   -0.091400  -0.057730  -0.098889   0.057826   0.091130
   67  C  9  S    0.105869   0.064058   0.108710  -0.062499  -0.096542
   68  C  9  X    0.023468  -0.069453   0.067657   0.006693   0.090160
   69  C  9  Y    0.055519   0.045287  -0.000227  -0.032846  -0.010767
   70  C  9  Z    0.006178   0.023625  -0.014441  -0.010063  -0.022236
   71  C  9  S    0.145649   0.109794   0.215601  -0.137364  -0.277592
   72  C  9  X    0.006697   0.007293   0.008440  -0.011189   0.016359
   73  C  9  Y    0.007467  -0.005606   0.007388  -0.013868  -0.020899
   74  C  9  Z    0.000575  -0.002568  -0.000402  -0.003036  -0.008522
   75  O 10  S    0.048132  -0.044130   0.006707   0.027253   0.002739
   76  O 10  S   -0.047272   0.043977  -0.007656  -0.028078  -0.003224
   77  O 10  X   -0.022381   0.048727   0.005970  -0.057485   0.073990
   78  O 10  Y    0.017149  -0.022667  -0.028591   0.017173  -0.100152
   79  O 10  Z    0.008440  -0.015270  -0.007208   0.015937  -0.036773
   80  O 10  S   -0.165781   0.157522  -0.022203  -0.097669  -0.011308
   81  O 10  X   -0.011117   0.037028   0.003367  -0.050656   0.067823
   82  O 10  Y    0.019909  -0.025039  -0.021389   0.018940  -0.088184
   83  O 10  Z    0.006534  -0.013258  -0.005153   0.014900  -0.032919
   84  H 11  S    0.010874   0.038782  -0.010040   0.067367   0.009973
   85  H 11  S   -0.003995  -0.005599  -0.002235   0.001268   0.006075
   86  H 12  S    0.011057   0.039954  -0.002940   0.067397  -0.015620
   87  H 12  S   -0.003424  -0.003111   0.004089   0.000769  -0.007776
   88  H 13  S    0.026692   0.018599  -0.049341  -0.027765   0.086991
   89  H 13  S   -0.007360   0.003165  -0.004242  -0.006000   0.033755
   90  H 14  S    0.029319  -0.032554  -0.061945   0.004219  -0.045452
   91  H 14  S   -0.009804   0.004325  -0.007689  -0.009188  -0.009692
   92  H 15  S    0.030114  -0.022296   0.068680   0.012760   0.070553
   93  H 15  S   -0.009517   0.003775   0.011288  -0.006022   0.034333
   94  H 16  S    0.029750   0.028903   0.047901  -0.025764  -0.078186
   95  H 16  S   -0.006137   0.002703   0.004982  -0.004887  -0.030488
   96  H 17  S   -0.031394   0.041359   0.011326  -0.036691   0.070377
   97  H 17  S   -0.010050   0.013914   0.003802  -0.014959   0.031052
   98  H 18  S    0.002556   0.015913  -0.003465   0.063437   0.015737
   99  H 18  S   -0.005763  -0.009730   0.001299   0.001704   0.003588
  100  H 19  S    0.004651   0.020845  -0.005044   0.064302   0.018943
  101  H 19  S   -0.000695  -0.001111   0.001097  -0.000820   0.003602

                     16         17         18         19         20
                   -1.0468    -0.9865    -0.9476    -0.8909    -0.8492
                     A          A          A          A          A   
    1  C  1  S   -0.109695   0.107160   0.011536   0.012948  -0.010308
    2  C  1  S    0.098982  -0.096133  -0.009594  -0.011249   0.010537
    3  C  1  X   -0.018858   0.031410   0.003997   0.000963   0.027201
    4  C  1  Y    0.002361  -0.019655  -0.011131   0.013102   0.027183
    5  C  1  Z   -0.018116   0.065561   0.012121   0.036103  -0.050186
    6  C  1  S    0.359506  -0.384488  -0.046395  -0.054422   0.046406
    7  C  1  X    0.011632  -0.003814  -0.002663  -0.003794   0.018498
    8  C  1  Y   -0.002287  -0.004730  -0.006086   0.011394   0.018418
    9  C  1  Z    0.003419   0.014438   0.002550   0.018280  -0.030359
   10  H  2  S    0.067044  -0.080134  -0.007444  -0.029397   0.023350
   11  H  2  S    0.012439  -0.024674  -0.003490  -0.014818   0.013671
   12  C  3  S    0.031524  -0.108641  -0.020897  -0.029929   0.036530
   13  C  3  S   -0.026493   0.095649   0.016633   0.023833  -0.028281
   14  C  3  X   -0.081580   0.023043  -0.005830  -0.041771   0.118367
   15  C  3  Y    0.001041  -0.028588  -0.028435   0.058280   0.053025
   16  C  3  Z   -0.048695   0.083888   0.007801   0.047014  -0.061932
   17  C  3  S   -0.111013   0.391260   0.086569   0.132518  -0.190834
   18  C  3  X   -0.017796   0.004041   0.000569  -0.014984   0.044783
   19  C  3  Y   -0.003918  -0.010671  -0.013780   0.034404   0.031827
   20  C  3  Z   -0.006987   0.027014   0.001494   0.026346  -0.038670
   21  C  4  S    0.080750   0.039613  -0.008567   0.018032  -0.074656
   22  C  4  S   -0.082069  -0.042184   0.009630  -0.016239   0.073827
   23  C  4  X    0.046188  -0.145034   0.017589   0.021705  -0.067732
   24  C  4  Y   -0.049797  -0.031264  -0.087648   0.181095   0.065762
   25  C  4  Z   -0.033164   0.046171  -0.018804   0.042929  -0.001012
   26  C  4  S   -0.276353  -0.156452   0.041172  -0.079664   0.306090
   27  C  4  X    0.021105  -0.091152   0.031115   0.029045  -0.087214
   28  C  4  Y   -0.024855  -0.022165  -0.055107   0.124053   0.042499
   29  C  4  Z   -0.015594   0.032175  -0.015458   0.028644  -0.000375
   30  C  5  S   -0.014285   0.003379   0.056400   0.000597   0.050705
   31  C  5  S    0.015020  -0.004224  -0.056555   0.001032  -0.054203
   32  C  5  X    0.115288   0.056742   0.092366  -0.092639  -0.114178
   33  C  5  Y    0.076529   0.105774  -0.056132  -0.110048  -0.095966
   34  C  5  Z   -0.011370   0.015058  -0.031170  -0.000270  -0.007068
   35  C  5  S    0.018357   0.001996  -0.209557  -0.027029  -0.164148
   36  C  5  X    0.007552   0.012626   0.034749  -0.036874  -0.028171
   37  C  5  Y    0.020193   0.039692  -0.030385  -0.061209  -0.064381
   38  C  5  Z   -0.000951   0.010464  -0.013096  -0.003125  -0.015149
   39  C  6  S   -0.070532  -0.057420  -0.025776   0.026181  -0.041303
   40  C  6  S    0.070704   0.058098   0.027030  -0.021754   0.041096
   41  C  6  X   -0.067187  -0.015779  -0.018405   0.078359   0.211363
   42  C  6  Y    0.064868   0.084842  -0.097975  -0.141976   0.084092
   43  C  6  Z    0.027165   0.023505  -0.016213  -0.044918  -0.040649
   44  C  6  S    0.270115   0.215295   0.092507  -0.161421   0.142261
   45  C  6  X   -0.057540  -0.007060  -0.042011   0.000539   0.146812
   46  C  6  Y   -0.012768   0.031000  -0.079557  -0.077693   0.102267
   47  C  6  Z    0.010168   0.008709  -0.007553  -0.015108  -0.019972
   48  C  7  S    0.084995   0.039290  -0.002290   0.019257   0.023594
   49  C  7  S   -0.093242  -0.043113   0.004621  -0.021028  -0.028419
   50  C  7  X   -0.033343  -0.020656  -0.227884  -0.097312  -0.055396
   51  C  7  Y    0.058186   0.002074  -0.051450   0.165699   0.086803
   52  C  7  Z    0.018864   0.006132   0.038548   0.057040   0.011388
   53  C  7  S   -0.314682  -0.163526   0.002979  -0.056444  -0.074519
   54  C  7  X    0.065116   0.031024  -0.100074  -0.032381  -0.049416
   55  C  7  Y    0.060122   0.012647  -0.031805   0.192426   0.074769
   56  C  7  Z   -0.002529  -0.002749   0.015158   0.048419   0.008568
   57  C  8  S   -0.020325  -0.041792   0.027663  -0.025673  -0.037112
   58  C  8  S    0.017061   0.040731  -0.027164   0.024442   0.035136
   59  C  8  X   -0.131496  -0.009253   0.015892  -0.203791   0.087121
   60  C  8  Y   -0.095847  -0.087382   0.152710  -0.042567  -0.143484
   61  C  8  Z    0.007738  -0.013710   0.028141   0.037023  -0.060227
   62  C  8  S    0.125101   0.167615  -0.110816   0.157616   0.146417
   63  C  8  X   -0.056574   0.010882  -0.003104  -0.129654   0.120556
   64  C  8  Y    0.004489  -0.026692   0.097152   0.023323  -0.116856
   65  C  8  Z    0.013669  -0.007346   0.020603   0.033922  -0.059356
   66  C  9  S   -0.075608  -0.005866   0.020899   0.012338   0.042113
   67  C  9  S    0.079859   0.005069  -0.020080  -0.009890  -0.047876
   68  C  9  X    0.071912   0.039754  -0.045954   0.233000  -0.010713
   69  C  9  Y   -0.060476  -0.104414   0.102464  -0.003334   0.024409
   70  C  9  Z   -0.030446  -0.024500   0.031600  -0.047605  -0.005303
   71  C  9  S    0.214967   0.038722  -0.087826  -0.070480  -0.111153
   72  C  9  X    0.011501   0.013026  -0.004808   0.100716   0.035508
   73  C  9  Y   -0.019634  -0.048926   0.047667   0.012146   0.036623
   74  C  9  Z   -0.010538  -0.007543   0.011438  -0.016589  -0.008776
   75  O 10  S   -0.029598  -0.005295   0.000438  -0.042216   0.006320
   76  O 10  S    0.033168   0.007709  -0.000117   0.045855  -0.002795
   77  O 10  X    0.123418   0.075342   0.239346   0.101444   0.111513
   78  O 10  Y   -0.018032  -0.031083  -0.157540   0.162521  -0.025331
   79  O 10  Z   -0.030581  -0.021960  -0.084328   0.013576  -0.056433
   80  O 10  S    0.101930   0.014306  -0.002100   0.162320  -0.028757
   81  O 10  X    0.120721   0.076529   0.233125   0.109429   0.117866
   82  O 10  Y   -0.021821  -0.030816  -0.152440   0.153411  -0.029348
   83  O 10  Z   -0.030601  -0.022315  -0.081966   0.009931  -0.059413
   84  H 11  S   -0.024479   0.087774   0.006259   0.067459  -0.052742
   85  H 11  S   -0.007191   0.028509  -0.001570   0.036088  -0.031804
   86  H 12  S   -0.015129   0.091625   0.028794   0.000094  -0.083436
   87  H 12  S   -0.002334   0.031018   0.012263  -0.006495  -0.052240
   88  H 13  S    0.009330   0.027845  -0.099462  -0.021842  -0.060692
   89  H 13  S    0.002050   0.014583  -0.048263  -0.008274  -0.025249
   90  H 14  S    0.061492   0.075140  -0.027461  -0.067738   0.132474
   91  H 14  S    0.033088   0.028987  -0.004689  -0.018873   0.052385
   92  H 15  S    0.019125   0.067088  -0.083365  -0.023424   0.141698
   93  H 15  S    0.019044   0.031515  -0.031853  -0.009243   0.070331
   94  H 16  S    0.065088   0.043326  -0.055101  -0.066092  -0.052098
   95  H 16  S    0.022506   0.021885  -0.024882  -0.035495  -0.019580
   96  H 17  S    0.062562   0.044748   0.161009  -0.034086   0.060775
   97  H 17  S    0.033033   0.025714   0.097283  -0.006661   0.053916
   98  H 18  S    0.070322  -0.074797  -0.007741  -0.006510  -0.013073
   99  H 18  S    0.019632  -0.023265  -0.002977  -0.001975  -0.011744
  100  H 19  S    0.064628  -0.081134  -0.015057  -0.006620   0.034531
  101  H 19  S    0.011066  -0.025140  -0.006607  -0.004199   0.019103

                     21         22         23         24         25
                   -0.8353    -0.8203    -0.8033    -0.7841    -0.7473
                     A          A          A          A          A   
    1  C  1  S   -0.004740   0.003353   0.000077   0.001020   0.014091
    2  C  1  S    0.004259  -0.002321  -0.000047  -0.000386  -0.010239
    3  C  1  X   -0.010502  -0.020450   0.007389   0.057524   0.192463
    4  C  1  Y    0.003025  -0.032620   0.030014  -0.046306  -0.020008
    5  C  1  Z   -0.007527   0.030237   0.000791  -0.052636   0.012158
    6  C  1  S    0.017992  -0.018826   0.000096  -0.003762  -0.074170
    7  C  1  X   -0.006659  -0.018892   0.006062   0.044248   0.146544
    8  C  1  Y    0.002002  -0.023326   0.018409  -0.035361  -0.008499
    9  C  1  Z   -0.004757   0.015569  -0.000097  -0.040258  -0.008324
   10  H  2  S    0.003753  -0.006926  -0.011240   0.051867   0.023475
   11  H  2  S    0.000940  -0.007644  -0.009956   0.035778   0.019266
   12  C  3  S    0.004392  -0.021610   0.002913   0.008599  -0.023616
   13  C  3  S   -0.003832   0.015808  -0.001830  -0.004718   0.020985
   14  C  3  X    0.004632  -0.067532   0.015734   0.093047   0.058130
   15  C  3  Y    0.000348  -0.057850   0.048223  -0.083942   0.028373
   16  C  3  Z    0.008917   0.023359   0.003918  -0.088421  -0.158517
   17  C  3  S   -0.017961   0.103766  -0.017790  -0.067207   0.057416
   18  C  3  X    0.001258  -0.038089   0.006650   0.047425   0.023362
   19  C  3  Y    0.001033  -0.036431   0.048341  -0.061666   0.014109
   20  C  3  Z    0.003111   0.017577   0.006247  -0.066133  -0.124360
   21  C  4  S   -0.007609  -0.017679   0.001067  -0.004075   0.006319
   22  C  4  S    0.007933   0.023056  -0.001905   0.001137  -0.005366
   23  C  4  X    0.016042   0.125946  -0.023639  -0.121105  -0.132018
   24  C  4  Y   -0.007432  -0.087236  -0.046067  -0.098105   0.057821
   25  C  4  Z    0.042049  -0.032353  -0.007466  -0.036780  -0.145509
   26  C  4  S    0.028656   0.020610   0.000219   0.044115  -0.038859
   27  C  4  X    0.012163   0.082142  -0.021316  -0.107608  -0.162016
   28  C  4  Y   -0.007477  -0.070692  -0.027433  -0.091374   0.051690
   29  C  4  Z    0.038133  -0.020852  -0.003943  -0.035161  -0.133022
   30  C  5  S    0.005101   0.021062   0.014100  -0.010870   0.005273
   31  C  5  S   -0.005385  -0.022303  -0.018541   0.006665  -0.004325
   32  C  5  X    0.004713   0.153873  -0.144780   0.012371   0.084971
   33  C  5  Y   -0.022901  -0.069917   0.153671   0.138392  -0.003847
   34  C  5  Z    0.040266  -0.045382   0.063030   0.011904  -0.102359
   35  C  5  S   -0.018070  -0.071266   0.015728   0.077105  -0.012849
   36  C  5  X    0.006726   0.108885  -0.095415  -0.004072   0.080247
   37  C  5  Y   -0.016480  -0.089553   0.121071   0.084987  -0.029852
   38  C  5  Z    0.027795  -0.040126   0.045708   0.007830  -0.090641
   39  C  6  S   -0.004210  -0.017574   0.008584   0.017253  -0.010100
   40  C  6  S    0.004074   0.018479  -0.012976  -0.012198   0.011244
   41  C  6  X    0.040095  -0.103228   0.144186  -0.065428  -0.109838
   42  C  6  Y   -0.008834   0.142601   0.211206  -0.031722   0.001804
   43  C  6  Z    0.110741   0.048763   0.013388   0.001233  -0.040517
   44  C  6  S    0.017661   0.080491   0.014088  -0.151633   0.046867
   45  C  6  X    0.030732  -0.034461   0.138155  -0.071797  -0.065022
   46  C  6  Y   -0.002914   0.101997   0.190292  -0.016813  -0.016628
   47  C  6  Z    0.081596   0.026632   0.010095   0.005244  -0.055012
   48  C  7  S    0.003835   0.051429  -0.005029   0.003530   0.007486
   49  C  7  S   -0.004494  -0.057858   0.005326  -0.005989  -0.006763
   50  C  7  X    0.050405   0.109385  -0.008434  -0.136608   0.072226
   51  C  7  Y   -0.041946  -0.070376  -0.104362  -0.076847   0.018272
   52  C  7  Z    0.220426  -0.049622  -0.018906   0.017792  -0.031483
   53  C  7  S   -0.013253  -0.197001   0.025176   0.007592  -0.048064
   54  C  7  X    0.047920   0.095772  -0.006354  -0.050802   0.052656
   55  C  7  Y   -0.042741  -0.017086  -0.080955   0.086082  -0.039541
   56  C  7  Z    0.220411  -0.036342  -0.014322   0.035780  -0.021843
   57  C  8  S   -0.003588  -0.036127  -0.008417  -0.026822  -0.000981
   58  C  8  S    0.003413   0.036113   0.013082   0.021648   0.005702
   59  C  8  X    0.035079   0.011114  -0.137439   0.095143  -0.147209
   60  C  8  Y   -0.037389  -0.043778   0.196300   0.071151   0.005546
   61  C  8  Z    0.101621  -0.014723   0.069322  -0.012851  -0.033407
   62  C  8  S    0.014581   0.163520  -0.015535   0.187873  -0.046311
   63  C  8  X    0.031692   0.013253  -0.144478   0.043183  -0.111725
   64  C  8  Y   -0.030280  -0.026061   0.164115   0.087939   0.012455
   65  C  8  Z    0.075774  -0.010538   0.064333   0.001713  -0.039837
   66  C  9  S    0.004322   0.030430  -0.019371   0.021637   0.001207
   67  C  9  S   -0.004757  -0.027836   0.024169  -0.018976  -0.001853
   68  C  9  X    0.007437   0.063640   0.108002  -0.077368   0.112170
   69  C  9  Y    0.003579   0.238426   0.129764   0.015281   0.008446
   70  C  9  Z    0.049330   0.037816   0.002034   0.002146  -0.118206
   71  C  9  S   -0.014349  -0.159814   0.011592  -0.115625   0.014846
   72  C  9  X    0.010165   0.069184   0.065704  -0.051490   0.085265
   73  C  9  Y    0.004011   0.197539   0.101320  -0.012871   0.048949
   74  C  9  Z    0.034821   0.027765   0.005509  -0.006030  -0.089903
   75  O 10  S    0.000673  -0.022967   0.001971  -0.056650   0.010723
   76  O 10  S   -0.000409   0.023687  -0.002413   0.062221  -0.014258
   77  O 10  X    0.088325  -0.067148   0.013219   0.171302  -0.073904
   78  O 10  Y   -0.082874   0.131656  -0.017262   0.300782  -0.116878
   79  O 10  Z    0.387312   0.016307  -0.003444   0.056315   0.137847
   80  O 10  S   -0.002864   0.095321  -0.005810   0.228944  -0.039609
   81  O 10  X    0.092393  -0.066358   0.014479   0.200508  -0.086528
   82  O 10  Y   -0.086636   0.140727  -0.011685   0.322391  -0.130008
   83  O 10  Z    0.404503   0.016474  -0.002330   0.057642   0.158351
   84  H 11  S   -0.000028   0.012799   0.018578  -0.097203  -0.059238
   85  H 11  S    0.000886   0.001863   0.012989  -0.068035  -0.052231
   86  H 12  S   -0.002792   0.059416  -0.034323   0.015512  -0.038873
   87  H 12  S   -0.000866   0.033089  -0.022978   0.011003  -0.040082
   88  H 13  S   -0.010736  -0.113541   0.124490   0.079513  -0.058863
   89  H 13  S   -0.005527  -0.058633   0.079006   0.050707  -0.034070
   90  H 14  S    0.015607   0.066446   0.144133  -0.048222  -0.025944
   91  H 14  S    0.006541   0.037477   0.067160  -0.002613  -0.021281
   92  H 15  S    0.015945   0.062042  -0.150245   0.020475  -0.047863
   93  H 15  S    0.008237   0.032941  -0.087583   0.012364  -0.031174
   94  H 16  S   -0.010839  -0.180119  -0.086053  -0.007276  -0.034591
   95  H 16  S   -0.005352  -0.094983  -0.056462  -0.006442  -0.014623
   96  H 17  S    0.002781  -0.082461   0.008988  -0.090646   0.006801
   97  H 17  S    0.002765  -0.059472  -0.001000  -0.050969  -0.006127
   98  H 18  S    0.008488   0.014258  -0.005675  -0.039025  -0.130353
   99  H 18  S    0.005053   0.009189  -0.003764  -0.026966  -0.095383
  100  H 19  S    0.004685  -0.030040   0.019110  -0.010753   0.001695
  101  H 19  S    0.001664  -0.020389   0.016096  -0.005553  -0.000306

                     26         27         28         29         30
                   -0.7423    -0.7126    -0.7013    -0.6657    -0.6469
                     A          A          A          A          A   
    1  C  1  S    0.000510   0.006320   0.000078   0.003309   0.003894
    2  C  1  S   -0.000132  -0.006013  -0.000120  -0.003926  -0.007437
    3  C  1  X    0.026853  -0.076739   0.017495  -0.165492   0.227851
    4  C  1  Y    0.217986  -0.019112   0.098874   0.049687   0.054569
    5  C  1  Z    0.051277   0.143066   0.012762  -0.207149  -0.191800
    6  C  1  S   -0.003622  -0.030659  -0.000749   0.027570  -0.007957
    7  C  1  X    0.021788  -0.069794   0.016246  -0.131923   0.233079
    8  C  1  Y    0.162723  -0.016372   0.079722   0.032817   0.046197
    9  C  1  Z    0.035200   0.114934   0.009316  -0.143829  -0.161085
   10  H  2  S   -0.110898  -0.081538  -0.046631   0.057094   0.119566
   11  H  2  S   -0.090341  -0.062366  -0.044469   0.060030   0.118137
   12  C  3  S   -0.001647  -0.002838  -0.001144   0.018908  -0.001278
   13  C  3  S    0.002340  -0.001739   0.001625  -0.008849  -0.007139
   14  C  3  X    0.024069  -0.162452   0.012072   0.171269  -0.132951
   15  C  3  Y    0.242862   0.011053   0.026782  -0.056210  -0.042767
   16  C  3  Z    0.047066  -0.010806   0.007077   0.211018   0.145388
   17  C  3  S   -0.006349   0.076273  -0.004304  -0.144659   0.103754
   18  C  3  X    0.008192  -0.087777   0.003984   0.101885  -0.046381
   19  C  3  Y    0.231842   0.012805   0.042296  -0.056821  -0.035873
   20  C  3  Z    0.049272   0.001834   0.010375   0.206039   0.130418
   21  C  4  S   -0.001714   0.008631   0.003926  -0.016248   0.031254
   22  C  4  S    0.001332  -0.007771  -0.003681   0.012902  -0.027025
   23  C  4  X   -0.035427   0.125761  -0.007587  -0.115084   0.195675
   24  C  4  Y   -0.048435   0.021427  -0.226811  -0.015032   0.014333
   25  C  4  Z   -0.012650  -0.182534  -0.040993   0.068688  -0.010332
   26  C  4  S    0.011531  -0.033795  -0.023764   0.071741  -0.160272
   27  C  4  X   -0.040609   0.171447  -0.021762  -0.187470   0.279855
   28  C  4  Y   -0.036637   0.030776  -0.185273  -0.017288   0.020424
   29  C  4  Z   -0.009279  -0.197204  -0.028821   0.062352  -0.028928
   30  C  5  S    0.018211  -0.009026   0.001765   0.006972  -0.008770
   31  C  5  S   -0.018718   0.010177  -0.001012  -0.008853   0.008657
   32  C  5  X    0.123555  -0.118719   0.007811   0.043588  -0.060294
   33  C  5  Y   -0.004570   0.018419   0.212246   0.021684  -0.036085
   34  C  5  Z   -0.034924  -0.072181   0.045606  -0.043939   0.003389
   35  C  5  S   -0.068640   0.013706  -0.001800  -0.002491   0.002950
   36  C  5  X    0.092636  -0.113097  -0.077141   0.051581  -0.087855
   37  C  5  Y   -0.035943   0.055349   0.211097  -0.018677   0.001905
   38  C  5  Z   -0.034014  -0.047417   0.062199  -0.045740   0.011430
   39  C  6  S   -0.010305   0.010704   0.003621  -0.007152   0.008906
   40  C  6  S    0.012283  -0.012633  -0.003823   0.008383  -0.011466
   41  C  6  X   -0.114937   0.072617   0.006165  -0.078704   0.060380
   42  C  6  Y    0.033122   0.031298  -0.171008   0.017460   0.021701
   43  C  6  Z    0.025927  -0.135718  -0.033208  -0.117616  -0.032937
   44  C  6  S    0.022806  -0.032163  -0.004338   0.013638  -0.002861
   45  C  6  X   -0.069859   0.032367  -0.071035  -0.064127   0.034302
   46  C  6  Y    0.019902   0.043902  -0.194421   0.017797   0.027070
   47  C  6  Z    0.013324  -0.128751  -0.021021  -0.131392  -0.026522
   48  C  7  S    0.006691  -0.007033  -0.004016   0.003266  -0.002024
   49  C  7  S   -0.008074   0.007002   0.005439  -0.003823   0.002447
   50  C  7  X   -0.015314  -0.056619   0.010900  -0.011890  -0.015478
   51  C  7  Y   -0.104911   0.022021   0.203880   0.026592   0.000375
   52  C  7  Z   -0.020151  -0.064493   0.043738  -0.122357  -0.020788
   53  C  7  S   -0.025584   0.039207   0.012366  -0.011881   0.009731
   54  C  7  X    0.012290  -0.046984  -0.014866  -0.009263  -0.010479
   55  C  7  Y   -0.041416   0.037596   0.132782   0.013170   0.009561
   56  C  7  Z   -0.011801  -0.035415   0.033475  -0.102052  -0.017698
   57  C  8  S    0.001814   0.007761   0.000525  -0.007144   0.008597
   58  C  8  S   -0.003234  -0.011144   0.001400   0.008841  -0.011608
   59  C  8  X    0.078290   0.080568  -0.029001  -0.082506   0.061870
   60  C  8  Y    0.057823   0.014474  -0.164303   0.025479   0.003415
   61  C  8  Z   -0.007996  -0.141786  -0.021035  -0.110132  -0.033650
   62  C  8  S    0.014318   0.002811  -0.040367   0.005829   0.006652
   63  C  8  X    0.033696   0.061184   0.071971  -0.074346   0.039594
   64  C  8  Y    0.057117   0.007063  -0.186283   0.028703   0.000697
   65  C  8  Z    0.001449  -0.144759  -0.047057  -0.125888  -0.030286
   66  C  9  S   -0.009969  -0.008694  -0.005506   0.008188  -0.008216
   67  C  9  S    0.010588   0.010130   0.004219  -0.010085   0.008313
   68  C  9  X   -0.089678  -0.133285   0.002305   0.051372  -0.062681
   69  C  9  Y   -0.026728   0.047521   0.200939  -0.004547   0.020722
   70  C  9  Z    0.010177  -0.078788   0.045486  -0.053678   0.018177
   71  C  9  S    0.036231   0.013643   0.040386  -0.009685   0.002602
   72  C  9  X   -0.062664  -0.108688   0.086093   0.051644  -0.088466
   73  C  9  Y   -0.043067  -0.000703   0.232620   0.035707  -0.022294
   74  C  9  Z    0.002035  -0.077707   0.033857  -0.036530   0.009318
   75  O 10  S   -0.020785  -0.000474   0.016072  -0.000924   0.001576
   76  O 10  S    0.021737   0.002723  -0.016696  -0.000122  -0.000099
   77  O 10  X    0.030974   0.100859  -0.037244   0.012237   0.030517
   78  O 10  Y    0.112139  -0.007768  -0.091891  -0.047450   0.006379
   79  O 10  Z    0.025568   0.185347  -0.018835   0.171937   0.024169
   80  O 10  S    0.088124  -0.002094  -0.070829   0.006308  -0.011385
   81  O 10  X    0.040032   0.118184  -0.048901   0.015274   0.038005
   82  O 10  Y    0.127364  -0.010689  -0.112840  -0.057371   0.007920
   83  O 10  Z    0.028084   0.217493  -0.022111   0.209388   0.029981
   84  H 11  S    0.121868   0.032778   0.017512   0.040969   0.090560
   85  H 11  S    0.081370   0.025765   0.014323   0.036985   0.092347
   86  H 12  S   -0.146413   0.019752  -0.020926   0.038331   0.087316
   87  H 12  S   -0.104298   0.017103  -0.017442   0.034777   0.090435
   88  H 13  S   -0.068047   0.052359   0.137622  -0.023282   0.017461
   89  H 13  S   -0.032206   0.028307   0.087222  -0.006895   0.009279
   90  H 14  S   -0.001693   0.023634  -0.115105  -0.015983   0.024459
   91  H 14  S    0.007096   0.018219  -0.066734  -0.013206   0.019858
   92  H 15  S   -0.007132   0.042353   0.097676  -0.018157   0.021258
   93  H 15  S   -0.002150   0.030202   0.056494  -0.015878   0.020212
   94  H 16  S    0.049014   0.028090  -0.135742  -0.021847   0.021499
   95  H 16  S    0.020905   0.011082  -0.082079  -0.004910   0.011164
   96  H 17  S   -0.048158   0.005867   0.040824  -0.002778   0.003022
   97  H 17  S   -0.038161   0.012944   0.040588  -0.005940   0.006844
   98  H 18  S   -0.022089   0.064097  -0.015451   0.085752  -0.200721
   99  H 18  S   -0.016283   0.049588  -0.011998   0.073761  -0.166603
  100  H 19  S    0.128114  -0.054592   0.064693   0.048397   0.111416
  101  H 19  S    0.101877  -0.038896   0.059613   0.051573   0.109845

                     31         32         33         34         35
                   -0.6334    -0.5657    -0.5535    -0.0840    -0.0573
                     A          A          A          A          A   
    1  C  1  S    0.000632   0.010068  -0.020347  -0.020535   0.003285
    2  C  1  S   -0.000701  -0.008286   0.016961   0.012773  -0.000462
    3  C  1  X   -0.009409  -0.049405   0.094507   0.033828  -0.004831
    4  C  1  Y    0.270126   0.030711  -0.016995  -0.007893   0.026692
    5  C  1  Z    0.068176  -0.052790   0.103841   0.044734  -0.003030
    6  C  1  S   -0.000640  -0.036762   0.075889   0.150560  -0.031091
    7  C  1  X   -0.007997  -0.042071   0.078589   0.029320  -0.020317
    8  C  1  Y    0.261197   0.029815  -0.009385  -0.017429   0.073997
    9  C  1  Z    0.068068  -0.039481   0.083110   0.094018  -0.002933
   10  H  2  S   -0.172227  -0.000115  -0.020309   0.001286  -0.012524
   11  H  2  S   -0.166776   0.016794  -0.039383   0.004704   0.049363
   12  C  3  S    0.000591   0.002858  -0.004815   0.000475  -0.000168
   13  C  3  S   -0.000748  -0.001671   0.002400  -0.000855  -0.000784
   14  C  3  X    0.007949   0.019258  -0.033968  -0.008075   0.001527
   15  C  3  Y   -0.238555  -0.023974   0.021412  -0.001242  -0.012368
   16  C  3  Z   -0.058712   0.066132  -0.125064  -0.009799  -0.004059
   17  C  3  S   -0.000886  -0.016083   0.029347   0.006731   0.003514
   18  C  3  X    0.009536   0.012055  -0.018483   0.024207   0.002203
   19  C  3  Y   -0.247955  -0.033250   0.022578  -0.023761  -0.097438
   20  C  3  Z   -0.062053   0.072651  -0.147749   0.008000  -0.052680
   21  C  4  S   -0.000449  -0.000480   0.000911  -0.001150   0.000495
   22  C  4  S    0.001153  -0.000257   0.000663   0.001031   0.000019
   23  C  4  X   -0.000870  -0.030095   0.060560   0.047071  -0.007264
   24  C  4  Y    0.063972   0.028855  -0.053806  -0.049454   0.007840
   25  C  4  Z    0.009966  -0.129408   0.263270   0.236947  -0.039793
   26  C  4  S   -0.003591   0.000425  -0.002875   0.008183  -0.009093
   27  C  4  X   -0.000294  -0.049489   0.100484   0.115766  -0.016510
   28  C  4  Y    0.051200   0.039450  -0.064357  -0.081697   0.067060
   29  C  4  Z    0.007898  -0.155870   0.325566   0.450335  -0.064707
   30  C  5  S   -0.011439  -0.000203  -0.000535  -0.000456  -0.000401
   31  C  5  S    0.009438   0.000068   0.001142   0.000746   0.002195
   32  C  5  X   -0.036039   0.021648   0.035532  -0.014397   0.057552
   33  C  5  Y   -0.049927  -0.023088  -0.036136   0.015092  -0.059864
   34  C  5  Z   -0.012419   0.097572   0.173372  -0.063230   0.270712
   35  C  5  S    0.053043   0.001782  -0.005215  -0.007812  -0.021574
   36  C  5  X   -0.013906   0.025927   0.034340  -0.031725   0.141905
   37  C  5  Y   -0.050769  -0.027522  -0.026418   0.043364  -0.110806
   38  C  5  Z   -0.026634   0.099462   0.182698  -0.122267   0.577928
   39  C  6  S    0.003836  -0.000059   0.000418  -0.000220   0.000358
   40  C  6  S   -0.003925   0.000045  -0.000408  -0.000042  -0.000563
   41  C  6  X    0.020496   0.065741   0.009823  -0.039902  -0.030723
   42  C  6  Y    0.023076  -0.064106  -0.007953   0.039011   0.031190
   43  C  6  Z   -0.008715   0.305942   0.037717  -0.186291  -0.145842
   44  C  6  S   -0.019386  -0.001341   0.001897   0.006365  -0.005276
   45  C  6  X    0.028365   0.079941   0.013020  -0.082238  -0.063244
   46  C  6  Y    0.036486  -0.075676  -0.013827   0.075535   0.061262
   47  C  6  Z   -0.005482   0.364762   0.052725  -0.375783  -0.327283
[...]
   19             0.023434   0.024573   0.001330   0.000087   0.005846

                     21         22         23         24         25

                  1.000000   1.000000   1.000000   1.000000   1.000000

    1             0.010906   0.003031   0.045013   0.018170   0.200748
    2             0.000207   0.000469   0.016799   0.000016   0.051543
    3             0.038734   0.010238   0.107057   0.013413   0.257528
    4             0.062567   0.007641   0.064648   0.023786   0.011324
    5             0.146116   0.171096   0.058305   0.050944   0.046694
    6             0.093567   0.213054   0.024595   0.043072   0.034985
    7             0.077917   0.019525   0.040334   0.238104   0.023032
    8             0.034255   0.182812   0.038322   0.061747   0.025074
    9             0.230026   0.119437   0.020928   0.048834   0.025981
   10             0.074959   0.000627   0.472582   0.487301   0.087815
   11             0.000241   0.001073   0.044639   0.000586   0.052897
   12             0.013335   0.004152   0.003747   0.001960   0.083433
   13             0.049191   0.058872   0.021546   0.001979   0.008438
   14             0.015479   0.085441   0.009037   0.000294   0.000087
   15             0.021998   0.078979   0.003390   0.001321   0.000027
   16             0.102734   0.041834   0.000847   0.000203   0.005245
   17             0.022330   0.000102   0.021032   0.000039   0.009622
   18             0.000859   0.000126   0.005623   0.008099   0.002172
   19             0.004579   0.001491   0.001556   0.000132   0.073355

                     26         27         28         29         30

                  1.000000   1.000000   1.000000   1.000000   1.000000

    1             0.199147   0.037668   0.239865   0.330139   0.283941
    2             0.016476   0.011067   0.034854   0.046555   0.120967
    3             0.137345   0.004022   0.286118   0.119743   0.211347
    4             0.087735   0.105696   0.121017   0.145651   0.005969
    5             0.055369   0.144116   0.078875   0.016423   0.017396
    6             0.038247   0.100861   0.021812   0.012618   0.004458
    7             0.033487   0.087434   0.002907   0.000182   0.000400
    8             0.064507   0.088863   0.023372   0.012460   0.003448
    9             0.067054   0.131886   0.060098   0.015168   0.010517
   10             0.131031   0.048797   0.085848   0.003705   0.000827
   11             0.023564   0.001153   0.006648   0.029199   0.089130
   12             0.011452   0.001551   0.004603   0.032595   0.107971
   13             0.014187   0.059102   0.001753   0.001461   0.000732
   14             0.005267   0.055884   0.001325   0.002877   0.001315
   15             0.014256   0.039594   0.001563   0.002236   0.001439
   16             0.004371   0.057390   0.001485   0.001944   0.000386
   17             0.000464   0.007335   0.000127   0.000173   0.000010
   18             0.092027   0.000736   0.006027   0.178118   0.000415
   19             0.004016   0.016844   0.021704   0.048755   0.139332

                     31         32

                  1.000000   1.000000

    1             0.115867   0.003093
    2             0.017023   0.000879
    3             0.142527   0.001620
    4             0.040513   0.001060
    5             0.176957   0.337560
    6             0.071208   0.147606
    7            -0.003826   0.000843
    8             0.096103   0.229411
    9             0.153383   0.273414
   10             0.150354   0.002996
   11             0.022152   0.000431
   12             0.006002   0.000122
   13             0.000038   0.000001
   14             0.000039   0.000002
   15             0.000006   0.000001
   16             0.000054   0.000001
   17             0.000002   0.000000
   18             0.008253   0.000113
   19             0.003345   0.000848

     ATOMIC SPIN POPULATION (ALPHA MINUS BETA)
       ATOM         MULL.POP.                    LOW.POP.
    1 C             0.039028                     0.033992
    2 H            -0.002918                    -0.002136
    3 C            -0.099460                    -0.047419
    4 C             0.769611                     0.534078
    5 C            -0.569443                    -0.359181
    6 C             0.511095                     0.387906
    7 C             0.203341                     0.219860
    8 C             0.298612                     0.236957
    9 C            -0.332276                    -0.187867
   10 O             0.182338                     0.182777
   11 H             0.013719                     0.010980
   12 H             0.009837                     0.007673
   13 H             0.032252                     0.019195
   14 H            -0.036263                    -0.021965
   15 H            -0.023631                    -0.014487
   16 H             0.016889                     0.010207
   17 H            -0.013151                    -0.010609
   18 H             0.003432                     0.002244
   19 H            -0.003012                    -0.002205


          ********* ALL ELECTRONS ********

               ----- POPULATIONS IN EACH AO -----
                             MULLIKEN      LOWDIN
              1  C  1  S      1.98822     1.97646
              2  C  1  S      0.35124     0.41444
              3  C  1  X      0.54073     0.51491
              4  C  1  Y      0.55008     0.51708
              5  C  1  Z      0.51463     0.48801
              6  C  1  S      1.13293     0.58589
              7  C  1  X      0.53034     0.58908
              8  C  1  Y      0.55462     0.60533
              9  C  1  Z      0.41376     0.55246
             10  H  2  S      0.46482     0.46672
             11  H  2  S      0.31209     0.43291
             12  C  3  S      1.98939     1.97615
             13  C  3  S      0.34261     0.41008
             14  C  3  X      0.49542     0.48067
             15  C  3  Y      0.56448     0.53743
             16  C  3  Z      0.54821     0.52434
             17  C  3  S      1.16868     0.56226
             18  C  3  X      0.24772     0.48992
             19  C  3  Y      0.60670     0.59839
             20  C  3  Z      0.50473     0.57940
             21  C  4  S      1.98906     1.97708
             22  C  4  S      0.40573     0.42650
             23  C  4  X      0.60736     0.59965
             24  C  4  Y      0.61065     0.58931
             25  C  4  Z      0.36027     0.34631
             26  C  4  S      0.86625     0.52055
             27  C  4  X      0.41520     0.50975
             28  C  4  Y      0.30324     0.48630
             29  C  4  Z      0.44524     0.46440
             30  C  5  S      1.98843     1.97687
             31  C  5  S      0.40029     0.41847
             32  C  5  X      0.59777     0.57376
             33  C  5  Y      0.59810     0.57506
             34  C  5  Z      0.41186     0.39772
             35  C  5  S      0.90392     0.53446
             36  C  5  X      0.30804     0.49179
             37  C  5  Y      0.43805     0.52324
             38  C  5  Z      0.55149     0.56875
             39  C  6  S      1.98845     1.97699
             40  C  6  S      0.40637     0.42437
             41  C  6  X      0.61929     0.59489
             42  C  6  Y      0.59395     0.57101
             43  C  6  Z      0.40310     0.39074
             44  C  6  S      0.88985     0.53775
             45  C  6  X      0.35873     0.49291
             46  C  6  Y      0.42621     0.52295
             47  C  6  Z      0.50206     0.53649
             48  C  7  S      1.98853     1.97656
             49  C  7  S      0.42450     0.43589
             50  C  7  X      0.51472     0.49112
             51  C  7  Y      0.67507     0.64460
             52  C  7  Z      0.33846     0.32060
             53  C  7  S      0.82341     0.50705
             54  C  7  X      0.05031     0.39026
             55  C  7  Y      0.32485     0.48924
             56  C  7  Z      0.41733     0.45120
             57  C  8  S      1.98829     1.97669
             58  C  8  S      0.39899     0.41945
             59  C  8  X      0.60823     0.58540
             60  C  8  Y      0.58308     0.55962
             61  C  8  Z      0.43300     0.42196
             62  C  8  S      0.87203     0.53780
             63  C  8  X      0.40198     0.51294
             64  C  8  Y      0.36062     0.51306
             65  C  8  Z      0.59593     0.60068
             66  C  9  S      1.98857     1.97709
             67  C  9  S      0.40566     0.42310
             68  C  9  X      0.60292     0.57761
             69  C  9  Y      0.60602     0.58208
             70  C  9  Z      0.38208     0.36682
             71  C  9  S      0.91151     0.53558
             72  C  9  X      0.29554     0.48580
             73  C  9  Y      0.49180     0.53319
             74  C  9  Z      0.48924     0.53269
             75  O 10  S      1.98687     1.98056
             76  O 10  S      0.42249     0.57934
             77  O 10  X      0.59213     0.57841
             78  O 10  Y      0.71502     0.70261
             79  O 10  Z      0.75952     0.76202
             80  O 10  S      1.55698     1.00871
             81  O 10  X      0.76740     0.78091
             82  O 10  Y      0.87292     0.88234
             83  O 10  Z      0.94722     0.93891
             84  H 11  S      0.45868     0.46720
             85  H 11  S      0.27210     0.41174
             86  H 12  S      0.46076     0.46955
             87  H 12  S      0.27763     0.41486
             88  H 13  S      0.46032     0.45801
             89  H 13  S      0.21596     0.39345
             90  H 14  S      0.45623     0.45208
             91  H 14  S      0.18653     0.38172
             92  H 15  S      0.45837     0.45577
             93  H 15  S      0.21863     0.39724
             94  H 16  S      0.46083     0.45854
             95  H 16  S      0.20822     0.39021
             96  H 17  S      0.39050     0.40394
             97  H 17  S      0.15388     0.27681
             98  H 18  S      0.45934     0.45879
             99  H 18  S      0.28324     0.41939
            100  H 19  S      0.46471     0.46638
            101  H 19  S      0.31052     0.43244

          ----- MULLIKEN ATOMIC OVERLAP POPULATIONS -----
          (OFF-DIAGONAL ELEMENTS NEED TO BE MULTIPLIED BY 2)

             1           2           3           4           5

    1    5.3756178
    2    0.3762294   0.4918597
    3    0.2339618  -0.0458308   5.4934495
    4   -0.0972004  -0.0024384   0.1784660   5.5525702
    5    0.0007783   0.0001037  -0.0480038   0.3721152   5.2420041
    6    0.0000220   0.0000023   0.0014278  -0.1036517   0.4507914
    7   -0.0000119  -0.0000008   0.0000336   0.0000413  -0.0979361
    8   -0.0000171  -0.0000034   0.0018659  -0.1030733   0.0094362
    9    0.0012311   0.0012217  -0.0485242   0.3585919  -0.1038999
   10   -0.0000000  -0.0000000  -0.0000000  -0.0002789   0.0024559
   11   -0.0346638   0.0025394   0.3911229  -0.0503348  -0.0012278
   12   -0.0351911  -0.0016000   0.3929783  -0.0524231   0.0024576
   13    0.0000511  -0.0000032  -0.0013222  -0.0274856   0.3847261
   14    0.0000011   0.0000000  -0.0000173   0.0017908  -0.0188052
   15    0.0000010   0.0000002  -0.0000234   0.0020431  -0.0001681
   16    0.0000064   0.0001413  -0.0008473  -0.0268943   0.0016663
   17    0.0000000   0.0000000  -0.0000000   0.0000238  -0.0002039
   18    0.3796119  -0.0206199  -0.0353819   0.0039065  -0.0000340
   19    0.3761031  -0.0246855  -0.0454126  -0.0027803   0.0016758

             6           7           8           9          10

    6    5.3259158
    7    0.3138301   4.9768207
    8   -0.1176103   0.2430213   5.4622180
    9    0.0090273  -0.0696078   0.4319049   5.2252419
   10   -0.0483786   0.3047068  -0.0553996   0.0026467   8.1535354
   11    0.0001310  -0.0000020  -0.0000603   0.0022667  -0.0000000
   12   -0.0000551  -0.0000030   0.0001735  -0.0009271  -0.0000000
   13   -0.0224528   0.0018278  -0.0000234   0.0017020  -0.0000022
   14    0.3728805  -0.0348743   0.0027425  -0.0003551  -0.0016677
   15    0.0017534  -0.0432292   0.3881041  -0.0191952  -0.0032514
   16   -0.0000168   0.0013884  -0.0212551   0.3817164  -0.0000007
   17    0.0043878  -0.0388227   0.0001313   0.0002533   0.2661757
   18    0.0000002   0.0000000   0.0000002  -0.0000371   0.0000000
   19    0.0000034  -0.0000009   0.0000031   0.0000751  -0.0000000

            11          12          13          14          15

   11    0.4437189
   12   -0.0201241   0.4512448
   13    0.0004750   0.0000221   0.3395917
   14    0.0000003   0.0000002  -0.0010971   0.3221870
   15    0.0000003   0.0000003   0.0000004  -0.0000061   0.3503014
   16    0.0000139   0.0007435  -0.0000223   0.0000004  -0.0010642
   17    0.0000000   0.0000000   0.0000004  -0.0000177   0.0017367
   18   -0.0014560  -0.0014428   0.0000021  -0.0000000  -0.0000000
   19   -0.0016142   0.0025396   0.0002945   0.0000003   0.0000000

            16          17          18          19

   16    0.3334777
   17   -0.0000007   0.3107168
   18    0.0000014  -0.0000000   0.4385953
   19   -0.0000004   0.0000000  -0.0205674   0.4895932

          TOTAL MULLIKEN AND LOWDIN ATOMIC POPULATIONS
       ATOM         MULL.POP.    CHARGE          LOW.POP.     CHARGE
    1 C             6.576531   -0.576531         6.243666   -0.243666
    2 H             0.776916    0.223084         0.899623    0.100377
    3 C             6.467942   -0.467942         6.158634   -0.158634
    4 C             6.002988   -0.002988         5.919858    0.080142
    5 C             6.197932   -0.197932         6.060123   -0.060123
    6 C             6.188008   -0.188008         6.048095   -0.048095
    7 C             5.557181    0.442819         5.706509    0.293491
    8 C             6.242159   -0.242159         6.127601   -0.127601
    9 C             6.173333   -0.173333         6.013966   -0.013966
   10 O             8.620541   -0.620541         8.213808   -0.213808
   11 H             0.730786    0.269214         0.878942    0.121058
   12 H             0.738394    0.261606         0.884411    0.115589
   13 H             0.676284    0.323716         0.851462    0.148538
   14 H             0.642763    0.357237         0.833798    0.166202
   15 H             0.677003    0.322997         0.853011    0.146989
   16 H             0.669054    0.330946         0.848743    0.151257
   17 H             0.544381    0.455619         0.680748    0.319252
   18 H             0.742578    0.257422         0.878182    0.121818
   19 H             0.775227    0.224773         0.898821    0.101179

          -------------------------------
          BOND ORDER AND VALENCE ANALYSIS     BOND ORDER THRESHOLD=0.050
          -------------------------------

                   BOND                       BOND                       BOND
  ATOM PAIR DIST  ORDER      ATOM PAIR DIST  ORDER      ATOM PAIR DIST  ORDER
    1   2  1.095  0.918        1   3  1.551  0.880        1  18  1.096  0.910
    1  19  1.095  0.917        3   4  1.520  0.900        3  11  1.097  0.900
    3  12  1.097  0.904        4   5  1.404  1.189        4   9  1.399  1.186
    5   6  1.391  1.484        5  13  1.085  0.899        6   7  1.399  1.130
    6  14  1.082  0.869        7   8  1.397  1.140        7  10  1.389  1.082
    8   9  1.396  1.549        8  15  1.086  0.892        9  16  1.085  0.895
   10  17  0.993  0.754

                       TOTAL       BONDED        FREE
      ATOM            VALENCE     VALENCE     VALENCE
    1 C                 3.608       3.607       0.001
    2 H                 0.908       0.908       0.000
    3 C                 3.529       3.526       0.004
    4 C                 3.540       3.257       0.283
    5 C                 3.679       3.548       0.131
    6 C                 3.647       3.503       0.144
    7 C                 3.390       3.336       0.054
    8 C                 3.651       3.598       0.053
    9 C                 3.671       3.632       0.039
   10 O                 1.960       1.929       0.031
   11 H                 0.888       0.888       0.000
   12 H                 0.892       0.892       0.000
   13 H                 0.880       0.879       0.001
   14 H                 0.854       0.852       0.001
   15 H                 0.875       0.874       0.001
   16 H                 0.875       0.875       0.000
   17 H                 0.777       0.777       0.000
   18 H                 0.900       0.900       0.000
   19 H                 0.908       0.908       0.000

          -----------------------------------------
          ATOMIC SPIN DENSITY AT THE NUCLEUS (A.U.)
          -----------------------------------------
                            SPIN DENS    ALPHA DENS     BETA DENS
    1  C            6.0     0.0265557      47.00215      46.97559
    2  H            1.0    -0.0010916       0.18146       0.18255
    3  C            6.0    -0.0284718      47.02118      47.04966
    4  C            6.0     0.1314377      47.12779      46.99635
    5  C            6.0    -0.1041587      46.96261      47.06677
    6  C            6.0     0.0836906      47.06458      46.98089
    7  C            6.0     0.0197835      47.04247      47.02269
    8  C            6.0     0.0483859      47.03169      46.98330
    9  C            6.0    -0.0642015      46.99553      47.05973
   10  O            8.0     0.0827750     116.86811     116.78534
   11  H            1.0     0.0053557       0.18268       0.17732
   12  H            1.0     0.0037128       0.18274       0.17903
   13  H            1.0     0.0095568       0.18401       0.17445
   14  H            1.0    -0.0112405       0.17181       0.18305
   15  H            1.0    -0.0071824       0.17480       0.18199
   16  H            1.0     0.0050471       0.18189       0.17684
   17  H            1.0    -0.0054555       0.15443       0.15988
   18  H            1.0     0.0010125       0.17983       0.17881
   19  H            1.0    -0.0010952       0.18140       0.18249

          ---------------------
          ELECTROSTATIC MOMENTS
          ---------------------

 POINT   1           X           Y           Z (BOHR)    CHARGE
                 2.894973   -0.088908    0.332527        1.00 (A.U.)
         DX          DY          DZ         /D/  (DEBYE)
     1.780818   -1.800415   -0.284702    2.548306
 ...... END OF PROPERTY EVALUATION ......
 CPU     0: STEP CPU TIME=     0.04 TOTAL CPU TIME=          3.0 (      0.0 MIN)
 TOTAL WALL CLOCK TIME=          3.0 SECONDS, CPU UTILIZATION IS    98.66%
               580000  WORDS OF DYNAMIC MEMORY USED
 EXECUTION OF GAMESS TERMINATED NORMALLY Sun May 17 17:50:41 2020
 DDI: 263640 bytes (0.3 MB / 0 MWords) used by master data server.
Note: The following floating-point exceptions are signalling:Note: The following floating-point exceptions are signalling: IEEE_DENORMAL IEEE_DENORMAL
Note: The following floating-point exceptions are signalling: IEEE_DENORMALNote: The following floating-point exceptions are signalling:

 ----------------------------------------
 CPU timing information for all processes
 ========================================
 0: 2.805 + 0.152 = 2.957
 1: 2.773 + 0.28 = 2.801
 2: 2.758 + 0.28 = 2.787
 3: 2.760 + 0.36 = 2.797
 4: 2.761 + 0.24 = 2.785
 5: 2.753 + 0.16 = 2.770
 ----------------------------------------

 IEEE_DENORMAL
Note: The following floating-point exceptions are signalling: IEEE_DENORMALNote: The following floating-point exceptions are signalling: IEEE_DENORMAL

 ddikick.x: exited gracefully.
unset echo
----- accounting info -----
Files used on the master node pietdev were:
-rwxr-xr-x 1 piet piet     1193 mei 17 17:50 /home/piet/scr/thyrosine_fukui_base.F05*
-rw-r--r-- 1 piet piet 68812800 mei 17 17:50 /home/piet/scr/thyrosine_fukui_base.F10
ls: No match.
ls: No match.
ls: No match.
zo 17 mei 2020 17:50:44 CEST
0.106u 0.022s 0:06.12 1.9%	0+0k 0+8io 0pf+0w
