----- GAMESS execution script 'rungms' -----
This job is running on host pietdev
under operating system Linux at zo 17 mei 2020 17:50:30 CEST
Available scratch disk space (Kbyte units) at beginning of the job is
Filesystem     1K-blocks     Used Available Use% Mounted on
/dev/sda2      244568380 30400396 201674928  14% /
GAMESS temporary binary files will be written to /home/piet/scr
GAMESS supplementary output files will be written to /home/piet/gamess/scr
Copying input file thyrosine_fukui_acid.inp to your run's scratch directory...
cp thyrosine_fukui_acid.inp /home/piet/scr/thyrosine_fukui_acid.F05
unset echo
 
Assuming a single but multicore node.
 
/home/piet/gamess/ddikick.x /home/piet/gamess/gamess.03.x thyrosine_fukui_acid -ddi 1 6 pietdev:cpus=6 -scr /home/piet/scr

 Distributed Data Interface kickoff program.
 Initiating 6 compute processes on 1 nodes to run the following command:
 /home/piet/gamess/gamess.03.x thyrosine_fukui_acid 

          ******************************************************
          *         GAMESS VERSION = 30 SEP 2019 (R2)          *
          *             FROM IOWA STATE UNIVERSITY             *
          * M.W.SCHMIDT, K.K.BALDRIDGE, J.A.BOATZ, S.T.ELBERT, *
          *   M.S.GORDON, J.H.JENSEN, S.KOSEKI, N.MATSUNAGA,   *
          *          K.A.NGUYEN, S.J.SU, T.L.WINDUS,           *
          *       TOGETHER WITH M.DUPUIS, J.A.MONTGOMERY       *
          *         J.COMPUT.CHEM.  14, 1347-1363(1993)        *
          **************** 64 BIT LINUX VERSION ****************

  SINCE 1993, STUDENTS AND POSTDOCS WORKING AT IOWA STATE UNIVERSITY
  AND ALSO IN THEIR VARIOUS JOBS AFTER LEAVING ISU HAVE MADE IMPORTANT
  CONTRIBUTIONS TO THE CODE:
     IVANA ADAMOVIC, CHRISTINE AIKENS, YURI ALEXEEV, POOJA ARORA,
     ANDREY ASADCHEV, ROB BELL, PRADIPTA BANDYOPADHYAY, JONATHAN BENTZ,
     COLLEEN BERTONI, BRETT BODE, KURT BRORSEN, CALEB CARLIN, GALINA CHABAN,
     WEI CHEN, CHEOL HO CHOI, PAUL DAY, ALBERT DEFUSCO, NUWAN DESILVA,
     TIM DUDLEY, DMITRI FEDOROV, ALEX FINDLATER, GRAHAM FLETCHER, 
     MARK FREITAG, KURT GLAESEMANN, EMILIE B GUIDEZ, ANASTASIA GUNINA, 
     DAN KEMP, SAROM SOK LEANG, GRANT MERRILL,
     NORIYUKI MINEZAWA, JONATHAN MULLIN,
     TAKESHI NAGATA, SEAN NEDD, HEATHER NETZLOFF, BOSILJKA NJEGIC, RYAN OLSON,
     MIKE PAK, BUU PHAM, DAVID POOLE,
     SPENCER PRUITT, LUKE ROSKOP, TOSAPORN SATTASATHUCHANA,
     JIM SHOEMAKER, LYUDMILA SLIPCHENKO,
     TONY SMITH, JIE SONG, TETSUYA TAKETSUGU, SIMON WEBB,
     JORGE LUIS GALVEZ VALLEJO, PENG XU, SOOHAENG YOO,
     FEDERICO ZAHARIEV

  ADDITIONAL CODE HAS BEEN PROVIDED BY COLLABORATORS IN OTHER GROUPS:
     IOWA STATE UNIVERSITY:
          JOE IVANIC, AARON WEST, LAIMUTIS BYTAUTAS, KLAUS RUEDENBERG
     UNIVERSITY OF TOKYO: KIMIHIKO HIRAO, TAKAHITO NAKAJIMA,
          TAKAO TSUNEDA, MUNEAKI KAMIYA, SUSUMU YANAGISAWA,
          KIYOSHI YAGI, MAHITO CHIBA, SEIKEN TOKURA, NAOAKI KAWAKAMI
     UNIVERSITY OF AARHUS: FRANK JENSEN
     UNIVERSITY OF IOWA: VISVALDAS KAIRYS, HUI LI
     NATIONAL INST. OF STANDARDS AND TECHNOLOGY: WALT STEVENS, DAVID GARMER
     UNIVERSITY OF PISA: BENEDETTA MENNUCCI, JACOPO TOMASI
     UNIVERSITY OF MEMPHIS: HENRY KURTZ, PRAKASHAN KORAMBATH
     UNIVERSITY OF ALBERTA: TOBY ZENG, MARIUSZ KLOBUKOWSKI
     UNIVERSITY OF NEW ENGLAND: MARK SPACKMAN
     MIE UNIVERSITY: HIROAKI UMEDA
     NAT. INST. OF ADVANCED INDUSTRIAL SCIENCE AND TECHNOLOGY: KAZUO KITAURA
     MICHIGAN STATE UNIVERSITY:
          KAROL KOWALSKI, MARTA WLOCH, JEFFREY GOUR, JESSE LUTZ,
          WEI LI, JUN SHEN, J. EMILIANO DEUSTUA, PIOTR PIECUCH
     UNIVERSITY OF MINNESOTA:
          ANDREW SAND, PRACHI SHARMA, YINAN SHU
     UNIVERSITY OF SILESIA: MONIKA MUSIAL, STANISLAW KUCHARSKI
     FACULTES UNIVERSITAIRES NOTRE-DAME DE LA PAIX:
          OLIVIER QUINET, BENOIT CHAMPAGNE
     UNIVERSITY OF CALIFORNIA - SANTA BARBARA: BERNARD KIRTMAN
     INSTITUTE FOR MOLECULAR SCIENCE:
          KAZUYA ISHIMURA, MICHIO KATOUDA, AND SHIGERU NAGASE
     UNIVERSITY OF NOTRE DAME: ANNA POMOGAEVA, DAN CHIPMAN
     KYUSHU UNIVERSITY:
          HARUYUKI NAKANO,
          FENG LONG GU, JACEK KORCHOWIEC, MARCIN MAKOWSKI, AND YURIKO AOKI,
          HIROTOSHI MORI AND EISAKU MIYOSHI
     PENNSYLVANIA STATE UNIVERSITY:
          TZVETELIN IORDANOV, CHET SWALINA, JONATHAN SKONE,
          SHARON HAMMES-SCHIFFER
     WASEDA UNIVERSITY:
          MASATO KOBAYASHI, TOMOKO AKAMA, TSUGUKI TOUMA,
          TAKESHI YOSHIKAWA, YASUHIRO IKABATA, JUNJI SEINO,
          YUYA NAKAJIMA, HIROMI NAKAI
     NANJING UNIVERSITY: SHUHUA LI
     UNIVERSITY OF NEBRASKA:
          PEIFENG SU, DEJUN SI, NANDUN THELLAMUREGE, YALI WANG, HUI LI
     UNIVERSITY OF ZURICH: ROBERTO PEVERATI, KIM BALDRIDGE
     N. COPERNICUS UNIVERSITY AND JACKSON STATE UNIVERSITY:
          MARIA BARYSZ
     UNIVERSITY OF COPENHAGEN: Jimmy Kromann, CASPER STEINMANN
     TOKYO INSTITUTE OF TECHNOLOGY: HIROYA NAKATA
     NAGOYA UNIVERSITY: YOSHIO NISHIMOTO, STEPHAN IRLE
     MOSCOW STATE UNIVERSITY: VLADIMIR MIRONOV
     A.N.NESMEYANOV INSTITUTE OF ORGANOELEMENT COMPOUNDS OF RUSSIAN ACADEMY OF SCIENCES:
          IGOR S. GERASIMOV
     JOHANNES KEPLER UNIVERSITY LINZ:
          CHRISTIAN FRIEDL


 PARALLEL VERSION RUNNING ON        6 PROCESSORS IN        1 NODES.

 EXECUTION OF GAMESS BEGUN Sun May 17 17:50:30 2020

            ECHO OF THE FIRST FEW INPUT CARDS -
 INPUT CARD> $BASIS GBASIS=N21 NGAUSS=3 $END                                                
 INPUT CARD> $CONTRL SCFTYP=UHF MAXIT=60 MULT=2 ICHARG=-1 $END                              
 INPUT CARD> $SYSTEM MEMDDI=1000 MWORDS=30 $END                                             
 INPUT CARD> $SCF DIRSCF=.TRUE. $END                                                        
 INPUT CARD> $STATPT OPTTOL=0.0001 NSTEP=999 $END                                           
 INPUT CARD> $DATA                                                                          
 INPUT CARD>                                                                                
 INPUT CARD>C1                                                                              
 INPUT CARD>C 6.0000000 -1.7490373551 0.0642315777 -0.4693473103                            
 INPUT CARD>H 1.0000000 -1.4837665225 -0.6131941929 -1.2882378885                           
 INPUT CARD>C 6.0000000 -0.9385355405 -0.2924703482 0.8044097794                            
 INPUT CARD>C 6.0000000 0.5578503178 -0.1861260827 0.5587442105                             
 INPUT CARD>C 6.0000000 1.2210385776 1.0464170476 0.6712511076                              
 INPUT CARD>C 6.0000000 2.5803303461 1.1619299704 0.4008543725                              
 INPUT CARD>C 6.0000000 3.3177801857 0.0395266159 0.0074758586                              
 INPUT CARD>C 6.0000000 2.6717068649 -1.1938715533 -0.1070556239                            
 INPUT CARD>C 6.0000000 1.3067498292 -1.3004520538 0.1655878006                             
 INPUT CARD>O 8.0000000 4.6710131176 0.2258160966 -0.2448510767                             
 INPUT CARD>H 1.0000000 -1.2283426770 0.3816927803 1.6201140465                             
 INPUT CARD>H 1.0000000 -1.1876422647 -1.3132889909 1.1191306821                            
 INPUT CARD>H 1.0000000 0.6641485188 1.9254758159 0.9800910173                              
 INPUT CARD>H 1.0000000 3.0960274626 2.1092552613 0.4902488396                              
 INPUT CARD>H 1.0000000 3.2311964432 -2.0755117362 -0.4056648666                            
 INPUT CARD>H 1.0000000 0.8204928827 -2.2666543181 0.0748621823                             
 INPUT CARD>H 1.0000000 5.0852296761 -0.6349879215 -0.5141784807                            
 INPUT CARD>H 1.0000000 -2.8265906928 -0.0149961618 -0.2826980459                           
 INPUT CARD>H 1.0000000 -1.5236891696 1.0878281936 -0.7875266045                            
 INPUT CARD> $END                                                                           
   30000000 WORDS OF MEMORY AVAILABLE

     BASIS OPTIONS
     -------------
     GBASIS=N21          IGAUSS=       3      POLAR=NONE    
     NDFUNC=       0     NFFUNC=       0     DIFFSP=       F
     NPFUNC=       0      DIFFS=       F     BASNAM=        


     RUN TITLE
     ---------
                                                                                 

 THE POINT GROUP OF THE MOLECULE IS C1      
 THE ORDER OF THE PRINCIPAL AXIS IS     0

 ATOM      ATOMIC                      COORDINATES (BOHR)
           CHARGE         X                   Y                   Z
 C           6.0    -3.3052013434        0.1213800816       -0.8869378095
 H           1.0    -2.8039121573       -1.1587690018       -2.4344166163
 C           6.0    -1.7735750013       -0.5526888176        1.5201140649
 C           6.0     1.0541842428       -0.3517272955        1.0558734551
 C           6.0     2.3074283321        1.9774414888        1.2684806623
 C           6.0     4.8761173119        2.1957292610        0.7575049250
 C           6.0     6.2696954385        0.0746944733        0.0141273243
 C           6.0     5.0487938942       -2.2560901003       -0.2023057946
 C           6.0     2.4693991117       -2.4574980419        0.3129155700
 O           8.0     8.8269348773        0.4267305462       -0.4627014428
 H           1.0    -2.3212310786        0.7212947663        3.0615716167
 H           1.0    -2.2443184517       -2.4817563355        2.1148503336
 H           1.0     1.2550587157        3.6386216880        1.8521034657
 H           1.0     5.8506435548        3.9859144820        0.9264359726
 H           1.0     6.1060758901       -3.9221484657       -0.7665954407
 H           1.0     1.5505067232       -4.2833555701        0.1414690114
 H           1.0     9.6096906725       -1.1999531771       -0.9716564373
 H           1.0    -5.3414818888       -0.0283386367       -0.5342218440
 H           1.0    -2.8793550210        2.0556972076       -1.4882094905

          INTERNUCLEAR DISTANCES (ANGS.)
          ------------------------------

                1 C          2 H          3 C          4 C          5 C     

   1 C       0.0000000    1.0953794 *  1.5513241 *  2.5379878 *  3.3297153  
   2 H       1.0953794 *  0.0000000    2.1861644 *  2.7860239 *  3.7295948  
   3 C       1.5513241 *  2.1861644 *  0.0000000    1.5201419 *  2.5444275 *
   4 C       2.5379878 *  2.7860239 *  1.5201419 *  0.0000000    1.4041506 *
   5 C       3.3297153    3.7295948    2.5444275 *  1.4041506 *  0.0000000  
   6 C       4.5503426    4.7456277    3.8289103    2.4356949 *  1.3907307 *
   7 C       5.0892643    5.0159515    4.3429885    2.8234781 *  2.4188326 *
   8 C       4.6105377    4.3589376    3.8310760    2.4345903 *  2.7801246 *
   9 C       3.4063675    3.2207009    2.5427204 *  1.3989799 *  2.4022565 *
  10 O       6.4260062    6.2987226    5.7303233    4.2111245    3.6626430  
  11 H       2.1766381 *  3.0844047    1.0972044 *  2.1539289 *  2.7095512 *
  12 H       2.1762329 *  2.5245288 *  1.0968929 *  2.1520394 *  3.4015514  
  13 H       3.3746952    4.0253820    2.7420331 *  2.1558513 *  1.0854736 *
  14 H       5.3458021    5.6168727    4.7058136    3.4228366    2.1628616 *
  15 H       5.4208196    5.0147965    4.6936321    3.4127178    3.8661249  
  16 H       3.5116490    3.1466782    2.7429588 *  2.1521433 *  3.3900676  
  17 H       6.8700891    6.6144806    6.1759000    4.6743774    4.3777093  
  18 H       1.0964653 *  1.7810469 *  2.1962576 *  3.4916689    4.2918434  
  19 H       1.0953401 *  1.7736355 *  2.1867534 *  2.7871511 *  3.1085813  

                6 C          7 C          8 C          9 C         10 O     

   1 C       4.5503426    5.0892643    4.6105377    3.4063675    6.4260062  
   2 H       4.7456277    5.0159515    4.3589376    3.2207009    6.2987226  
   3 C       3.8289103    4.3429885    3.8310760    2.5427204 *  5.7303233  
   4 C       2.4356949 *  2.8234781 *  2.4345903 *  1.3989799 *  4.2111245  
   5 C       1.3907307 *  2.4188326 *  2.7801246 *  2.4022565 *  3.6626430  
   6 C       0.0000000    1.3994171 *  2.4116640 *  2.7822083 *  2.3799578 *
   7 C       1.3994171 *  0.0000000    1.3970681 *  2.4217319 *  1.3891048 *
   8 C       2.4116640 *  1.3970681 *  0.0000000    1.3959948 *  2.4559573 *
   9 C       2.7822083 *  2.4217319 *  1.3959948 *  0.0000000    3.7170179  
  10 O       2.3799578 *  1.3891048 *  2.4559573 *  3.7170179    0.0000000  
  11 H       4.0744760    4.8357949    4.5470765    3.3722325    6.1890865  
  12 H       4.5651120    4.8337064    4.0512182    2.6704683 *  6.2091170  
  13 H       2.1424916 *  3.3977265    3.8655538    3.3886520    4.5215363  
  14 H       1.0822939 *  2.1368249 *  3.3834106    3.8643270    2.5628685 *
  15 H       3.3992836    2.1567497 *  1.0860412 *  2.1518694 *  2.7193828 *
  16 H       3.8676206    3.3999199    2.1473123 *  1.0854602 *  4.5979486  
  17 H       3.2156989    1.9623891 *  2.5106159 *  3.8963874    0.9925201 *
  18 H       5.5755891    6.1514606    5.6259998    4.3517653    7.5015656  
  19 H       4.2732560    5.0170500    4.8239551    3.8240939    6.2778896  

               11 H         12 H         13 H         14 H         15 H     

   1 C       2.1766381 *  2.1762329 *  3.3746952    5.3458021    5.4208196  
   2 H       3.0844047    2.5245288 *  4.0253820    5.6168727    5.0147965  
   3 C       1.0972044 *  1.0968929 *  2.7420331 *  4.7058136    4.6936321  
   4 C       2.1539289 *  2.1520394 *  2.1558513 *  3.4228366    3.4127178  
   5 C       2.7095512 *  3.4015514    1.0854736 *  2.1628616 *  3.8661249  
   6 C       4.0744760    4.5651120    2.1424916 *  1.0822939 *  3.3992836  
   7 C       4.8357949    4.8337064    3.3977265    2.1368249 *  2.1567497 *
   8 C       4.5470765    4.0512182    3.8655538    3.3834106    1.0860412 *
   9 C       3.3722325    2.6704683 *  3.3886520    3.8643270    2.1518694 *
  10 O       6.1890865    6.2091170    4.5215363    2.5628685 *  2.7193828 *
  11 H       0.0000000    1.7679378 *  2.5247611 *  4.7917893    5.4798835  
  12 H       1.7679378 *  0.0000000    3.7333709    5.5189789    4.7362560  
  13 H       2.5247611 *  3.7333709    0.0000000    2.4875199 *  4.9515609  
  14 H       4.7917893    5.5189789    2.4875199 *  0.0000000    4.2817294  
  15 H       5.4798835    4.7362560    4.9515609    4.2817294    0.0000000  
  16 H       3.6877192    2.4560148 *  4.2916009    4.9496655    2.4655493 *
  17 H       6.7416645    6.5174162    5.3230418    3.5350630    2.3503879 *
  18 H       2.5164365 *  2.5173081 *  4.1887144    6.3393451    6.3998149  
  19 H       2.5263789 *  3.0844178    2.9347503 *  4.9007964    5.7237641  

               16 H         17 H         18 H         19 H     

   1 C       3.5116490    6.8700891    1.0964653 *  1.0953401 *
   2 H       3.1466782    6.6144806    1.7810469 *  1.7736355 *
   3 C       2.7429588 *  6.1759000    2.1962576 *  2.1867534 *
   4 C       2.1521433 *  4.6743774    3.4916689    2.7871511 *
   5 C       3.3900676    4.3777093    4.2918434    3.1085813  
   6 C       3.8676206    3.2156989    5.5755891    4.2732560  
   7 C       3.3999199    1.9623891 *  6.1514606    5.0170500  
   8 C       2.1473123 *  2.5106159 *  5.6259998    4.8239551  
   9 C       1.0854602 *  3.8963874    4.3517653    3.8240939  
  10 O       4.5979486    0.9925201 *  7.5015656    6.2778896  
  11 H       3.6877192    6.7416645    2.5164365 *  2.5263789 *
  12 H       2.4560148 *  6.5174162    2.5173081 *  3.0844178  
  13 H       4.2916009    5.3230418    4.1887144    2.9347503 *
  14 H       4.9496655    3.5350630    6.3393451    4.9007964  
  15 H       2.4655493 *  2.3503879 *  6.3998149    5.7237641  
  16 H       0.0000000    4.6040508    4.3010501    4.1822789  
  17 H       4.6040508    0.0000000    7.9394505    6.8352486  
  18 H       4.3010501    7.9394505    0.0000000    1.7800634 *
  19 H       4.1822789    6.8352486    1.7800634 *  0.0000000  

  * ... LESS THAN  3.000


     ATOMIC BASIS SET
     ----------------
 THE CONTRACTED PRIMITIVE FUNCTIONS HAVE BEEN UNNORMALIZED
 THE CONTRACTED BASIS FUNCTIONS ARE NOW NORMALIZED TO UNITY

  SHELL TYPE  PRIMITIVE        EXPONENT          CONTRACTION COEFFICIENT(S)

 C         

      1   S       1           172.2560000    0.061766907377
      1   S       2            25.9109000    0.358794042852
      1   S       3             5.5333500    0.700713083689

      2   L       4             3.6649800   -0.395895162119    0.236459946619
      2   L       5             0.7705450    1.215834355681    0.860618805716

      3   L       6             0.1958570    1.000000000000    1.000000000000

 H         

      4   S       7             5.4471780    0.156284978695
      4   S       8             0.8245472    0.904690876670

      5   S       9             0.1831916    1.000000000000

 C         

      6   S      10           172.2560000    0.061766907377
      6   S      11            25.9109000    0.358794042852
      6   S      12             5.5333500    0.700713083689

      7   L      13             3.6649800   -0.395895162119    0.236459946619
      7   L      14             0.7705450    1.215834355681    0.860618805716

      8   L      15             0.1958570    1.000000000000    1.000000000000

 C         

      9   S      16           172.2560000    0.061766907377
      9   S      17            25.9109000    0.358794042852
      9   S      18             5.5333500    0.700713083689

     10   L      19             3.6649800   -0.395895162119    0.236459946619
     10   L      20             0.7705450    1.215834355681    0.860618805716

     11   L      21             0.1958570    1.000000000000    1.000000000000

 C         

     12   S      22           172.2560000    0.061766907377
     12   S      23            25.9109000    0.358794042852
     12   S      24             5.5333500    0.700713083689

     13   L      25             3.6649800   -0.395895162119    0.236459946619
     13   L      26             0.7705450    1.215834355681    0.860618805716

     14   L      27             0.1958570    1.000000000000    1.000000000000

 C         

     15   S      28           172.2560000    0.061766907377
     15   S      29            25.9109000    0.358794042852
     15   S      30             5.5333500    0.700713083689

     16   L      31             3.6649800   -0.395895162119    0.236459946619
     16   L      32             0.7705450    1.215834355681    0.860618805716

     17   L      33             0.1958570    1.000000000000    1.000000000000

 C         

     18   S      34           172.2560000    0.061766907377
     18   S      35            25.9109000    0.358794042852
     18   S      36             5.5333500    0.700713083689

     19   L      37             3.6649800   -0.395895162119    0.236459946619
     19   L      38             0.7705450    1.215834355681    0.860618805716

     20   L      39             0.1958570    1.000000000000    1.000000000000

 C         

     21   S      40           172.2560000    0.061766907377
     21   S      41            25.9109000    0.358794042852
     21   S      42             5.5333500    0.700713083689

     22   L      43             3.6649800   -0.395895162119    0.236459946619
     22   L      44             0.7705450    1.215834355681    0.860618805716

     23   L      45             0.1958570    1.000000000000    1.000000000000

 C         

     24   S      46           172.2560000    0.061766907377
     24   S      47            25.9109000    0.358794042852
     24   S      48             5.5333500    0.700713083689

     25   L      49             3.6649800   -0.395895162119    0.236459946619
     25   L      50             0.7705450    1.215834355681    0.860618805716

     26   L      51             0.1958570    1.000000000000    1.000000000000

 O         

     27   S      52           322.0370000    0.059239393389
     27   S      53            48.4308000    0.351499960776
     27   S      54            10.4206000    0.707657921031

     28   L      55             7.4029400   -0.404453583190    0.244586106967
     28   L      56             1.5762000    1.221561761397    0.853955373466

     29   L      57             0.3736840    1.000000000000    1.000000000000

 H         

     30   S      58             5.4471780    0.156284978695
     30   S      59             0.8245472    0.904690876670

     31   S      60             0.1831916    1.000000000000

 H         

     32   S      61             5.4471780    0.156284978695
     32   S      62             0.8245472    0.904690876670

     33   S      63             0.1831916    1.000000000000

 H         

     34   S      64             5.4471780    0.156284978695
     34   S      65             0.8245472    0.904690876670

     35   S      66             0.1831916    1.000000000000

 H         

     36   S      67             5.4471780    0.156284978695
     36   S      68             0.8245472    0.904690876670

     37   S      69             0.1831916    1.000000000000

 H         

     38   S      70             5.4471780    0.156284978695
     38   S      71             0.8245472    0.904690876670

     39   S      72             0.1831916    1.000000000000

 H         

     40   S      73             5.4471780    0.156284978695
     40   S      74             0.8245472    0.904690876670

     41   S      75             0.1831916    1.000000000000

 H         

     42   S      76             5.4471780    0.156284978695
     42   S      77             0.8245472    0.904690876670

     43   S      78             0.1831916    1.000000000000

 H         

     44   S      79             5.4471780    0.156284978695
     44   S      80             0.8245472    0.904690876670

     45   S      81             0.1831916    1.000000000000

 H         

     46   S      82             5.4471780    0.156284978695
     46   S      83             0.8245472    0.904690876670

     47   S      84             0.1831916    1.000000000000

 TOTAL NUMBER OF BASIS SET SHELLS             =   47
 NUMBER OF CARTESIAN GAUSSIAN BASIS FUNCTIONS =  101
 NUMBER OF ELECTRONS                          =   67
 CHARGE OF MOLECULE                           =   -1
 SPIN MULTIPLICITY                            =    2
 NUMBER OF OCCUPIED ORBITALS (ALPHA)          =   34
 NUMBER OF OCCUPIED ORBITALS (BETA )          =   33
 TOTAL NUMBER OF ATOMS                        =   19
 THE NUCLEAR REPULSION ENERGY IS      416.6241173716

     $CONTRL OPTIONS
     ---------------
 SCFTYP=UHF          RUNTYP=ENERGY       EXETYP=RUN     
 MPLEVL=       0     CITYP =NONE         CCTYP =NONE         VBTYP =NONE    
 DFTTYP=NONE         TDDFT =NONE    
 MULT  =       2     ICHARG=      -1     NZVAR =       0     COORD =UNIQUE  
 PP    =NONE         RELWFN=NONE         LOCAL =NONE         NUMGRD=       F
 ISPHER=      -1     NOSYM =       0     MAXIT =      60     UNITS =ANGS    
 PLTORB=       F     MOLPLT=       F     AIMPAC=       F     FRIEND=        
 NPRINT=       7     IREST =       0     GEOM  =INPUT   
 NORMF =       0     NORMP =       0     ITOL  =      20     ICUT  =       9
 INTTYP=BEST         GRDTYP=BEST         QMTTOL= 1.0E-06

     $SYSTEM OPTIONS
     ---------------
  REPLICATED MEMORY=    30000000 WORDS (ON EVERY NODE).
 DISTRIBUTED MEMDDI=        1000 MILLION WORDS IN AGGREGATE,
 MEMDDI DISTRIBUTED OVER   6 PROCESSORS IS   166666666 WORDS/PROCESSOR.
 TOTAL MEMORY REQUESTED ON EACH PROCESSOR=   196666666 WORDS.
 TIMLIM=      525600.00 MINUTES, OR     365.0 DAYS.
 PARALL= T  BALTYP=  DLB     KDIAG=    0  COREFL= F
 MXSEQ2=     300 MXSEQ3=     150  mem10=         0

          ----------------
          PROPERTIES INPUT
          ----------------

     MOMENTS            FIELD           POTENTIAL          DENSITY
 IEMOM =       1   IEFLD =       0   IEPOT =       0   IEDEN =       0
 WHERE =COMASS     WHERE =NUCLEI     WHERE =NUCLEI     WHERE =NUCLEI  
 OUTPUT=BOTH       OUTPUT=BOTH       OUTPUT=BOTH       OUTPUT=BOTH    
 IEMINT=       0   IEFINT=       0                     IEDINT=       0
                                                       MORB  =       0
          EXTRAPOLATION IN EFFECT
          SOSCF IN EFFECT
          DIIS or SOSCF will be reset if energy rises
 ORBITAL PRINTING OPTION: NPREO=     1   101     2     1

     -------------------------------
     INTEGRAL TRANSFORMATION OPTIONS
     -------------------------------
     NWORD  =            0
     CUTOFF = 1.0E-09     MPTRAN =       0
     DIRTRF =       T     AOINTS =DUP     

          ----------------------
          INTEGRAL INPUT OPTIONS
          ----------------------
 NOPK  =       1 NORDER=       0 SCHWRZ=       T

     ------------------------------------------
     THE POINT GROUP IS C1 , NAXIS= 0, ORDER= 1
     ------------------------------------------

     DIMENSIONS OF THE SYMMETRY SUBSPACES ARE
 A   =  101

 ..... DONE SETTING UP THE RUN .....
 CPU     0: STEP CPU TIME=     0.02 TOTAL CPU TIME=          0.0 (      0.0 MIN)
 TOTAL WALL CLOCK TIME=          0.0 SECONDS, CPU UTILIZATION IS    66.67%

          ********************
          1 ELECTRON INTEGRALS
          ********************
 ...... END OF ONE-ELECTRON INTEGRALS ......
 CPU     0: STEP CPU TIME=     0.01 TOTAL CPU TIME=          0.0 (      0.0 MIN)
 TOTAL WALL CLOCK TIME=          0.1 SECONDS, CPU UTILIZATION IS    60.00%

          -------------
          GUESS OPTIONS
          -------------
          GUESS =HUCKEL            NORB  =       0          NORDER=       0
          MIX   =       F          PRTMO =       F          PUNMO =       F
          TOLZ  = 1.0E-08          TOLE  = 1.0E-05
          SYMDEN=       F          PURIFY=       F

 INITIAL GUESS ORBITALS GENERATED BY HUCKEL   ROUTINE.
 HUCKEL GUESS REQUIRES    100138 WORDS.

 SYMMETRIES FOR INITIAL GUESS ORBITALS FOLLOW.  ALPHA SET(S).
    34 ORBITALS ARE OCCUPIED (    9 CORE ORBITALS).
    10=A       11=A       12=A       13=A       14=A       15=A       16=A   
    17=A       18=A       19=A       20=A       21=A       22=A       23=A   
    24=A       25=A       26=A       27=A       28=A       29=A       30=A   
    31=A       32=A       33=A       34=A       35=A       36=A       37=A   
    38=A       39=A       40=A       41=A       42=A       43=A       44=A   

 SYMMETRIES FOR INITIAL GUESS ORBITALS FOLLOW.   BETA SET(S).
    33 ORBITALS ARE OCCUPIED (    9 CORE ORBITALS).
    10=A       11=A       12=A       13=A       14=A       15=A       16=A   
    17=A       18=A       19=A       20=A       21=A       22=A       23=A   
    24=A       25=A       26=A       27=A       28=A       29=A       30=A   
    31=A       32=A       33=A       34=A       35=A       36=A       37=A   
    38=A       39=A       40=A       41=A       42=A       43=A   
 ...... END OF INITIAL ORBITAL SELECTION ......
 CPU     0: STEP CPU TIME=     0.03 TOTAL CPU TIME=          0.1 (      0.0 MIN)
 TOTAL WALL CLOCK TIME=          0.1 SECONDS, CPU UTILIZATION IS    75.00%

                    ----------------------
                    AO INTEGRAL TECHNOLOGY
                    ----------------------
     S,P,L SHELL ROTATED AXIS INTEGRALS, REPROGRAMMED BY
        KAZUYA ISHIMURA (IMS) AND JOSE SIERRA (SYNSTAR).
     S,P,D,L SHELL ROTATED AXIS INTEGRALS PROGRAMMED BY
        KAZUYA ISHIMURA (INSTITUTE FOR MOLECULAR SCIENCE).
     S,P,D,F,G SHELL TO TOTAL QUARTET ANGULAR MOMENTUM SUM 5,
        ERIC PROGRAM BY GRAHAM FLETCHER (ELORET AND NASA ADVANCED
        SUPERCOMPUTING DIVISION, AMES RESEARCH CENTER).
     S,P,D,F,G,L SHELL GENERAL RYS QUADRATURE PROGRAMMED BY
        MICHEL DUPUIS (PACIFIC NORTHWEST NATIONAL LABORATORY).

          --------------------
          2 ELECTRON INTEGRALS
          --------------------

 DIRECT SCF METHOD SKIPS INTEGRAL STORAGE ON DISK.
 DIRECT TRANSFORMATION SKIPS AO INTEGRAL STORAGE ON DISK.
  ...... END OF TWO-ELECTRON INTEGRALS .....
 CPU     0: STEP CPU TIME=     0.02 TOTAL CPU TIME=          0.1 (      0.0 MIN)
 TOTAL WALL CLOCK TIME=          0.1 SECONDS, CPU UTILIZATION IS    80.00%

          ---------------------------
                  UHF SCF CALCULATION
          ---------------------------

     NUCLEAR ENERGY =       416.6241173716
     MAXIT = 60     NPUNCH=  2     MULT=  2
     EXTRAP=T  DAMP=F  SHIFT=F  RSTRCT=F  DIIS=F  SOSCF=T
     DENSITY MATRIX CONV=  2.00E-05
     SOSCF WILL OPTIMIZE    2278 ALPHA AND    2244 BETA ROTATION ANGLES.
     SOGTOL= 2.500E-01
     MEMORY REQUIRED FOR UHF/ROHF ITERS=    181892 WORDS.

 DIRECT SCF CALCULATION, SCHWRZ=T   FDIFF=T
 SCHWARZ INEQUALITY OVERHEAD:      4910 INTEGRALS, T=        0.00

                                                                                NONZERO     BLOCKS
 ITER EX      TOTAL ENERGY        E CHANGE  DENSITY CHANGE    ORB. GRAD       INTEGRALS    SKIPPED
   1  0     -380.5764533727  -380.5764533727   0.617394070   0.000000000        8951560     293397
          ---------------START SECOND ORDER SCF---------------
   2  1     -381.3480261396    -0.7715727669   0.146649462   0.041263401        8926905     300668
   3  2     -381.3856518924    -0.0376257528   0.073009827   0.019264136        8808250     318441
   4  3     -381.3921713729    -0.0065194805   0.012940637   0.004688112        8716712     328495
   5  4     -381.3927741027    -0.0006027297   0.023911130   0.003267395        8405628     351631
   6  5     -381.3931956275    -0.0004215249   0.005464353   0.002220279        8490409     346966
   7  6     -381.3932508436    -0.0000552161   0.004651845   0.000834184        8189556     364486
   8  7     -381.3932818309    -0.0000309873   0.002920814   0.000702744        8178785     364706
   9  8     -381.3932971155    -0.0000152846   0.004828438   0.000630907        8036113     375059
  10  9     -381.3933159338    -0.0000188183   0.004113188   0.000364712        8130441     371132
  11 10     -381.3933265074    -0.0000105736   0.001840910   0.000319569        8065680     374518
  12 11     -381.3933298967    -0.0000033893   0.000507103   0.000113076        7872343     384227
  13 12     -381.3933304229    -0.0000005262   0.000249010   0.000041460        7496159     400842
  14 13     -381.3933305379    -0.0000001150   0.000152277   0.000025164        7281208     411850
  15 14     -381.3933305800    -0.0000000421   0.000131439   0.000019844        7152260     419318
  16 15     -381.3933305989    -0.0000000189   0.000079451   0.000013642        7116926     422909
  17 16     -381.3933306056    -0.0000000067   0.000081518   0.000009638        6938630     432257
  18 17     -381.3933306102    -0.0000000046   0.000049824   0.000005189        6947164     432481
  19 18     -381.3933306122    -0.0000000020   0.000036719   0.000003791        6778821     441529
  20 19     -381.3933306131    -0.0000000009   0.000017314   0.000001419        6604900     446997
  21 20     -381.3933306129     0.0000000002   0.000006446   0.000000869        6176919     461195

          -----------------
          DENSITY CONVERGED
          -----------------
     TIME TO FORM FOCK OPERATORS=       2.4 SECONDS (       0.1 SEC/ITER)
     FOCK TIME ON FIRST ITERATION=       0.2, LAST ITERATION=       0.1
     TIME TO SOLVE SCF EQUATIONS=       0.1 SECONDS (       0.0 SEC/ITER)

 FINAL UHF ENERGY IS     -381.3933306129 AFTER  21 ITERATIONS

          --------------------
          SPIN SZ   =    0.500
          S-SQUARED =    0.848
          --------------------

  ----- ALPHA SET ----- 

          ------------
          EIGENVECTORS
          ------------

                      1          2          3          4          5
                  -20.2997   -11.0377   -11.0228   -11.0175   -10.9734
                     A          A          A          A          A   
    1  C  1  S   -0.000015  -0.000412   0.987373   0.016498   0.005341
    2  C  1  S   -0.000107  -0.000080   0.101613  -0.000681  -0.002023
    3  C  1  X   -0.000027  -0.000030   0.000033   0.000511  -0.001675
    4  C  1  Y    0.000015   0.000018   0.000009  -0.000130   0.000019
    5  C  1  Z   -0.000033  -0.000058  -0.000064   0.000490  -0.000118
    6  C  1  S    0.000249  -0.000109  -0.080237   0.020476   0.006200
    7  C  1  X    0.000166  -0.000064  -0.003068   0.007020   0.007324
    8  C  1  Y   -0.000027  -0.000011   0.000918  -0.002678  -0.000175
    9  C  1  Z    0.000050   0.000034  -0.003299   0.009651   0.001424
   10  H  2  S   -0.000011   0.000021   0.000264  -0.001389  -0.001102
   11  H  2  S   -0.000070   0.000002   0.014496   0.000684  -0.000598
   12  C  3  S   -0.000036  -0.001135  -0.017193   0.987904   0.000363
   13  C  3  S   -0.000115  -0.000516  -0.003312   0.104975  -0.000338
   14  C  3  X    0.000326   0.000237  -0.000628  -0.000162   0.000048
   15  C  3  Y    0.000028   0.000030  -0.000019   0.000102   0.000130
   16  C  3  Z   -0.000112  -0.000058  -0.000018  -0.000297  -0.000262
   17  C  3  S    0.004511   0.006008   0.014006  -0.096096   0.007083
   18  C  3  X    0.001774   0.002586  -0.008138  -0.005988   0.008038
   19  C  3  Y   -0.000090   0.000114   0.002558  -0.001963  -0.001162
   20  C  3  Z    0.000223  -0.000158  -0.009508   0.006312   0.003122
   21  C  4  S   -0.000162  -0.001517  -0.005889  -0.000713   0.987620
   22  C  4  S   -0.000776  -0.001401  -0.002869  -0.001236   0.100643
   23  C  4  X   -0.000546  -0.000702   0.001433   0.000545  -0.000399
   24  C  4  Y   -0.000087  -0.000068  -0.000118   0.000130   0.000059
   25  C  4  Z    0.000097   0.000145   0.000363  -0.000262  -0.000424
   26  C  4  S    0.010403   0.017076   0.007275   0.015813  -0.095661
   27  C  4  X    0.011376   0.014984  -0.005606  -0.021634  -0.012353
   28  C  4  Y    0.001503   0.000940   0.000314  -0.001906  -0.000759
   29  C  4  Z   -0.002173  -0.003022   0.000115   0.003165   0.003590
   30  C  5  S    0.000228  -0.000274   0.000127  -0.001365  -0.006086
   31  C  5  S    0.000887   0.000618   0.000179  -0.000875  -0.004524
   32  C  5  X   -0.000773  -0.001166  -0.000283   0.000801   0.000493
   33  C  5  Y    0.000117   0.000077  -0.000006   0.000299   0.001347
   34  C  5  Z    0.000188   0.000266  -0.000049  -0.000022   0.000169
   35  C  5  S   -0.021980  -0.022474   0.000959   0.001686   0.031984
   36  C  5  X   -0.008503  -0.007566   0.004196  -0.001871  -0.003417
   37  C  5  Y    0.006805   0.011201   0.000200  -0.004546  -0.018921
   38  C  5  Z    0.003289   0.003985  -0.000048  -0.000664  -0.003524
   39  C  6  S   -0.000262  -0.002812   0.000031  -0.000900  -0.000987
   40  C  6  S   -0.001499  -0.005174   0.000104  -0.000898   0.000006
   41  C  6  X    0.000918  -0.000001   0.000081   0.000430   0.000695
   42  C  6  Y    0.000308   0.001514   0.000065   0.000179   0.000104
   43  C  6  Z   -0.000127   0.000322   0.000034  -0.000110  -0.000128
   44  C  6  S    0.022260   0.045125  -0.003057   0.003099  -0.008087
   45  C  6  X   -0.016557  -0.006419   0.001580  -0.003017   0.001466
   46  C  6  Y   -0.017860  -0.029238  -0.000016  -0.001154   0.007290
   47  C  6  Z   -0.000191  -0.004725  -0.000733   0.000622   0.001306
   48  C  7  S   -0.000074   0.987456   0.000381   0.001056   0.001122
   49  C  7  S    0.001712   0.099097  -0.000006  -0.000028  -0.000829
   50  C  7  X    0.000153  -0.000679   0.000061   0.000105   0.000145
   51  C  7  Y    0.000051  -0.000120   0.000013  -0.000003   0.000017
   52  C  7  Z   -0.000026   0.000132  -0.000047  -0.000022  -0.000009
   53  C  7  S   -0.004542  -0.094739  -0.000153  -0.000463   0.011505
   54  C  7  X    0.040579   0.038767  -0.000779   0.001461  -0.005989
   55  C  7  Y    0.003197   0.004729  -0.000168   0.000353  -0.000945
   56  C  7  Z   -0.008060  -0.007438   0.000442  -0.000369   0.000997
   57  C  8  S   -0.000261  -0.003036   0.000039  -0.000951  -0.001224
   58  C  8  S   -0.001469  -0.005264   0.000104  -0.000859   0.000013
   59  C  8  X    0.001198   0.000105   0.000080   0.000437   0.000720
   60  C  8  Y   -0.000077  -0.001556  -0.000076  -0.000086   0.000014
   61  C  8  Z   -0.000268  -0.000337   0.000023  -0.000175  -0.000159
   62  C  8  S    0.023486   0.046572  -0.002887   0.002640  -0.008467
   63  C  8  X   -0.019691  -0.007218   0.001423  -0.002472   0.001443
   64  C  8  Y    0.014466   0.029447   0.000379   0.000834  -0.007474
   65  C  8  Z    0.007179   0.007598  -0.000711   0.000967  -0.001709
   66  C  9  S    0.000250  -0.000268   0.000185  -0.001527  -0.006711
   67  C  9  S    0.001018   0.000640   0.000182  -0.000949  -0.004666
   68  C  9  X   -0.000745  -0.001142  -0.000320   0.000786   0.000625
   69  C  9  Y   -0.000255  -0.000236   0.000032  -0.000196  -0.001321
   70  C  9  Z    0.000104   0.000195  -0.000110  -0.000079  -0.000383
   71  C  9  S   -0.022981  -0.022082   0.001374   0.001984   0.032425
   72  C  9  X   -0.009465  -0.006140   0.003794  -0.001358  -0.005305
   73  C  9  Y   -0.007792  -0.012950   0.000362   0.003969   0.018848
   74  C  9  Z    0.000461  -0.001339   0.000276   0.000878   0.004639
   75  O 10  S    0.983813   0.000243  -0.000010   0.000012  -0.000022
   76  O 10  S    0.100698   0.002852  -0.000077   0.000079  -0.000209
   77  O 10  X   -0.002824  -0.001033   0.000001   0.000033   0.000051
   78  O 10  Y   -0.002830  -0.000074   0.000007  -0.000017  -0.000031
   79  O 10  Z    0.000015   0.000203   0.000014  -0.000014  -0.000022
   80  O 10  S   -0.057768  -0.007475   0.000434  -0.000599   0.001120
   81  O 10  X    0.012655   0.004869  -0.000129   0.000085  -0.000342
   82  O 10  Y    0.006213   0.000357  -0.000047   0.000095   0.000131
   83  O 10  Z   -0.001422  -0.000955  -0.000046   0.000023   0.000124
   84  H 11  S   -0.000104  -0.000161  -0.001018   0.001173  -0.000710
   85  H 11  S   -0.000348  -0.000232   0.001251   0.014092   0.000114
   86  H 12  S   -0.000083  -0.000160  -0.001041   0.001160  -0.000659
   87  H 12  S   -0.000478  -0.000247   0.001286   0.014127  -0.000575
   88  H 13  S   -0.000217  -0.000656   0.000519   0.000035  -0.000466
   89  H 13  S   -0.001766  -0.002238   0.000107   0.001220   0.002796
   90  H 14  S    0.001814   0.000575   0.000080   0.000012  -0.000577
   91  H 14  S    0.007486   0.007821   0.000040   0.001041  -0.001132
   92  H 15  S    0.002117   0.000526   0.000080   0.000017  -0.000545
   93  H 15  S    0.006878   0.008041   0.000037   0.001022  -0.001135
   94  H 16  S   -0.000192  -0.000708   0.000439   0.000113  -0.000473
   95  H 16  S   -0.001806  -0.002404   0.000293   0.000935   0.002872
   96  H 17  S    0.003432   0.000067  -0.000019   0.000021   0.000018
   97  H 17  S    0.002994  -0.000755  -0.000015   0.000072   0.000336
   98  H 18  S   -0.000022  -0.000025   0.000170  -0.001065  -0.000015
   99  H 18  S    0.000166   0.000145   0.013589   0.000185   0.003762
  100  H 19  S   -0.000005   0.000028   0.000222  -0.001366  -0.000970
  101  H 19  S   -0.000073  -0.000018   0.014583   0.000621  -0.001004

                      6          7          8          9         10
                  -10.9395   -10.9359   -10.9329   -10.9227    -1.2008
                     A          A          A          A          A   
    1  C  1  S   -0.000069  -0.000017   0.000025   0.000038   0.000013
    2  C  1  S    0.000154   0.000136   0.000104   0.000107   0.000333
    3  C  1  X   -0.000139  -0.000187  -0.000074  -0.000098   0.000180
    4  C  1  Y    0.000072  -0.000003  -0.000060   0.000073  -0.000040
    5  C  1  Z   -0.000137  -0.000139  -0.000070  -0.000036   0.000122
    6  C  1  S   -0.001265  -0.001110  -0.000694  -0.000840  -0.000703
    7  C  1  X   -0.000078   0.000032  -0.000332  -0.000256  -0.000551
    8  C  1  Y   -0.000535   0.000360   0.000759  -0.000721   0.000013
    9  C  1  Z    0.000099   0.000463   0.000246  -0.000286  -0.000273
   10  H  2  S   -0.000182   0.000145   0.000100  -0.000021   0.000037
   11  H  2  S    0.000489   0.000379   0.000488  -0.000188   0.000170
   12  C  3  S    0.001263   0.001170   0.000832   0.000729   0.000005
   13  C  3  S   -0.000935  -0.000921  -0.000730  -0.000736   0.000874
   14  C  3  X   -0.000048  -0.000050  -0.000321  -0.000304  -0.000547
   15  C  3  Y    0.000105  -0.000112   0.000189  -0.000295  -0.000096
   16  C  3  Z    0.000057   0.000017   0.000180   0.000070   0.000220
   17  C  3  S    0.009233   0.009342   0.000753   0.000373  -0.014759
   18  C  3  X    0.004378   0.004785   0.001096   0.000695  -0.006617
   19  C  3  Y    0.002668  -0.001992  -0.001631   0.002135   0.000372
   20  C  3  Z   -0.000187  -0.001206  -0.001177  -0.000289  -0.000524
   21  C  4  S    0.005757   0.005378   0.001903   0.001435  -0.001122
   22  C  4  S   -0.003392  -0.003522   0.000246   0.000394   0.003093
   23  C  4  X   -0.001588  -0.001532  -0.000718  -0.000617   0.003252
   24  C  4  Y    0.001219  -0.001399   0.000488  -0.000581   0.000289
   25  C  4  Z    0.000590   0.000028   0.000267   0.000023  -0.000642
   26  C  4  S    0.034633   0.035752  -0.011292  -0.013183  -0.017471
   27  C  4  X    0.025891   0.025778  -0.005592  -0.006877  -0.031281
   28  C  4  Y   -0.012670   0.016081   0.001827  -0.002498  -0.003621
   29  C  4  Z   -0.008054  -0.002041   0.001700   0.001068   0.006021
   30  C  5  S   -0.020625   0.986406   0.022345   0.023621  -0.003196
   31  C  5  S   -0.002017   0.100470   0.001444  -0.002099   0.001289
   32  C  5  X    0.000292   0.000695  -0.000195  -0.001637   0.004790
   33  C  5  Y    0.000940  -0.000922   0.000290   0.000393  -0.001768
   34  C  5  Z    0.000119  -0.000359   0.000113   0.000428  -0.001398
   35  C  5  S   -0.011571  -0.097622   0.007116   0.035696   0.066015
   36  C  5  X   -0.007952  -0.013306   0.004372   0.017827   0.026859
   37  C  5  Y    0.005894   0.023023  -0.003246  -0.011200  -0.013863
   38  C  5  Z    0.002956   0.007637  -0.001683  -0.006195  -0.008760
   39  C  6  S   -0.003543  -0.024342  -0.010397   0.986774  -0.014490
   40  C  6  S   -0.001226  -0.007046  -0.001432   0.100095   0.020013
   41  C  6  X    0.000180   0.001540  -0.000348  -0.000460   0.009734
   42  C  6  Y    0.000263   0.000727   0.000974  -0.001166  -0.012737
   43  C  6  Z    0.000023  -0.000174   0.000274  -0.000138  -0.004754
   44  C  6  S    0.012617   0.042148  -0.006640  -0.092473  -0.047036
   45  C  6  X   -0.005542  -0.018468   0.006081   0.009308   0.054926
   46  C  6  Y   -0.006792  -0.016845   0.003333   0.021942   0.049604
   47  C  6  Z   -0.000238   0.000471  -0.000598   0.002535  -0.001424
   48  C  7  S    0.000570   0.000615   0.002090   0.001888  -0.076389
   49  C  7  S    0.000626   0.000622  -0.004195  -0.004337   0.079969
   50  C  7  X    0.000479   0.000550   0.000883   0.000951   0.082390
   51  C  7  Y    0.000595  -0.000553   0.001466  -0.001200   0.005846
   52  C  7  Z    0.000021  -0.000233   0.000113  -0.000454  -0.016461
   53  C  7  S   -0.016681  -0.017188   0.034922   0.036544   0.129243
   54  C  7  X    0.009655   0.010129  -0.016255  -0.018847  -0.105396
   55  C  7  Y    0.003202  -0.000793  -0.017132   0.011936  -0.007540
   56  C  7  Z   -0.001429  -0.002354  -0.000022   0.006562   0.021152
   57  C  8  S   -0.048678  -0.023905   0.985608   0.009760  -0.015509
   58  C  8  S   -0.009417  -0.003479   0.099828   0.000782   0.020212
   59  C  8  X    0.001492   0.000254  -0.000383  -0.000315   0.009211
   60  C  8  Y   -0.000495  -0.000303   0.000982  -0.000971   0.014674
   61  C  8  Z   -0.000418  -0.000111   0.000290  -0.000136   0.001035
   62  C  8  S    0.043377   0.015866  -0.091152  -0.010741  -0.042513
   63  C  8  X   -0.018985  -0.006677   0.008793   0.006266   0.062745
   64  C  8  Y    0.013788   0.006754  -0.020141  -0.004363  -0.040082
   65  C  8  Z    0.006927   0.002808  -0.006066  -0.002229  -0.021671
   66  C  9  S    0.985761   0.019599   0.048248   0.004203  -0.003302
   67  C  9  S    0.100475   0.002127   0.000508  -0.000502   0.001365
   68  C  9  X    0.000677   0.000420  -0.001509  -0.000217   0.004700
   69  C  9  Y    0.001059  -0.000839  -0.000656  -0.000350   0.002628
   70  C  9  Z    0.000060  -0.000280   0.000180  -0.000016  -0.000463
   71  C  9  S   -0.097381  -0.015804   0.031896   0.009978   0.066680
   72  C  9  X   -0.011233  -0.008115   0.015549   0.004477   0.027678
   73  C  9  Y   -0.024905  -0.008285   0.013350   0.005424   0.017260
   74  C  9  Z   -0.002772   0.000042  -0.000595   0.000102  -0.002464
   75  O 10  S    0.000021   0.000014  -0.000037  -0.000038  -0.224738
   76  O 10  S    0.000136   0.000065  -0.000527  -0.000567   0.201130
   77  O 10  X    0.000120   0.000131   0.000188   0.000308  -0.044158
   78  O 10  Y    0.000151  -0.000195  -0.000210   0.000050  -0.059358
   79  O 10  Z    0.000004  -0.000069  -0.000083  -0.000055  -0.002901
   80  O 10  S   -0.001709  -0.001366   0.002747   0.002404   0.744318
   81  O 10  X   -0.000106  -0.000275  -0.000670  -0.000897  -0.082284
   82  O 10  Y   -0.000651   0.000939   0.001928  -0.001078  -0.075365
   83  O 10  Z   -0.000107   0.000257   0.000538  -0.000035   0.001939
   84  H 11  S   -0.000539  -0.000133   0.000100  -0.000434   0.000322
   85  H 11  S   -0.000285   0.000418   0.000797  -0.000043   0.001200
   86  H 12  S   -0.000095  -0.000550  -0.000460   0.000117   0.000318
   87  H 12  S    0.000356  -0.000290   0.000001   0.000884   0.001690
   88  H 13  S   -0.000517  -0.002523   0.000071  -0.000022   0.000743
   89  H 13  S   -0.002031   0.005186   0.001788   0.004844   0.002994
   90  H 14  S    0.000328   0.000202  -0.000493  -0.002427   0.000478
   91  H 14  S    0.002191   0.005321  -0.000414   0.006399  -0.020957
   92  H 15  S    0.000215   0.000354  -0.002280  -0.000475   0.000918
   93  H 15  S    0.004756   0.002229   0.006646  -0.000871  -0.023039
   94  H 16  S   -0.002502  -0.000625  -0.000069   0.000180   0.000725
   95  H 16  S    0.005220  -0.001855   0.004900   0.001924   0.003085
   96  H 17  S   -0.000341   0.000273   0.000255  -0.000178   0.097625
   97  H 17  S    0.000536  -0.000152   0.000374   0.001581   0.029107
   98  H 18  S    0.000006  -0.000008  -0.000018   0.000001   0.000099
   99  H 18  S    0.000412   0.000494   0.000051   0.000080  -0.000698
  100  H 19  S    0.000153  -0.000226  -0.000032   0.000087   0.000013
  101  H 19  S    0.000409   0.000554  -0.000172   0.000494   0.000321

                     11         12         13         14         15
                   -0.9378    -0.8818    -0.8008    -0.7843    -0.6951
                     A          A          A          A          A   
    1  C  1  S   -0.052912  -0.127726   0.002339  -0.111959   0.105705
    2  C  1  S    0.055190   0.125958  -0.002062   0.102209  -0.093345
    3  C  1  X    0.017759   0.019152   0.000154  -0.020647   0.048916
    4  C  1  Y   -0.005173  -0.008722  -0.003236   0.002650  -0.024422
    5  C  1  Z    0.019127   0.031232  -0.000461  -0.011215   0.084108
    6  C  1  S    0.118262   0.325696  -0.007714   0.349844  -0.383483
    7  C  1  X   -0.009973  -0.009727  -0.000332  -0.001690   0.014046
    8  C  1  Y    0.000895  -0.000432  -0.002229  -0.000091  -0.007717
    9  C  1  Z   -0.003611   0.000553  -0.000673   0.000597   0.027200
   10  H  2  S    0.026685   0.065430   0.000156   0.065513  -0.084402
   11  H  2  S    0.000570   0.003903   0.001296   0.012399  -0.033756
   12  C  3  S   -0.084623  -0.129487  -0.001054   0.009812  -0.130587
   13  C  3  S    0.081293   0.119172   0.000898  -0.008129   0.115299
   14  C  3  X    0.024125  -0.017785   0.001980  -0.080925   0.022734
   15  C  3  Y    0.004951   0.009038  -0.015898   0.008195  -0.023208
   16  C  3  Z   -0.015889  -0.032098  -0.002654  -0.034822   0.074099
   17  C  3  S    0.213239   0.371486   0.002996  -0.032259   0.465130
   18  C  3  X   -0.000768   0.011487   0.000463  -0.015688   0.002300
   19  C  3  Y    0.002424   0.004722  -0.005701  -0.000973  -0.007972
   20  C  3  Z   -0.008785  -0.013502  -0.001470  -0.000956   0.019297
   21  C  4  S   -0.114040  -0.019671  -0.002191   0.112376   0.006463
   22  C  4  S    0.125904   0.023769   0.002324  -0.116362  -0.007651
   23  C  4  X    0.022518  -0.077143   0.003425  -0.024426  -0.112128
   24  C  4  Y    0.001221  -0.003061  -0.097840  -0.002292  -0.018123
   25  C  4  Z   -0.007975   0.008960  -0.020929  -0.000859   0.029636
   26  C  4  S    0.184679   0.022572   0.004834  -0.244114  -0.015546
   27  C  4  X   -0.005832   0.022125  -0.000876   0.026950  -0.016909
   28  C  4  Y    0.000461   0.000261  -0.013097   0.002016  -0.000453
   29  C  4  Z    0.000626  -0.001922  -0.002545  -0.002733   0.007344
   30  C  5  S   -0.092569   0.032440   0.116024   0.061856   0.063204
   31  C  5  S    0.100501  -0.035972  -0.121453  -0.061306  -0.062894
   32  C  5  X    0.009693  -0.044580  -0.049179   0.058651  -0.007195
   33  C  5  Y   -0.046107   0.002921  -0.009817   0.046480   0.009385
   34  C  5  Z   -0.012288   0.008690   0.008428  -0.004670   0.006365
   35  C  5  S    0.198561  -0.066893  -0.275151  -0.181784  -0.178240
   36  C  5  X    0.010720  -0.006704  -0.001136  -0.011866   0.000780
   37  C  5  Y   -0.014457   0.009601   0.003992   0.024918   0.014455
   38  C  5  Z   -0.005716   0.000879   0.001294   0.004093   0.007466
   39  C  6  S   -0.072960   0.067820   0.121039  -0.057380  -0.011511
   40  C  6  S    0.082037  -0.071468  -0.126010   0.057065   0.011660
   41  C  6  X   -0.027296   0.004107   0.041608   0.056344   0.074228
   42  C  6  Y   -0.037780   0.035322   0.006580  -0.041986  -0.030289
   43  C  6  Z   -0.001907   0.006240  -0.007784  -0.021110  -0.021758
   44  C  6  S    0.121379  -0.147967  -0.283873   0.175553   0.036687
   45  C  6  X    0.010745   0.003801   0.001944   0.001348   0.033397
   46  C  6  Y    0.003804   0.008724   0.007999  -0.016062  -0.001145
   47  C  6  Z   -0.001519   0.001501   0.001071  -0.002547  -0.008511
   48  C  7  S   -0.060392   0.068747   0.007533  -0.104447  -0.071628
   49  C  7  S    0.070345  -0.079063  -0.008336   0.118114   0.078785
   50  C  7  X   -0.059756   0.055919   0.004088  -0.050756  -0.003699
   51  C  7  Y   -0.005560   0.005386  -0.115057  -0.006645   0.010113
   52  C  7  Z    0.011869  -0.011036  -0.024751   0.009802   0.003025
   53  C  7  S    0.116584  -0.130288  -0.022396   0.221917   0.188114
   54  C  7  X   -0.030294   0.022662   0.004620  -0.029019  -0.031626
   55  C  7  Y   -0.009022   0.009973  -0.016294  -0.019893  -0.017204
   56  C  7  Z    0.004764  -0.003254  -0.004367   0.001475   0.004058
   57  C  8  S   -0.075861   0.071589  -0.115483  -0.068342  -0.007815
   58  C  8  S    0.085472  -0.076098   0.119296   0.069741   0.009581
   59  C  8  X   -0.030772   0.007838  -0.044907   0.048968   0.061280
   60  C  8  Y    0.032746  -0.033925  -0.009058   0.049804   0.038924
   61  C  8  Z    0.013447  -0.008908   0.007946  -0.000484  -0.004609
   62  C  8  S    0.120858  -0.145815   0.275647   0.179893   0.002914
   63  C  8  X    0.009076   0.004997   0.003689  -0.004336   0.021025
   64  C  8  Y   -0.005909  -0.003734   0.009891   0.006263  -0.006333
   65  C  8  Z   -0.003208  -0.001323   0.001319   0.003401  -0.006918
   66  C  9  S   -0.095333   0.035637  -0.117530   0.054051   0.053379
   67  C  9  S    0.103301  -0.038870   0.122239  -0.053863  -0.053730
   68  C  9  X    0.006697  -0.045124   0.044686   0.068414  -0.010337
   69  C  9  Y    0.048127  -0.009374  -0.002207  -0.037671  -0.012671
   70  C  9  Z    0.007965   0.006386  -0.009838  -0.024017   0.002193
   71  C  9  S    0.206199  -0.078091   0.286208  -0.160849  -0.146867
   72  C  9  X    0.009385  -0.007573   0.004733  -0.007184  -0.003493
   73  C  9  Y    0.018017  -0.012119   0.003429  -0.020702  -0.008455
   74  C  9  Z    0.001442  -0.003403  -0.000340  -0.006506   0.003498
   75  O 10  S    0.028600  -0.029047   0.001755   0.038564   0.022591
   76  O 10  S   -0.027763   0.028029  -0.002256  -0.037573  -0.023203
   77  O 10  X   -0.017910   0.027253   0.011612  -0.067824  -0.077565
   78  O 10  Y    0.010061  -0.011381  -0.026094   0.020296   0.024896
   79  O 10  Z    0.005982  -0.008298  -0.007919   0.018865   0.022013
   80  O 10  S   -0.096655   0.102789  -0.005851  -0.141426  -0.079346
   81  O 10  X   -0.013505   0.022357   0.008251  -0.061779  -0.076544
   82  O 10  Y    0.010442  -0.012120  -0.021313   0.021335   0.024479
   83  O 10  Z    0.005083  -0.007300  -0.006204   0.017909   0.021547
   84  H 11  S    0.038200   0.062710  -0.005324  -0.005429   0.097659
   85  H 11  S   -0.002778   0.002250  -0.004354  -0.002375   0.035386
   86  H 12  S    0.038425   0.062832   0.007146  -0.005331   0.099194
   87  H 12  S   -0.002199   0.002750   0.005509  -0.003307   0.036031
   88  H 13  S    0.033921  -0.008315  -0.060449  -0.034583  -0.034649
   89  H 13  S    0.001503   0.001984  -0.015655  -0.016637  -0.015725
   90  H 14  S    0.023327  -0.025054  -0.061383   0.028605   0.009592
   91  H 14  S   -0.010384   0.000272  -0.015611   0.005205  -0.002527
   92  H 15  S    0.025171  -0.027364   0.061888   0.034821   0.005193
   93  H 15  S   -0.008646  -0.001639   0.020113   0.009331  -0.004298
   94  H 16  S    0.035172  -0.010115   0.062247  -0.030472  -0.027034
   95  H 16  S    0.002291   0.001016   0.017091  -0.014686  -0.009762
   96  H 17  S   -0.021758   0.025951   0.015880  -0.048766  -0.049695
   97  H 17  S   -0.011108   0.013727   0.008248  -0.028433  -0.032306
   98  H 18  S    0.023650   0.065502  -0.001352   0.074266  -0.084154
   99  H 18  S   -0.005768   0.004473  -0.000411   0.025404  -0.036701
  100  H 19  S    0.026719   0.065365  -0.003154   0.065265  -0.085218
  101  H 19  S    0.000717   0.003912  -0.001960   0.011399  -0.034313

                     16         17         18         19         20
                   -0.6408    -0.5857    -0.5186    -0.4758    -0.4635
                     A          A          A          A          A   
    1  C  1  S   -0.008359  -0.015827  -0.000608  -0.001650  -0.001828
    2  C  1  S    0.007378   0.015398   0.001334   0.002607   0.003787
    3  C  1  X   -0.005161   0.006489   0.001935   0.091811   0.158820
    4  C  1  Y   -0.011972   0.022913  -0.028725  -0.117578   0.161172
    5  C  1  Z   -0.016496  -0.055200  -0.006292  -0.102860  -0.040625
    6  C  1  S    0.032542   0.066555   0.001465   0.007998   0.007818
    7  C  1  X   -0.002887  -0.002002  -0.002434   0.062393   0.108786
    8  C  1  Y   -0.005849   0.013661  -0.020433  -0.094567   0.132099
    9  C  1  Z   -0.007370  -0.032064  -0.007420  -0.080377  -0.034904
   10  H  2  S    0.016625   0.028148   0.015464   0.117555  -0.019052
   11  H  2  S    0.012289   0.017213   0.009925   0.096651  -0.016554
   12  C  3  S    0.014107   0.046188  -0.002972   0.004988  -0.004930
   13  C  3  S   -0.012404  -0.041098   0.001092  -0.002914   0.005064
   14  C  3  X    0.008233   0.090120   0.005905   0.115543   0.142950
   15  C  3  Y   -0.043794   0.031968  -0.044941  -0.142443   0.165839
   16  C  3  Z   -0.020630  -0.046117  -0.016332  -0.106230  -0.055065
   17  C  3  S   -0.051606  -0.177730   0.016222  -0.026698   0.015433
   18  C  3  X    0.005648   0.054304   0.002642   0.083970   0.103901
   19  C  3  Y   -0.032495   0.021057  -0.033178  -0.108095   0.128188
   20  C  3  Z   -0.012245  -0.030179  -0.011587  -0.085159  -0.046642
   21  C  4  S   -0.011052  -0.094137  -0.031735  -0.015629  -0.028092
   22  C  4  S    0.011825   0.097156   0.034107   0.014905   0.028748
   23  C  4  X    0.017583   0.023719   0.040239  -0.103682  -0.127581
   24  C  4  Y   -0.156308   0.039994  -0.059964  -0.087525   0.028950
   25  C  4  Z   -0.037607  -0.004485  -0.022464  -0.014996   0.006738
   26  C  4  S    0.026279   0.273282   0.107193   0.045387   0.087953
   27  C  4  X    0.003473  -0.004709   0.030908  -0.070835  -0.081485
   28  C  4  Y   -0.052744   0.023239  -0.034478  -0.050010   0.010461
   29  C  4  Z   -0.012560  -0.000317  -0.015473  -0.004516   0.005848
   30  C  5  S    0.087274   0.011708   0.046670  -0.004340   0.048396
   31  C  5  S   -0.084544  -0.013642  -0.042123   0.002195  -0.048699
   32  C  5  X    0.066602  -0.127540   0.081724   0.031714  -0.041271
   33  C  5  Y   -0.002025  -0.115342  -0.095770   0.097684  -0.012715
   34  C  5  Z   -0.015650   0.000509  -0.038419   0.004760  -0.011362
   35  C  5  S   -0.285798  -0.001566  -0.187248   0.029251  -0.162656
   36  C  5  X    0.017385  -0.028271   0.041321   0.019500  -0.019543
   37  C  5  Y    0.009277  -0.051611  -0.057018   0.059573  -0.016831
   38  C  5  Z   -0.002304  -0.007148  -0.020871  -0.000651  -0.017503
   39  C  6  S   -0.070485   0.081170  -0.026440  -0.020464  -0.039276
   40  C  6  S    0.068277  -0.078736   0.027526   0.017003   0.037710
   41  C  6  X    0.100073   0.068385  -0.013744  -0.027446   0.106568
   42  C  6  Y   -0.011046  -0.082387  -0.091325   0.096715   0.036538
   43  C  6  Z   -0.023935  -0.032903  -0.016285   0.023012  -0.021386
   44  C  6  S    0.222232  -0.272785   0.085609   0.090302   0.128931
   45  C  6  X    0.026619   0.063101  -0.035097   0.007818   0.051867
   46  C  6  Y   -0.009590  -0.011391  -0.054353   0.057924   0.037756
   47  C  6  Z   -0.007639  -0.016286  -0.004017   0.009185  -0.005774
   48  C  7  S   -0.007597  -0.082745  -0.014398  -0.006868   0.014389
   49  C  7  S    0.007187   0.088087   0.020177   0.006139  -0.015727
   50  C  7  X    0.022332   0.068936  -0.191818   0.054600  -0.064418
   51  C  7  Y    0.192692  -0.017429  -0.054102  -0.086509   0.055443
   52  C  7  Z    0.035107  -0.018661   0.030003  -0.031805   0.021645
   53  C  7  S    0.041143   0.276793   0.037416   0.011461  -0.044932
   54  C  7  X   -0.003892  -0.037428  -0.089061   0.006646  -0.029645
   55  C  7  Y    0.080673  -0.047989  -0.021761  -0.094824   0.057031
   56  C  7  Z    0.017531  -0.001962   0.014667  -0.023462   0.014256
   57  C  8  S    0.093844   0.035557   0.019623  -0.001414  -0.021139
   58  C  8  S   -0.089557  -0.031766  -0.017410   0.000891   0.019330
   59  C  8  X   -0.095873   0.078710   0.033378   0.144078   0.003099
   60  C  8  Y   -0.017892   0.092874   0.146990  -0.018381  -0.058019
   61  C  8  Z    0.016746   0.001331   0.022651  -0.038673  -0.017942
   62  C  8  S   -0.307344  -0.162972  -0.064879  -0.026990   0.082127
   63  C  8  X   -0.034405   0.035699   0.018021   0.105426   0.019615
   64  C  8  Y   -0.027032   0.003739   0.085355  -0.036833  -0.031457
   65  C  8  Z    0.001844  -0.007200   0.013367  -0.031720  -0.013451
   66  C  9  S   -0.094337   0.038450   0.030376   0.019286   0.014502
   67  C  9  S    0.091924  -0.038658  -0.028118  -0.023903  -0.016043
   68  C  9  X   -0.093762  -0.077515  -0.043850  -0.130536   0.019526
   69  C  9  Y    0.002949   0.096816   0.131647  -0.035459  -0.029533
   70  C  9  Z    0.020775   0.033678   0.035600   0.009249  -0.023867
   71  C  9  S    0.307771  -0.104485  -0.108282  -0.024874  -0.041668
   72  C  9  X   -0.031376  -0.021140  -0.008249  -0.059455   0.024517
   73  C  9  Y    0.017192   0.055765   0.071442  -0.014094  -0.012086
   74  C  9  Z    0.009809   0.013915   0.015920  -0.002334  -0.021166
   75  O 10  S   -0.012445   0.016816   0.015602   0.028488   0.001297
   76  O 10  S    0.012347  -0.021125  -0.013451  -0.028755   0.001837
   77  O 10  X   -0.047389  -0.178480   0.203021  -0.053226   0.104319
   78  O 10  Y    0.090890   0.051009  -0.147898  -0.109625  -0.007745
   79  O 10  Z    0.029069   0.048967  -0.074699  -0.013243  -0.027843
   80  O 10  S    0.050687  -0.045716  -0.076418  -0.111560  -0.015056
   81  O 10  X   -0.042179  -0.188074   0.206391  -0.067028   0.115473
   82  O 10  Y    0.084290   0.049394  -0.145889  -0.112213  -0.006903
   83  O 10  Z    0.026578   0.050664  -0.075034  -0.010799  -0.030165
   84  H 11  S   -0.033786  -0.054089  -0.025948  -0.133277   0.020481
   85  H 11  S   -0.020287  -0.031024  -0.025101  -0.111827   0.012237
   86  H 12  S    0.009583  -0.069547   0.022844   0.048804  -0.132528
   87  H 12  S    0.009483  -0.042801   0.014220   0.042740  -0.119593
   88  H 13  S   -0.079405  -0.023247  -0.111241   0.038103  -0.035827
   89  H 13  S   -0.046060  -0.014263  -0.083169   0.029142  -0.016859
   90  H 14  S    0.064600  -0.083346  -0.026380   0.059121   0.082640
   91  H 14  S    0.037508  -0.061694  -0.025259   0.037068   0.061435
   92  H 15  S   -0.085674  -0.047772  -0.075021   0.062258   0.054121
   93  H 15  S   -0.055889  -0.042718  -0.059100   0.051934   0.045015
   94  H 16  S    0.083664  -0.056680  -0.080896   0.038237  -0.005041
   95  H 16  S    0.048411  -0.035676  -0.060222   0.041740  -0.001989
   96  H 17  S   -0.059913  -0.103045   0.154651   0.034839   0.047998
   97  H 17  S   -0.040656  -0.080754   0.129245   0.023814   0.052028
   98  H 18  S    0.007409   0.001714   0.000342  -0.067017  -0.120785
   99  H 18  S    0.003404  -0.005823  -0.001004  -0.066865  -0.122278
  100  H 19  S    0.000196   0.034446  -0.016091  -0.039606   0.134880
  101  H 19  S   -0.004103   0.022686  -0.015732  -0.030769   0.109179

                     21         22         23         24         25
                   -0.4334    -0.4079    -0.3899    -0.3812    -0.3680
                     A          A          A          A          A   
    1  C  1  S   -0.000801   0.003481   0.001063  -0.007956  -0.011315
    2  C  1  S    0.001538  -0.002790  -0.001174   0.007059   0.009920
    3  C  1  X    0.096136  -0.215768   0.002553   0.130107   0.032226
    4  C  1  Y   -0.172661  -0.014917  -0.002751   0.084997  -0.138506
    5  C  1  Z   -0.058236   0.006275  -0.081598   0.108591   0.219532
    6  C  1  S    0.000604  -0.007789   0.001194   0.027623   0.033264
    7  C  1  X    0.072495  -0.177501  -0.000329   0.109229   0.029034
    8  C  1  Y   -0.146760  -0.013387  -0.004092   0.079882  -0.121105
    9  C  1  Z   -0.054798   0.008249  -0.068249   0.086317   0.187980
   10  H  2  S    0.123433  -0.039375   0.045679  -0.069521  -0.041907
   11  H  2  S    0.104475  -0.037554   0.044094  -0.076811  -0.045046
   12  C  3  S   -0.011605   0.017215   0.003100  -0.014128  -0.007120
   13  C  3  S    0.008964  -0.012642  -0.002254   0.009499   0.005870
   14  C  3  X    0.011911   0.073183   0.037234  -0.105606  -0.079260
   15  C  3  Y   -0.079759  -0.015994  -0.010249  -0.014906   0.114333
   16  C  3  Z   -0.072476   0.067940   0.055311  -0.100240  -0.203161
   17  C  3  S    0.051033  -0.087549  -0.007002   0.059019   0.012396
   18  C  3  X    0.008706   0.040194   0.031914  -0.085565  -0.055781
   19  C  3  Y   -0.060458  -0.014635  -0.006138  -0.016736   0.093351
   20  C  3  Z   -0.055495   0.056694   0.041967  -0.077882  -0.168025
   21  C  4  S   -0.005665  -0.072464   0.009659  -0.002687  -0.003802
   22  C  4  S    0.007631   0.070667  -0.010256   0.007151   0.004097
   23  C  4  X   -0.007702   0.018638  -0.026050   0.104469   0.005071
   24  C  4  Y    0.102463   0.000712   0.008775  -0.096396   0.117426
   25  C  4  Z    0.003952   0.034260   0.056923  -0.071365  -0.039258
   26  C  4  S    0.015828   0.244973  -0.032090  -0.003133   0.016161
   27  C  4  X    0.000769  -0.028584  -0.009997   0.069901   0.008123
   28  C  4  Y    0.066775  -0.001262   0.004635  -0.066691   0.080837
   29  C  4  Z    0.003721   0.023877   0.043185  -0.042689  -0.023246
   30  C  5  S   -0.002131   0.030536  -0.002124  -0.002020  -0.004957
   31  C  5  S    0.001754  -0.029772   0.001161   0.004233   0.008652
   32  C  5  X   -0.041233  -0.020755  -0.021172   0.166815  -0.026940
   33  C  5  Y   -0.079796  -0.109780   0.010594  -0.014979  -0.103280
   34  C  5  Z   -0.016815   0.010980   0.074548  -0.051611  -0.049063
   35  C  5  S   -0.003703  -0.107182   0.009462   0.003475   0.001428
   36  C  5  X   -0.014838   0.015688  -0.017393   0.114380  -0.012533
   37  C  5  Y   -0.056411  -0.091553   0.008974  -0.021473  -0.061841
   38  C  5  Z   -0.017545   0.009485   0.061294  -0.048194  -0.045083
   39  C  6  S    0.007661  -0.030302   0.005069  -0.005187  -0.011626
   40  C  6  S   -0.003053   0.027091  -0.004202   0.004492   0.010906
   41  C  6  X    0.032932   0.092282   0.044666  -0.146724   0.032771
   42  C  6  Y   -0.052396   0.108245  -0.060951   0.108342  -0.067124
   43  C  6  Z   -0.023078   0.022920   0.087920   0.075514  -0.019171
   44  C  6  S   -0.074686   0.106445  -0.023957   0.030860   0.054209
   45  C  6  X   -0.004711   0.070254   0.022685  -0.070735   0.028256
   46  C  6  Y   -0.027629   0.094724  -0.042579   0.057646  -0.044152
   47  C  6  Z   -0.007766   0.017386   0.072983   0.046912  -0.011792
   48  C  7  S    0.032833   0.036005  -0.013221   0.042473  -0.008725
   49  C  7  S   -0.035835  -0.041573   0.014883  -0.047303   0.010094
   50  C  7  X   -0.060146   0.047631  -0.005745   0.131335   0.033153
   51  C  7  Y    0.094101   0.022714  -0.019260  -0.098532   0.084016
   52  C  7  Z    0.028011   0.016874   0.175469   0.001743   0.038309
   53  C  7  S   -0.094603  -0.111099   0.046522  -0.151463   0.022742
   54  C  7  X    0.011132   0.023594   0.012987   0.106815  -0.011502
   55  C  7  Y    0.149080   0.022634  -0.019718  -0.074469   0.002041
   56  C  7  Z    0.023811   0.023597   0.184895   0.017222   0.036326
   57  C  8  S   -0.043430  -0.026104   0.003756  -0.015380   0.023108
   58  C  8  S    0.038325   0.021619  -0.003368   0.014889  -0.021540
   59  C  8  X   -0.089322   0.099080   0.008243   0.011820   0.001103
   60  C  8  Y   -0.076817  -0.141228   0.004113  -0.026437  -0.084726
   61  C  8  Z   -0.002552  -0.029605   0.111948   0.014977  -0.017444
   62  C  8  S    0.228654   0.100487  -0.010269   0.061391  -0.121471
   63  C  8  X   -0.069383   0.096714   0.003893   0.005314   0.026090
   64  C  8  Y   -0.013983  -0.107561   0.003358  -0.017984  -0.077474
   65  C  8  Z    0.009006  -0.029054   0.093349   0.016303  -0.018234
   66  C  9  S    0.031995   0.033543  -0.002310   0.001608  -0.003507
   67  C  9  S   -0.026610  -0.033634   0.001533   0.002907  -0.000527
   68  C  9  X    0.152673  -0.029660   0.018464   0.013996  -0.019854
   69  C  9  Y    0.035390   0.077205  -0.059533   0.172972  -0.100631
   70  C  9  Z   -0.040707   0.051347   0.052812   0.025642  -0.054737
   71  C  9  S   -0.152643  -0.104728   0.009871  -0.032796   0.049819
   72  C  9  X    0.075448   0.014774   0.006181   0.017954  -0.008216
   73  C  9  Y    0.028653   0.070377  -0.047008   0.131229  -0.070158
   74  C  9  Z   -0.026545   0.042686   0.044104   0.011313  -0.054994
   75  O 10  S   -0.045871   0.001981   0.000264  -0.016116   0.026330
   76  O 10  S    0.048168   0.000276   0.000162   0.013777  -0.026525
   77  O 10  X    0.103354   0.025587   0.109618  -0.070966  -0.031144
   78  O 10  Y    0.215315   0.006519  -0.075189   0.030343  -0.152221
   79  O 10  Z    0.016890   0.034371   0.358974   0.154624   0.075315
   80  O 10  S    0.180049  -0.010615  -0.003762   0.077404  -0.109570
   81  O 10  X    0.134821   0.030149   0.125209  -0.075143  -0.049475
   82  O 10  Y    0.228297   0.007572  -0.085767   0.032088  -0.173811
   83  O 10  Z    0.012408   0.038080   0.409899   0.176213   0.091565
   84  H 11  S   -0.065569  -0.000620   0.016381  -0.031925  -0.039271
   85  H 11  S   -0.066364  -0.001533   0.020469  -0.040766  -0.047414
   86  H 12  S    0.043243  -0.003522   0.010595   0.015757  -0.102855
   87  H 12  S    0.031698  -0.004485   0.015273   0.004426  -0.108368
   88  H 13  S   -0.031492  -0.080093   0.029892  -0.075253  -0.054088
   89  H 13  S   -0.029316  -0.063850   0.027066  -0.068679  -0.060734
   90  H 14  S   -0.023379   0.120112  -0.021778   0.028553  -0.021589
   91  H 14  S   -0.003013   0.100000  -0.019010   0.033127  -0.037694
   92  H 15  S    0.051162   0.144218  -0.024532   0.030723   0.031488
   93  H 15  S    0.043835   0.133554  -0.023440   0.028203   0.037586
   94  H 16  S   -0.088698  -0.073024   0.030138  -0.113486   0.073925
   95  H 16  S   -0.072096  -0.055564   0.027784  -0.110267   0.073392
   96  H 17  S   -0.070238   0.002904   0.010906  -0.068939   0.056871
   97  H 17  S   -0.045465   0.013444   0.012275  -0.075827   0.052719
   98  H 18  S   -0.066419   0.161295  -0.014655  -0.083606   0.026126
   99  H 18  S   -0.069053   0.171600  -0.016295  -0.095591   0.025449
  100  H 19  S   -0.086637  -0.048887   0.014594   0.064045  -0.132184
  101  H 19  S   -0.077532  -0.047146   0.014363   0.055635  -0.142728

                     26         27         28         29         30
                   -0.3639    -0.3577    -0.3269    -0.2879    -0.2863
                     A          A          A          A          A   
    1  C  1  S   -0.003533  -0.002391  -0.000798   0.014027  -0.011745
    2  C  1  S    0.003262   0.002362   0.000875  -0.011524   0.007517
    3  C  1  X   -0.021497  -0.070786  -0.012293  -0.031291   0.119377
    4  C  1  Y   -0.092501   0.105742  -0.138690   0.014456  -0.013533
    5  C  1  Z    0.089184   0.157794  -0.021456  -0.072545   0.031256
    6  C  1  S    0.008135   0.003018   0.002013  -0.071591   0.056053
    7  C  1  X   -0.018295  -0.062352  -0.012532  -0.013310   0.119735
    8  C  1  Y   -0.086406   0.098237  -0.134343   0.012843  -0.015814
    9  C  1  Z    0.076568   0.142753  -0.021953  -0.065307   0.036117
   10  H  2  S   -0.007539  -0.155558   0.085246   0.021522   0.026285
   11  H  2  S   -0.012972  -0.163949   0.097663   0.046629   0.030466
   12  C  3  S   -0.001754  -0.000167  -0.002326   0.010538   0.024621
   13  C  3  S    0.002266   0.002083   0.002726  -0.010452  -0.026344
   14  C  3  X    0.000962   0.057994   0.028773  -0.053201  -0.250180
   15  C  3  Y    0.058170  -0.094154   0.223627  -0.019180   0.001148
   16  C  3  Z   -0.087228  -0.147675   0.038815   0.104236   0.015105
   17  C  3  S   -0.002252  -0.010288   0.008022  -0.033073  -0.076833
   18  C  3  X    0.003681   0.055178   0.025380  -0.058365  -0.199686
   19  C  3  Y    0.061311  -0.088089   0.224055  -0.016582   0.005394
   20  C  3  Z   -0.070621  -0.131642   0.040495   0.096490   0.019390
   21  C  4  S   -0.006178  -0.003703  -0.000399  -0.000267   0.001333
   22  C  4  S    0.005196   0.000783  -0.000836  -0.000476   0.001397
   23  C  4  X   -0.028369  -0.095851  -0.036610   0.044270   0.238232
   24  C  4  Y   -0.058580  -0.058440  -0.108104   0.022609  -0.020804
   25  C  4  Z   -0.030802  -0.021836  -0.013713  -0.138875  -0.016272
   26  C  4  S    0.025336   0.026908   0.009899   0.011485   0.013920
   27  C  4  X   -0.018561  -0.057876  -0.021407   0.034446   0.262950
   28  C  4  Y   -0.042219  -0.038699  -0.108840   0.023194  -0.022007
   29  C  4  Z   -0.020889  -0.016264  -0.017700  -0.143604  -0.016037
   30  C  5  S    0.024962  -0.008894   0.005748  -0.000639  -0.003313
   31  C  5  S   -0.029170   0.005670  -0.005398  -0.000422   0.001526
   32  C  5  X   -0.150730  -0.020377   0.146601  -0.087594  -0.156919
   33  C  5  Y    0.149682   0.096271   0.056624   0.026165  -0.036440
   34  C  5  Z    0.051997   0.002337  -0.013635  -0.166379   0.081494
   35  C  5  S   -0.059831   0.035207  -0.009568  -0.002026  -0.012760
   36  C  5  X   -0.107163  -0.021222   0.103638  -0.085380  -0.160016
   37  C  5  Y    0.116807   0.073925   0.019245   0.034628   0.008959
   38  C  5  Z    0.036444  -0.003815  -0.007139  -0.163562   0.086885
   39  C  6  S    0.014853   0.012324  -0.003192   0.004344   0.015434
   40  C  6  S   -0.019274  -0.007788   0.006297  -0.005323  -0.018293
   41  C  6  X    0.141063  -0.015315  -0.145092   0.019779   0.175164
   42  C  6  Y    0.168710  -0.075287   0.014869   0.034601   0.001654
   43  C  6  Z    0.004715  -0.017521   0.037612  -0.149987   0.006886
   44  C  6  S   -0.025108  -0.097501  -0.021903  -0.010726  -0.032775
   45  C  6  X    0.100631  -0.037581  -0.102650  -0.001253   0.102218
   46  C  6  Y    0.134888  -0.057800   0.000235   0.037732   0.009694
   47  C  6  Z    0.006591  -0.006890   0.023286  -0.144005   0.025685
   48  C  7  S   -0.004572  -0.015721   0.003246  -0.003871  -0.014335
   49  C  7  S    0.004513   0.016906  -0.004303   0.004086   0.015759
   50  C  7  X   -0.013611  -0.124302  -0.038785  -0.032082  -0.055890
   51  C  7  Y   -0.083900  -0.029430  -0.131366   0.016329   0.008581
   52  C  7  Z   -0.006293   0.027316  -0.019047  -0.063249   0.035860
   53  C  7  S    0.020799   0.065576  -0.009187   0.016526   0.054361
   54  C  7  X   -0.007461  -0.040233   0.019620  -0.020840  -0.039623
   55  C  7  Y   -0.051456   0.065779  -0.031864   0.020163   0.043470
   56  C  7  Z    0.001175   0.031505  -0.011109  -0.031754   0.029023
   57  C  8  S   -0.018741  -0.011635  -0.003051   0.004055   0.014521
   58  C  8  S    0.022572   0.006193  -0.001138  -0.005921  -0.020285
   59  C  8  X   -0.103368   0.111524   0.138609   0.020432   0.184848
   60  C  8  Y    0.148855   0.040832   0.069388   0.027988  -0.021750
   61  C  8  Z    0.050452  -0.018141  -0.017537  -0.166429   0.004513
   62  C  8  S    0.046243   0.113527   0.067647   0.000611   0.003467
   63  C  8  X   -0.083950   0.057399   0.071507   0.006633   0.142785
   64  C  8  Y    0.111657   0.052023   0.075087   0.028754  -0.018435
   65  C  8  Z    0.040131  -0.004354  -0.000490  -0.167063   0.017171
   66  C  9  S   -0.021367   0.019671  -0.001047  -0.001458  -0.006000
   67  C  9  S    0.025422  -0.017841   0.001583   0.000762   0.005632
   68  C  9  X    0.085448  -0.106444  -0.144640  -0.095980  -0.173672
   69  C  9  Y    0.134610  -0.039880   0.000370   0.054708   0.039625
   70  C  9  Z   -0.007579  -0.000817   0.027996  -0.171911   0.104611
   71  C  9  S    0.045207  -0.090996  -0.030169   0.000228  -0.006818
   72  C  9  X    0.060116  -0.082927  -0.105848  -0.087099  -0.149971
   73  C  9  Y    0.100674  -0.048978  -0.029460   0.041426  -0.020297
   74  C  9  Z   -0.010163  -0.004489   0.009887  -0.174617   0.081494
   75  O 10  S    0.001930  -0.030106  -0.030140   0.001154   0.004495
   76  O 10  S   -0.001871   0.032549   0.030217  -0.000002  -0.000608
   77  O 10  X    0.030864   0.154793   0.064704   0.075682   0.080697
   78  O 10  Y   -0.014440   0.179840   0.166943  -0.030843   0.059696
   79  O 10  Z    0.023494   0.038273   0.018459   0.215921  -0.073925
   80  O 10  S   -0.007578   0.117324   0.127808  -0.008543  -0.031842
   81  O 10  X    0.036622   0.197083   0.093390   0.094056   0.100376
   82  O 10  Y   -0.011264   0.203562   0.193936  -0.038259   0.074183
   83  O 10  Z    0.028581   0.040159   0.017408   0.268201  -0.091748
   84  H 11  S   -0.015950  -0.139629   0.132092   0.058206   0.043522
   85  H 11  S   -0.014982  -0.145173   0.141235   0.071668   0.068607
   86  H 12  S   -0.062616   0.029029  -0.163211   0.040788   0.027771
   87  H 12  S   -0.070397   0.029983  -0.177979   0.051131   0.049967
   88  H 13  S    0.124784   0.069413  -0.027257   0.017513   0.066418
   89  H 13  S    0.128381   0.067164  -0.023388   0.020104   0.064456
   90  H 14  S    0.133202  -0.061702  -0.030859   0.016506   0.049727
   91  H 14  S    0.130276  -0.037663  -0.012397   0.020434   0.062513
   92  H 15  S   -0.117075   0.032137   0.015446   0.023443   0.077332
   93  H 15  S   -0.128086   0.032312   0.019101   0.028876   0.095420
   94  H 16  S   -0.091589   0.040601   0.041679   0.009873   0.035713
   95  H 16  S   -0.099269   0.038310   0.034992   0.011219   0.028417
   96  H 17  S    0.010092  -0.048247  -0.073338   0.002739   0.010887
   97  H 17  S    0.003337  -0.028240  -0.069214   0.009508   0.033227
   98  H 18  S    0.039804   0.076989   0.017172   0.000356  -0.092414
   99  H 18  S    0.043835   0.087264   0.020131   0.012716  -0.121976
  100  H 19  S   -0.085984   0.034313  -0.106455   0.013168   0.016844
  101  H 19  S   -0.084658   0.038582  -0.122725   0.035972   0.021032

                     31         32         33         34         35
                   -0.2658    -0.1882    -0.1293     0.0641     0.3731
                     A          A          A          A          A   
    1  C  1  S    0.000263  -0.001180   0.020086   0.001089  -0.074074
    2  C  1  S    0.000004   0.001317  -0.013540  -0.001727   0.026023
    3  C  1  X   -0.006235   0.003528  -0.049821  -0.001623  -0.012197
    4  C  1  Y   -0.020073   0.014667   0.011843  -0.020332  -0.018906
    5  C  1  Z   -0.003127   0.005561  -0.044452  -0.005232   0.051899
    6  C  1  S   -0.002345   0.005421  -0.137267  -0.004800   0.888312
    7  C  1  X   -0.006896  -0.001605  -0.028998   0.011351  -0.159169
    8  C  1  Y   -0.021270   0.025271   0.017892  -0.055826  -0.072046
    9  C  1  Z   -0.003797   0.008406  -0.057841  -0.014554   0.156753
   10  H  2  S    0.012608  -0.008640  -0.002980   0.010237   0.016196
   11  H  2  S    0.011579   0.006282   0.029692  -0.038613  -0.175856
   12  C  3  S   -0.003044  -0.000036   0.000147   0.000028  -0.019442
   13  C  3  S    0.003306  -0.000270  -0.001048   0.000654   0.000032
   14  C  3  X    0.021504  -0.000691   0.009207   0.000107  -0.019624
   15  C  3  Y    0.045792  -0.006546  -0.009671   0.010204  -0.016059
   16  C  3  Z    0.005872  -0.004967   0.048040   0.004273   0.062868
   17  C  3  S    0.007023   0.001514   0.003942  -0.003413   0.331194
   18  C  3  X    0.016131   0.002193  -0.022047  -0.006187   0.091431
   19  C  3  Y    0.055905  -0.030110  -0.008255   0.081759  -0.071431
   20  C  3  Z    0.008107  -0.015741   0.029916   0.037326   0.322509
   21  C  4  S    0.001976   0.000072   0.000348  -0.000165  -0.004535
   22  C  4  S   -0.001478   0.000119  -0.001686  -0.000175   0.003985
   23  C  4  X   -0.015974   0.002172  -0.039094  -0.001609   0.044719
   24  C  4  Y   -0.216880  -0.000821   0.040971   0.001928  -0.049506
   25  C  4  Z   -0.042389   0.008780  -0.196700  -0.006012   0.238539
   26  C  4  S   -0.016770  -0.002068   0.007554   0.004980   0.056113
   27  C  4  X   -0.027231   0.004086  -0.061144  -0.005915   0.231203
   28  C  4  Y   -0.192129   0.014906   0.046549  -0.039217  -0.092089
   29  C  4  Z   -0.035011   0.014733  -0.220468  -0.023161   0.480985
   30  C  5  S    0.010349  -0.000254   0.000004   0.000461  -0.008211
   31  C  5  S   -0.011278   0.001061  -0.000350  -0.002075   0.008736
   32  C  5  X    0.027839   0.052199  -0.031590  -0.050733  -0.039090
   33  C  5  Y    0.194778  -0.053177   0.029025   0.052575   0.038877
   34  C  5  Z    0.035596   0.244205  -0.144068  -0.239973  -0.127545
   35  C  5  S   -0.028199  -0.007411   0.002040   0.017631   0.037766
   36  C  5  X   -0.029437   0.064443  -0.041057  -0.113374  -0.102360
   37  C  5  Y    0.175162  -0.054384   0.037054   0.085832   0.172841
   38  C  5  Z    0.045634   0.278313  -0.203856  -0.464827  -0.243943
   39  C  6  S   -0.006961   0.000108   0.000167  -0.000220   0.001164
   40  C  6  S    0.008891  -0.000154  -0.000170   0.000423  -0.002938
   41  C  6  X    0.009919   0.049335   0.038575   0.052856  -0.009364
   42  C  6  Y   -0.184400  -0.047376  -0.036536  -0.052703   0.018299
   43  C  6  Z   -0.040545   0.226781   0.175529   0.248093  -0.074886
   44  C  6  S    0.030279  -0.000279  -0.002779   0.003401   0.020332
   45  C  6  X   -0.034496   0.057154   0.054364   0.098281  -0.031867
   46  C  6  Y   -0.176372  -0.055678  -0.050770  -0.095225   0.011853
   47  C  6  Z   -0.029797   0.254159   0.245793   0.482233  -0.170658
   48  C  7  S   -0.003568   0.000047   0.000177  -0.000067  -0.003731
   49  C  7  S    0.005157  -0.000039  -0.000169   0.000071   0.005064
   50  C  7  X    0.004830   0.000023   0.044343   0.001961   0.051633
   51  C  7  Y    0.230634  -0.000002  -0.042421  -0.001356  -0.046479
   52  C  7  Z    0.046407  -0.000250   0.204653   0.009192   0.226456
   53  C  7  S    0.009886  -0.000186  -0.000170   0.000103  -0.015013
   54  C  7  X   -0.032485   0.000143   0.041150   0.001606   0.117084
[...]
    3             0.042779   0.048072   0.005660   0.130519   0.199235
    4             0.044781   0.059164   0.008099   0.088387   0.055221
    5             0.024329   0.052323   0.008807   0.083000   0.029998
    6             0.021755   0.097278   0.025161   0.074278   0.032493
    7             0.051067   0.015763   0.194937   0.079058   0.019335
    8             0.059331   0.130772   0.027954   0.010873   0.010846
    9             0.092233   0.035955   0.008805   0.090722   0.048179
   10             0.251400   0.017036   0.690680   0.067660   0.082653
   11             0.018149   0.000041   0.000719   0.013016   0.008310
   12             0.005374   0.000153   0.000510   0.000768   0.062583
   13             0.003451   0.031794   0.002386   0.038240   0.000070
   14             0.005659   0.075433   0.002165   0.010033   0.000118
   15             0.008067   0.115698   0.002817   0.012077   0.000046
   16             0.037486   0.026833   0.002002   0.063809   0.032028
   17             0.014870   0.001412   0.000017   0.010664   0.015404
   18             0.030059   0.110868   0.001965   0.017283   0.015333
   19             0.033293   0.011648   0.001244   0.002115   0.113181

                     26         27         28         29         30

                  1.000000   1.000000   1.000000   1.000000   1.000000

    1             0.063622   0.095578   0.057294   0.032264   0.001261
    2             0.035946   0.065799   0.027798   0.004034   0.000483
    3             0.054893   0.077396   0.169832   0.174141   0.009564
    4             0.059354   0.011646   0.045670   0.176083   0.129042
    5             0.173651   0.020902   0.072142   0.102747   0.105316
    6             0.053619   0.130943   0.069373   0.085334   0.099534
    7             0.040285   0.022072   0.039433   0.013071   0.116948
    8             0.092266   0.081000   0.063255   0.104000   0.088414
    9             0.027594   0.106653   0.063208   0.115352   0.097375
   10             0.139673   0.095972   0.127817   0.043641   0.036610
   11             0.031246   0.056349   0.071248   0.018004   0.005531
   12             0.000816   0.016581   0.109184   0.008299   0.011131
   13             0.117863   0.002996   0.005434   0.030012   0.071971
   14             0.025283   0.088649   0.005514   0.015115   0.084783
   15             0.034689   0.050455   0.002092   0.036050   0.052685
   16             0.020182   0.046983   0.009213   0.008671   0.079818
   17             0.004536   0.002532   0.016729   0.003110   0.008172
   18             0.023599   0.007417   0.001030   0.028288   0.000183
   19             0.000883   0.020079   0.043733   0.001785   0.001180

                     31         32         33

                  1.000000   1.000000   1.000000

    1             0.033047   0.018801   0.000422
    2             0.001478   0.000885   0.000168
    3             0.018670   0.003498   0.000349
    4             0.226875   0.334561   0.001487
    5             0.130156   0.045581   0.220677
    6             0.108301   0.066644   0.305022
    7             0.068316   0.263015   0.002825
    8             0.128549   0.132162   0.240200
    9             0.140988   0.024201   0.227467
   10             0.124737   0.096284   0.000955
   11             0.008018   0.005374   0.000215
   12             0.004212   0.003003   0.000065
   13             0.000004   0.000011   0.000000
   14             0.000000   0.000001   0.000001
   15             0.000002   0.000001   0.000000
   16             0.000007   0.000010   0.000001
   17            -0.000000   0.000000   0.000000
   18             0.005675   0.005240   0.000006
   19             0.000966   0.000727   0.000140

     ATOMIC SPIN POPULATION (ALPHA MINUS BETA)
       ATOM         MULL.POP.                    LOW.POP.
    1 C            -0.015019                    -0.013608
    2 H             0.001637                     0.001219
    3 C             0.059597                     0.030254
    4 C            -0.515112                    -0.302634
    5 C             0.566882                     0.438402
    6 C             0.407229                     0.340508
    7 C            -0.273942                    -0.151576
    8 C             0.387200                     0.325621
    9 C             0.582873                     0.447694
   10 O            -0.001566                    -0.006246
   11 H            -0.007526                    -0.005877
   12 H            -0.006148                    -0.004622
   13 H            -0.051174                    -0.027597
   14 H            -0.041346                    -0.021748
   15 H            -0.040102                    -0.020924
   16 H            -0.052540                    -0.028294
   17 H            -0.000617                    -0.000640
   18 H            -0.002236                    -0.001349
   19 H             0.001911                     0.001417


          ********* ALL ELECTRONS ********

               ----- POPULATIONS IN EACH AO -----
                             MULLIKEN      LOWDIN
              1  C  1  S      1.98831     1.97659
              2  C  1  S      0.35322     0.41809
              3  C  1  X      0.52594     0.49424
              4  C  1  Y      0.54080     0.50890
              5  C  1  Z      0.53174     0.50758
              6  C  1  S      1.11031     0.58573
              7  C  1  X      0.46794     0.56972
              8  C  1  Y      0.56198     0.60798
              9  C  1  Z      0.47302     0.58224
             10  H  2  S      0.46762     0.47077
             11  H  2  S      0.33993     0.44609
             12  C  3  S      1.98939     1.97616
             13  C  3  S      0.34545     0.40967
             14  C  3  X      0.54384     0.53050
             15  C  3  Y      0.53544     0.50385
             16  C  3  Z      0.51592     0.48997
             17  C  3  S      1.13567     0.55865
             18  C  3  X      0.37683     0.53610
             19  C  3  Y      0.53934     0.57627
             20  C  3  Z      0.44512     0.55686
             21  C  4  S      1.98857     1.97639
             22  C  4  S      0.38864     0.40813
             23  C  4  X      0.54591     0.53201
             24  C  4  Y      0.61320     0.59445
             25  C  4  Z      0.42432     0.41229
             26  C  4  S      0.83219     0.51477
             27  C  4  X      0.32285     0.49409
             28  C  4  Y      0.34716     0.51128
             29  C  4  Z      0.55667     0.58820
             30  C  5  S      1.98791     1.97615
             31  C  5  S      0.38078     0.40043
             32  C  5  X      0.58085     0.55830
             33  C  5  Y      0.54830     0.52260
             34  C  5  Z      0.50055     0.50408
             35  C  5  S      0.86578     0.52755
             36  C  5  X      0.33016     0.51396
             37  C  5  Y      0.38912     0.52540
             38  C  5  Z      0.71193     0.71480
             39  C  6  S      1.98769     1.97591
             40  C  6  S      0.37837     0.39820
             41  C  6  X      0.58304     0.56133
             42  C  6  Y      0.54029     0.51478
             43  C  6  Z      0.53164     0.53943
             44  C  6  S      0.83790     0.52893
             45  C  6  X      0.34784     0.51085
             46  C  6  Y      0.38525     0.53403
             47  C  6  Z      0.74897     0.75495
             48  C  7  S      1.98812     1.97608
             49  C  7  S      0.40409     0.41807
             50  C  7  X      0.46888     0.45082
             51  C  7  Y      0.65603     0.62837
             52  C  7  Z      0.40855     0.38953
             53  C  7  S      0.80314     0.50917
             54  C  7  X      0.05059     0.38881
             55  C  7  Y      0.34206     0.50716
             56  C  7  Z      0.51197     0.55743
             57  C  8  S      1.98770     1.97586
             58  C  8  S      0.37601     0.39865
             59  C  8  X      0.57771     0.55612
             60  C  8  Y      0.53871     0.51330
             61  C  8  Z      0.53660     0.54493
             62  C  8  S      0.83368     0.53092
             63  C  8  X      0.39126     0.52763
             64  C  8  Y      0.34042     0.52461
             65  C  8  Z      0.78946     0.77635
             66  C  9  S      1.98789     1.97612
             67  C  9  S      0.38081     0.40025
             68  C  9  X      0.57975     0.55752
             69  C  9  Y      0.54422     0.51691
             70  C  9  Z      0.50601     0.51068
             71  C  9  S      0.86419     0.52725
             72  C  9  X      0.31516     0.50896
             73  C  9  Y      0.42698     0.53416
             74  C  9  Z      0.69117     0.71158
             75  O 10  S      1.98655     1.98010
             76  O 10  S      0.40969     0.56807
             77  O 10  X      0.60202     0.59370
             78  O 10  Y      0.67076     0.65998
             79  O 10  Z      0.82442     0.83561
             80  O 10  S      1.54837     1.01193
             81  O 10  X      0.81960     0.81509
             82  O 10  Y      0.86664     0.87984
             83  O 10  Z      1.03752     1.02332
             84  H 11  S      0.47087     0.48330
             85  H 11  S      0.35340     0.45077
             86  H 12  S      0.47146     0.48391
             87  H 12  S      0.35421     0.45110
             88  H 13  S      0.47695     0.48067
             89  H 13  S      0.40469     0.47580
             90  H 14  S      0.47316     0.47481
             91  H 14  S      0.38951     0.46934
             92  H 15  S      0.47400     0.47747
             93  H 15  S      0.41930     0.48415
             94  H 16  S      0.47675     0.48073
             95  H 16  S      0.40410     0.47578
             96  H 17  S      0.41726     0.43422
             97  H 17  S      0.23555     0.32944
             98  H 18  S      0.47449     0.47924
             99  H 18  S      0.38876     0.46950
            100  H 19  S      0.46742     0.47041
            101  H 19  S      0.33768     0.44524

          ----- MULLIKEN ATOMIC OVERLAP POPULATIONS -----
          (OFF-DIAGONAL ELEMENTS NEED TO BE MULTIPLIED BY 2)

             1           2           3           4           5

    1    5.3944230
    2    0.3731309   0.5256666
    3    0.2563026  -0.0408218   5.3576970
    4   -0.1006510  -0.0004762   0.2838567   5.2698977
    5   -0.0010044  -0.0000923  -0.0625929   0.4727008   5.3996568
    6    0.0000985   0.0000065   0.0017744  -0.0911614   0.2970376
    7   -0.0000074  -0.0000025   0.0001639  -0.0151811  -0.0877309
    8    0.0000726  -0.0000736   0.0021169  -0.0874443   0.0041531
    9   -0.0015483   0.0030223  -0.0584656   0.4704213  -0.1068827
   10   -0.0000000   0.0000000  -0.0000000  -0.0002093   0.0024576
   11   -0.0484785   0.0032550   0.3866408  -0.0490954   0.0007146
   12   -0.0471280  -0.0017410   0.3882454  -0.0496554   0.0022306
   13   -0.0001123   0.0000002  -0.0024349  -0.0483829   0.4062576
   14    0.0000013   0.0000000  -0.0000527   0.0032716  -0.0375665
   15    0.0000013   0.0000006  -0.0000623   0.0034395  -0.0001127
   16   -0.0000506   0.0002620  -0.0025004  -0.0461983   0.0027386
   17    0.0000000   0.0000000  -0.0000001   0.0000158  -0.0002274
   18    0.3545305  -0.0289698  -0.0419954   0.0051043  -0.0000004
   19    0.3736831  -0.0256209  -0.0408741  -0.0007386   0.0036632

             6           7           8           9          10

    6    5.4567017
    7    0.4699378   4.8665824
    8   -0.1253057   0.3764823   5.6401219
    9    0.0041534  -0.0564948   0.2483274   5.4157422
   10   -0.0455165   0.2355718  -0.0612165   0.0028519   8.3667007
   11    0.0000739   0.0000015  -0.0000506   0.0018353  -0.0000000
   12   -0.0000514   0.0000005   0.0001033   0.0006100  -0.0000000
   13   -0.0363428   0.0032879  -0.0000602   0.0028033  -0.0000073
   14    0.4019811  -0.0491515   0.0042812  -0.0003705  -0.0011761
   15    0.0027802  -0.0589894   0.4063909  -0.0358981  -0.0041457
   16    0.0000144   0.0024749  -0.0360125   0.4058284  -0.0000048
   17    0.0048928  -0.0535075  -0.0003530   0.0003504   0.2702586
   18   -0.0000006  -0.0000000  -0.0000001  -0.0000316   0.0000000
   19   -0.0000884  -0.0000014   0.0000055  -0.0000833  -0.0000000

            11          12          13          14          15

   11    0.5601655
   12   -0.0297814   0.5585411
   13    0.0015683   0.0000209   0.5573902
   14   -0.0000011   0.0000006  -0.0027841   0.5444202
   15    0.0000007  -0.0000017   0.0000017  -0.0000514   0.5791707
   16    0.0000224   0.0019858  -0.0000706   0.0000017  -0.0026679
   17    0.0000000   0.0000000   0.0000013  -0.0001358   0.0034517
   18   -0.0008416  -0.0008849   0.0000047  -0.0000000  -0.0000000
   19   -0.0017583   0.0031764   0.0005015   0.0000007   0.0000000

            16          17          18          19

   16    0.5550293
   17   -0.0000026   0.4280644
   18    0.0000031  -0.0000000   0.6051128
   19   -0.0000016   0.0000000  -0.0287767   0.5220189

          TOTAL MULLIKEN AND LOWDIN ATOMIC POPULATIONS
       ATOM         MULL.POP.    CHARGE          LOW.POP.     CHARGE
    1 C             6.553264   -0.553264         6.251088   -0.251088
    2 H             0.807546    0.192454         0.916853    0.083147
    3 C             6.426998   -0.426998         6.138036   -0.138036
    4 C             6.019514   -0.019514         6.031605   -0.031605
    5 C             6.295400   -0.295400         6.243258   -0.243258
    6 C             6.340986   -0.340986         6.318395   -0.318395
    7 C             5.633437    0.366563         5.825431    0.174569
    8 C             6.371539   -0.371539         6.348383   -0.348383
    9 C             6.296171   -0.296171         6.243436   -0.243436
   10 O             8.765564   -0.765564         8.367634   -0.367634
   11 H             0.824271    0.175729         0.934067    0.065933
   12 H             0.825671    0.174329         0.935006    0.064994
   13 H             0.881643    0.118357         0.956471    0.043529
   14 H             0.862669    0.137331         0.944147    0.055853
   15 H             0.893308    0.106692         0.961620    0.038380
   16 H             0.880851    0.119149         0.956512    0.043488
   17 H             0.652809    0.347191         0.763660    0.236340
   18 H             0.863254    0.136746         0.948745    0.051255
   19 H             0.805106    0.194894         0.915654    0.084346

          -------------------------------
          BOND ORDER AND VALENCE ANALYSIS     BOND ORDER THRESHOLD=0.050
          -------------------------------

                   BOND                       BOND                       BOND
  ATOM PAIR DIST  ORDER      ATOM PAIR DIST  ORDER      ATOM PAIR DIST  ORDER
    1   2  1.095  0.931        1   3  1.551  0.905        1  18  1.096  0.938
    1  19  1.095  0.930        3   4  1.520  0.939        3  11  1.097  0.934
    3  12  1.097  0.936        4   5  1.404  1.353        4   7  2.823  0.063
    4   9  1.399  1.360        5   6  1.391  1.163        5   8  2.780  0.057
    5  13  1.085  0.970        6   7  1.399  1.357        6   9  2.782  0.058
    6  14  1.082  0.961        7   8  1.397  1.326        7  10  1.389  0.749
    8   9  1.396  1.146        8  15  1.086  0.966        9  16  1.085  0.970
   10  17  0.993  0.837

                       TOTAL       BONDED        FREE
      ATOM            VALENCE     VALENCE     VALENCE
    1 C                 3.674       3.674       0.000
    2 H                 0.923       0.923       0.000
    3 C                 3.646       3.645       0.001
    4 C                 3.675       3.576       0.099
    5 C                 3.705       3.520       0.185
    6 C                 3.661       3.548       0.113
    7 C                 3.445       3.418       0.027
    8 C                 3.613       3.510       0.104
    9 C                 3.712       3.518       0.194
   10 O                 1.679       1.679       0.000
   11 H                 0.922       0.922       0.000
   12 H                 0.923       0.923       0.000
   13 H                 0.954       0.952       0.003
   14 H                 0.949       0.947       0.002
   15 H                 0.953       0.951       0.002
   16 H                 0.955       0.952       0.003
   17 H                 0.859       0.859       0.000
   18 H                 0.931       0.931       0.000
   19 H                 0.922       0.922       0.000

          -----------------------------------------
          ATOMIC SPIN DENSITY AT THE NUCLEUS (A.U.)
          -----------------------------------------
                            SPIN DENS    ALPHA DENS     BETA DENS
    1  C            6.0    -0.0164385      46.98947      47.00591
    2  H            1.0     0.0004640       0.18354       0.18308
    3  C            6.0     0.0179456      47.04059      47.02264
    4  C            6.0    -0.1019996      46.96234      47.06434
    5  C            6.0     0.0967788      47.01654      46.91976
    6  C            6.0     0.0674001      46.98643      46.91903
    7  C            6.0    -0.0628644      46.96318      47.02605
    8  C            6.0     0.0642118      46.98588      46.92167
    9  C            6.0     0.0998047      47.01639      46.91658
   10  O            8.0    -0.0082927     116.74795     116.75624
   11  H            1.0    -0.0027562       0.18407       0.18683
   12  H            1.0    -0.0021700       0.18462       0.18679
   13  H            1.0    -0.0122769       0.18099       0.19326
   14  H            1.0    -0.0099191       0.18052       0.19044
   15  H            1.0    -0.0092398       0.18129       0.19053
   16  H            1.0    -0.0125992       0.18076       0.19336
   17  H            1.0    -0.0002670       0.16882       0.16908
   18  H            1.0    -0.0002630       0.18606       0.18632
   19  H            1.0     0.0005123       0.18348       0.18297

          ---------------------
          ELECTROSTATIC MOMENTS
          ---------------------

 POINT   1           X           Y           Z (BOHR)    CHARGE
                 2.894973   -0.088908    0.332527       -1.00 (A.U.)
         DX          DY          DZ         /D/  (DEBYE)
    -1.878038   -1.435744   -0.641603    2.449498
 ...... END OF PROPERTY EVALUATION ......
 CPU     0: STEP CPU TIME=     0.04 TOTAL CPU TIME=          2.6 (      0.0 MIN)
 TOTAL WALL CLOCK TIME=          3.3 SECONDS, CPU UTILIZATION IS    80.73%
               580000  WORDS OF DYNAMIC MEMORY USED
 EXECUTION OF GAMESS TERMINATED NORMALLY Sun May 17 17:50:34 2020
 DDI: 263640 bytes (0.3 MB / 0 MWords) used by master data server.
Note: The following floating-point exceptions are signalling:Note: The following floating-point exceptions are signalling:Note: The following floating-point exceptions are signalling: IEEE_DENORMAL IEEE_DENORMAL
 ----------------------------------------
 CPU timing information for all processes
 ========================================
 0: 2.531 + 0.117 = 2.649
 1: 2.468 + 0.40 = 2.508
 2: 2.450 + 0.24 = 2.475
 3: 2.506 + 0.12 = 2.518
 4: 2.467 + 0.28 = 2.496
 5: 2.458 + 0.24 = 2.483
 ----------------------------------------
 IEEE_DENORMAL


Note: The following floating-point exceptions are signalling: IEEE_DENORMALNote: The following floating-point exceptions are signalling: IEEE_DENORMALNote: The following floating-point exceptions are signalling: IEEE_DENORMAL


 ddikick.x: exited gracefully.
unset echo
----- accounting info -----
Files used on the master node pietdev were:
-rwxr-xr-x 1 piet piet     1194 mei 17 17:50 /home/piet/scr/thyrosine_fukui_acid.F05*
-rw-r--r-- 1 piet piet 68812800 mei 17 17:50 /home/piet/scr/thyrosine_fukui_acid.F10
ls: No match.
ls: No match.
ls: No match.
zo 17 mei 2020 17:50:37 CEST
0.103u 0.021s 0:06.41 1.8%	0+0k 0+8io 0pf+0w
