----- GAMESS execution script 'rungms' -----
This job is running on host pietdev
under operating system Linux at zo 17 mei 2020 17:50:30 CEST
Available scratch disk space (Kbyte units) at beginning of the job is
Filesystem     1K-blocks     Used Available Use% Mounted on
/dev/sda2      244568380 30400392 201674932  14% /
GAMESS temporary binary files will be written to /home/piet/scr
GAMESS supplementary output files will be written to /home/piet/gamess/scr
Copying input file thyrosine_fukui_neu.inp to your run's scratch directory...
cp thyrosine_fukui_neu.inp /home/piet/scr/thyrosine_fukui_neu.F05
unset echo
 
Assuming a single but multicore node.
 
/home/piet/gamess/ddikick.x /home/piet/gamess/gamess.03.x thyrosine_fukui_neu -ddi 1 6 pietdev:cpus=6 -scr /home/piet/scr

 Distributed Data Interface kickoff program.
 Initiating 6 compute processes on 1 nodes to run the following command:
 /home/piet/gamess/gamess.03.x thyrosine_fukui_neu 

          ******************************************************
          *         GAMESS VERSION = 30 SEP 2019 (R2)          *
          *             FROM IOWA STATE UNIVERSITY             *
          * M.W.SCHMIDT, K.K.BALDRIDGE, J.A.BOATZ, S.T.ELBERT, *
          *   M.S.GORDON, J.H.JENSEN, S.KOSEKI, N.MATSUNAGA,   *
          *          K.A.NGUYEN, S.J.SU, T.L.WINDUS,           *
          *       TOGETHER WITH M.DUPUIS, J.A.MONTGOMERY       *
          *         J.COMPUT.CHEM.  14, 1347-1363(1993)        *
          **************** 64 BIT LINUX VERSION ****************

  SINCE 1993, STUDENTS AND POSTDOCS WORKING AT IOWA STATE UNIVERSITY
  AND ALSO IN THEIR VARIOUS JOBS AFTER LEAVING ISU HAVE MADE IMPORTANT
  CONTRIBUTIONS TO THE CODE:
     IVANA ADAMOVIC, CHRISTINE AIKENS, YURI ALEXEEV, POOJA ARORA,
     ANDREY ASADCHEV, ROB BELL, PRADIPTA BANDYOPADHYAY, JONATHAN BENTZ,
     COLLEEN BERTONI, BRETT BODE, KURT BRORSEN, CALEB CARLIN, GALINA CHABAN,
     WEI CHEN, CHEOL HO CHOI, PAUL DAY, ALBERT DEFUSCO, NUWAN DESILVA,
     TIM DUDLEY, DMITRI FEDOROV, ALEX FINDLATER, GRAHAM FLETCHER, 
     MARK FREITAG, KURT GLAESEMANN, EMILIE B GUIDEZ, ANASTASIA GUNINA, 
     DAN KEMP, SAROM SOK LEANG, GRANT MERRILL,
     NORIYUKI MINEZAWA, JONATHAN MULLIN,
     TAKESHI NAGATA, SEAN NEDD, HEATHER NETZLOFF, BOSILJKA NJEGIC, RYAN OLSON,
     MIKE PAK, BUU PHAM, DAVID POOLE,
     SPENCER PRUITT, LUKE ROSKOP, TOSAPORN SATTASATHUCHANA,
     JIM SHOEMAKER, LYUDMILA SLIPCHENKO,
     TONY SMITH, JIE SONG, TETSUYA TAKETSUGU, SIMON WEBB,
     JORGE LUIS GALVEZ VALLEJO, PENG XU, SOOHAENG YOO,
     FEDERICO ZAHARIEV

  ADDITIONAL CODE HAS BEEN PROVIDED BY COLLABORATORS IN OTHER GROUPS:
     IOWA STATE UNIVERSITY:
          JOE IVANIC, AARON WEST, LAIMUTIS BYTAUTAS, KLAUS RUEDENBERG
     UNIVERSITY OF TOKYO: KIMIHIKO HIRAO, TAKAHITO NAKAJIMA,
          TAKAO TSUNEDA, MUNEAKI KAMIYA, SUSUMU YANAGISAWA,
          KIYOSHI YAGI, MAHITO CHIBA, SEIKEN TOKURA, NAOAKI KAWAKAMI
     UNIVERSITY OF AARHUS: FRANK JENSEN
     UNIVERSITY OF IOWA: VISVALDAS KAIRYS, HUI LI
     NATIONAL INST. OF STANDARDS AND TECHNOLOGY: WALT STEVENS, DAVID GARMER
     UNIVERSITY OF PISA: BENEDETTA MENNUCCI, JACOPO TOMASI
     UNIVERSITY OF MEMPHIS: HENRY KURTZ, PRAKASHAN KORAMBATH
     UNIVERSITY OF ALBERTA: TOBY ZENG, MARIUSZ KLOBUKOWSKI
     UNIVERSITY OF NEW ENGLAND: MARK SPACKMAN
     MIE UNIVERSITY: HIROAKI UMEDA
     NAT. INST. OF ADVANCED INDUSTRIAL SCIENCE AND TECHNOLOGY: KAZUO KITAURA
     MICHIGAN STATE UNIVERSITY:
          KAROL KOWALSKI, MARTA WLOCH, JEFFREY GOUR, JESSE LUTZ,
          WEI LI, JUN SHEN, J. EMILIANO DEUSTUA, PIOTR PIECUCH
     UNIVERSITY OF MINNESOTA:
          ANDREW SAND, PRACHI SHARMA, YINAN SHU
     UNIVERSITY OF SILESIA: MONIKA MUSIAL, STANISLAW KUCHARSKI
     FACULTES UNIVERSITAIRES NOTRE-DAME DE LA PAIX:
          OLIVIER QUINET, BENOIT CHAMPAGNE
     UNIVERSITY OF CALIFORNIA - SANTA BARBARA: BERNARD KIRTMAN
     INSTITUTE FOR MOLECULAR SCIENCE:
          KAZUYA ISHIMURA, MICHIO KATOUDA, AND SHIGERU NAGASE
     UNIVERSITY OF NOTRE DAME: ANNA POMOGAEVA, DAN CHIPMAN
     KYUSHU UNIVERSITY:
          HARUYUKI NAKANO,
          FENG LONG GU, JACEK KORCHOWIEC, MARCIN MAKOWSKI, AND YURIKO AOKI,
          HIROTOSHI MORI AND EISAKU MIYOSHI
     PENNSYLVANIA STATE UNIVERSITY:
          TZVETELIN IORDANOV, CHET SWALINA, JONATHAN SKONE,
          SHARON HAMMES-SCHIFFER
     WASEDA UNIVERSITY:
          MASATO KOBAYASHI, TOMOKO AKAMA, TSUGUKI TOUMA,
          TAKESHI YOSHIKAWA, YASUHIRO IKABATA, JUNJI SEINO,
          YUYA NAKAJIMA, HIROMI NAKAI
     NANJING UNIVERSITY: SHUHUA LI
     UNIVERSITY OF NEBRASKA:
          PEIFENG SU, DEJUN SI, NANDUN THELLAMUREGE, YALI WANG, HUI LI
     UNIVERSITY OF ZURICH: ROBERTO PEVERATI, KIM BALDRIDGE
     N. COPERNICUS UNIVERSITY AND JACKSON STATE UNIVERSITY:
          MARIA BARYSZ
     UNIVERSITY OF COPENHAGEN: Jimmy Kromann, CASPER STEINMANN
     TOKYO INSTITUTE OF TECHNOLOGY: HIROYA NAKATA
     NAGOYA UNIVERSITY: YOSHIO NISHIMOTO, STEPHAN IRLE
     MOSCOW STATE UNIVERSITY: VLADIMIR MIRONOV
     A.N.NESMEYANOV INSTITUTE OF ORGANOELEMENT COMPOUNDS OF RUSSIAN ACADEMY OF SCIENCES:
          IGOR S. GERASIMOV
     JOHANNES KEPLER UNIVERSITY LINZ:
          CHRISTIAN FRIEDL


 PARALLEL VERSION RUNNING ON        6 PROCESSORS IN        1 NODES.

 EXECUTION OF GAMESS BEGUN Sun May 17 17:50:30 2020

            ECHO OF THE FIRST FEW INPUT CARDS -
 INPUT CARD> $BASIS GBASIS=N21 NGAUSS=3 $END                                                
 INPUT CARD> $CONTRL SCFTYP=RHF MAXIT=60 MULT=1 ICHARG=0 $END                               
 INPUT CARD> $SYSTEM MEMDDI=1000 MWORDS=30 $END                                             
 INPUT CARD> $SCF DIRSCF=.TRUE. $END                                                        
 INPUT CARD> $DATA                                                                          
 INPUT CARD>                                                                                
 INPUT CARD>C1                                                                              
 INPUT CARD>C 6.0000000 -1.7490373551 0.0642315777 -0.4693473103                            
 INPUT CARD>H 1.0000000 -1.4837665225 -0.6131941929 -1.2882378885                           
 INPUT CARD>C 6.0000000 -0.9385355405 -0.2924703482 0.8044097794                            
 INPUT CARD>C 6.0000000 0.5578503178 -0.1861260827 0.5587442105                             
 INPUT CARD>C 6.0000000 1.2210385776 1.0464170476 0.6712511076                              
 INPUT CARD>C 6.0000000 2.5803303461 1.1619299704 0.4008543725                              
 INPUT CARD>C 6.0000000 3.3177801857 0.0395266159 0.0074758586                              
 INPUT CARD>C 6.0000000 2.6717068649 -1.1938715533 -0.1070556239                            
 INPUT CARD>C 6.0000000 1.3067498292 -1.3004520538 0.1655878006                             
 INPUT CARD>O 8.0000000 4.6710131176 0.2258160966 -0.2448510767                             
 INPUT CARD>H 1.0000000 -1.2283426770 0.3816927803 1.6201140465                             
 INPUT CARD>H 1.0000000 -1.1876422647 -1.3132889909 1.1191306821                            
 INPUT CARD>H 1.0000000 0.6641485188 1.9254758159 0.9800910173                              
 INPUT CARD>H 1.0000000 3.0960274626 2.1092552613 0.4902488396                              
 INPUT CARD>H 1.0000000 3.2311964432 -2.0755117362 -0.4056648666                            
 INPUT CARD>H 1.0000000 0.8204928827 -2.2666543181 0.0748621823                             
 INPUT CARD>H 1.0000000 5.0852296761 -0.6349879215 -0.5141784807                            
 INPUT CARD>H 1.0000000 -2.8265906928 -0.0149961618 -0.2826980459                           
 INPUT CARD>H 1.0000000 -1.5236891696 1.0878281936 -0.7875266045                            
 INPUT CARD> $END                                                                           
   30000000 WORDS OF MEMORY AVAILABLE

     BASIS OPTIONS
     -------------
     GBASIS=N21          IGAUSS=       3      POLAR=NONE    
     NDFUNC=       0     NFFUNC=       0     DIFFSP=       F
     NPFUNC=       0      DIFFS=       F     BASNAM=        


     RUN TITLE
     ---------
                                                                                 

 THE POINT GROUP OF THE MOLECULE IS C1      
 THE ORDER OF THE PRINCIPAL AXIS IS     0

 ATOM      ATOMIC                      COORDINATES (BOHR)
           CHARGE         X                   Y                   Z
 C           6.0    -3.3052013434        0.1213800816       -0.8869378095
 H           1.0    -2.8039121573       -1.1587690018       -2.4344166163
 C           6.0    -1.7735750013       -0.5526888176        1.5201140649
 C           6.0     1.0541842428       -0.3517272955        1.0558734551
 C           6.0     2.3074283321        1.9774414888        1.2684806623
 C           6.0     4.8761173119        2.1957292610        0.7575049250
 C           6.0     6.2696954385        0.0746944733        0.0141273243
 C           6.0     5.0487938942       -2.2560901003       -0.2023057946
 C           6.0     2.4693991117       -2.4574980419        0.3129155700
 O           8.0     8.8269348773        0.4267305462       -0.4627014428
 H           1.0    -2.3212310786        0.7212947663        3.0615716167
 H           1.0    -2.2443184517       -2.4817563355        2.1148503336
 H           1.0     1.2550587157        3.6386216880        1.8521034657
 H           1.0     5.8506435548        3.9859144820        0.9264359726
 H           1.0     6.1060758901       -3.9221484657       -0.7665954407
 H           1.0     1.5505067232       -4.2833555701        0.1414690114
 H           1.0     9.6096906725       -1.1999531771       -0.9716564373
 H           1.0    -5.3414818888       -0.0283386367       -0.5342218440
 H           1.0    -2.8793550210        2.0556972076       -1.4882094905

          INTERNUCLEAR DISTANCES (ANGS.)
          ------------------------------

                1 C          2 H          3 C          4 C          5 C     

   1 C       0.0000000    1.0953794 *  1.5513241 *  2.5379878 *  3.3297153  
   2 H       1.0953794 *  0.0000000    2.1861644 *  2.7860239 *  3.7295948  
   3 C       1.5513241 *  2.1861644 *  0.0000000    1.5201419 *  2.5444275 *
   4 C       2.5379878 *  2.7860239 *  1.5201419 *  0.0000000    1.4041506 *
   5 C       3.3297153    3.7295948    2.5444275 *  1.4041506 *  0.0000000  
   6 C       4.5503426    4.7456277    3.8289103    2.4356949 *  1.3907307 *
   7 C       5.0892643    5.0159515    4.3429885    2.8234781 *  2.4188326 *
   8 C       4.6105377    4.3589376    3.8310760    2.4345903 *  2.7801246 *
   9 C       3.4063675    3.2207009    2.5427204 *  1.3989799 *  2.4022565 *
  10 O       6.4260062    6.2987226    5.7303233    4.2111245    3.6626430  
  11 H       2.1766381 *  3.0844047    1.0972044 *  2.1539289 *  2.7095512 *
  12 H       2.1762329 *  2.5245288 *  1.0968929 *  2.1520394 *  3.4015514  
  13 H       3.3746952    4.0253820    2.7420331 *  2.1558513 *  1.0854736 *
  14 H       5.3458021    5.6168727    4.7058136    3.4228366    2.1628616 *
  15 H       5.4208196    5.0147965    4.6936321    3.4127178    3.8661249  
  16 H       3.5116490    3.1466782    2.7429588 *  2.1521433 *  3.3900676  
  17 H       6.8700891    6.6144806    6.1759000    4.6743774    4.3777093  
  18 H       1.0964653 *  1.7810469 *  2.1962576 *  3.4916689    4.2918434  
  19 H       1.0953401 *  1.7736355 *  2.1867534 *  2.7871511 *  3.1085813  

                6 C          7 C          8 C          9 C         10 O     

   1 C       4.5503426    5.0892643    4.6105377    3.4063675    6.4260062  
   2 H       4.7456277    5.0159515    4.3589376    3.2207009    6.2987226  
   3 C       3.8289103    4.3429885    3.8310760    2.5427204 *  5.7303233  
   4 C       2.4356949 *  2.8234781 *  2.4345903 *  1.3989799 *  4.2111245  
   5 C       1.3907307 *  2.4188326 *  2.7801246 *  2.4022565 *  3.6626430  
   6 C       0.0000000    1.3994171 *  2.4116640 *  2.7822083 *  2.3799578 *
   7 C       1.3994171 *  0.0000000    1.3970681 *  2.4217319 *  1.3891048 *
   8 C       2.4116640 *  1.3970681 *  0.0000000    1.3959948 *  2.4559573 *
   9 C       2.7822083 *  2.4217319 *  1.3959948 *  0.0000000    3.7170179  
  10 O       2.3799578 *  1.3891048 *  2.4559573 *  3.7170179    0.0000000  
  11 H       4.0744760    4.8357949    4.5470765    3.3722325    6.1890865  
  12 H       4.5651120    4.8337064    4.0512182    2.6704683 *  6.2091170  
  13 H       2.1424916 *  3.3977265    3.8655538    3.3886520    4.5215363  
  14 H       1.0822939 *  2.1368249 *  3.3834106    3.8643270    2.5628685 *
  15 H       3.3992836    2.1567497 *  1.0860412 *  2.1518694 *  2.7193828 *
  16 H       3.8676206    3.3999199    2.1473123 *  1.0854602 *  4.5979486  
  17 H       3.2156989    1.9623891 *  2.5106159 *  3.8963874    0.9925201 *
  18 H       5.5755891    6.1514606    5.6259998    4.3517653    7.5015656  
  19 H       4.2732560    5.0170500    4.8239551    3.8240939    6.2778896  

               11 H         12 H         13 H         14 H         15 H     

   1 C       2.1766381 *  2.1762329 *  3.3746952    5.3458021    5.4208196  
   2 H       3.0844047    2.5245288 *  4.0253820    5.6168727    5.0147965  
   3 C       1.0972044 *  1.0968929 *  2.7420331 *  4.7058136    4.6936321  
   4 C       2.1539289 *  2.1520394 *  2.1558513 *  3.4228366    3.4127178  
   5 C       2.7095512 *  3.4015514    1.0854736 *  2.1628616 *  3.8661249  
   6 C       4.0744760    4.5651120    2.1424916 *  1.0822939 *  3.3992836  
   7 C       4.8357949    4.8337064    3.3977265    2.1368249 *  2.1567497 *
   8 C       4.5470765    4.0512182    3.8655538    3.3834106    1.0860412 *
   9 C       3.3722325    2.6704683 *  3.3886520    3.8643270    2.1518694 *
  10 O       6.1890865    6.2091170    4.5215363    2.5628685 *  2.7193828 *
  11 H       0.0000000    1.7679378 *  2.5247611 *  4.7917893    5.4798835  
  12 H       1.7679378 *  0.0000000    3.7333709    5.5189789    4.7362560  
  13 H       2.5247611 *  3.7333709    0.0000000    2.4875199 *  4.9515609  
  14 H       4.7917893    5.5189789    2.4875199 *  0.0000000    4.2817294  
  15 H       5.4798835    4.7362560    4.9515609    4.2817294    0.0000000  
  16 H       3.6877192    2.4560148 *  4.2916009    4.9496655    2.4655493 *
  17 H       6.7416645    6.5174162    5.3230418    3.5350630    2.3503879 *
  18 H       2.5164365 *  2.5173081 *  4.1887144    6.3393451    6.3998149  
  19 H       2.5263789 *  3.0844178    2.9347503 *  4.9007964    5.7237641  

               16 H         17 H         18 H         19 H     

   1 C       3.5116490    6.8700891    1.0964653 *  1.0953401 *
   2 H       3.1466782    6.6144806    1.7810469 *  1.7736355 *
   3 C       2.7429588 *  6.1759000    2.1962576 *  2.1867534 *
   4 C       2.1521433 *  4.6743774    3.4916689    2.7871511 *
   5 C       3.3900676    4.3777093    4.2918434    3.1085813  
   6 C       3.8676206    3.2156989    5.5755891    4.2732560  
   7 C       3.3999199    1.9623891 *  6.1514606    5.0170500  
   8 C       2.1473123 *  2.5106159 *  5.6259998    4.8239551  
   9 C       1.0854602 *  3.8963874    4.3517653    3.8240939  
  10 O       4.5979486    0.9925201 *  7.5015656    6.2778896  
  11 H       3.6877192    6.7416645    2.5164365 *  2.5263789 *
  12 H       2.4560148 *  6.5174162    2.5173081 *  3.0844178  
  13 H       4.2916009    5.3230418    4.1887144    2.9347503 *
  14 H       4.9496655    3.5350630    6.3393451    4.9007964  
  15 H       2.4655493 *  2.3503879 *  6.3998149    5.7237641  
  16 H       0.0000000    4.6040508    4.3010501    4.1822789  
  17 H       4.6040508    0.0000000    7.9394505    6.8352486  
  18 H       4.3010501    7.9394505    0.0000000    1.7800634 *
  19 H       4.1822789    6.8352486    1.7800634 *  0.0000000  

  * ... LESS THAN  3.000


     ATOMIC BASIS SET
     ----------------
 THE CONTRACTED PRIMITIVE FUNCTIONS HAVE BEEN UNNORMALIZED
 THE CONTRACTED BASIS FUNCTIONS ARE NOW NORMALIZED TO UNITY

  SHELL TYPE  PRIMITIVE        EXPONENT          CONTRACTION COEFFICIENT(S)

 C         

      1   S       1           172.2560000    0.061766907377
      1   S       2            25.9109000    0.358794042852
      1   S       3             5.5333500    0.700713083689

      2   L       4             3.6649800   -0.395895162119    0.236459946619
      2   L       5             0.7705450    1.215834355681    0.860618805716

      3   L       6             0.1958570    1.000000000000    1.000000000000

 H         

      4   S       7             5.4471780    0.156284978695
      4   S       8             0.8245472    0.904690876670

      5   S       9             0.1831916    1.000000000000

 C         

      6   S      10           172.2560000    0.061766907377
      6   S      11            25.9109000    0.358794042852
      6   S      12             5.5333500    0.700713083689

      7   L      13             3.6649800   -0.395895162119    0.236459946619
      7   L      14             0.7705450    1.215834355681    0.860618805716

      8   L      15             0.1958570    1.000000000000    1.000000000000

 C         

      9   S      16           172.2560000    0.061766907377
      9   S      17            25.9109000    0.358794042852
      9   S      18             5.5333500    0.700713083689

     10   L      19             3.6649800   -0.395895162119    0.236459946619
     10   L      20             0.7705450    1.215834355681    0.860618805716

     11   L      21             0.1958570    1.000000000000    1.000000000000

 C         

     12   S      22           172.2560000    0.061766907377
     12   S      23            25.9109000    0.358794042852
     12   S      24             5.5333500    0.700713083689

     13   L      25             3.6649800   -0.395895162119    0.236459946619
     13   L      26             0.7705450    1.215834355681    0.860618805716

     14   L      27             0.1958570    1.000000000000    1.000000000000

 C         

     15   S      28           172.2560000    0.061766907377
     15   S      29            25.9109000    0.358794042852
     15   S      30             5.5333500    0.700713083689

     16   L      31             3.6649800   -0.395895162119    0.236459946619
     16   L      32             0.7705450    1.215834355681    0.860618805716

     17   L      33             0.1958570    1.000000000000    1.000000000000

 C         

     18   S      34           172.2560000    0.061766907377
     18   S      35            25.9109000    0.358794042852
     18   S      36             5.5333500    0.700713083689

     19   L      37             3.6649800   -0.395895162119    0.236459946619
     19   L      38             0.7705450    1.215834355681    0.860618805716

     20   L      39             0.1958570    1.000000000000    1.000000000000

 C         

     21   S      40           172.2560000    0.061766907377
     21   S      41            25.9109000    0.358794042852
     21   S      42             5.5333500    0.700713083689

     22   L      43             3.6649800   -0.395895162119    0.236459946619
     22   L      44             0.7705450    1.215834355681    0.860618805716

     23   L      45             0.1958570    1.000000000000    1.000000000000

 C         

     24   S      46           172.2560000    0.061766907377
     24   S      47            25.9109000    0.358794042852
     24   S      48             5.5333500    0.700713083689

     25   L      49             3.6649800   -0.395895162119    0.236459946619
     25   L      50             0.7705450    1.215834355681    0.860618805716

     26   L      51             0.1958570    1.000000000000    1.000000000000

 O         

     27   S      52           322.0370000    0.059239393389
     27   S      53            48.4308000    0.351499960776
     27   S      54            10.4206000    0.707657921031

     28   L      55             7.4029400   -0.404453583190    0.244586106967
     28   L      56             1.5762000    1.221561761397    0.853955373466

     29   L      57             0.3736840    1.000000000000    1.000000000000

 H         

     30   S      58             5.4471780    0.156284978695
     30   S      59             0.8245472    0.904690876670

     31   S      60             0.1831916    1.000000000000

 H         

     32   S      61             5.4471780    0.156284978695
     32   S      62             0.8245472    0.904690876670

     33   S      63             0.1831916    1.000000000000

 H         

     34   S      64             5.4471780    0.156284978695
     34   S      65             0.8245472    0.904690876670

     35   S      66             0.1831916    1.000000000000

 H         

     36   S      67             5.4471780    0.156284978695
     36   S      68             0.8245472    0.904690876670

     37   S      69             0.1831916    1.000000000000

 H         

     38   S      70             5.4471780    0.156284978695
     38   S      71             0.8245472    0.904690876670

     39   S      72             0.1831916    1.000000000000

 H         

     40   S      73             5.4471780    0.156284978695
     40   S      74             0.8245472    0.904690876670

     41   S      75             0.1831916    1.000000000000

 H         

     42   S      76             5.4471780    0.156284978695
     42   S      77             0.8245472    0.904690876670

     43   S      78             0.1831916    1.000000000000

 H         

     44   S      79             5.4471780    0.156284978695
     44   S      80             0.8245472    0.904690876670

     45   S      81             0.1831916    1.000000000000

 H         

     46   S      82             5.4471780    0.156284978695
     46   S      83             0.8245472    0.904690876670

     47   S      84             0.1831916    1.000000000000

 TOTAL NUMBER OF BASIS SET SHELLS             =   47
 NUMBER OF CARTESIAN GAUSSIAN BASIS FUNCTIONS =  101
 NUMBER OF ELECTRONS                          =   66
 CHARGE OF MOLECULE                           =    0
 SPIN MULTIPLICITY                            =    1
 NUMBER OF OCCUPIED ORBITALS (ALPHA)          =   33
 NUMBER OF OCCUPIED ORBITALS (BETA )          =   33
 TOTAL NUMBER OF ATOMS                        =   19
 THE NUCLEAR REPULSION ENERGY IS      416.6241173716

     $CONTRL OPTIONS
     ---------------
 SCFTYP=RHF          RUNTYP=ENERGY       EXETYP=RUN     
 MPLEVL=       0     CITYP =NONE         CCTYP =NONE         VBTYP =NONE    
 DFTTYP=NONE         TDDFT =NONE    
 MULT  =       1     ICHARG=       0     NZVAR =       0     COORD =UNIQUE  
 PP    =NONE         RELWFN=NONE         LOCAL =NONE         NUMGRD=       F
 ISPHER=      -1     NOSYM =       0     MAXIT =      60     UNITS =ANGS    
 PLTORB=       F     MOLPLT=       F     AIMPAC=       F     FRIEND=        
 NPRINT=       7     IREST =       0     GEOM  =INPUT   
 NORMF =       0     NORMP =       0     ITOL  =      20     ICUT  =       9
 INTTYP=BEST         GRDTYP=BEST         QMTTOL= 1.0E-06

     $SYSTEM OPTIONS
     ---------------
  REPLICATED MEMORY=    30000000 WORDS (ON EVERY NODE).
 DISTRIBUTED MEMDDI=        1000 MILLION WORDS IN AGGREGATE,
 MEMDDI DISTRIBUTED OVER   6 PROCESSORS IS   166666666 WORDS/PROCESSOR.
 TOTAL MEMORY REQUESTED ON EACH PROCESSOR=   196666666 WORDS.
 TIMLIM=      525600.00 MINUTES, OR     365.0 DAYS.
 PARALL= T  BALTYP=  DLB     KDIAG=    0  COREFL= F
 MXSEQ2=     300 MXSEQ3=     150  mem10=         0

          ----------------
          PROPERTIES INPUT
          ----------------

     MOMENTS            FIELD           POTENTIAL          DENSITY
 IEMOM =       1   IEFLD =       0   IEPOT =       0   IEDEN =       0
 WHERE =COMASS     WHERE =NUCLEI     WHERE =NUCLEI     WHERE =NUCLEI  
 OUTPUT=BOTH       OUTPUT=BOTH       OUTPUT=BOTH       OUTPUT=BOTH    
 IEMINT=       0   IEFINT=       0                     IEDINT=       0
                                                       MORB  =       0
          EXTRAPOLATION IN EFFECT
          SOSCF IN EFFECT
 ORBITAL PRINTING OPTION: NPREO=     1   101     2     1

     -------------------------------
     INTEGRAL TRANSFORMATION OPTIONS
     -------------------------------
     NWORD  =            0
     CUTOFF = 1.0E-09     MPTRAN =       0
     DIRTRF =       T     AOINTS =DUP     

          ----------------------
          INTEGRAL INPUT OPTIONS
          ----------------------
 NOPK  =       1 NORDER=       0 SCHWRZ=       T

     ------------------------------------------
     THE POINT GROUP IS C1 , NAXIS= 0, ORDER= 1
     ------------------------------------------

     DIMENSIONS OF THE SYMMETRY SUBSPACES ARE
 A   =  101

 ..... DONE SETTING UP THE RUN .....
 CPU     0: STEP CPU TIME=     0.01 TOTAL CPU TIME=          0.0 (      0.0 MIN)
 TOTAL WALL CLOCK TIME=          0.0 SECONDS, CPU UTILIZATION IS    33.33%

          ********************
          1 ELECTRON INTEGRALS
          ********************
 ...... END OF ONE-ELECTRON INTEGRALS ......
 CPU     0: STEP CPU TIME=     0.02 TOTAL CPU TIME=          0.0 (      0.0 MIN)
 TOTAL WALL CLOCK TIME=          0.0 SECONDS, CPU UTILIZATION IS    75.00%

          -------------
          GUESS OPTIONS
          -------------
          GUESS =HUCKEL            NORB  =       0          NORDER=       0
          MIX   =       F          PRTMO =       F          PUNMO =       F
          TOLZ  = 1.0E-08          TOLE  = 1.0E-05
          SYMDEN=       F          PURIFY=       F

 INITIAL GUESS ORBITALS GENERATED BY HUCKEL   ROUTINE.
 HUCKEL GUESS REQUIRES    100138 WORDS.

 SYMMETRIES FOR INITIAL GUESS ORBITALS FOLLOW.   BOTH SET(S).
    33 ORBITALS ARE OCCUPIED (    9 CORE ORBITALS).
    10=A       11=A       12=A       13=A       14=A       15=A       16=A   
    17=A       18=A       19=A       20=A       21=A       22=A       23=A   
    24=A       25=A       26=A       27=A       28=A       29=A       30=A   
    31=A       32=A       33=A       34=A       35=A       36=A       37=A   
    38=A       39=A       40=A       41=A       42=A       43=A   
 ...... END OF INITIAL ORBITAL SELECTION ......
 CPU     0: STEP CPU TIME=     0.02 TOTAL CPU TIME=          0.0 (      0.0 MIN)
 TOTAL WALL CLOCK TIME=          0.1 SECONDS, CPU UTILIZATION IS    83.33%

                    ----------------------
                    AO INTEGRAL TECHNOLOGY
                    ----------------------
     S,P,L SHELL ROTATED AXIS INTEGRALS, REPROGRAMMED BY
        KAZUYA ISHIMURA (IMS) AND JOSE SIERRA (SYNSTAR).
     S,P,D,L SHELL ROTATED AXIS INTEGRALS PROGRAMMED BY
        KAZUYA ISHIMURA (INSTITUTE FOR MOLECULAR SCIENCE).
     S,P,D,F,G SHELL TO TOTAL QUARTET ANGULAR MOMENTUM SUM 5,
        ERIC PROGRAM BY GRAHAM FLETCHER (ELORET AND NASA ADVANCED
        SUPERCOMPUTING DIVISION, AMES RESEARCH CENTER).
     S,P,D,F,G,L SHELL GENERAL RYS QUADRATURE PROGRAMMED BY
        MICHEL DUPUIS (PACIFIC NORTHWEST NATIONAL LABORATORY).

          --------------------
          2 ELECTRON INTEGRALS
          --------------------

 DIRECT SCF METHOD SKIPS INTEGRAL STORAGE ON DISK.
 DIRECT TRANSFORMATION SKIPS AO INTEGRAL STORAGE ON DISK.
  ...... END OF TWO-ELECTRON INTEGRALS .....
 CPU     0: STEP CPU TIME=     0.01 TOTAL CPU TIME=          0.1 (      0.0 MIN)
 TOTAL WALL CLOCK TIME=          0.1 SECONDS, CPU UTILIZATION IS    85.71%

          --------------------------
                 RHF SCF CALCULATION
          --------------------------

     NUCLEAR ENERGY =       416.6241173716
     MAXIT =   60     NPUNCH=    2
     EXTRAP=T  DAMP=F  SHIFT=F  RSTRCT=F  DIIS=F  DEM=F  SOSCF=T
     DENSITY MATRIX CONV=  2.00E-05
     SOSCF WILL OPTIMIZE    2244 ORBITAL ROTATIONS, SOGTOL=   0.250
     MEMORY REQUIRED FOR RHF ITERS=    128409 WORDS.

 DIRECT SCF CALCULATION, SCHWRZ=T   FDIFF=T,  DIRTHR=  0.00E+00 NITDIR=10
 SCHWARZ INEQUALITY OVERHEAD:      4910 INTEGRALS, T=        0.01

                                                                                   NONZERO     BLOCKS
 ITER EX DEM     TOTAL ENERGY        E CHANGE  DENSITY CHANGE     ORB. GRAD      INTEGRALS    SKIPPED
   1  0  0     -380.7104899410  -380.7104899410   0.604972774   0.000000000        8969091     286294
          ---------------START SECOND ORDER SCF---------------
   2  1  0     -381.4630679420    -0.7525780010   0.138386281   0.047464356        8949929     294141
   3  2  0     -381.4935570857    -0.0304891436   0.062937224   0.009502510        8854115     312461
   4  3  0     -381.4967230688    -0.0031659832   0.004587390   0.003751418        8747147     325254
   5  4  0     -381.4968774136    -0.0001543448   0.002302318   0.001121512        8379784     352669
   6  5  0     -381.4968987150    -0.0000213014   0.001327169   0.000364768        8150192     366687
   7  6  0     -381.4969014893    -0.0000027743   0.000447370   0.000107285        7868532     384272
   8  7  0     -381.4969018347    -0.0000003454   0.000110047   0.000054333        7560822     399736
   9  8  0     -381.4969019204    -0.0000000857   0.000096291   0.000026069        7278748     413110
  10  9  0     -381.4969019414    -0.0000000210   0.000021259   0.000005618        7105917     421993
  11 10  0     -381.4969019431    -0.0000000017   0.000007717   0.000002084        6632835     440326
  12 11  0     -381.4969019434    -0.0000000003   0.000002170   0.000000815        6251858     455631

          -----------------
          DENSITY CONVERGED
          -----------------
     TIME TO FORM FOCK OPERATORS=       1.2 SECONDS (       0.1 SEC/ITER)
     FOCK TIME ON FIRST ITERATION=       0.1, LAST ITERATION=       0.1
     TIME TO SOLVE SCF EQUATIONS=       0.0 SECONDS (       0.0 SEC/ITER)

 FINAL RHF ENERGY IS     -381.4969019434 AFTER  12 ITERATIONS

          ------------
          EIGENVECTORS
          ------------

                      1          2          3          4          5
                  -20.4797   -11.2497   -11.1855   -11.1834   -11.1830
                     A          A          A          A          A   
    1  C  1  S   -0.000015  -0.000073   0.001427   0.007520  -0.009699
    2  C  1  S   -0.000106  -0.000048   0.000563   0.002423  -0.002914
    3  C  1  X   -0.000027  -0.000030   0.000010   0.000850  -0.001429
    4  C  1  Y    0.000015   0.000018   0.000075  -0.000017   0.000026
    5  C  1  Z   -0.000033  -0.000058  -0.000132  -0.000042  -0.000179
    6  C  1  S    0.000248  -0.000112  -0.002214  -0.005573   0.005144
    7  C  1  X    0.000165  -0.000055  -0.000827  -0.004427   0.005769
    8  C  1  Y   -0.000027  -0.000013  -0.000528   0.000479  -0.000028
    9  C  1  Z    0.000050   0.000040  -0.000160  -0.000593   0.001327
   10  H  2  S   -0.000011   0.000019  -0.000064   0.000800  -0.000794
   11  H  2  S   -0.000070   0.000005   0.000533   0.000797  -0.000473
   12  C  3  S   -0.000036  -0.000349  -0.009794  -0.008183  -0.008323
   13  C  3  S   -0.000115  -0.000430  -0.002069  -0.001468  -0.001727
   14  C  3  X    0.000326   0.000238  -0.000033  -0.000052   0.000048
   15  C  3  Y    0.000028   0.000031   0.000086  -0.000171   0.000020
   16  C  3  Z   -0.000112  -0.000059   0.000077   0.000166  -0.000211
   17  C  3  S    0.004511   0.005914   0.009929   0.004227   0.012184
   18  C  3  X    0.001774   0.002564   0.003787  -0.001000   0.009382
   19  C  3  Y   -0.000089   0.000112   0.002900  -0.001056  -0.001771
   20  C  3  Z    0.000222  -0.000149  -0.000535  -0.003012   0.001950
   21  C  4  S   -0.000163  -0.001508  -0.083650  -0.585535   0.784145
   22  C  4  S   -0.000778  -0.001394  -0.012545  -0.062966   0.077543
   23  C  4  X   -0.000546  -0.000705  -0.001553  -0.001163  -0.000869
   24  C  4  Y   -0.000087  -0.000069   0.001123  -0.001201  -0.000685
   25  C  4  Z    0.000097   0.000145   0.000612   0.000308  -0.000375
   26  C  4  S    0.010419   0.016949   0.044022   0.083974  -0.049857
   27  C  4  X    0.011383   0.014889   0.028024   0.027591   0.008255
   28  C  4  Y    0.001501   0.000926  -0.012692   0.014307   0.007972
   29  C  4  Z   -0.002175  -0.003006  -0.008610  -0.003490   0.000850
   30  C  5  S    0.000228  -0.000518  -0.018679   0.794362   0.577479
   31  C  5  S    0.000886   0.000581  -0.001401   0.082812   0.055564
   32  C  5  X   -0.000775  -0.001173   0.000252   0.000361   0.000953
   33  C  5  Y    0.000117   0.000084   0.000816  -0.001699   0.000495
   34  C  5  Z    0.000189   0.000269   0.000101  -0.000432  -0.000112
   35  C  5  S   -0.022001  -0.022463  -0.015300  -0.097752  -0.035597
   36  C  5  X   -0.008509  -0.007583  -0.008017  -0.008579  -0.012032
   37  C  5  Y    0.006809   0.011083   0.008002   0.029967   0.000043
   38  C  5  Z    0.003291   0.003964   0.003446   0.008264   0.002332
   39  C  6  S   -0.000263  -0.004001  -0.006138  -0.017990  -0.022317
   40  C  6  S   -0.001504  -0.005291  -0.001505  -0.005545  -0.004961
   41  C  6  X    0.000918  -0.000000   0.000133   0.000743   0.001499
   42  C  6  Y    0.000308   0.001525   0.000231   0.000508   0.000434
   43  C  6  Z   -0.000127   0.000323   0.000027  -0.000049  -0.000229
   44  C  6  S    0.022296   0.045223   0.014224   0.038661   0.021795
   45  C  6  X   -0.016576  -0.006526  -0.006005  -0.015697  -0.011328
   46  C  6  Y   -0.017888  -0.029221  -0.007833  -0.017802  -0.005740
   47  C  6  Z   -0.000193  -0.004699  -0.000370  -0.000390   0.001328
   48  C  7  S   -0.000073   0.987360   0.000565  -0.000052   0.000956
   49  C  7  S    0.001725   0.099414   0.000867   0.000998   0.000358
   50  C  7  X    0.000155  -0.001031   0.000447   0.000329   0.000367
   51  C  7  Y    0.000051  -0.000129   0.000585  -0.000504  -0.000456
   52  C  7  Z   -0.000026   0.000207   0.000024  -0.000187  -0.000158
   53  C  7  S   -0.004555  -0.094638  -0.019191  -0.020038  -0.007581
   54  C  7  X    0.040663   0.039068   0.011029   0.011431   0.004529
   55  C  7  Y    0.003213   0.004753   0.003716  -0.000235   0.001148
   56  C  7  Z   -0.008075  -0.007498  -0.001609  -0.002455  -0.000827
   57  C  8  S   -0.000262  -0.004278  -0.071143  -0.015108  -0.144553
   58  C  8  S   -0.001473  -0.005391  -0.011731  -0.002203  -0.015426
   59  C  8  X    0.001198   0.000107   0.001367  -0.000313   0.000900
   60  C  8  Y   -0.000077  -0.001567  -0.000543  -0.000217  -0.000344
   61  C  8  Z   -0.000268  -0.000340  -0.000400   0.000033  -0.000267
   62  C  8  S    0.023525   0.046695   0.047244   0.015643   0.017854
   63  C  8  X   -0.019702  -0.007324  -0.019733  -0.005266  -0.005425
   64  C  8  Y    0.014501   0.029442   0.015364   0.009210   0.001968
   65  C  8  Z    0.007188   0.007620   0.007399   0.002921   0.001678
   66  C  9  S    0.000250  -0.000518   0.981163  -0.035344   0.066866
   67  C  9  S    0.001017   0.000606   0.099930  -0.001077   0.004287
   68  C  9  X   -0.000748  -0.001149   0.000790  -0.000086   0.000990
   69  C  9  Y   -0.000256  -0.000244   0.001313   0.000059  -0.001402
   70  C  9  Z    0.000104   0.000195   0.000097   0.000001  -0.000492
   71  C  9  S   -0.022997  -0.022090  -0.102158  -0.026901   0.005086
   72  C  9  X   -0.009464  -0.006168  -0.011486  -0.002941  -0.011853
   73  C  9  Y   -0.007801  -0.012856  -0.027609  -0.016762   0.006307
   74  C  9  Z    0.000459  -0.001313  -0.003243  -0.002570   0.003535
   75  O 10  S    0.983816   0.000245   0.000026   0.000026  -0.000001
   76  O 10  S    0.100709   0.002867   0.000189   0.000184  -0.000033
   77  O 10  X   -0.002962  -0.001037   0.000108   0.000067   0.000099
   78  O 10  Y   -0.002848  -0.000071   0.000161  -0.000148  -0.000103
   79  O 10  Z    0.000041   0.000204   0.000009  -0.000042  -0.000047
   80  O 10  S   -0.057820  -0.007617  -0.001992  -0.001750  -0.000491
   81  O 10  X    0.012736   0.004897  -0.000024   0.000015  -0.000325
   82  O 10  Y    0.006217   0.000351  -0.000711   0.000722   0.000380
   83  O 10  Z   -0.001439  -0.000962  -0.000139   0.000135   0.000171
   84  H 11  S   -0.000104  -0.000159  -0.000506   0.000315  -0.000670
   85  H 11  S   -0.000347  -0.000225  -0.000487   0.000187   0.000071
   86  H 12  S   -0.000083  -0.000158  -0.000041  -0.000089  -0.000786
   87  H 12  S   -0.000477  -0.000239   0.000272  -0.000041  -0.000768
   88  H 13  S   -0.000218  -0.000644  -0.000503  -0.001616  -0.001835
   89  H 13  S   -0.001765  -0.002201  -0.002420   0.002349   0.004768
   90  H 14  S    0.001817   0.000587   0.000412   0.000491  -0.000212
   91  H 14  S    0.007492   0.007805   0.002343   0.004915   0.002549
   92  H 15  S    0.002119   0.000536   0.000321   0.000598   0.000089
   93  H 15  S    0.006890   0.008037   0.004846   0.002228   0.000015
   94  H 16  S   -0.000192  -0.000698  -0.002324  -0.000108  -0.000905
   95  H 16  S   -0.001806  -0.002374   0.004548  -0.003594   0.000840
   96  H 17  S    0.003440   0.000072  -0.000350   0.000233   0.000124
   97  H 17  S    0.002964  -0.000793   0.000480  -0.000367   0.000130
   98  H 18  S   -0.000022  -0.000026   0.000019   0.000011  -0.000006
   99  H 18  S    0.000166   0.000150   0.000100  -0.001704   0.003060
  100  H 19  S   -0.000004   0.000027   0.000259   0.000406  -0.000871
  101  H 19  S   -0.000073  -0.000015   0.000541   0.001153  -0.000628

                      6          7          8          9         10
                  -11.1822   -11.1752   -11.1744   -11.1600    -1.3833
                     A          A          A          A          A   
    1  C  1  S   -0.001181   0.000526  -0.006680   0.987417  -0.000001
    2  C  1  S   -0.000228   0.000407  -0.003062   0.101538   0.000385
    3  C  1  X   -0.000264  -0.000165   0.000482   0.000212   0.000221
    4  C  1  Y   -0.000056   0.000088  -0.000123  -0.000016  -0.000049
    5  C  1  Z   -0.000102  -0.000091   0.000486   0.000060   0.000143
    6  C  1  S   -0.000343  -0.003252   0.022126  -0.079559  -0.000735
    7  C  1  X    0.000304  -0.000994   0.007084  -0.002889  -0.000632
    8  C  1  Y    0.000798  -0.000434  -0.002745   0.000857   0.000060
    9  C  1  Z    0.000306  -0.001345   0.009611  -0.003087  -0.000297
   10  H  2  S    0.000015   0.000126  -0.001399   0.000216   0.000055
   11  H  2  S    0.000446  -0.000233   0.000317   0.014486   0.000193
   12  C  3  S   -0.012061  -0.108182   0.981906   0.005997  -0.000084
   13  C  3  S   -0.002236  -0.012314   0.104216  -0.000832   0.001031
   14  C  3  X   -0.000330  -0.000335   0.000152  -0.000628  -0.000493
   15  C  3  Y    0.000198  -0.000312   0.000087  -0.000015  -0.000084
   16  C  3  Z    0.000163   0.000106  -0.000314  -0.000026   0.000217
   17  C  3  S    0.003550   0.010927  -0.095285   0.011789  -0.015853
   18  C  3  X    0.002417   0.001366  -0.005643  -0.008161  -0.007215
   19  C  3  Y   -0.001822   0.002370  -0.001806   0.002489   0.000264
   20  C  3  Z   -0.001033  -0.000990   0.006480  -0.009302  -0.000566
   21  C  4  S    0.101350   0.008308   0.002800   0.011860  -0.001954
   22  C  4  S    0.010026   0.001223  -0.000872  -0.001099   0.004273
   23  C  4  X   -0.000868  -0.000672   0.000380   0.001459   0.004156
   24  C  4  Y    0.000447  -0.000607   0.000068  -0.000115   0.000371
   25  C  4  Z    0.000239   0.000047  -0.000261   0.000356  -0.000820
   26  C  4  S   -0.017394  -0.015756   0.014592   0.005945  -0.018520
   27  C  4  X   -0.004057  -0.004860  -0.021330  -0.006452  -0.034090
   28  C  4  Y    0.002618  -0.002337  -0.002074   0.000260  -0.003595
   29  C  4  Z    0.001674   0.000791   0.003140   0.000247   0.006614
   30  C  5  S    0.095851   0.026638   0.015248  -0.000089  -0.004471
   31  C  5  S    0.008506  -0.001810   0.000289   0.000066   0.002517
   32  C  5  X   -0.000079  -0.001650   0.000663  -0.000255   0.005951
   33  C  5  Y    0.000366   0.000387   0.000350   0.000026  -0.002409
   34  C  5  Z    0.000102   0.000421   0.000020  -0.000047  -0.001783
   35  C  5  S    0.002471   0.036153   0.004143   0.001623   0.072017
   36  C  5  X    0.002778   0.018284  -0.000393   0.004125   0.028964
   37  C  5  Y   -0.003161  -0.011093  -0.005400  -0.000279  -0.015315
   38  C  5  Z   -0.001356  -0.006259  -0.001188  -0.000134  -0.009517
   39  C  6  S   -0.017021   0.980902   0.107244   0.000160  -0.017480
   40  C  6  S   -0.002465   0.099111   0.009932   0.000101   0.024194
   41  C  6  X   -0.000167  -0.000603   0.000381   0.000105   0.011192
   42  C  6  Y    0.001062  -0.001315   0.000055   0.000071  -0.015649
   43  C  6  Z    0.000255  -0.000130  -0.000125   0.000029  -0.005680
   44  C  6  S   -0.003463  -0.093294  -0.006292  -0.003188  -0.046706
   45  C  6  X    0.004729   0.009843  -0.002340   0.001548   0.057647
   46  C  6  Y    0.002494   0.022492   0.001013   0.000109   0.052036
   47  C  6  Z   -0.000473   0.002510   0.000933  -0.000693  -0.001501
   48  C  7  S    0.003475   0.003058   0.000665   0.000082  -0.083576
   49  C  7  S   -0.004045  -0.004213  -0.000598  -0.000059   0.088510
   50  C  7  X    0.000914   0.000902   0.000227   0.000066   0.083484
   51  C  7  Y    0.001378  -0.001135  -0.000113   0.000013   0.006134
   52  C  7  Z    0.000090  -0.000430  -0.000069  -0.000048  -0.016632
   53  C  7  S    0.034168   0.036940   0.003598   0.000098   0.152113
   54  C  7  X   -0.015853  -0.019268  -0.000521  -0.000880  -0.110370
   55  C  7  Y   -0.017345   0.011949   0.001513  -0.000178  -0.010867
   56  C  7  Z   -0.000162   0.006671   0.000293   0.000458   0.021543
   57  C  8  S    0.973849   0.011819   0.010997   0.000078  -0.018518
   58  C  8  S    0.097992   0.001050   0.000244   0.000095   0.024642
   59  C  8  X   -0.000368  -0.000360   0.000411   0.000105   0.010333
   60  C  8  Y    0.001054  -0.000971  -0.000187  -0.000078   0.017699
   61  C  8  Z    0.000305  -0.000119  -0.000192   0.000016   0.001415
   62  C  8  S   -0.089619  -0.011317   0.001318  -0.003038  -0.046032
   63  C  8  X    0.008029   0.006657  -0.002102   0.001410   0.064815
   64  C  8  Y   -0.020220  -0.004567   0.000363   0.000244  -0.043670
   65  C  8  Z   -0.005909  -0.002384   0.000804  -0.000728  -0.022852
   66  C  9  S    0.079893   0.006803   0.011584  -0.000267  -0.004610
   67  C  9  S    0.003269  -0.000207   0.000219   0.000042   0.002503
   68  C  9  X   -0.001320  -0.000311   0.000783  -0.000290   0.005831
   69  C  9  Y   -0.000816  -0.000336  -0.000244   0.000003   0.003397
   70  C  9  Z    0.000107  -0.000007  -0.000083  -0.000119  -0.000550
   71  C  9  S    0.031304   0.010079   0.001969   0.002077   0.073369
   72  C  9  X    0.014239   0.004711  -0.001198   0.003701   0.029821
   73  C  9  Y    0.014029   0.005238   0.004232   0.000833   0.019840
   74  C  9  Z   -0.000211   0.000038   0.000861   0.000390  -0.002389
   75  O 10  S   -0.000038  -0.000041   0.000009  -0.000010  -0.221934
   76  O 10  S   -0.000542  -0.000587   0.000016  -0.000080   0.199180
   77  O 10  X    0.000205   0.000305   0.000073   0.000004  -0.048109
   78  O 10  Y   -0.000230   0.000054  -0.000015   0.000006  -0.059035
   79  O 10  Z   -0.000091  -0.000053  -0.000022   0.000013  -0.001989
   80  O 10  S    0.002745   0.002540  -0.000364   0.000446   0.734157
   81  O 10  X   -0.000747  -0.000920  -0.000022  -0.000136  -0.088755
   82  O 10  Y    0.002025  -0.001110   0.000005  -0.000043  -0.075841
   83  O 10  Z    0.000577  -0.000039   0.000028  -0.000043   0.003226
   84  H 11  S   -0.000003  -0.000573   0.001144  -0.000999   0.000395
   85  H 11  S    0.000651  -0.001582   0.013910   0.001596   0.001257
   86  H 12  S   -0.000583  -0.000015   0.001187  -0.001021   0.000369
   87  H 12  S   -0.000258  -0.000655   0.014031   0.001619   0.001699
   88  H 13  S   -0.000163  -0.000020  -0.000036   0.000514   0.001067
   89  H 13  S    0.002382   0.004854   0.001777   0.000201   0.003306
   90  H 14  S   -0.000527  -0.002297  -0.000244   0.000070   0.001546
   91  H 14  S   -0.000110   0.006049   0.001826   0.000041  -0.022657
   92  H 15  S   -0.002161  -0.000496  -0.000058   0.000071   0.002002
   93  H 15  S    0.006596  -0.000994   0.001094   0.000036  -0.024362
   94  H 16  S   -0.000223   0.000169   0.000065   0.000436   0.001103
   95  H 16  S    0.005265   0.001915   0.001187   0.000379   0.003622
   96  H 17  S    0.000275  -0.000190   0.000004  -0.000018   0.094077
   97  H 17  S    0.000418   0.001587   0.000257  -0.000007   0.024026
   98  H 18  S   -0.000006   0.000118  -0.001053   0.000170   0.000107
   99  H 18  S    0.000444   0.000114  -0.000096   0.013568  -0.000776
  100  H 19  S   -0.000123   0.000232  -0.001364   0.000174   0.000025
  101  H 19  S   -0.000254   0.000463   0.000320   0.014569   0.000313

                     11         12         13         14         15
                   -1.1537    -1.0570    -1.0176    -0.9751    -0.8612
                     A          A          A          A          A   
    1  C  1  S   -0.019503  -0.096899   0.000250  -0.125089  -0.123004
    2  C  1  S    0.022210   0.098570  -0.000177   0.118115   0.109310
    3  C  1  X    0.011440   0.026992  -0.000123   0.002410  -0.041080
    4  C  1  Y   -0.002488  -0.008970  -0.002146  -0.004857   0.018759
    5  C  1  Z    0.009520   0.032861  -0.000422   0.016524  -0.059567
    6  C  1  S    0.034956   0.227484  -0.001164   0.355204   0.429157
    7  C  1  X   -0.008352  -0.009580  -0.000142   0.004501  -0.000673
    8  C  1  Y    0.001065   0.000277  -0.001908  -0.001474   0.004082
    9  C  1  Z   -0.004170  -0.001715  -0.000628   0.006132  -0.011350
   10  H  2  S    0.009980   0.048151   0.000961   0.065925   0.085578
   11  H  2  S   -0.000587   0.000191   0.000303   0.005765   0.026206
   12  C  3  S   -0.046902  -0.136912  -0.000848  -0.065487   0.102467
   13  C  3  S    0.046099   0.126011   0.000782   0.060594  -0.089512
   14  C  3  X    0.026524   0.015376   0.000708  -0.067652  -0.063244
   15  C  3  Y    0.002744   0.007993  -0.012489   0.008153   0.026348
   16  C  3  Z   -0.007878  -0.026317  -0.002629  -0.032571  -0.069263
   17  C  3  S    0.104549   0.383376   0.002039   0.195712  -0.364529
   18  C  3  X   -0.004159   0.018408   0.000230  -0.003915  -0.018772
   19  C  3  Y    0.001773   0.006104  -0.003286   0.000709   0.008825
   20  C  3  Z   -0.005888  -0.016722  -0.000924  -0.005117  -0.012825
   21  C  4  S   -0.111358  -0.086347  -0.000768   0.092243   0.039810
   22  C  4  S    0.122498   0.093528   0.000714  -0.093635  -0.039751
   23  C  4  X    0.045735  -0.060025   0.003062  -0.076113   0.098508
   24  C  4  Y    0.002968  -0.002404  -0.094971  -0.003580   0.042096
   25  C  4  Z   -0.010799   0.005677  -0.020365   0.007556  -0.024602
   26  C  4  S    0.206584   0.180281   0.002953  -0.243366  -0.109900
   27  C  4  X   -0.001735   0.018942   0.000243   0.004372   0.034364
   28  C  4  Y    0.000672   0.000914  -0.015170   0.001214   0.011054
   29  C  4  Z   -0.001042  -0.003492  -0.003169   0.001231  -0.010750
   30  C  5  S   -0.098291  -0.008169   0.115362   0.066222  -0.068645
   31  C  5  S    0.110243   0.008482  -0.124347  -0.070205   0.071339
   32  C  5  X    0.021729  -0.063475  -0.056700   0.042139   0.034816
   33  C  5  Y   -0.050149  -0.026174  -0.009784   0.047218   0.025264
   34  C  5  Z   -0.015452   0.007084   0.010127  -0.000785  -0.005256
   35  C  5  S    0.191781   0.017932  -0.264667  -0.167545   0.188029
   36  C  5  X    0.013769  -0.005078  -0.008656  -0.008896   0.001144
   37  C  5  Y   -0.013548   0.005611   0.004115   0.017510   0.003709
   38  C  5  Z   -0.005509   0.001023   0.002876   0.002379  -0.004355
   39  C  6  S   -0.085715   0.065371   0.121716  -0.044810   0.001736
   40  C  6  S    0.097322  -0.070221  -0.130601   0.048420  -0.004212
   41  C  6  X   -0.032595  -0.015818   0.048971   0.066308  -0.106206
   42  C  6  Y   -0.047107   0.039307   0.006585  -0.041489   0.046468
   43  C  6  Z   -0.002711   0.011394  -0.009315  -0.023317   0.031722
   44  C  6  S    0.151776  -0.151100  -0.282963   0.119867   0.013646
   45  C  6  X   -0.000146   0.007201   0.010646   0.013042  -0.054359
   46  C  6  Y   -0.005037   0.009121   0.010029  -0.001794  -0.004531
   47  C  6  Z   -0.001175   0.000307  -0.000360  -0.002516   0.011568
   48  C  7  S   -0.070543   0.080162   0.004286  -0.097303   0.073227
   49  C  7  S    0.083613  -0.091836  -0.004887   0.109395  -0.079652
   50  C  7  X   -0.077385   0.062612   0.003607  -0.048829  -0.004416
   51  C  7  Y   -0.006852   0.005882  -0.116919  -0.003620  -0.041755
   52  C  7  Z    0.015401  -0.012415  -0.025020   0.009920  -0.007944
   53  C  7  S    0.134020  -0.172395  -0.014861   0.241616  -0.230913
   54  C  7  X   -0.030263   0.032855   0.003823  -0.047996   0.051174
   55  C  7  Y   -0.008890   0.012054  -0.019278  -0.019188   0.004598
   56  C  7  Z    0.004905  -0.004700  -0.004822   0.005884  -0.010977
   57  C  8  S   -0.088181   0.069376  -0.119395  -0.049647  -0.026143
   58  C  8  S    0.100185  -0.075032   0.126898   0.054412   0.023533
   59  C  8  X   -0.036339  -0.011716  -0.049674   0.060646  -0.058388
   60  C  8  Y    0.041044  -0.041013  -0.007451   0.051227  -0.052005
   61  C  8  Z    0.016352  -0.006114   0.009255  -0.002840   0.001016
   62  C  8  S    0.150583  -0.148645   0.283246   0.113587   0.118170
   63  C  8  X   -0.001781   0.009025  -0.004860   0.007150  -0.029011
   64  C  8  Y    0.001163  -0.002749   0.010398  -0.005309   0.012188
   65  C  8  Z    0.000426  -0.002546   0.003299  -0.001853   0.009620
   66  C  9  S   -0.100232  -0.005735  -0.114990   0.064078  -0.031640
   67  C  9  S    0.112144   0.006242   0.123411  -0.068314   0.033015
   68  C  9  X    0.018126  -0.066794   0.054240   0.049718   0.063619
   69  C  9  Y    0.053858   0.016838  -0.001539  -0.040887  -0.016520
   70  C  9  Z    0.006917   0.016753  -0.011911  -0.020562  -0.019964
   71  C  9  S    0.197244   0.009638   0.268079  -0.161463   0.075978
   72  C  9  X    0.012970  -0.006591   0.011503  -0.006676   0.014796
   73  C  9  Y    0.017092  -0.008318   0.003685  -0.013554  -0.010289
   74  C  9  Z    0.001128  -0.001465  -0.001841  -0.004651  -0.010141
   75  O 10  S    0.039127  -0.035416   0.002230   0.038220  -0.021566
   76  O 10  S   -0.037471   0.034285  -0.002776  -0.037717   0.022799
   77  O 10  X   -0.016736   0.032255   0.008203  -0.059264   0.086497
   78  O 10  Y    0.013155  -0.014243  -0.022477   0.020157  -0.039387
   79  O 10  Z    0.006383  -0.009973  -0.006431   0.016978  -0.026991
   80  O 10  S   -0.133554   0.125631  -0.007065  -0.136852   0.072995
   81  O 10  X   -0.009230   0.025372   0.005113  -0.052414   0.084247
   82  O 10  Y    0.014571  -0.015939  -0.017173   0.021791  -0.037829
   83  O 10  Z    0.005006  -0.008811  -0.004664   0.015935  -0.026010
   84  H 11  S    0.019586   0.063516  -0.004060   0.035924  -0.070618
   85  H 11  S   -0.003841  -0.001194  -0.003146   0.003148  -0.021383
   86  H 12  S    0.019708   0.063709   0.005376   0.035853  -0.076577
   87  H 12  S   -0.003125  -0.000090   0.004011   0.002226  -0.024728
   88  H 13  S    0.035211   0.009737  -0.060446  -0.035215   0.048499
   89  H 13  S   -0.000980   0.003701  -0.011711  -0.011035   0.019398
   90  H 14  S    0.027925  -0.027302  -0.062464   0.024642  -0.003701
   91  H 14  S   -0.009059  -0.000983  -0.011823  -0.001041   0.008630
   92  H 15  S    0.029606  -0.029788   0.064260   0.027410   0.025003
   93  H 15  S   -0.007586  -0.002773   0.015848   0.001291   0.022234
   94  H 16  S    0.036180   0.008198   0.061044  -0.034163   0.015718
   95  H 16  S   -0.000306   0.002915   0.012353  -0.010022   0.002811
   96  H 17  S   -0.026497   0.031293   0.012164  -0.045110   0.059543
   97  H 17  S   -0.011298   0.013967   0.005436  -0.022167   0.034574
   98  H 18  S    0.007182   0.044134  -0.000047   0.070170   0.089321
   99  H 18  S   -0.006687  -0.005195   0.000072   0.013242   0.032696
  100  H 19  S    0.010043   0.048216  -0.001456   0.065861   0.087940
  101  H 19  S   -0.000416   0.000561  -0.000450   0.005385   0.027701

                     16         17         18         19         20
                   -0.8427    -0.7911    -0.7204    -0.6709    -0.6440
                     A          A          A          A          A   
    1  C  1  S   -0.030169   0.043914   0.004738   0.005207  -0.002356
    2  C  1  S    0.026642  -0.039766  -0.003686  -0.005004   0.004080
    3  C  1  X   -0.012029   0.015258  -0.002762  -0.024592   0.072747
    4  C  1  Y   -0.004938  -0.019571  -0.019488   0.037715   0.056960
    5  C  1  Z   -0.021663   0.059632   0.017299   0.059826  -0.047686
    6  C  1  S    0.107984  -0.168934  -0.022408  -0.024640   0.011029
    7  C  1  X   -0.001211   0.005840  -0.004390  -0.016810   0.047288
    8  C  1  Y   -0.003758  -0.008580  -0.012069   0.027989   0.043281
    9  C  1  Z   -0.006131   0.024473   0.007468   0.039565  -0.037307
   10  H  2  S    0.027888  -0.044198  -0.003857  -0.051045   0.013339
   11  H  2  S    0.011272  -0.020170  -0.003415  -0.036702   0.008562
   12  C  3  S    0.029538  -0.076953  -0.018321  -0.021085   0.012504
   13  C  3  S   -0.025715   0.068151   0.014334   0.016264  -0.008556
   14  C  3  X   -0.009593  -0.047537  -0.030170  -0.089250   0.141533
   15  C  3  Y   -0.032739  -0.025986  -0.037499   0.090029   0.091345
   16  C  3  Z   -0.028996   0.057324   0.008671   0.070030  -0.059175
   17  C  3  S   -0.105948   0.286587   0.077737   0.100255  -0.083203
   18  C  3  X   -0.002030  -0.024122  -0.016902  -0.052079   0.077482
   19  C  3  Y   -0.022616  -0.012868  -0.024633   0.066549   0.067761
   20  C  3  Z   -0.010502   0.026239   0.004908   0.051291  -0.043499
   21  C  4  S    0.001581   0.085855  -0.003617   0.027029  -0.063880
   22  C  4  S   -0.001131  -0.088676   0.005792  -0.025021   0.063695
   23  C  4  X    0.035590  -0.080181   0.046426   0.067310  -0.094919
   24  C  4  Y   -0.160454  -0.032701  -0.069978   0.155939   0.068497
   25  C  4  Z   -0.044479   0.020661  -0.021457   0.030583   0.010457
   26  C  4  S   -0.005384  -0.278599   0.011496  -0.103723   0.220786
   27  C  4  X    0.013702  -0.035987   0.038061   0.057152  -0.102994
   28  C  4  Y   -0.062722  -0.020581  -0.043152   0.099259   0.040252
   29  C  4  Z   -0.017924   0.012399  -0.014957   0.017977   0.011155
   30  C  5  S    0.079331  -0.014722   0.040256  -0.003819   0.052552
   31  C  5  S   -0.082391   0.014410  -0.038386   0.006371  -0.055688
   32  C  5  X    0.082430   0.108300   0.128001  -0.068528  -0.079623
   33  C  5  Y    0.006527   0.139700  -0.072362  -0.110327  -0.096940
   34  C  5  Z   -0.017495   0.009086  -0.042014  -0.003656  -0.014318
   35  C  5  S   -0.250688   0.040585  -0.166054  -0.009839  -0.174350
   36  C  5  X    0.019110   0.026386   0.061913  -0.038039  -0.018171
   37  C  5  Y    0.004700   0.059739  -0.053536  -0.067570  -0.084338
   38  C  5  Z   -0.004289   0.009679  -0.023546  -0.002033  -0.023370
   39  C  6  S   -0.074892  -0.070722  -0.030939   0.021333  -0.047835
   40  C  6  S    0.078423   0.070794   0.033116  -0.017678   0.049309
   41  C  6  X    0.091894  -0.063847  -0.059867   0.053431   0.169815
   42  C  6  Y   -0.004336   0.105063  -0.079400  -0.119686   0.069677
   43  C  6  Z   -0.020990   0.036878  -0.003330  -0.034685  -0.027188
   44  C  6  S    0.227059   0.243623   0.103697  -0.106078   0.144207
   45  C  6  X    0.019459  -0.045520  -0.062299  -0.000842   0.102324
   46  C  6  Y   -0.003908   0.029858  -0.064677  -0.075565   0.086343
   47  C  6  Z   -0.004864   0.016438   0.000026  -0.014329  -0.007819
   48  C  7  S    0.006981   0.074044   0.012124   0.018624   0.033191
   49  C  7  S   -0.008047  -0.080269  -0.009195  -0.018984  -0.038079
   50  C  7  X    0.013645  -0.020053  -0.201551  -0.053557  -0.064125
   51  C  7  Y    0.198618   0.014834  -0.063878   0.149147   0.086564
   52  C  7  Z    0.038142   0.007708   0.030315   0.043868   0.027624
   53  C  7  S   -0.007320  -0.255559  -0.057373  -0.056828  -0.090843
   54  C  7  X    0.003006   0.051229  -0.073008   0.001765  -0.045608
   55  C  7  Y    0.093723   0.033457  -0.023335   0.150021   0.082957
   56  C  7  Z    0.018579  -0.003922   0.011042   0.031911   0.023505
   57  C  8  S    0.085771  -0.043085   0.012543  -0.011758  -0.037169
   58  C  8  S   -0.088506   0.040340  -0.011707   0.010988   0.035599
   59  C  8  X   -0.119751  -0.066833   0.002127  -0.217955   0.032203
   60  C  8  Y   -0.032511  -0.118511   0.136618  -0.031636  -0.132414
   61  C  8  Z    0.018779  -0.008913   0.027817   0.042597  -0.038912
   62  C  8  S   -0.261010   0.180229  -0.034975   0.090507   0.138049
   63  C  8  X   -0.046647  -0.025758  -0.005604  -0.149739   0.062737
   64  C  8  Y   -0.018585  -0.026965   0.098918   0.020624  -0.097981
   65  C  8  Z    0.006404   0.000336   0.021571   0.037968  -0.037364
   66  C  9  S   -0.102631  -0.031842   0.020137  -0.005920   0.038913
   67  C  9  S    0.107483   0.031929  -0.017985   0.010248  -0.043018
   68  C  9  X   -0.080451   0.079548  -0.014602   0.227277   0.035649
   69  C  9  Y   -0.002622  -0.125018   0.118422   0.007443   0.019735
   70  C  9  Z    0.016036  -0.039673   0.028272  -0.042245  -0.014167
   71  C  9  S    0.308131   0.101892  -0.086157  -0.017601  -0.106972
   72  C  9  X   -0.027384   0.023619   0.003137   0.105425   0.052908
   73  C  9  Y    0.005460  -0.064066   0.065799   0.010316   0.041068
   74  C  9  Z    0.005591  -0.015637   0.013609  -0.015996  -0.011690
   75  O 10  S   -0.014458  -0.016879   0.000899  -0.037864  -0.001927
   76  O 10  S    0.015244   0.019997   0.000636   0.039121   0.005522
   77  O 10  X   -0.020511   0.108685   0.228311   0.054243   0.128563
   78  O 10  Y    0.074848  -0.030200  -0.142492   0.142614  -0.002505
   79  O 10  Z    0.019903  -0.029533  -0.078823   0.019005  -0.031969
   80  O 10  S    0.053350   0.052953  -0.013191   0.145661   0.002508
   81  O 10  X   -0.015595   0.112067   0.228056   0.066754   0.138105
   82  O 10  Y    0.066016  -0.030268  -0.139002   0.140572  -0.003549
   83  O 10  Z    0.017047  -0.030264  -0.078063   0.015898  -0.034378
   84  H 11  S   -0.038838   0.071631   0.005585   0.096676  -0.025561
   85  H 11  S   -0.017542   0.031866  -0.001612   0.066629  -0.023406
   86  H 12  S   -0.004611   0.079068   0.037404  -0.013994  -0.096862
   87  H 12  S    0.003014   0.036889   0.020538  -0.014399  -0.077158
   88  H 13  S   -0.078200   0.041830  -0.110896  -0.026613  -0.075899
   89  H 13  S   -0.037073   0.023133  -0.066902  -0.016378  -0.038385
   90  H 14  S    0.071946   0.087702  -0.026809  -0.065431   0.130966
   91  H 14  S    0.033541   0.051449  -0.013306  -0.029984   0.079279
   92  H 15  S   -0.083318   0.068115  -0.074222  -0.050267   0.124090
   93  H 15  S   -0.042190   0.045717  -0.041305  -0.033635   0.084657
   94  H 16  S    0.093206   0.065129  -0.073510  -0.058922  -0.060961
   95  H 16  S    0.042580   0.035896  -0.044792  -0.045968  -0.032531
   96  H 17  S   -0.038965   0.063983   0.161326  -0.046197   0.056341
   97  H 17  S   -0.021532   0.043386   0.118595  -0.025917   0.059910
   98  H 18  S    0.023010  -0.031189   0.000926   0.015465  -0.050817
   99  H 18  S    0.009025  -0.010254   0.001393   0.013898  -0.044298
  100  H 19  S    0.016855  -0.046447  -0.018334   0.004883   0.054978
  101  H 19  S    0.003784  -0.021698  -0.013258   0.002837   0.038801

                     21         22         23         24         25
                   -0.6122    -0.5949    -0.5892    -0.5773    -0.5653
                     A          A          A          A          A   
    1  C  1  S   -0.000605  -0.001997   0.001967  -0.003017   0.000915
    2  C  1  S    0.000700   0.001214  -0.001109   0.002259   0.000376
    3  C  1  X   -0.054138  -0.099611   0.085642  -0.062017   0.218979
    4  C  1  Y   -0.116025   0.148722  -0.087857  -0.054717   0.107420
    5  C  1  Z    0.007636   0.072802  -0.041686  -0.047507   0.006486
    6  C  1  S    0.002154   0.011952  -0.012636   0.019469  -0.016596
    7  C  1  X   -0.042470  -0.077178   0.066699  -0.050305   0.176146
    8  C  1  Y   -0.089434   0.116029  -0.071231  -0.046357   0.091898
    9  C  1  Z    0.003313   0.060442  -0.038216  -0.032739  -0.007985
   10  H  2  S    0.035586  -0.114981   0.071311   0.039268  -0.012644
   11  H  2  S    0.025941  -0.097182   0.056562   0.032742  -0.015634
   12  C  3  S   -0.005391   0.005234  -0.007567   0.010748  -0.023531
   13  C  3  S    0.003384  -0.005020   0.006691  -0.008512   0.019131
   14  C  3  X   -0.061754  -0.056991   0.035628   0.027374   0.020218
   15  C  3  Y   -0.133450   0.128916  -0.076366  -0.056958   0.079134
   16  C  3  Z    0.001108   0.101487  -0.075533   0.034512  -0.088640
   17  C  3  S    0.023188  -0.016076   0.025389  -0.043629   0.089507
   18  C  3  X   -0.049387  -0.043245   0.024202   0.021023   0.013225
   19  C  3  Y   -0.111190   0.117047  -0.058408  -0.049348   0.074027
   20  C  3  Z    0.002576   0.086909  -0.061042   0.024913  -0.072894
   21  C  4  S   -0.027412  -0.015639   0.005990  -0.006762   0.018781
   22  C  4  S    0.031106   0.016766  -0.005808   0.005436  -0.015971
   23  C  4  X    0.118896   0.094627  -0.050613  -0.003039  -0.048236
   24  C  4  Y   -0.022300  -0.091834  -0.064677   0.008071  -0.066709
   25  C  4  Z   -0.017173  -0.002946  -0.035256   0.072490  -0.046925
   26  C  4  S    0.065126   0.043236  -0.021803   0.032441  -0.084377
   27  C  4  X    0.057432   0.058696  -0.038681   0.003742  -0.048185
   28  C  4  Y   -0.016991  -0.062349  -0.043509   0.004727  -0.052029
   29  C  4  Z   -0.007079   0.001360  -0.025446   0.057742  -0.031130
   30  C  5  S   -0.001721   0.025646   0.009116   0.000768  -0.001447
   31  C  5  S    0.002766  -0.027022  -0.014060  -0.002016   0.002084
   32  C  5  X    0.114143   0.010434  -0.104827  -0.075144   0.196502
   33  C  5  Y   -0.116078   0.030200   0.168811   0.003271   0.030528
   34  C  5  Z   -0.041468   0.023990   0.038892   0.090449  -0.045281
   35  C  5  S    0.001818  -0.072635   0.008166   0.000246   0.012002
   36  C  5  X    0.098131   0.008108  -0.078236  -0.050449   0.136179
   37  C  5  Y   -0.107944   0.013520   0.129770   0.010973  -0.004788
   38  C  5  Z   -0.036099   0.019832   0.026159   0.080420  -0.043046
   39  C  6  S   -0.008110  -0.008060   0.018810   0.003321  -0.001174
   40  C  6  S    0.009511   0.003180  -0.020526  -0.003759   0.004051
   41  C  6  X   -0.082529   0.032867   0.074167   0.104594  -0.192990
   42  C  6  Y    0.074435   0.198191   0.133302  -0.025085  -0.016058
   43  C  6  Z    0.038396   0.050978  -0.005917   0.080296   0.066041
   44  C  6  S    0.012225   0.082813  -0.059791  -0.013810  -0.016805
   45  C  6  X   -0.032234   0.057126   0.052026   0.062486  -0.120699
   46  C  6  Y    0.056757   0.154748   0.107440  -0.009107  -0.037356
   47  C  6  Z    0.022585   0.032692  -0.002538   0.068864   0.039311
   48  C  7  S    0.049024   0.011693   0.005789  -0.006948   0.016283
   49  C  7  S   -0.055639  -0.013865  -0.006606   0.007469  -0.017546
   50  C  7  X    0.119254   0.100767  -0.034709  -0.006678   0.067323
   51  C  7  Y   -0.000349  -0.108316  -0.064109  -0.015926  -0.074408
   52  C  7  Z   -0.020427  -0.021070  -0.033194   0.200413   0.051277
   53  C  7  S   -0.155024  -0.037968  -0.015297   0.029452  -0.066515
   54  C  7  X    0.085096   0.048794  -0.002652   0.007860   0.082161
   55  C  7  Y    0.024242  -0.115894  -0.000951  -0.014783  -0.037644
   56  C  7  Z   -0.008163  -0.011538  -0.027342   0.208686   0.064736
   57  C  8  S   -0.031158  -0.000616  -0.029005  -0.003025  -0.006818
   58  C  8  S    0.029340   0.004146   0.031964   0.002536   0.007332
   59  C  8  X    0.037021  -0.004166  -0.138826   0.019682  -0.015218
   60  C  8  Y   -0.137324   0.063414   0.145678  -0.011199   0.008059
   61  C  8  Z   -0.031664   0.031915   0.039784   0.105091   0.035534
   62  C  8  S    0.141310  -0.045651   0.106527   0.015867   0.039745
   63  C  8  X    0.042421  -0.002378  -0.123014   0.017441  -0.024330
   64  C  8  Y   -0.104313   0.029246   0.130387  -0.008944   0.019778
   65  C  8  Z   -0.027167   0.021122   0.036984   0.086929   0.034854
   66  C  9  S    0.031912  -0.021847  -0.004285   0.004049  -0.001057
   67  C  9  S   -0.030428   0.024072   0.009753  -0.004350   0.002833
   68  C  9  X    0.040172  -0.001749   0.135360   0.019175   0.023017
   69  C  9  Y    0.155583   0.152168   0.155996  -0.025602   0.033522
   70  C  9  Z    0.029166   0.054400  -0.019516   0.064120  -0.004386
   71  C  9  S   -0.126387   0.062083  -0.037350  -0.015964  -0.008505
   72  C  9  X    0.043053   0.020960   0.084811   0.012141   0.017244
   73  C  9  Y    0.138147   0.117464   0.127976  -0.023281   0.033252
   74  C  9  Z    0.024811   0.041513  -0.013255   0.057534  -0.006676
   75  O 10  S   -0.021008   0.016283  -0.019198   0.001113  -0.021673
   76  O 10  S    0.020859  -0.017844   0.019507  -0.000006   0.019992
   77  O 10  X   -0.071213  -0.075539   0.032307   0.121389  -0.020142
   78  O 10  Y    0.113342  -0.078745   0.091097  -0.070325   0.056293
   79  O 10  Z    0.045383   0.032693  -0.029533   0.319890   0.191770
   80  O 10  S    0.089515  -0.060663   0.078729  -0.007165   0.093401
   81  O 10  X   -0.069642  -0.087788   0.042801   0.134499  -0.014959
   82  O 10  Y    0.118493  -0.080087   0.101670  -0.077772   0.060136
   83  O 10  Z    0.046581   0.037976  -0.033576   0.354932   0.213040
   84  H 11  S   -0.042271   0.111805  -0.068277  -0.019752   0.002631
   85  H 11  S   -0.037290   0.091252  -0.056435  -0.011517  -0.007246
   86  H 12  S    0.094160  -0.060619   0.031822   0.030816  -0.054394
   87  H 12  S    0.068641  -0.048097   0.020289   0.029056  -0.052745
   88  H 13  S   -0.109184  -0.005076   0.125253   0.044247  -0.059780
   89  H 13  S   -0.078740   0.006301   0.097796   0.032389  -0.042371
   90  H 14  S    0.029170   0.134231   0.082457   0.019490  -0.065648
   91  H 14  S    0.023644   0.088109   0.069938   0.015098  -0.041553
   92  H 15  S    0.123654  -0.042047  -0.110206  -0.003096  -0.012247
   93  H 15  S    0.089348  -0.036433  -0.093579  -0.002946  -0.010450
   94  H 16  S   -0.133946  -0.075019  -0.129041   0.002908  -0.028756
   95  H 16  S   -0.087392  -0.063496  -0.100926   0.003445  -0.024870
   96  H 17  S   -0.084712   0.003438  -0.030175   0.020220  -0.069753
   97  H 17  S   -0.067299  -0.009048  -0.026569   0.022395  -0.067350
   98  H 18  S    0.043039   0.069755  -0.060023   0.041960  -0.158762
   99  H 18  S    0.035935   0.060370  -0.052457   0.036462  -0.145063
  100  H 19  S   -0.081977   0.067181  -0.036237  -0.032914   0.100635
  101  H 19  S   -0.068354   0.056643  -0.027456  -0.028416   0.084982

                     26         27         28         29         30
                   -0.5414    -0.5189    -0.4942    -0.4774    -0.4751
                     A          A          A          A          A   
    1  C  1  S    0.000742  -0.005218   0.000720  -0.002283   0.000422
    2  C  1  S   -0.001056   0.005288  -0.001197  -0.000358  -0.001920
    3  C  1  X   -0.104896  -0.019111   0.034785   0.153848   0.080026
    4  C  1  Y    0.118068  -0.046538   0.185303  -0.090217   0.128696
    5  C  1  Z   -0.033056   0.290107   0.021552  -0.070417  -0.009051
    6  C  1  S    0.008426  -0.002908  -0.001921   0.007941  -0.000335
    7  C  1  X   -0.086896  -0.024195   0.034709   0.152649   0.082036
    8  C  1  Y    0.095942  -0.035204   0.175388  -0.090207   0.125425
    9  C  1  Z   -0.018037   0.236851   0.023392  -0.065270  -0.003166
   10  H  2  S   -0.055141  -0.137500  -0.097662   0.121098  -0.044433
   11  H  2  S   -0.051168  -0.135303  -0.100941   0.129795  -0.041711
   12  C  3  S    0.013073  -0.006386   0.000811   0.008194   0.006852
   13  C  3  S   -0.009188   0.004062  -0.002036  -0.014040  -0.010331
   14  C  3  X    0.072968  -0.110197  -0.036265  -0.211803  -0.123126
   15  C  3  Y   -0.021189   0.047023  -0.175270   0.102899  -0.162037
   16  C  3  Z    0.078778  -0.227980  -0.018551   0.094582   0.015072
   17  C  3  S   -0.059290   0.030703   0.008707   0.036003   0.018499
   18  C  3  X    0.052430  -0.080400  -0.023103  -0.139921  -0.077834
   19  C  3  Y   -0.005545   0.042044  -0.170606   0.114375  -0.168488
   20  C  3  Z    0.069055  -0.195956  -0.020846   0.090526   0.008234
   21  C  4  S   -0.009948  -0.004585   0.006585   0.020453   0.011196
   22  C  4  S    0.007113   0.004201  -0.004580  -0.016271  -0.008752
   23  C  4  X   -0.042936   0.022202   0.050142   0.217153   0.128911
   24  C  4  Y   -0.146725  -0.001575  -0.085001  -0.075923   0.171134
   25  C  4  Z    0.025923  -0.128717  -0.029912  -0.069503  -0.003894
   26  C  4  S    0.055554   0.034521  -0.038368  -0.081649  -0.043495
   27  C  4  X   -0.028558   0.045981   0.047858   0.274301   0.170494
   28  C  4  Y   -0.119663   0.000585  -0.059532  -0.064540   0.148938
   29  C  4  Z    0.018336  -0.115424  -0.023396  -0.077373  -0.016791
   30  C  5  S    0.002529  -0.002502  -0.005487  -0.000672  -0.016749
   31  C  5  S   -0.006487   0.002871   0.004915   0.001208   0.016730
   32  C  5  X    0.033141  -0.073127  -0.062682  -0.083760  -0.101474
   33  C  5  Y    0.118163   0.035320   0.085619   0.035488  -0.163916
   34  C  5  Z    0.039292  -0.048086   0.024897   0.018897  -0.031018
   35  C  5  S    0.004396   0.001442   0.015429  -0.028983   0.038740
   36  C  5  X    0.005129  -0.064725  -0.091248  -0.126853  -0.059480
   37  C  5  Y    0.082314   0.051992   0.106989   0.077000  -0.131810
   38  C  5  Z    0.037676  -0.044372   0.029571   0.035781  -0.040687
   39  C  6  S    0.010262   0.005942   0.000623   0.008366   0.012964
   40  C  6  S   -0.005778  -0.005727  -0.001689  -0.010403  -0.015248
   41  C  6  X   -0.044324   0.046241   0.076828   0.095116   0.063413
   42  C  6  Y   -0.051115  -0.004038  -0.123884  -0.034480   0.134459
   43  C  6  Z    0.001803  -0.041446  -0.047302  -0.033499   0.000262
   44  C  6  S   -0.107959  -0.032486   0.027435  -0.001228  -0.042590
   45  C  6  X   -0.066605   0.018897   0.023257   0.034146   0.068386
   46  C  6  Y   -0.044169   0.001212  -0.123100  -0.035749   0.148546
   47  C  6  Z    0.008820  -0.035748  -0.033842  -0.020833   0.003422
   48  C  7  S    0.004143  -0.004773  -0.006297  -0.005861   0.000946
   49  C  7  S   -0.005818   0.004904   0.008223   0.006941  -0.001835
   50  C  7  X   -0.135984  -0.046110   0.022737  -0.036629  -0.030576
   51  C  7  Y   -0.042560   0.000378   0.191099   0.054238  -0.142644
   52  C  7  Z    0.004089   0.021000   0.034608   0.015874  -0.028173
   53  C  7  S   -0.000062   0.020658   0.018937   0.020584   0.001288
   54  C  7  X   -0.043375  -0.025654  -0.021121  -0.032008  -0.000320
   55  C  7  Y    0.105786   0.028442   0.084549   0.058661  -0.065478
   56  C  7  Z    0.009754   0.036839   0.022265   0.017186  -0.016023
   57  C  8  S   -0.022015   0.000801   0.009576   0.014991  -0.003942
   58  C  8  S    0.015243  -0.003222  -0.008060  -0.019356   0.000671
   59  C  8  X    0.146632   0.068213  -0.057926   0.121625   0.075485
   60  C  8  Y    0.027909   0.005835  -0.146144  -0.048692   0.117291
   61  C  8  Z   -0.020715  -0.045512  -0.015538  -0.046753  -0.001455
   62  C  8  S    0.183994   0.023800  -0.081618  -0.016724   0.080971
   63  C  8  X    0.086795   0.050771   0.013468   0.109301  -0.000570
   64  C  8  Y    0.047105   0.009589  -0.159655  -0.053528   0.132993
   65  C  8  Z   -0.003962  -0.042869  -0.034779  -0.043419   0.016642
   66  C  9  S    0.015121  -0.001264  -0.001762  -0.017608   0.009014
   67  C  9  S   -0.012329   0.003060   0.001759   0.018408  -0.007721
   68  C  9  X   -0.128533  -0.094017   0.037548  -0.150675  -0.042001
   69  C  9  Y    0.042678   0.027256   0.114629   0.101633  -0.110479
   70  C  9  Z    0.061552  -0.047370   0.017550   0.040056  -0.023886
   71  C  9  S   -0.097457  -0.011628   0.025839   0.032925  -0.070787
   72  C  9  X   -0.088741  -0.067852   0.063394  -0.121777  -0.102803
   73  C  9  Y    0.008969  -0.000799   0.134007   0.047496  -0.156427
   74  C  9  Z    0.047982  -0.056125   0.019316   0.014323  -0.019001
   75  O 10  S   -0.050410  -0.006501   0.026608   0.003730  -0.012803
   76  O 10  S    0.053809   0.008013  -0.026412  -0.001333   0.013966
   77  O 10  X    0.159453   0.086150  -0.047940   0.055118   0.066422
   78  O 10  Y    0.287830   0.029742  -0.139613   0.012698   0.084484
   79  O 10  Z   -0.034127   0.107789  -0.014919   0.006062   0.024807
   80  O 10  S    0.204127   0.024786  -0.115952  -0.022298   0.053559
   81  O 10  X    0.201403   0.102794  -0.068683   0.065082   0.087200
   82  O 10  Y    0.321079   0.032938  -0.165965   0.013828   0.103834
   83  O 10  Z   -0.045106   0.125479  -0.015153   0.007583   0.029092
   84  H 11  S    0.008878  -0.076669  -0.087542   0.146067  -0.055777
   85  H 11  S    0.010144  -0.078235  -0.082558   0.161178  -0.055190
   86  H 12  S    0.008119  -0.056278   0.127661  -0.026744   0.145597
   87  H 12  S    0.013354  -0.058151   0.126400  -0.019377   0.161055
   88  H 13  S    0.063477   0.042010   0.093092   0.071953  -0.057060
   89  H 13  S    0.057138   0.029695   0.074988   0.056682  -0.051686
   90  H 14  S   -0.053166   0.005400  -0.065662  -0.001182   0.107967
   91  H 14  S   -0.012227   0.011768  -0.064658   0.007206   0.101288
   92  H 15  S    0.066567   0.033073   0.069770   0.080981  -0.046248
   93  H 15  S    0.056308   0.030947   0.059652   0.081304  -0.036095
   94  H 16  S   -0.007066   0.017043  -0.091024  -0.001392   0.097105
   95  H 16  S   -0.009154   0.007497  -0.071686  -0.010090   0.080742
   96  H 17  S   -0.082407  -0.004323   0.063704   0.013997  -0.030091
   97  H 17  S   -0.052375   0.004956   0.064071   0.026792  -0.027836
   98  H 18  S    0.064328   0.061952  -0.036095  -0.127101  -0.074821
   99  H 18  S    0.061399   0.058425  -0.035750  -0.130213  -0.075933
  100  H 19  S    0.070060  -0.091220   0.137437  -0.023507   0.114008
  101  H 19  S    0.069927  -0.089554   0.144286  -0.020171   0.121664

                     31         32         33         34         35
                   -0.4640    -0.3441    -0.3052     0.1416     0.1597
                     A          A          A          A          A   
    1  C  1  S    0.017191   0.001624  -0.021282  -0.000624  -0.036103
    2  C  1  S   -0.014546  -0.001563   0.015542   0.001648   0.018311
    3  C  1  X   -0.101902  -0.005430   0.062188   0.000259   0.030961
    4  C  1  Y    0.023521  -0.014157  -0.016054   0.025344  -0.017547
    5  C  1  Z   -0.127879  -0.007487   0.058236   0.005134   0.056457
    6  C  1  S   -0.064416  -0.007208   0.120870   0.001051   0.343069
    7  C  1  X   -0.081273  -0.001734   0.046526  -0.018338   0.000436
    8  C  1  Y    0.017511  -0.020719  -0.019353   0.084341  -0.056736
    9  C  1  Z   -0.105130  -0.009330   0.063575   0.018743   0.156221
   10  H  2  S    0.030515   0.008829   0.000187  -0.011470   0.010357
   11  H  2  S    0.049495  -0.000376  -0.028516   0.064567  -0.023531
   12  C  3  S    0.005633   0.000096  -0.000977   0.000022  -0.002158
   13  C  3  S   -0.002388   0.000170   0.000628  -0.000824  -0.001266
   14  C  3  X    0.066183   0.001264  -0.015213   0.000123  -0.009335
   15  C  3  Y   -0.024181   0.006409   0.013357  -0.015241  -0.004299
   16  C  3  Z    0.146575   0.007278  -0.064083  -0.006022   0.014891
   17  C  3  S   -0.035462  -0.001545   0.005483   0.003201   0.058202
   18  C  3  X    0.038970  -0.001421   0.009365   0.007865   0.061547
   19  C  3  Y   -0.023711   0.020296   0.015525  -0.122986  -0.025873
   20  C  3  Z    0.143970   0.014205  -0.064165  -0.056210   0.115137
   21  C  4  S   -0.003160  -0.000083  -0.000363   0.000224  -0.002275
   22  C  4  S    0.001099  -0.000107   0.001686   0.000231   0.001906
   23  C  4  X   -0.057232  -0.003578   0.050784   0.000588   0.051199
   24  C  4  Y    0.019350   0.001767  -0.050961  -0.000902  -0.054939
   25  C  4  Z   -0.122415  -0.015418   0.244732   0.000548   0.263317
   26  C  4  S    0.012724   0.001709  -0.003452  -0.006965   0.017791
   27  C  4  X   -0.088707  -0.006106   0.084889   0.004071   0.166617
   28  C  4  Y    0.023000  -0.007699  -0.064823   0.057775  -0.110279
   29  C  4  Z   -0.135679  -0.020796   0.307685   0.017514   0.547515
   30  C  5  S    0.002192   0.000331   0.000041  -0.000754  -0.001998
   31  C  5  S   -0.002906  -0.000795   0.000178   0.002812   0.002032
   32  C  5  X   -0.014407  -0.049150   0.021661   0.047292  -0.031208
   33  C  5  Y    0.039565   0.049854  -0.019590  -0.050911   0.032433
   34  C  5  Z   -0.150071  -0.229102   0.100103   0.226879  -0.130937
   35  C  5  S    0.000819   0.004064  -0.003800  -0.023825   0.003552
   36  C  5  X   -0.013066  -0.061674   0.022232   0.126413  -0.080442
   37  C  5  Y    0.025325   0.055140  -0.018119  -0.090504   0.100257
   38  C  5  Z   -0.152630  -0.273975   0.125066   0.501194  -0.281628
   39  C  6  S   -0.002329  -0.000129  -0.000065   0.000429  -0.000138
   40  C  6  S    0.002615   0.000195   0.000069  -0.000622  -0.000478
   41  C  6  X   -0.043450  -0.048704  -0.033019  -0.046253  -0.021477
   42  C  6  Y    0.021619   0.046910   0.031781   0.046553   0.022934
   43  C  6  Z   -0.129617  -0.223631  -0.152150  -0.219288  -0.107084
   44  C  6  S    0.003783   0.000057   0.003631  -0.005796   0.012852
   45  C  6  X   -0.041194  -0.060017  -0.044144  -0.097141  -0.053412
   46  C  6  Y    0.025200   0.058297   0.040245   0.093753   0.044438
   47  C  6  Z   -0.143552  -0.269152  -0.198430  -0.489196  -0.239705
   48  C  7  S    0.000965  -0.000032  -0.000249   0.000091  -0.001179
   49  C  7  S   -0.001288   0.000022   0.000339  -0.000108   0.001525
   50  C  7  X   -0.010165   0.001879  -0.050365  -0.003532   0.061555
   51  C  7  Y    0.021199  -0.001806   0.048059   0.002679  -0.059111
   52  C  7  Z   -0.074974   0.008918  -0.231933  -0.016071   0.285599
   53  C  7  S   -0.000490   0.000296  -0.000492   0.000147  -0.001200
   54  C  7  X   -0.005853   0.001914  -0.050556  -0.004346   0.121620
   55  C  7  Y    0.007539   0.000202   0.049855  -0.004401  -0.109739
   56  C  7  Z   -0.039187   0.010341  -0.239048  -0.024509   0.536238
   57  C  8  S   -0.001485   0.000117  -0.000015  -0.000474  -0.000223
   58  C  8  S    0.002012  -0.000147   0.000017   0.000582  -0.000536
   59  C  8  X   -0.047500   0.050206  -0.029532   0.046040  -0.019966
   60  C  8  Y    0.024476  -0.047386   0.027962  -0.044415   0.020091
   61  C  8  Z   -0.141223   0.232054  -0.136599   0.219352  -0.100854
   62  C  8  S   -0.004472  -0.000965   0.003056   0.008473   0.015391
   63  C  8  X   -0.044913   0.063228  -0.041469   0.097420  -0.048649
   64  C  8  Y    0.025051  -0.056549   0.040331  -0.111517   0.049736
   65  C  8  Z   -0.161123   0.285909  -0.189046   0.495172  -0.218395
   66  C  9  S    0.001264  -0.000379   0.000030   0.000944  -0.001926
   67  C  9  S   -0.002192   0.000747   0.000272  -0.002637   0.001806
   68  C  9  X   -0.017080   0.043861   0.028825  -0.045750  -0.032829
   69  C  9  Y    0.034559  -0.041014  -0.028626   0.043070   0.024213
   70  C  9  Z   -0.159730   0.206955   0.133111  -0.222853  -0.144353
   71  C  9  S    0.005961  -0.002818  -0.004901   0.019750   0.005062
   72  C  9  X   -0.014659   0.056312   0.034488  -0.129119  -0.083784
   73  C  9  Y    0.051060  -0.051579  -0.044099   0.114543   0.024730
   74  C  9  Z   -0.155988   0.244325   0.169447  -0.490259  -0.325517
   75  O 10  S    0.000352  -0.000003   0.000013  -0.000141   0.000662
   76  O 10  S   -0.000650  -0.000002   0.000021   0.000055  -0.000273
   77  O 10  X    0.041557  -0.001327   0.040175   0.001730  -0.022449
[...]
    6             0.244614   0.142325   0.452670   0.099724   0.101703
    7             0.222655   0.225452   0.087415   0.285773   0.141767
    8             0.248932   0.148227   0.434461   0.097283   0.057547
    9             0.362656   0.028632   0.412410   0.140703   0.053389
   10             0.046949   0.047133   0.006190   0.079790   0.101511
   11             0.001392   0.026671   0.000291   0.009597   0.043104
   12             0.001662   0.027760   0.000497   0.009191   0.051849
   13             0.007332   0.001181   0.030551   0.010838   0.020725
   14             0.001099   0.004988   0.032475   0.003512  -0.000154
   15             0.002242   0.006491   0.036806   0.004926   0.007966
   16             0.008123   0.000845   0.031527   0.010052   0.001767
   17             0.006480   0.008049   0.001450   0.015767   0.027404
   18            -0.000455   0.010051  -0.000000   0.042559   0.074055
   19             0.000565   0.015577   0.000027   0.032333   0.069439

                     16         17         18         19         20

                  2.000000   2.000000   2.000000   2.000000   2.000000

    1             0.034235   0.096282   0.006787   0.051791   0.095466
    2             0.007475   0.018052   0.000191   0.024946   0.001444
    3             0.047403   0.228413   0.030355   0.191434   0.246771
    4             0.201415   0.229320   0.057383   0.225361   0.202553
    5             0.226967   0.203803   0.232572   0.108219   0.161081
    6             0.206811   0.257116   0.107137   0.137152   0.298175
    7             0.283169   0.130860   0.236917   0.191327   0.083570
    8             0.309848   0.172607   0.164311   0.331567   0.201708
    9             0.336760   0.196070   0.126436   0.308193   0.055156
   10             0.063886   0.127358   0.620889   0.230220   0.133251
   11             0.014888   0.046360   0.000184   0.085267   0.007453
   12             0.000139   0.057456   0.012076   0.002307   0.090461
   13             0.056231   0.016780   0.108457   0.005832   0.043357
   14             0.047498   0.072315   0.006781   0.032550   0.138197
   15             0.064910   0.046715   0.046132   0.022923   0.130210
   16             0.077875   0.040293   0.047427   0.032713   0.028971
   17             0.013286   0.031919   0.192302   0.015497   0.029731
   18             0.004920   0.008130   0.000014   0.002501   0.025637
   19             0.002284   0.020149   0.003649   0.000200   0.026809

                     21         22         23         24         25

                  2.000000   2.000000   2.000000   2.000000   2.000000

    1             0.142800   0.315331   0.141566   0.073421   0.474070
    2             0.010832   0.120593   0.044053   0.013497   0.001931
    3             0.187457   0.264435   0.100100   0.043079   0.127207
    4             0.093648   0.094716   0.045876   0.052686   0.061302
    5             0.216475   0.021752   0.270690   0.106761   0.225473
    6             0.071264   0.306220   0.157210   0.141046   0.226353
    7             0.116457   0.118986   0.026707   0.425757   0.098381
    8             0.179353   0.031879   0.298864   0.114400   0.016303
    9             0.231988   0.175401   0.279670   0.053347   0.012858
   10             0.154982   0.105491   0.091441   0.916035   0.304401
   11             0.017420   0.112784   0.040593   0.002714   0.000295
   12             0.074765   0.032423   0.007010   0.009260   0.029734
   13             0.102700   0.000311   0.131817   0.015466   0.027421
   14             0.007909   0.144830   0.062544   0.003195   0.032396
   15             0.123815   0.015706   0.110068   0.000077   0.001601
   16             0.140464   0.052978   0.139820   0.000131   0.007451
   17             0.047302   0.000145   0.007663   0.003390   0.036595
   18             0.017138   0.044947   0.033237   0.016099   0.230008
   19             0.063230   0.041072   0.011070   0.009639   0.086221

                     26         27         28         29         30

                  2.000000   2.000000   2.000000   2.000000   2.000000

    1             0.194727   0.616667   0.265614   0.266808   0.165140
    2             0.026195   0.168009   0.083390   0.128240   0.015421
    3             0.086495   0.469679   0.222484   0.388074   0.272242
    4             0.143586   0.154030   0.056935   0.351974   0.243251
    5             0.092269   0.074946   0.086193   0.065068   0.188446
    6             0.037764   0.023605   0.121748   0.049917   0.140002
    7             0.076016   0.012009   0.142430   0.019410   0.079377
    8             0.126645   0.041338   0.135603   0.112562   0.095908
    9             0.122523   0.082686   0.098185   0.158424   0.109954
   10             0.888548   0.145749   0.179648   0.021347   0.094109
   11             0.001150   0.052847   0.060501   0.192751   0.024809
   12             0.000852   0.029245   0.134491   0.004468   0.190730
   13             0.034337   0.012750   0.066504   0.041791   0.025895
   14             0.015867   0.000503   0.038188   0.000020   0.097007
   15             0.032854   0.008937   0.040633   0.054930   0.016680
   16             0.000462   0.001768   0.061267   0.000082   0.076403
   17             0.036223   0.000230   0.027429   0.003639   0.005176
   18             0.037824   0.030905   0.010994   0.136428   0.046603
   19             0.045662   0.074097   0.167762   0.004067   0.112847

                     31         32         33

                  2.000000   2.000000   2.000000

    1             0.176194   0.001667   0.042545
    2             0.012665   0.000310   0.001925
    3             0.165177   0.001011   0.015409
    4             0.186876   0.002383   0.570238
    5             0.236650   0.528829   0.096068
    6             0.196328   0.501587   0.228703
    7             0.038628   0.000636   0.428649
    8             0.234392   0.537335   0.187992
    9             0.263365   0.425188   0.174865
   10             0.424214   0.000266   0.225522
   11             0.027942   0.000183   0.010951
   12             0.010173   0.000067   0.005982
   13             0.000090   0.000002   0.000017
   14             0.000523   0.000001   0.000000
   15             0.000080   0.000001   0.000000
   16             0.000512   0.000001   0.000018
   17             0.000006   0.000000  -0.000000
   18             0.021491   0.000113   0.009689
   19             0.004694   0.000419   0.001428

               ----- POPULATIONS IN EACH AO -----
                             MULLIKEN      LOWDIN
              1  C  1  S      1.98827     1.97653
              2  C  1  S      0.35209     0.41630
              3  C  1  X      0.53553     0.50684
              4  C  1  Y      0.54280     0.51022
              5  C  1  Z      0.52459     0.49932
              6  C  1  S      1.11928     0.58565
              7  C  1  X      0.49873     0.57966
              8  C  1  Y      0.55564     0.60612
              9  C  1  Z      0.44499     0.56887
             10  H  2  S      0.46662     0.46922
             11  H  2  S      0.32923     0.44083
             12  C  3  S      1.98935     1.97610
             13  C  3  S      0.34331     0.40824
             14  C  3  X      0.52129     0.50712
             15  C  3  Y      0.54776     0.51849
             16  C  3  Z      0.53222     0.50740
             17  C  3  S      1.14898     0.55961
             18  C  3  X      0.31327     0.51426
             19  C  3  Y      0.57310     0.58741
             20  C  3  Z      0.46883     0.56653
             21  C  4  S      1.98859     1.97639
             22  C  4  S      0.38990     0.41046
             23  C  4  X      0.57053     0.56051
             24  C  4  Y      0.59934     0.58007
             25  C  4  Z      0.42790     0.41566
             26  C  4  S      0.83652     0.51565
             27  C  4  X      0.36614     0.50510
             28  C  4  Y      0.31130     0.49890
             29  C  4  Z      0.57017     0.59251
             30  C  5  S      1.98837     1.97682
             31  C  5  S      0.39700     0.41504
             32  C  5  X      0.59934     0.57477
             33  C  5  Y      0.58366     0.55808
             34  C  5  Z      0.41346     0.40018
             35  C  5  S      0.89487     0.53285
             36  C  5  X      0.32507     0.50080
             37  C  5  Y      0.42984     0.52453
             38  C  5  Z      0.58284     0.59939
             39  C  6  S      1.98819     1.97663
             40  C  6  S      0.39572     0.41402
             41  C  6  X      0.60362     0.57945
             42  C  6  Y      0.57715     0.55229
             43  C  6  Z      0.43962     0.42905
             44  C  6  S      0.86864     0.53454
             45  C  6  X      0.34793     0.49802
             46  C  6  Y      0.42941     0.53233
             47  C  6  Z      0.59587     0.62308
             48  C  7  S      1.98803     1.97586
             49  C  7  S      0.40419     0.41752
             50  C  7  X      0.49186     0.47205
             51  C  7  Y      0.64372     0.61587
             52  C  7  Z      0.42422     0.40481
             53  C  7  S      0.79431     0.50524
             54  C  7  X      0.05371     0.39547
             55  C  7  Y      0.31644     0.49853
             56  C  7  Z      0.52477     0.56480
             57  C  8  S      1.98816     1.97652
             58  C  8  S      0.39222     0.41324
             59  C  8  X      0.59779     0.57429
             60  C  8  Y      0.57313     0.54792
             61  C  8  Z      0.45000     0.44067
             62  C  8  S      0.86051     0.53603
             63  C  8  X      0.39237     0.51591
             64  C  8  Y      0.37599     0.52271
             65  C  8  Z      0.64855     0.65153
             66  C  9  S      1.98835     1.97679
             67  C  9  S      0.39689     0.41477
             68  C  9  X      0.59738     0.57272
             69  C  9  Y      0.58183     0.55562
             70  C  9  Z      0.41679     0.40396
             71  C  9  S      0.89313     0.53257
             72  C  9  X      0.30704     0.49562
             73  C  9  Y      0.47388     0.53470
             74  C  9  Z      0.55993     0.59718
             75  O 10  S      1.98659     1.98016
             76  O 10  S      0.41217     0.56985
             77  O 10  X      0.58799     0.57701
             78  O 10  Y      0.68070     0.66936
             79  O 10  Z      0.82466     0.83447
             80  O 10  S      1.55050     1.01038
             81  O 10  X      0.79070     0.79863
             82  O 10  Y      0.87000     0.88466
             83  O 10  Z      1.02545     1.01485
             84  H 11  S      0.46647     0.47728
             85  H 11  S      0.31655     0.43307
             86  H 12  S      0.46730     0.47800
             87  H 12  S      0.31816     0.43390
             88  H 13  S      0.47191     0.47180
             89  H 13  S      0.28964     0.42613
             90  H 14  S      0.46777     0.46565
             91  H 14  S      0.27175     0.41889
             92  H 15  S      0.46980     0.46935
             93  H 15  S      0.30159     0.43351
             94  H 16  S      0.47186     0.47199
             95  H 16  S      0.29027     0.42662
             96  H 17  S      0.40854     0.42362
             97  H 17  S      0.20587     0.31034
             98  H 18  S      0.46804     0.47020
             99  H 18  S      0.33753     0.44520
            100  H 19  S      0.46682     0.46926
            101  H 19  S      0.32933     0.44107

          ----- MULLIKEN ATOMIC OVERLAP POPULATIONS -----
          (OFF-DIAGONAL ELEMENTS NEED TO BE MULTIPLIED BY 2)

             1           2           3           4           5

    1    5.3707742
    2    0.3753333   0.5117345
    3    0.2583227  -0.0437675   5.3795015
    4   -0.1038168  -0.0010171   0.2480748   5.3645379
    5   -0.0001232   0.0001929  -0.0565380   0.4553867   5.1739817
    6    0.0000729  -0.0000048   0.0016102  -0.1006605   0.4523845
    7   -0.0000047  -0.0000029   0.0001222  -0.0090876  -0.0946329
    8    0.0000279  -0.0000187   0.0020112  -0.0988716  -0.0040828
    9   -0.0002136   0.0016419  -0.0548976   0.4694210  -0.0885634
   10   -0.0000000   0.0000000  -0.0000000  -0.0002241   0.0024893
   11   -0.0431179   0.0028613   0.3942601  -0.0510662  -0.0010661
   12   -0.0421780  -0.0014776   0.3952422  -0.0516406   0.0024228
   13   -0.0000105  -0.0000014  -0.0013726  -0.0351339   0.3983243
   14    0.0000013   0.0000000  -0.0000330   0.0023668  -0.0294670
   15    0.0000012   0.0000004  -0.0000407   0.0026110  -0.0001641
   16   -0.0000246   0.0001740  -0.0012649  -0.0336714   0.0021740
   17    0.0000000   0.0000000  -0.0000000   0.0000186  -0.0002239
   18    0.3712067  -0.0246327  -0.0395521   0.0047270  -0.0000228
   19    0.3756688  -0.0251626  -0.0435644  -0.0015667   0.0019696

             6           7           8           9          10

    6    5.2399875
    7    0.4456480   4.8773415
    8   -0.1070286   0.3514030   5.4222267
    9   -0.0045287  -0.0643972   0.3984974   5.1830493
   10   -0.0498936   0.2626338  -0.0608003   0.0028280   8.3034182
   11    0.0001438   0.0000001  -0.0000591   0.0021310  -0.0000000
   12   -0.0000542  -0.0000013   0.0001712  -0.0008398  -0.0000000
   13   -0.0292116   0.0022901  -0.0000586   0.0021955  -0.0000046
   14    0.3903768  -0.0372554   0.0035902  -0.0003944  -0.0010758
   15    0.0022289  -0.0473971   0.4021622  -0.0293905  -0.0036276
   16   -0.0000196   0.0017403  -0.0291477   0.3982197  -0.0000026
   17    0.0051103  -0.0471637  -0.0013064   0.0003296   0.2730197
   18   -0.0000002  -0.0000000  -0.0000002  -0.0000174   0.0000000
   19   -0.0000144  -0.0000023  -0.0000021   0.0001448   0.0000000

            11          12          13          14          15

   11    0.5040543
   12   -0.0235931   0.5045335
   13    0.0009111   0.0000188   0.4248299
   14   -0.0000002   0.0000004  -0.0015335   0.4130267
   15    0.0000005  -0.0000005   0.0000012  -0.0000231   0.4442407
   16    0.0000165   0.0012092  -0.0000411   0.0000012  -0.0015046
   17    0.0000000   0.0000000   0.0000008  -0.0000641   0.0022978
   18   -0.0010046  -0.0011657   0.0000033  -0.0000000  -0.0000000
   19   -0.0014494   0.0028207   0.0003407   0.0000005   0.0000000

            16          17          18          19

   16    0.4242736
   17   -0.0000012   0.3823906
   18    0.0000025  -0.0000000   0.5208518
   19   -0.0000004   0.0000000  -0.0248185   0.5117799

          TOTAL MULLIKEN AND LOWDIN ATOMIC POPULATIONS
       ATOM         MULL.POP.    CHARGE          LOW.POP.     CHARGE
    1 C             6.561920   -0.561920         6.249519   -0.249519
    2 H             0.795853    0.204147         0.910051    0.089949
    3 C             6.438114   -0.438114         6.145175   -0.145175
    4 C             6.060387   -0.060387         6.055242   -0.055242
    5 C             6.214442   -0.214442         6.082462   -0.082462
    6 C             6.246147   -0.246147         6.139399   -0.139399
    7 C             5.641234    0.358766         5.850162    0.149838
    8 C             6.278714   -0.278714         6.178810   -0.178810
    9 C             6.215216   -0.215216         6.083946   -0.083946
   10 O             8.728760   -0.728760         8.339373   -0.339373
   11 H             0.783022    0.216978         0.910350    0.089650
   12 H             0.785468    0.214532         0.911899    0.088101
   13 H             0.761548    0.238452         0.897927    0.102073
   14 H             0.739517    0.260483         0.884532    0.115468
   15 H             0.771396    0.228604         0.902863    0.097137
   16 H             0.762133    0.237867         0.898609    0.101391
   17 H             0.614408    0.385592         0.733959    0.266041
   18 H             0.805577    0.194423         0.915393    0.084607
   19 H             0.796144    0.203856         0.910330    0.089670

          -------------------------------
          BOND ORDER AND VALENCE ANALYSIS     BOND ORDER THRESHOLD=0.050
          -------------------------------

                   BOND                       BOND                       BOND
  ATOM PAIR DIST  ORDER      ATOM PAIR DIST  ORDER      ATOM PAIR DIST  ORDER
    1   2  1.095  0.927        1   3  1.551  0.902        1  18  1.096  0.929
    1  19  1.095  0.927        3   4  1.520  0.930        3  11  1.097  0.924
    3  12  1.097  0.926        4   5  1.404  1.366        4   7  2.823  0.092
    4   9  1.399  1.409        5   6  1.391  1.431        5   8  2.780  0.100
    5  13  1.085  0.940        6   7  1.399  1.339        6   9  2.782  0.103
    6  14  1.082  0.924        7   8  1.397  1.337        7  10  1.389  0.823
    8   9  1.396  1.387        8  15  1.086  0.938        9  16  1.085  0.941
   10  17  0.993  0.810

                       TOTAL       BONDED        FREE
      ATOM            VALENCE     VALENCE     VALENCE
    1 C                 3.656       3.656       0.000
    2 H                 0.917       0.917       0.000
    3 C                 3.613       3.613      -0.000
    4 C                 3.651       3.651      -0.000
    5 C                 3.741       3.741       0.000
    6 C                 3.744       3.744       0.000
    7 C                 3.502       3.502      -0.000
    8 C                 3.717       3.717       0.000
    9 C                 3.752       3.752       0.000
   10 O                 1.732       1.732      -0.000
   11 H                 0.909       0.909      -0.000
   12 H                 0.910       0.910       0.000
   13 H                 0.920       0.920       0.000
   14 H                 0.907       0.907       0.000
   15 H                 0.919       0.919      -0.000
   16 H                 0.920       0.920       0.000
   17 H                 0.833       0.833       0.000
   18 H                 0.920       0.920      -0.000
   19 H                 0.917       0.917       0.000

          ---------------------
          ELECTROSTATIC MOMENTS
          ---------------------

 POINT   1           X           Y           Z (BOHR)    CHARGE
                 2.894973   -0.088908    0.332527       -0.00 (A.U.)
         DX          DY          DZ         /D/  (DEBYE)
    -0.693286   -1.594416   -0.261818    1.758226
 ...... END OF PROPERTY EVALUATION ......
 CPU     0: STEP CPU TIME=     0.03 TOTAL CPU TIME=          1.4 (      0.0 MIN)
 TOTAL WALL CLOCK TIME=          2.6 SECONDS, CPU UTILIZATION IS    55.47%
               580000  WORDS OF DYNAMIC MEMORY USED
 EXECUTION OF GAMESS TERMINATED NORMALLY Sun May 17 17:50:33 2020
 DDI: 263640 bytes (0.3 MB / 0 MWords) used by master data server.
Note: The following floating-point exceptions are signalling:Note: The following floating-point exceptions are signalling: IEEE_DENORMAL IEEE_DENORMAL
Note: The following floating-point exceptions are signalling: IEEE_DENORMAL
 ----------------------------------------
 CPU timing information for all processes
 ========================================
 0: 1.327 + 0.107 = 1.435
 1: 1.362 + 0.12 = 1.375
 2: 1.341 + 0.19 = 1.361
 3: 1.334 + 0.13 = 1.348
 4: 1.334 + 0.16 = 1.350
 5: 1.304 + 0.09 = 1.314
 ----------------------------------------


Note: The following floating-point exceptions are signalling:Note: The following floating-point exceptions are signalling: IEEE_DENORMALNote: The following floating-point exceptions are signalling: IEEE_DENORMAL IEEE_DENORMAL


 ddikick.x: exited gracefully.
unset echo
----- accounting info -----
Files used on the master node pietdev were:
-rwxr-xr-x 1 piet piet     1155 mei 17 17:50 /home/piet/scr/thyrosine_fukui_neu.F05*
-rw-r--r-- 1 piet piet 49152000 mei 17 17:50 /home/piet/scr/thyrosine_fukui_neu.F10
ls: No match.
ls: No match.
ls: No match.
zo 17 mei 2020 17:50:36 CEST
0.113u 0.016s 0:05.71 2.1%	0+0k 0+8io 0pf+0w
