----- GAMESS execution script 'rungms' -----
This job is running on host pietdev
under operating system Linux at zo 17 mei 2020 17:33:42 CEST
Available scratch disk space (Kbyte units) at beginning of the job is
Filesystem     1K-blocks     Used Available Use% Mounted on
/dev/sda2      244568380 30400320 201675004  14% /
GAMESS temporary binary files will be written to /home/piet/scr
GAMESS supplementary output files will be written to /home/piet/gamess/scr
Copying input file thyrosine_geoopt.inp to your run's scratch directory...
cp thyrosine_geoopt.inp /home/piet/scr/thyrosine_geoopt.F05
unset echo
 
Assuming a single but multicore node.
 
/home/piet/gamess/ddikick.x /home/piet/gamess/gamess.03.x thyrosine_geoopt -ddi 1 6 pietdev:cpus=6 -scr /home/piet/scr

 Distributed Data Interface kickoff program.
 Initiating 6 compute processes on 1 nodes to run the following command:
 /home/piet/gamess/gamess.03.x thyrosine_geoopt 

          ******************************************************
          *         GAMESS VERSION = 30 SEP 2019 (R2)          *
          *             FROM IOWA STATE UNIVERSITY             *
          * M.W.SCHMIDT, K.K.BALDRIDGE, J.A.BOATZ, S.T.ELBERT, *
          *   M.S.GORDON, J.H.JENSEN, S.KOSEKI, N.MATSUNAGA,   *
          *          K.A.NGUYEN, S.J.SU, T.L.WINDUS,           *
          *       TOGETHER WITH M.DUPUIS, J.A.MONTGOMERY       *
          *         J.COMPUT.CHEM.  14, 1347-1363(1993)        *
          **************** 64 BIT LINUX VERSION ****************

  SINCE 1993, STUDENTS AND POSTDOCS WORKING AT IOWA STATE UNIVERSITY
  AND ALSO IN THEIR VARIOUS JOBS AFTER LEAVING ISU HAVE MADE IMPORTANT
  CONTRIBUTIONS TO THE CODE:
     IVANA ADAMOVIC, CHRISTINE AIKENS, YURI ALEXEEV, POOJA ARORA,
     ANDREY ASADCHEV, ROB BELL, PRADIPTA BANDYOPADHYAY, JONATHAN BENTZ,
     COLLEEN BERTONI, BRETT BODE, KURT BRORSEN, CALEB CARLIN, GALINA CHABAN,
     WEI CHEN, CHEOL HO CHOI, PAUL DAY, ALBERT DEFUSCO, NUWAN DESILVA,
     TIM DUDLEY, DMITRI FEDOROV, ALEX FINDLATER, GRAHAM FLETCHER, 
     MARK FREITAG, KURT GLAESEMANN, EMILIE B GUIDEZ, ANASTASIA GUNINA, 
     DAN KEMP, SAROM SOK LEANG, GRANT MERRILL,
     NORIYUKI MINEZAWA, JONATHAN MULLIN,
     TAKESHI NAGATA, SEAN NEDD, HEATHER NETZLOFF, BOSILJKA NJEGIC, RYAN OLSON,
     MIKE PAK, BUU PHAM, DAVID POOLE,
     SPENCER PRUITT, LUKE ROSKOP, TOSAPORN SATTASATHUCHANA,
     JIM SHOEMAKER, LYUDMILA SLIPCHENKO,
     TONY SMITH, JIE SONG, TETSUYA TAKETSUGU, SIMON WEBB,
     JORGE LUIS GALVEZ VALLEJO, PENG XU, SOOHAENG YOO,
     FEDERICO ZAHARIEV

  ADDITIONAL CODE HAS BEEN PROVIDED BY COLLABORATORS IN OTHER GROUPS:
     IOWA STATE UNIVERSITY:
          JOE IVANIC, AARON WEST, LAIMUTIS BYTAUTAS, KLAUS RUEDENBERG
     UNIVERSITY OF TOKYO: KIMIHIKO HIRAO, TAKAHITO NAKAJIMA,
          TAKAO TSUNEDA, MUNEAKI KAMIYA, SUSUMU YANAGISAWA,
          KIYOSHI YAGI, MAHITO CHIBA, SEIKEN TOKURA, NAOAKI KAWAKAMI
     UNIVERSITY OF AARHUS: FRANK JENSEN
     UNIVERSITY OF IOWA: VISVALDAS KAIRYS, HUI LI
     NATIONAL INST. OF STANDARDS AND TECHNOLOGY: WALT STEVENS, DAVID GARMER
     UNIVERSITY OF PISA: BENEDETTA MENNUCCI, JACOPO TOMASI
     UNIVERSITY OF MEMPHIS: HENRY KURTZ, PRAKASHAN KORAMBATH
     UNIVERSITY OF ALBERTA: TOBY ZENG, MARIUSZ KLOBUKOWSKI
     UNIVERSITY OF NEW ENGLAND: MARK SPACKMAN
     MIE UNIVERSITY: HIROAKI UMEDA
     NAT. INST. OF ADVANCED INDUSTRIAL SCIENCE AND TECHNOLOGY: KAZUO KITAURA
     MICHIGAN STATE UNIVERSITY:
          KAROL KOWALSKI, MARTA WLOCH, JEFFREY GOUR, JESSE LUTZ,
          WEI LI, JUN SHEN, J. EMILIANO DEUSTUA, PIOTR PIECUCH
     UNIVERSITY OF MINNESOTA:
          ANDREW SAND, PRACHI SHARMA, YINAN SHU
     UNIVERSITY OF SILESIA: MONIKA MUSIAL, STANISLAW KUCHARSKI
     FACULTES UNIVERSITAIRES NOTRE-DAME DE LA PAIX:
          OLIVIER QUINET, BENOIT CHAMPAGNE
     UNIVERSITY OF CALIFORNIA - SANTA BARBARA: BERNARD KIRTMAN
     INSTITUTE FOR MOLECULAR SCIENCE:
          KAZUYA ISHIMURA, MICHIO KATOUDA, AND SHIGERU NAGASE
     UNIVERSITY OF NOTRE DAME: ANNA POMOGAEVA, DAN CHIPMAN
     KYUSHU UNIVERSITY:
          HARUYUKI NAKANO,
          FENG LONG GU, JACEK KORCHOWIEC, MARCIN MAKOWSKI, AND YURIKO AOKI,
          HIROTOSHI MORI AND EISAKU MIYOSHI
     PENNSYLVANIA STATE UNIVERSITY:
          TZVETELIN IORDANOV, CHET SWALINA, JONATHAN SKONE,
          SHARON HAMMES-SCHIFFER
     WASEDA UNIVERSITY:
          MASATO KOBAYASHI, TOMOKO AKAMA, TSUGUKI TOUMA,
          TAKESHI YOSHIKAWA, YASUHIRO IKABATA, JUNJI SEINO,
          YUYA NAKAJIMA, HIROMI NAKAI
     NANJING UNIVERSITY: SHUHUA LI
     UNIVERSITY OF NEBRASKA:
          PEIFENG SU, DEJUN SI, NANDUN THELLAMUREGE, YALI WANG, HUI LI
     UNIVERSITY OF ZURICH: ROBERTO PEVERATI, KIM BALDRIDGE
     N. COPERNICUS UNIVERSITY AND JACKSON STATE UNIVERSITY:
          MARIA BARYSZ
     UNIVERSITY OF COPENHAGEN: Jimmy Kromann, CASPER STEINMANN
     TOKYO INSTITUTE OF TECHNOLOGY: HIROYA NAKATA
     NAGOYA UNIVERSITY: YOSHIO NISHIMOTO, STEPHAN IRLE
     MOSCOW STATE UNIVERSITY: VLADIMIR MIRONOV
     A.N.NESMEYANOV INSTITUTE OF ORGANOELEMENT COMPOUNDS OF RUSSIAN ACADEMY OF SCIENCES:
          IGOR S. GERASIMOV
     JOHANNES KEPLER UNIVERSITY LINZ:
          CHRISTIAN FRIEDL


 PARALLEL VERSION RUNNING ON        6 PROCESSORS IN        1 NODES.

 EXECUTION OF GAMESS BEGUN Sun May 17 17:33:42 2020

            ECHO OF THE FIRST FEW INPUT CARDS -
 INPUT CARD> $BASIS GBASIS=N21 NGAUSS=3 $END                                                
 INPUT CARD> $CONTRL SCFTYP=RHF RUNTYP=OPTIMIZE DFTTYP=B3LYP MAXIT=60 MULT=1 ICHARG=0 $END  
 INPUT CARD> $SYSTEM MEMDDI=1000 MWORDS=30 $END                                             
 INPUT CARD> $STATPT NSTEP=999 $END                                                         
 INPUT CARD> $SCF DIRSCF=.TRUE. $END                                                        
 INPUT CARD> $DATA                                                                          
 INPUT CARD>                                                                                
 INPUT CARD>C1                                                                              
 INPUT CARD>C 6.0000000 -1.76731 0.06704 -0.45712                                           
 INPUT CARD>H 1.0000000 -1.52938 -0.59523 -1.29627                                          
 INPUT CARD>C 6.0000000 -0.92738 -0.29143 0.78182                                           
 INPUT CARD>C 6.0000000 0.56442 -0.18409 0.54097                                            
 INPUT CARD>C 6.0000000 1.23072 1.04559 0.65599                                             
 INPUT CARD>C 6.0000000 2.59311 1.16623 0.39822                                             
 INPUT CARD>C 6.0000000 3.32838 0.03956 0.01463                                             
 INPUT CARD>C 6.0000000 2.68750 -1.19698 -0.10282                                           
 INPUT CARD>C 6.0000000 1.32031 -1.29799 0.15940                                            
 INPUT CARD>O 8.0000000 4.66570 0.20910 -0.22557                                            
 INPUT CARD>H 1.0000000 -1.21334 0.36699 1.61183                                            
 INPUT CARD>H 1.0000000 -1.17275 -1.31193 1.10043                                           
 INPUT CARD>H 1.0000000 0.67165 1.92858 0.95792                                             
 INPUT CARD>H 1.0000000 3.10335 2.11938 0.49311                                             
 INPUT CARD>H 1.0000000 3.25451 -2.07966 -0.39325                                           
 INPUT CARD>H 1.0000000 0.83618 -2.26763 0.06707                                            
 INPUT CARD>H 1.0000000 5.04846 -0.63953 -0.48477                                           
 INPUT CARD>H 1.0000000 -2.83884 -0.02151 -0.24675                                          
 INPUT CARD>H 1.0000000 -1.56933 1.09413 -0.78163                                           
 INPUT CARD> $END                                                                           
   30000000 WORDS OF MEMORY AVAILABLE

     BASIS OPTIONS
     -------------
     GBASIS=N21          IGAUSS=       3      POLAR=NONE    
     NDFUNC=       0     NFFUNC=       0     DIFFSP=       F
     NPFUNC=       0      DIFFS=       F     BASNAM=        


     RUN TITLE
     ---------
                                                                                 

 THE POINT GROUP OF THE MOLECULE IS C1      
 THE ORDER OF THE PRINCIPAL AXIS IS     0

 ATOM      ATOMIC                      COORDINATES (BOHR)
           CHARGE         X                   Y                   Z
 C           6.0    -3.3397316354        0.1266872302       -0.8638315435
 H           1.0    -2.8901091311       -1.1248215997       -2.4495951061
 C           6.0    -1.7524940865       -0.5507228446        1.4774255717
 C           6.0     1.0665991420       -0.3478796571        1.0222850676
 C           6.0     2.3257235676        1.9758785955        1.2396413507
 C           6.0     4.9002673560        2.2038551387        0.7525266828
 C           6.0     6.2897261830        0.0747575601        0.0276466912
 C           6.0     5.0786385920       -2.2619642128       -0.1943016261
 C           6.0     2.4950241188       -2.4528454348        0.3012223224
 O           8.0     8.8168945409        0.3951417040       -0.4262654911
 H           1.0    -2.2928801299        0.6935105402        3.0459170388
 H           1.0    -2.2161761521       -2.4791882151        2.0795111687
 H           1.0     1.2692344597        3.6444877454        1.8102063182
 H           1.0     5.8644811440        4.0050474639        0.9318427818
 H           1.0     6.1501321243       -3.9299875476       -0.7431347447
 H           1.0     1.5801510764       -4.2851993415        0.1267439220
 H           1.0     9.5402060600       -1.2085364609       -0.9160824671
 H           1.0    -5.3646297230       -0.0406480060       -0.4662898875
 H           1.0    -2.9656036843        2.0676058949       -1.4770665238

          INTERNUCLEAR DISTANCES (ANGS.)
          ------------------------------

                1 C          2 H          3 C          4 C          5 C     

   1 C       0.0000000    1.0951644 *  1.5391411 *  2.5487673 *  3.3443621  
   2 H       1.0951644 *  0.0000000    2.1847555 *  2.8157566 *  3.7578932  
   3 C       1.5391411 *  2.1847555 *  0.0000000    1.5149250 *  2.5418205 *
   4 C       2.5487673 *  2.8157566 *  1.5149250 *  0.0000000    1.4033169 *
   5 C       3.3443621    3.7578932    2.5418205 *  1.4033169 *  0.0000000  
   6 C       4.5774543    4.7925944    3.8295916    2.4411728 *  1.3917995 *
   7 C       5.1175541    5.0714149    4.3370068    2.8225039 *  2.4132170 *
   8 C       4.6442015    4.4236301    3.8301392    2.4388277 *  2.7797699 *
   9 C       3.4317344    3.2762143    2.5402126 *  1.3991921 *  2.3972891 *
  10 O       6.4387432    6.3381670    5.7050775    4.1907851    3.6436179  
  11 H       2.1627313 *  3.0794146    1.0973635 *  2.1472915 *  2.7106378 *
  12 H       2.1635669 *  2.5268587 *  1.0968769 *  2.1454086 *  3.3958939  
  13 H       3.3787861    4.0367713    2.7415967 *  2.1560891 *  1.0878384 *
  14 H       5.3701364    5.6597858    4.7055438    3.4284734    2.1647859 *
  15 H       5.4617833    5.0896543    4.6975270    3.4208971    3.8683095  
  16 H       3.5360457    3.2017951    2.7434245 *  2.1539670 *  3.3882024  
  17 H       6.8523519    6.6278559    6.1185037    4.6223569    4.3262110  
  18 H       1.0955698 *  1.7735085 *  2.1873483 *  3.4970150    4.3029014  
  19 H       1.0951788 *  1.7664619 *  2.1854638 *  2.8170918 *  3.1479179  

                6 C          7 C          8 C          9 C         10 O     

   1 C       4.5774543    5.1175541    4.6442015    3.4317344    6.4387432  
   2 H       4.7925944    5.0714149    4.4236301    3.2762143    6.3381670  
   3 C       3.8295916    4.3370068    3.8301392    2.5402126 *  5.7050775  
   4 C       2.4411728 *  2.8225039 *  2.4388277 *  1.3991921 *  4.1907851  
   5 C       1.3917995 *  2.4132170 *  2.7797699 *  2.3972891 *  3.6436179  
   6 C       0.0000000    1.3989813 *  2.4175839 *  2.7837807 *  2.3666096 *
   7 C       1.3989813 *  0.0000000    1.3976955 *  2.4170940 *  1.3692570 *
   8 C       2.4175839 *  1.3976955 *  0.0000000    1.3957689 *  2.4301037 *
   9 C       2.7837807 *  2.4170940 *  1.3957689 *  0.0000000    3.6893301  
  10 O       2.3666096 *  1.3692570 *  2.4301037 *  3.6893301    0.0000000  
  11 H       4.0743951    4.8255030    4.5390064    3.3617099    6.1614998  
  12 H       4.5624640    4.8234488    4.0450654    2.6647852 *  6.1773220  
  13 H       2.1415999 *  3.3935832    3.8675504    3.3866131    4.5066279  
  14 H       1.0852852 *  2.1459806 *  3.3950416    3.8689807    2.5703323 *
  15 H       3.4058298    2.1593787 *  1.0885651 *  2.1581380 *  2.6940668 *
  16 H       3.8714155    3.3966066    2.1453531 *  1.0877079 *  4.5700167  
  17 H       3.1731978    1.9155257 *  2.4557623 *  3.8402639    0.9663657 *
  18 H       5.5975703    6.1730585    5.6518032    4.3695409    7.5081123  
  19 H       4.3270257    5.0728405    4.8816565    3.8675309    6.3220313  

               11 H         12 H         13 H         14 H         15 H     

   1 C       2.1627313 *  2.1635669 *  3.3787861    5.3701364    5.4617833  
   2 H       3.0794146    2.5268587 *  4.0367713    5.6597858    5.0896543  
   3 C       1.0973635 *  1.0968769 *  2.7415967 *  4.7055438    4.6975270  
   4 C       2.1472915 *  2.1454086 *  2.1560891 *  3.4284734    3.4208971  
   5 C       2.7106378 *  3.3958939    1.0878384 *  2.1647859 *  3.8683095  
   6 C       4.0743951    4.5624640    2.1415999 *  1.0852852 *  3.4058298  
   7 C       4.8255030    4.8234488    3.3935832    2.1459806 *  2.1593787 *
   8 C       4.5390064    4.0450654    3.8675504    3.3950416    1.0885651 *
   9 C       3.3617099    2.6647852 *  3.3866131    3.8689807    2.1581380 *
  10 O       6.1614998    6.1773220    4.5066279    2.5703323 *  2.6940668 *
  11 H       0.0000000    1.7555483 *  2.5336434 *  4.7912647    5.4743151  
  12 H       1.7555483 *  0.0000000    3.7313571    5.5161361    4.7350946  
  13 H       2.5336434 *  3.7313571    0.0000000    2.4830662 *  4.9560886  
  14 H       4.7912647    5.5161361    2.4830662 *  0.0000000    4.2942311  
  15 H       5.4743151    4.7350946    4.9560886    4.2942311    0.0000000  
  16 H       3.6780482    2.4529564 *  4.2928851    4.9565539    2.4689162 *
  17 H       6.6797420    6.4551092    5.2756999    3.5144397    2.3023047 *
  18 H       2.4995004 *  2.5011864 *  4.1925673    6.3592786    6.4332230  
  19 H       2.5266801 *  3.0803490    2.9570817 *  4.9507614    5.7873322  

               16 H         17 H         18 H         19 H     

   1 C       3.5360457    6.8523519    1.0955698 *  1.0951788 *
   2 H       3.2017951    6.6278559    1.7735085 *  1.7664619 *
   3 C       2.7434245 *  6.1185037    2.1873483 *  2.1854638 *
   4 C       2.1539670 *  4.6223569    3.4970150    2.8170918 *
   5 C       3.3882024    4.3262110    4.3029014    3.1479179  
   6 C       3.8714155    3.1731978    5.5975703    4.3270257  
   7 C       3.3966066    1.9155257 *  6.1730585    5.0728405  
   8 C       2.1453531 *  2.4557623 *  5.6518032    4.8816565  
   9 C       1.0877079 *  3.8402639    4.3695409    3.8675309  
  10 O       4.5700167    0.9663657 *  7.5081123    6.3220313  
  11 H       3.6780482    6.6797420    2.4995004 *  2.5266801 *
  12 H       2.4529564 *  6.4551092    2.5011864 *  3.0803490  
  13 H       4.2928851    5.2756999    4.1925673    2.9570817 *
  14 H       4.9565539    3.5144397    6.3592786    4.9507614  
  15 H       2.4689162 *  2.3023047 *  6.4332230    5.7873322  
  16 H       0.0000000    4.5495648    4.3184847    4.2199763  
  17 H       4.5495648    0.0000000    7.9150555    6.8475432  
  18 H       4.3184847    7.9150555    0.0000000    1.7726830 *
  19 H       4.2199763    6.8475432    1.7726830 *  0.0000000  

  * ... LESS THAN  3.000


     ATOMIC BASIS SET
     ----------------
 THE CONTRACTED PRIMITIVE FUNCTIONS HAVE BEEN UNNORMALIZED
 THE CONTRACTED BASIS FUNCTIONS ARE NOW NORMALIZED TO UNITY

  SHELL TYPE  PRIMITIVE        EXPONENT          CONTRACTION COEFFICIENT(S)

 C         

      1   S       1           172.2560000    0.061766907377
      1   S       2            25.9109000    0.358794042852
      1   S       3             5.5333500    0.700713083689

      2   L       4             3.6649800   -0.395895162119    0.236459946619
      2   L       5             0.7705450    1.215834355681    0.860618805716

      3   L       6             0.1958570    1.000000000000    1.000000000000

 H         

      4   S       7             5.4471780    0.156284978695
      4   S       8             0.8245472    0.904690876670

      5   S       9             0.1831916    1.000000000000

 C         

      6   S      10           172.2560000    0.061766907377
      6   S      11            25.9109000    0.358794042852
      6   S      12             5.5333500    0.700713083689

      7   L      13             3.6649800   -0.395895162119    0.236459946619
      7   L      14             0.7705450    1.215834355681    0.860618805716

      8   L      15             0.1958570    1.000000000000    1.000000000000

 C         

      9   S      16           172.2560000    0.061766907377
      9   S      17            25.9109000    0.358794042852
      9   S      18             5.5333500    0.700713083689

     10   L      19             3.6649800   -0.395895162119    0.236459946619
     10   L      20             0.7705450    1.215834355681    0.860618805716

     11   L      21             0.1958570    1.000000000000    1.000000000000

 C         

     12   S      22           172.2560000    0.061766907377
     12   S      23            25.9109000    0.358794042852
     12   S      24             5.5333500    0.700713083689

     13   L      25             3.6649800   -0.395895162119    0.236459946619
     13   L      26             0.7705450    1.215834355681    0.860618805716

     14   L      27             0.1958570    1.000000000000    1.000000000000

 C         

     15   S      28           172.2560000    0.061766907377
     15   S      29            25.9109000    0.358794042852
     15   S      30             5.5333500    0.700713083689

     16   L      31             3.6649800   -0.395895162119    0.236459946619
     16   L      32             0.7705450    1.215834355681    0.860618805716

     17   L      33             0.1958570    1.000000000000    1.000000000000

 C         

     18   S      34           172.2560000    0.061766907377
     18   S      35            25.9109000    0.358794042852
     18   S      36             5.5333500    0.700713083689

     19   L      37             3.6649800   -0.395895162119    0.236459946619
     19   L      38             0.7705450    1.215834355681    0.860618805716

     20   L      39             0.1958570    1.000000000000    1.000000000000

 C         

     21   S      40           172.2560000    0.061766907377
     21   S      41            25.9109000    0.358794042852
     21   S      42             5.5333500    0.700713083689

     22   L      43             3.6649800   -0.395895162119    0.236459946619
     22   L      44             0.7705450    1.215834355681    0.860618805716

     23   L      45             0.1958570    1.000000000000    1.000000000000

 C         

     24   S      46           172.2560000    0.061766907377
     24   S      47            25.9109000    0.358794042852
     24   S      48             5.5333500    0.700713083689

     25   L      49             3.6649800   -0.395895162119    0.236459946619
     25   L      50             0.7705450    1.215834355681    0.860618805716

     26   L      51             0.1958570    1.000000000000    1.000000000000

 O         

     27   S      52           322.0370000    0.059239393389
     27   S      53            48.4308000    0.351499960776
     27   S      54            10.4206000    0.707657921031

     28   L      55             7.4029400   -0.404453583190    0.244586106967
     28   L      56             1.5762000    1.221561761397    0.853955373466

     29   L      57             0.3736840    1.000000000000    1.000000000000

 H         

     30   S      58             5.4471780    0.156284978695
     30   S      59             0.8245472    0.904690876670

     31   S      60             0.1831916    1.000000000000

 H         

     32   S      61             5.4471780    0.156284978695
     32   S      62             0.8245472    0.904690876670

     33   S      63             0.1831916    1.000000000000

 H         

     34   S      64             5.4471780    0.156284978695
     34   S      65             0.8245472    0.904690876670

     35   S      66             0.1831916    1.000000000000

 H         

     36   S      67             5.4471780    0.156284978695
     36   S      68             0.8245472    0.904690876670

     37   S      69             0.1831916    1.000000000000

 H         

     38   S      70             5.4471780    0.156284978695
     38   S      71             0.8245472    0.904690876670

     39   S      72             0.1831916    1.000000000000

 H         

     40   S      73             5.4471780    0.156284978695
     40   S      74             0.8245472    0.904690876670

     41   S      75             0.1831916    1.000000000000

 H         

     42   S      76             5.4471780    0.156284978695
     42   S      77             0.8245472    0.904690876670

     43   S      78             0.1831916    1.000000000000

 H         

     44   S      79             5.4471780    0.156284978695
     44   S      80             0.8245472    0.904690876670

     45   S      81             0.1831916    1.000000000000

 H         

     46   S      82             5.4471780    0.156284978695
     46   S      83             0.8245472    0.904690876670

     47   S      84             0.1831916    1.000000000000

 TOTAL NUMBER OF BASIS SET SHELLS             =   47
 NUMBER OF CARTESIAN GAUSSIAN BASIS FUNCTIONS =  101
 NUMBER OF ELECTRONS                          =   66
 CHARGE OF MOLECULE                           =    0
 SPIN MULTIPLICITY                            =    1
 NUMBER OF OCCUPIED ORBITALS (ALPHA)          =   33
 NUMBER OF OCCUPIED ORBITALS (BETA )          =   33
 TOTAL NUMBER OF ATOMS                        =   19
 THE NUCLEAR REPULSION ENERGY IS      417.2793500861

 SELECTED MURRAY-HANDY-LAMING RADIAL GRID

 LEGACY BECKE'S FUZZY CELL METHOD

 SELECTED ORIGINAL BECKE'S PARTITION FUNCTION

     LEBEDEV GRID-BASED DFT OPTIONS
     ------------------------------
     DFTTYP=B3LYP   
     NRAD  =      96     NLEB  =     302
     NRAD0 =      24     NLEB0 =     110
     SWOFF =    5.00E-03 (PURE SCF -> DFT)
     SWITCH=    3.00E-04 (COARSE -> TIGHT GRID)
     THRESH=    0.00E+00 GTHRE=    1.00E+00

 GRIMME'S EMPIRICAL DISPERSION CORRECTION= F

     $CONTRL OPTIONS
     ---------------
 SCFTYP=RHF          RUNTYP=OPTIMIZE     EXETYP=RUN     
 MPLEVL=       0     CITYP =NONE         CCTYP =NONE         VBTYP =NONE    
 DFTTYP=B3LYP        TDDFT =NONE    
 MULT  =       1     ICHARG=       0     NZVAR =       0     COORD =UNIQUE  
 PP    =NONE         RELWFN=NONE         LOCAL =NONE         NUMGRD=       F
 ISPHER=      -1     NOSYM =       0     MAXIT =      60     UNITS =ANGS    
 PLTORB=       F     MOLPLT=       F     AIMPAC=       F     FRIEND=        
 NPRINT=       7     IREST =       0     GEOM  =INPUT   
 NORMF =       0     NORMP =       0     ITOL  =      20     ICUT  =       9
 INTTYP=BEST         GRDTYP=BEST         QMTTOL= 1.0E-06

     $SYSTEM OPTIONS
     ---------------
  REPLICATED MEMORY=    30000000 WORDS (ON EVERY NODE).
 DISTRIBUTED MEMDDI=        1000 MILLION WORDS IN AGGREGATE,
 MEMDDI DISTRIBUTED OVER   6 PROCESSORS IS   166666666 WORDS/PROCESSOR.
 TOTAL MEMORY REQUESTED ON EACH PROCESSOR=   196666666 WORDS.
 TIMLIM=      525600.00 MINUTES, OR     365.0 DAYS.
 PARALL= T  BALTYP=  DLB     KDIAG=    0  COREFL= F
 MXSEQ2=     300 MXSEQ3=     150  mem10=         0

          ----------------
          PROPERTIES INPUT
          ----------------

     MOMENTS            FIELD           POTENTIAL          DENSITY
 IEMOM =       1   IEFLD =       0   IEPOT =       0   IEDEN =       0
 WHERE =COMASS     WHERE =NUCLEI     WHERE =NUCLEI     WHERE =NUCLEI  
 OUTPUT=BOTH       OUTPUT=BOTH       OUTPUT=BOTH       OUTPUT=BOTH    
 IEMINT=       0   IEFINT=       0                     IEDINT=       0
                                                       MORB  =       0
          EXTRAPOLATION IN EFFECT
          DIIS IN EFFECT
 ORBITAL PRINTING OPTION: NPREO=     1   101     2     1

     -------------------------------
     INTEGRAL TRANSFORMATION OPTIONS
     -------------------------------
     NWORD  =            0
     CUTOFF = 1.0E-09     MPTRAN =       0
     DIRTRF =       T     AOINTS =DUP     

          ----------------------
          INTEGRAL INPUT OPTIONS
          ----------------------
 NOPK  =       1 NORDER=       0 SCHWRZ=       T

     ------------------------------------------
     THE POINT GROUP IS C1 , NAXIS= 0, ORDER= 1
     ------------------------------------------

     DIMENSIONS OF THE SYMMETRY SUBSPACES ARE
 A   =  101

 ..... DONE SETTING UP THE RUN .....
 CPU     0: STEP CPU TIME=     0.02 TOTAL CPU TIME=          0.0 (      0.0 MIN)
 TOTAL WALL CLOCK TIME=          0.0 SECONDS, CPU UTILIZATION IS   100.00%


          -----------------------------
          STATIONARY POINT LOCATION RUN
          -----------------------------

 OBTAINING INITIAL HESSIAN, HESS=GUESS   
 CARTESIAN COORDINATE OPTIMIZATION USING BADGER'S RULE FORCE CONSTANT GUESS

          PARAMETERS CONTROLLING GEOMETRY SEARCH ARE
          METHOD =QA                  UPHESS =BFGS    
          NNEG   =         0          NFRZ   =         0
          NSTEP  =       999          IFOLOW =         1
          HESS   =GUESS               RESTAR =         F
          IHREP  =         0          HSSEND =         F
          NPRT   =         0          NPUN   =         0
          OPTTOL = 1.000E-04          RMIN   = 1.500E-03
          RMAX   = 1.000E-01          RLIM   = 7.000E-02
          DXMAX  = 3.000E-01          PURIFY =         F
          MOVIE  =         F          TRUPD  =         T
          TRMAX  = 5.000E-01          TRMIN  = 5.000E-02
          ITBMAT =         5          STPT   =         F
          STSTEP = 1.000E-02          PROJCT=          T

 BEGINNING GEOMETRY SEARCH POINT NSERCH=   0 ...

 COORDINATES OF ALL ATOMS ARE (ANGS)
   ATOM   CHARGE       X              Y              Z
 ------------------------------------------------------------
 C           6.0  -1.7673100000   0.0670400000  -0.4571200000
 H           1.0  -1.5293800000  -0.5952300000  -1.2962700000
 C           6.0  -0.9273800000  -0.2914300000   0.7818200000
 C           6.0   0.5644200000  -0.1840900000   0.5409700000
 C           6.0   1.2307200000   1.0455900000   0.6559900000
 C           6.0   2.5931100000   1.1662300000   0.3982200000
 C           6.0   3.3283800000   0.0395600000   0.0146300000
 C           6.0   2.6875000000  -1.1969800000  -0.1028200000
 C           6.0   1.3203100000  -1.2979900000   0.1594000000
 O           8.0   4.6657000000   0.2091000000  -0.2255700000
 H           1.0  -1.2133400000   0.3669900000   1.6118300000
 H           1.0  -1.1727500000  -1.3119300000   1.1004300000
 H           1.0   0.6716500000   1.9285800000   0.9579200000
 H           1.0   3.1033500000   2.1193800000   0.4931100000
 H           1.0   3.2545100000  -2.0796600000  -0.3932500000
 H           1.0   0.8361800000  -2.2676300000   0.0670700000
 H           1.0   5.0484600000  -0.6395300000  -0.4847700000
 H           1.0  -2.8388400000  -0.0215100000  -0.2467500000
 H           1.0  -1.5693300000   1.0941300000  -0.7816300000

          ********************
          1 ELECTRON INTEGRALS
          ********************
 ...... END OF ONE-ELECTRON INTEGRALS ......
 CPU     0: STEP CPU TIME=     0.00 TOTAL CPU TIME=          0.0 (      0.0 MIN)
 TOTAL WALL CLOCK TIME=          0.0 SECONDS, CPU UTILIZATION IS    50.00%

          -------------
          GUESS OPTIONS
          -------------
          GUESS =HUCKEL            NORB  =       0          NORDER=       0
          MIX   =       F          PRTMO =       F          PUNMO =       F
          TOLZ  = 1.0E-08          TOLE  = 1.0E-05
          SYMDEN=       F          PURIFY=       F

 INITIAL GUESS ORBITALS GENERATED BY HUCKEL   ROUTINE.
 HUCKEL GUESS REQUIRES    100138 WORDS.

 SYMMETRIES FOR INITIAL GUESS ORBITALS FOLLOW.   BOTH SET(S).
    33 ORBITALS ARE OCCUPIED (    9 CORE ORBITALS).
    10=A       11=A       12=A       13=A       14=A       15=A       16=A   
    17=A       18=A       19=A       20=A       21=A       22=A       23=A   
    24=A       25=A       26=A       27=A       28=A       29=A       30=A   
    31=A       32=A       33=A       34=A       35=A       36=A       37=A   
    38=A       39=A       40=A       41=A       42=A       43=A   
 ...... END OF INITIAL ORBITAL SELECTION ......
 CPU     0: STEP CPU TIME=     0.03 TOTAL CPU TIME=          0.0 (      0.0 MIN)
 TOTAL WALL CLOCK TIME=          0.1 SECONDS, CPU UTILIZATION IS    83.33%

                    ----------------------
                    AO INTEGRAL TECHNOLOGY
                    ----------------------
     S,P,L SHELL ROTATED AXIS INTEGRALS, REPROGRAMMED BY
        KAZUYA ISHIMURA (IMS) AND JOSE SIERRA (SYNSTAR).
     S,P,D,L SHELL ROTATED AXIS INTEGRALS PROGRAMMED BY
        KAZUYA ISHIMURA (INSTITUTE FOR MOLECULAR SCIENCE).
     S,P,D,F,G SHELL TO TOTAL QUARTET ANGULAR MOMENTUM SUM 5,
        ERIC PROGRAM BY GRAHAM FLETCHER (ELORET AND NASA ADVANCED
        SUPERCOMPUTING DIVISION, AMES RESEARCH CENTER).
     S,P,D,F,G,L SHELL GENERAL RYS QUADRATURE PROGRAMMED BY
        MICHEL DUPUIS (PACIFIC NORTHWEST NATIONAL LABORATORY).

          --------------------
          2 ELECTRON INTEGRALS
          --------------------

 DIRECT SCF METHOD SKIPS INTEGRAL STORAGE ON DISK.
 DIRECT TRANSFORMATION SKIPS AO INTEGRAL STORAGE ON DISK.
  ...... END OF TWO-ELECTRON INTEGRALS .....
 CPU     0: STEP CPU TIME=     0.01 TOTAL CPU TIME=          0.1 (      0.0 MIN)
 TOTAL WALL CLOCK TIME=          0.1 SECONDS, CPU UTILIZATION IS    85.71%

          --------------------------
             R-B3LYP SCF CALCULATION
          --------------------------

     NUCLEAR ENERGY =       417.2793500861
     MAXIT =   60     NPUNCH=    2
     EXTRAP=T  DAMP=F  SHIFT=F  RSTRCT=F  DIIS=T  DEM=F  SOSCF=F
         DENSITY MATRIX CONVERGENCE THRESHOLD=  2.00E-05
     COARSE -> FINE DFT GRID SWITCH THRESHOLD=  3.00E-04 (SWITCH IN $DFT)
                   HF -> DFT SWITCH THRESHOLD=  5.00E-03 (SWOFF IN $DFT)
     MEMORY REQUIRED FOR RHF ITERS=    746855 WORDS.

 DIRECT SCF CALCULATION, SCHWRZ=T   FDIFF=T,  DIRTHR=  0.00E+00 NITDIR=10
 SCHWARZ INEQUALITY OVERHEAD:      4909 INTEGRALS, T=        0.00

 DFT CODE IS SWITCHING FROM THE FINE GRID NRAD= 96,  NLEB=  302
                      TO THE COARSE GRID NRAD0= 24, NLEB0=  110

     EXCHANGE FUNCTIONAL   =B88&HFX   
     CORRELATION FUNCTIONAL=LYP88&VWN5
     DFT THRESHOLD         =.726E-08
     GRID CHANGE THRESHOLD =.300E-03
 FOR AN EULER-MACLAURIN QUADRATURE USING  96 RADIAL POINTS:
 SMALLEST GAUSSIAN PRIMITIVE EXPONENT=        0.1831915800 OF TYPE -S-
 ON ATOM NUMBER   2 HAS RADIAL NORMALIZATION=  1.000000
  LARGEST GAUSSIAN PRIMITIVE EXPONENT=      322.0370000000 OF TYPE -S-
 ON ATOM NUMBER  10 HAS RADIAL NORMALIZATION=  1.000000
 DFT IS SWITCHED OFF, PERFORMING PURE SCF UNTIL SWOFF THRESHOLD IS REACHED.

                                                                                   NONZERO     BLOCKS
 ITER EX DEM     TOTAL ENERGY        E CHANGE  DENSITY CHANGE    DIIS ERROR      INTEGRALS    SKIPPED
   1  0  0     -380.7061650033  -380.7061650033   0.618218726   0.558691040        8957797     286398
          * * *   INITIATING DIIS PROCEDURE   * * *
   2  1  0     -381.4631656807    -0.7570006775   0.134014074   0.059199953        8938405     294383
   3  2  0     -381.4935593261    -0.0303936453   0.044744438   0.019587294        8846513     312249
   4  3  0     -381.4964920977    -0.0029327716   0.014082234   0.007857583        8697783     329710
   5  4  0     -381.4969444044    -0.0004523067   0.003708560   0.003124699        8520845     342437
 CONVERGED TO SWOFF, SO DFT CALCULATION IS NOW SWITCHED ON.
          * * *   INITIATING DIIS PROCEDURE   * * *
   6  5  0     -383.6972736539    -2.2003292496   0.149823939   0.085942582        8961616     284252
   7  6  0     -383.7247467405    -0.0274730865   0.046433308   0.023185385        8903925     304106
   8  7  0     -383.7275662211    -0.0028194807   0.029313855   0.021803471        8812351     316152
   9  8  0     -383.7315883735    -0.0040221524   0.005761834   0.008634129        8712965     327315
  10  9  0     -383.7318143045    -0.0002259311   0.001830251   0.001431316        8382355     356198
  11 10  0     -383.7318207854    -0.0000064809   0.000624917   0.000486463        8068425     374206
  12 11  0     -383.7318224986    -0.0000017132   0.000115850   0.000088564        7764170     390130
 DFT CODE IS SWITCHING BACK TO THE FINE GRID
          * * *   INITIATING DIIS PROCEDURE   * * *
  13 12  0     -383.7350045181    -0.0031820195   0.001832580   0.002734779        8964686     282532
  14 13  0     -383.7350287109    -0.0000241928   0.000875443   0.000550315        8294627     357994
  15 14  0     -383.7350285927     0.0000001182   0.000695956   0.000756744        7860311     383833
  16 15  0     -383.7350305871    -0.0000019944   0.000115524   0.000082081        7672295     394416
  17 16  0     -383.7350306131    -0.0000000260   0.000059512   0.000028053        7105789     421131
  18 17  0     -383.7350306201    -0.0000000070   0.000011806   0.000007428        6802557     436716
  19 18  0     -383.7350306210    -0.0000000009   0.000004089   0.000003402        6397877     452653

          -----------------
          DENSITY CONVERGED
          -----------------
     TIME TO FORM FOCK OPERATORS=      11.0 SECONDS (       0.6 SEC/ITER)
     FOCK TIME ON FIRST ITERATION=       0.1, LAST ITERATION=       1.4
     TIME TO SOLVE SCF EQUATIONS=       0.2 SECONDS (       0.0 SEC/ITER)

 FINAL R-B3LYP ENERGY IS     -383.7350306210 AFTER  19 ITERATIONS
 DFT EXCHANGE + CORRELATION ENERGY =       -44.7346261576
 TOTAL ELECTRON NUMBER             =        66.0007930977

          ------------
          EIGENVECTORS
          ------------

                      1          2          3          4          5
                  -19.0585   -10.1825   -10.1229   -10.1219   -10.1211
                     A          A          A          A          A   
    1  C  1  S   -0.000016  -0.000115   0.005720  -0.011569  -0.007812
    2  C  1  S   -0.000120  -0.000069   0.001637  -0.003263  -0.002020
    3  C  1  X   -0.000040  -0.000046   0.000514  -0.001128  -0.000969
    4  C  1  Y    0.000017   0.000020   0.000096   0.000050   0.000029
    5  C  1  Z   -0.000035  -0.000063  -0.000065   0.000051  -0.000114
    6  C  1  S    0.000264  -0.000096  -0.003681   0.006628   0.002534
    7  C  1  X    0.000186  -0.000042  -0.002542   0.005579   0.003279
    8  C  1  Y   -0.000024  -0.000015  -0.000864  -0.000725  -0.000174
    9  C  1  Z    0.000050   0.000051  -0.000576   0.000591   0.000305
   10  H  2  S   -0.000013   0.000018   0.000217  -0.000857  -0.000604
   11  H  2  S   -0.000072   0.000001   0.000375  -0.001205  -0.000184
   12  C  3  S   -0.000042  -0.000462   0.004623  -0.013099  -0.042932
   13  C  3  S   -0.000149  -0.000502   0.000140  -0.000881  -0.006046
   14  C  3  X    0.000345   0.000260   0.000279   0.000027  -0.000386
   15  C  3  Y    0.000030   0.000035  -0.000080  -0.000056   0.000276
   16  C  3  Z   -0.000119  -0.000066   0.000024  -0.000306   0.000025
   17  C  3  S    0.004928   0.006626   0.005995   0.002103   0.010901
   18  C  3  X    0.001955   0.002873   0.000589   0.003779   0.006379
   19  C  3  Y   -0.000122   0.000110   0.003599   0.000363   0.001266
   20  C  3  Z    0.000222  -0.000159  -0.000890   0.003627   0.001288
   21  C  4  S   -0.000165  -0.001587  -0.333643   0.670439   0.493791
   22  C  4  S   -0.000797  -0.001488  -0.041731   0.077325   0.055033
   23  C  4  X   -0.000619  -0.000810  -0.001298   0.001246  -0.000830
   24  C  4  Y   -0.000097  -0.000080   0.000743  -0.000199   0.001993
   25  C  4  Z    0.000108   0.000160   0.000569  -0.000626   0.000359
   26  C  4  S    0.010225   0.017709   0.076511  -0.077738  -0.053189
   27  C  4  X    0.011932   0.016179   0.033498  -0.014879  -0.003293
   28  C  4  Y    0.001723   0.001048  -0.010112  -0.003477  -0.015151
   29  C  4  Z   -0.002154  -0.003110  -0.009141   0.002772  -0.001903
   30  C  5  S    0.000228  -0.000734   0.069532  -0.208667  -0.391736
   31  C  5  S    0.000835   0.000502   0.009795  -0.025866  -0.046644
   32  C  5  X   -0.000883  -0.001355   0.000204   0.000422   0.000014
   33  C  5  Y    0.000167   0.000146  -0.000068   0.001115   0.002168
   34  C  5  Z    0.000213   0.000308  -0.000073   0.000133   0.000432
   35  C  5  S   -0.023132  -0.024707  -0.036440   0.042421   0.058339
   36  C  5  X   -0.008784  -0.008212  -0.009362  -0.001629   0.001656
   37  C  5  Y    0.006748   0.011528   0.016185  -0.017766  -0.018742
   38  C  5  Z    0.003254   0.004093   0.005406  -0.003454  -0.004329
   39  C  6  S   -0.000284  -0.010857  -0.003856   0.029357   0.026481
   40  C  6  S   -0.001619  -0.006819  -0.001441   0.004826   0.004354
   41  C  6  X    0.000985  -0.000184   0.000282   0.000367  -0.000513
   42  C  6  Y    0.000335   0.002057  -0.000299  -0.000909   0.000400
   43  C  6  Z   -0.000125   0.000468  -0.000113  -0.000261   0.000189
   44  C  6  S    0.023867   0.050525   0.021840  -0.013945  -0.020911
   45  C  6  X   -0.017606  -0.007439  -0.010725   0.001193   0.008938
   46  C  6  Y   -0.019289  -0.032745  -0.012025   0.007992   0.009436
   47  C  6  Z   -0.000388  -0.005213  -0.000314   0.001446   0.000127
   48  C  7  S   -0.000045   0.985940  -0.005719  -0.006833   0.006197
   49  C  7  S    0.001934   0.109862   0.002869   0.001807  -0.002278
   50  C  7  X    0.000285  -0.001090  -0.000133  -0.000806   0.000711
   51  C  7  Y    0.000053  -0.000108  -0.000559  -0.001316   0.001538
   52  C  7  Z   -0.000054   0.000217  -0.000094  -0.000088   0.000174
   53  C  7  S   -0.003296  -0.105377  -0.040440  -0.011166   0.022189
   54  C  7  X    0.044506   0.044209   0.020484   0.004237  -0.010628
   55  C  7  Y    0.002614   0.004867   0.013142   0.012738  -0.006802
   56  C  7  Z   -0.008608  -0.008211  -0.001541   0.001641   0.000785
   57  C  8  S   -0.000273  -0.011875  -0.556579  -0.667523   0.456871
   58  C  8  S   -0.001564  -0.006975  -0.066199  -0.073331   0.048300
   59  C  8  X    0.001273  -0.000031   0.001561   0.000554   0.001200
   60  C  8  Y   -0.000108  -0.002110  -0.001050  -0.000640   0.000332
   61  C  8  Z   -0.000277  -0.000412  -0.000532  -0.000259  -0.000176
   62  C  8  S    0.024404   0.051753   0.096396   0.054720  -0.032418
   63  C  8  X   -0.021741  -0.008824  -0.023127  -0.001392  -0.003890
   64  C  8  Y    0.015059   0.032576   0.027311   0.006619  -0.008740
   65  C  8  Z    0.007468   0.008371   0.010249   0.001746  -0.000920
   66  C  9  S    0.000252  -0.000721   0.739978  -0.180341   0.602912
   67  C  9  S    0.000975   0.000536   0.087159  -0.019787   0.062755
   68  C  9  X   -0.000852  -0.001326   0.001459   0.001802  -0.000203
   69  C  9  Y   -0.000330  -0.000334   0.001880  -0.000704  -0.000126
   70  C  9  Z    0.000104   0.000203   0.000071  -0.000484   0.000029
   71  C  9  S   -0.024381  -0.024405  -0.117922   0.018479  -0.023785
   72  C  9  X   -0.010121  -0.006799  -0.017801  -0.012719   0.001746
   73  C  9  Y   -0.007533  -0.013376  -0.037283   0.009481   0.004239
   74  C  9  Z    0.000611  -0.001277  -0.003761   0.004297   0.000300
   75  O 10  S    0.982863   0.000425   0.000043   0.000011  -0.000029
   76  O 10  S    0.108345   0.003261   0.000439   0.000246  -0.000373
   77  O 10  X   -0.003088  -0.000753   0.000014  -0.000156   0.000172
   78  O 10  Y   -0.002843  -0.000021   0.000250   0.000160   0.000063
   79  O 10  Z    0.000035   0.000145   0.000048   0.000061  -0.000025
   80  O 10  S   -0.065502  -0.009456  -0.003332  -0.000817   0.001698
   81  O 10  X    0.014131   0.005987   0.000184   0.000382  -0.000560
   82  O 10  Y    0.006792   0.000544  -0.001714  -0.001532   0.000198
   83  O 10  Z   -0.001478  -0.001094  -0.000387  -0.000373   0.000163
   84  H 11  S   -0.000117  -0.000176  -0.000282  -0.000499  -0.000681
   85  H 11  S   -0.000365  -0.000265  -0.000690  -0.000676  -0.000528
   86  H 12  S   -0.000093  -0.000173   0.000360   0.000018  -0.000461
   87  H 12  S   -0.000541  -0.000305   0.000568  -0.000620  -0.000594
   88  H 13  S   -0.000182  -0.000640  -0.000567   0.000270   0.000643
   89  H 13  S   -0.001612  -0.002064  -0.003110  -0.000072  -0.000947
   90  H 14  S    0.001969   0.000735   0.000820  -0.000170  -0.000547
   91  H 14  S    0.008036   0.008799   0.003007  -0.001834  -0.001626
   92  H 15  S    0.002340   0.000674   0.001911   0.001398  -0.001665
   93  H 15  S    0.007306   0.009037   0.000941  -0.007082   0.005113
   94  H 16  S   -0.000137  -0.000694  -0.002164   0.000265  -0.001844
   95  H 16  S   -0.001618  -0.002240   0.000366  -0.002100   0.008498
   96  H 17  S    0.003747   0.000324  -0.000433  -0.000163  -0.000228
   97  H 17  S    0.003496  -0.000974   0.000172  -0.000144   0.000952
   98  H 18  S   -0.000025  -0.000031   0.000022   0.000006   0.000020
   99  H 18  S    0.000192   0.000181  -0.000870   0.002319   0.001908
  100  H 19  S   -0.000005   0.000028   0.000454  -0.000614  -0.000263
  101  H 19  S   -0.000082  -0.000026   0.001027  -0.000995  -0.000683

                      6          7          8          9         10
                  -10.1199   -10.1164   -10.1156   -10.1039    -1.0607
                     A          A          A          A          A   
    1  C  1  S   -0.006124  -0.028261  -0.005066   0.985746   0.000033
    2  C  1  S   -0.001471  -0.006133  -0.000928   0.112007   0.000375
    3  C  1  X   -0.000958   0.000230  -0.000150   0.000111   0.000222
    4  C  1  Y   -0.000005  -0.000072   0.000071   0.000011  -0.000057
    5  C  1  Z   -0.000202   0.000236  -0.000024  -0.000046   0.000126
    6  C  1  S    0.000716   0.027186   0.003115  -0.089612  -0.000937
    7  C  1  X    0.002573   0.008963   0.001183  -0.002744  -0.000674
    8  C  1  Y    0.000654  -0.002898  -0.001211   0.000904   0.000147
    9  C  1  Z    0.000501   0.010714   0.001364  -0.003076  -0.000308
   10  H  2  S   -0.000227  -0.001598  -0.000263  -0.000176   0.000045
   11  H  2  S    0.000143   0.000111  -0.000168   0.016220   0.000257
   12  C  3  S   -0.065105   0.973050   0.141922   0.027131   0.000031
   13  C  3  S   -0.009109   0.114419   0.015588   0.001435   0.000926
   14  C  3  X   -0.000211   0.000147  -0.000362  -0.000496  -0.000706
   15  C  3  Y    0.000021   0.000160  -0.000329  -0.000117  -0.000091
   16  C  3  Z   -0.000031  -0.000223   0.000046   0.000314   0.000279
   17  C  3  S    0.021390  -0.106862  -0.013553   0.010710  -0.017846
   18  C  3  X    0.009933  -0.005190   0.001007  -0.009744  -0.008002
   19  C  3  Y   -0.002493  -0.002714   0.001735   0.002823   0.000174
   20  C  3  Z   -0.000401   0.007196   0.000653  -0.010292  -0.000733
   21  C  4  S    0.404537   0.053651   0.036009   0.017364  -0.001416
   22  C  4  S    0.040996   0.004458   0.003491  -0.000511   0.003413
   23  C  4  X   -0.001987   0.000855  -0.000825   0.001650   0.004010
   24  C  4  Y   -0.001211   0.000295  -0.000835  -0.000133   0.000383
   25  C  4  Z   -0.000022  -0.000323  -0.000031   0.000377  -0.000753
   26  C  4  S   -0.003713   0.014934  -0.010220   0.005975  -0.018211
   27  C  4  X    0.026025  -0.021662  -0.007609  -0.008262  -0.036968
   28  C  4  Y    0.014368  -0.001750  -0.000878   0.000250  -0.003657
   29  C  4  Z   -0.001859   0.002995   0.001363   0.000658   0.006996
   30  C  5  S    0.864281   0.014833   0.153048   0.000675  -0.003646
   31  C  5  S    0.095512   0.001361   0.011693   0.000061   0.001252
   32  C  5  X    0.001349   0.001317  -0.001810  -0.000269   0.005550
   33  C  5  Y   -0.000062   0.000398   0.000393   0.000046  -0.002430
   34  C  5  Z   -0.000304  -0.000089   0.000464  -0.000041  -0.001637
   35  C  5  S   -0.089144  -0.004794   0.026576   0.002453   0.077515
   36  C  5  X   -0.017753  -0.006290   0.017389   0.004682   0.032877
   37  C  5  Y    0.016676  -0.003730  -0.010413  -0.000764  -0.014340
   38  C  5  Z    0.006985   0.000366  -0.005785  -0.000344  -0.009883
   39  C  6  S   -0.149370  -0.149031   0.962379   0.000384  -0.015648
   40  C  6  S   -0.021462  -0.017665   0.106539   0.000141   0.021411
   41  C  6  X    0.002116   0.000631  -0.000221   0.000138   0.010997
   42  C  6  Y    0.001146   0.000441  -0.001148   0.000084  -0.014397
   43  C  6  Z   -0.000195  -0.000101  -0.000186   0.000028  -0.005232
   44  C  6  S    0.052371   0.020167  -0.096379  -0.003873  -0.055130
   45  C  6  X   -0.018636  -0.005463   0.007308   0.001812   0.065435
   46  C  6  Y   -0.017284  -0.004998   0.022172   0.000342   0.055282
   47  C  6  Z    0.000315   0.000346   0.003044  -0.000685  -0.002003
   48  C  7  S    0.001110  -0.000853   0.010323   0.000139  -0.087096
   49  C  7  S    0.000330   0.000395  -0.004066  -0.000095   0.090130
   50  C  7  X    0.000680  -0.000001   0.001308   0.000079   0.096838
   51  C  7  Y   -0.000008   0.000288  -0.001652   0.000013   0.003852
   52  C  7  Z   -0.000138   0.000063  -0.000607  -0.000049  -0.019089
   53  C  7  S   -0.014947  -0.005815   0.037904   0.000490   0.152905
   54  C  7  X    0.008839   0.004522  -0.019500  -0.001205  -0.117826
   55  C  7  Y   -0.005113  -0.002081   0.013262  -0.000224  -0.013931
   56  C  7  Z   -0.002895  -0.001515   0.006737   0.000513   0.021443
   57  C  8  S    0.086203   0.016214   0.021486   0.000184  -0.017764
   58  C  8  S    0.007946   0.000831   0.001788   0.000122   0.023384
   59  C  8  X    0.000838   0.000625  -0.000185   0.000137   0.011220
   60  C  8  Y   -0.000118   0.000080  -0.001121  -0.000085   0.016873
   61  C  8  Z   -0.000188  -0.000184  -0.000204   0.000016   0.001094
   62  C  8  S    0.007640   0.004003  -0.009867  -0.003674  -0.056822
   63  C  8  X   -0.008655  -0.004454   0.005636   0.001639   0.074763
   64  C  8  Y    0.003219   0.001183  -0.004012   0.000008  -0.046809
   65  C  8  Z    0.002439   0.001464  -0.001905  -0.000833  -0.024730
   66  C  9  S    0.166097   0.028350   0.021681   0.000370  -0.003944
   67  C  9  S    0.016352   0.002084   0.001059   0.000008   0.001140
   68  C  9  X    0.000667   0.000990  -0.000045  -0.000305   0.005659
   69  C  9  Y   -0.001439  -0.000257  -0.000592  -0.000017   0.003278
   70  C  9  Z   -0.000446  -0.000098  -0.000079  -0.000140  -0.000495
   71  C  9  S   -0.014313  -0.000508   0.009297   0.003070   0.081308
   72  C  9  X   -0.010584  -0.003199   0.003371   0.004066   0.034976
   73  C  9  Y   -0.002647   0.003870   0.005945   0.001501   0.020646
   74  C  9  Z    0.001547   0.001123   0.000395   0.000497  -0.003162
   75  O 10  S    0.000002   0.000019  -0.000045  -0.000012  -0.218900
   76  O 10  S   -0.000072   0.000151  -0.000615  -0.000097   0.198628
   77  O 10  X    0.000172   0.000007   0.000377   0.000005  -0.064764
   78  O 10  Y   -0.000221  -0.000032  -0.000003   0.000005  -0.089405
   79  O 10  Z   -0.000082  -0.000012  -0.000079   0.000012  -0.005565
   80  O 10  S   -0.000810  -0.001025   0.002516   0.000548   0.709880
   81  O 10  X   -0.000561   0.000169  -0.001097  -0.000159  -0.098681
   82  O 10  Y    0.001322   0.000334  -0.000924  -0.000040  -0.090860
   83  O 10  Z    0.000395   0.000061   0.000040  -0.000040   0.001113
   84  H 11  S   -0.000540   0.001055  -0.000380  -0.001062   0.000390
   85  H 11  S   -0.000432   0.015613   0.002292   0.002250   0.001559
   86  H 12  S   -0.000996   0.000929   0.000170  -0.001090   0.000311
   87  H 12  S   -0.001665   0.015399   0.003193   0.002272   0.002058
   88  H 13  S   -0.002952  -0.000110  -0.000449   0.000573   0.000665
   89  H 13  S    0.005563   0.000767   0.006442   0.000374   0.003123
   90  H 14  S    0.000301   0.000403  -0.002917   0.000061   0.000267
   91  H 14  S    0.004129   0.000173   0.007739   0.000007  -0.024605
   92  H 15  S   -0.000112   0.000015  -0.000563   0.000058   0.001290
   93  H 15  S    0.003373   0.001530  -0.000406  -0.000009  -0.025981
   94  H 16  S   -0.001289  -0.000066   0.000048   0.000479   0.000779
   95  H 16  S    0.000858   0.001036   0.002271   0.000575   0.003832
   96  H 17  S    0.000268   0.000048  -0.000089  -0.000021   0.108555
   97  H 17  S   -0.000008  -0.000121   0.001883   0.000004   0.026404
   98  H 18  S    0.000032  -0.001115  -0.000169  -0.000169   0.000113
   99  H 18  S    0.002015  -0.000086   0.000219   0.015409  -0.000833
  100  H 19  S   -0.000470  -0.001576  -0.000178  -0.000223  -0.000007
  101  H 19  S   -0.000238  -0.000131   0.000571   0.016297   0.000344

                     11         12         13         14         15
                   -0.8527    -0.7783    -0.7444    -0.7138    -0.6320
                     A          A          A          A          A   
    1  C  1  S   -0.019774  -0.098614   0.005116  -0.124747  -0.106609
    2  C  1  S    0.021729   0.099617  -0.004935   0.119517   0.098735
    3  C  1  X    0.011729   0.028643  -0.000844   0.002279  -0.035716
    4  C  1  Y   -0.002485  -0.009498  -0.002098  -0.005691   0.016859
    5  C  1  Z    0.009220   0.033650  -0.001719   0.018154  -0.042104
    6  C  1  S    0.035118   0.227774  -0.013450   0.345317   0.353127
    7  C  1  X   -0.007342  -0.009373  -0.000267   0.001154  -0.002990
    8  C  1  Y    0.000948   0.000116  -0.000817  -0.001376   0.003648
    9  C  1  Z   -0.003591  -0.001118  -0.000351   0.005299  -0.009194
   10  H  2  S    0.009549   0.047468  -0.001517   0.064760   0.070263
   11  H  2  S   -0.000090   0.000442   0.001368   0.004807   0.017489
   12  C  3  S   -0.047413  -0.139907   0.003605  -0.065792   0.076261
   13  C  3  S    0.045385   0.130455  -0.003369   0.061909  -0.069612
   14  C  3  X    0.026426   0.014644   0.002117  -0.070436  -0.068250
   15  C  3  Y    0.002778   0.008212  -0.014145   0.007520   0.032292
   16  C  3  Z   -0.007727  -0.026369  -0.001622  -0.032833  -0.053017
   17  C  3  S    0.109079   0.378932  -0.010674   0.197236  -0.262873
   18  C  3  X   -0.001156   0.015425   0.000190  -0.004836  -0.022469
   19  C  3  Y    0.001830   0.005585  -0.006890  -0.000301   0.016117
   20  C  3  Z   -0.005236  -0.013637  -0.001370  -0.003971  -0.009125
   21  C  4  S   -0.110891  -0.087768  -0.001716   0.091768   0.049768
   22  C  4  S    0.119612   0.093687   0.001675  -0.095118  -0.051118
   23  C  4  X    0.046833  -0.062588   0.006922  -0.076571   0.075660
   24  C  4  Y    0.003089  -0.003229  -0.093140  -0.009217   0.078851
   25  C  4  Z   -0.010310   0.005673  -0.020079   0.005111  -0.011283
   26  C  4  S    0.201735   0.182811   0.005758  -0.230700  -0.135109
   27  C  4  X    0.005951   0.015325  -0.000185   0.014101   0.019765
   28  C  4  Y    0.001146  -0.000138  -0.010294   0.001825   0.018635
   29  C  4  Z   -0.001623  -0.002685  -0.002049  -0.002946  -0.006996
   30  C  5  S   -0.098270  -0.008087   0.111862   0.074418  -0.084112
   31  C  5  S    0.107714   0.008416  -0.119429  -0.078122   0.087594
   32  C  5  X    0.022923  -0.064276  -0.054922   0.037576   0.032988
   33  C  5  Y   -0.050971  -0.024837  -0.012999   0.045566   0.033490
   34  C  5  Z   -0.015429   0.007177   0.008702   0.000102  -0.002551
   35  C  5  S    0.184342   0.017316  -0.257191  -0.195580   0.232390
   36  C  5  X    0.011523  -0.008450  -0.005284  -0.016753   0.002915
   37  C  5  Y   -0.012689   0.007602   0.001463   0.018198   0.002575
   38  C  5  Z   -0.004881   0.001897   0.001537   0.004273  -0.003875
   39  C  6  S   -0.087578   0.066114   0.122951  -0.038620   0.003754
   40  C  6  S    0.096763  -0.070424  -0.131508   0.041187  -0.006185
   41  C  6  X   -0.031650  -0.016539   0.042191   0.073972  -0.130789
   42  C  6  Y   -0.050831   0.040152   0.006943  -0.041525   0.044336
   43  C  6  Z   -0.003782   0.011415  -0.007462  -0.024109   0.035412
   44  C  6  S    0.156441  -0.147952  -0.280104   0.113220   0.004161
   45  C  6  X   -0.002792   0.006940   0.004238   0.007662  -0.059836
   46  C  6  Y   -0.009036   0.008910   0.003231  -0.004879  -0.003453
   47  C  6  Z   -0.001295   0.000545  -0.000424  -0.001779   0.012453
   48  C  7  S   -0.074031   0.080722   0.008611  -0.100246   0.071452
   49  C  7  S    0.084998  -0.090859  -0.009537   0.112236  -0.077961
   50  C  7  X   -0.080719   0.059367  -0.000832  -0.036393  -0.049063
   51  C  7  Y   -0.005492   0.001379  -0.124049  -0.000537  -0.098941
   52  C  7  Z    0.015763  -0.012244  -0.025149   0.007666  -0.010516
   53  C  7  S    0.137997  -0.174165  -0.027619   0.245713  -0.229532
   54  C  7  X   -0.030358   0.027724   0.005411  -0.028212   0.023993
   55  C  7  Y   -0.008575   0.010028  -0.021075  -0.014441  -0.024997
   56  C  7  Z    0.004682  -0.004007  -0.005428   0.002422  -0.011116
   57  C  8  S   -0.089579   0.066213  -0.122359  -0.050863  -0.053099
   58  C  8  S    0.099188  -0.071124   0.129496   0.055079   0.052577
   59  C  8  X   -0.036428  -0.012054  -0.048523   0.059373  -0.020281
   60  C  8  Y    0.044317  -0.040903  -0.010176   0.049030  -0.035894
   61  C  8  Z    0.016583  -0.006008   0.008110  -0.002596  -0.003721
   62  C  8  S    0.154474  -0.137946   0.287341   0.126430   0.180769
   63  C  8  X   -0.005541   0.010188   0.000207  -0.001760  -0.004257
   64  C  8  Y    0.004210  -0.001854   0.007273  -0.003783   0.018287
   65  C  8  Z    0.001920  -0.002335   0.001529   0.000455   0.005438
   66  C  9  S   -0.100152  -0.007697  -0.117006   0.059898   0.003312
   67  C  9  S    0.109617   0.008402   0.124426  -0.062960  -0.004124
   68  C  9  X    0.019409  -0.065960   0.055038   0.048570   0.089237
   69  C  9  Y    0.054621   0.015418  -0.003828  -0.040814  -0.019598
   70  C  9  Z    0.006850   0.015802  -0.012026  -0.019620  -0.024820
   71  C  9  S    0.189222   0.013555   0.273007  -0.160324  -0.016528
   72  C  9  X    0.010432  -0.008283   0.009923  -0.014759   0.033081
   73  C  9  Y    0.015991  -0.011002   0.000903  -0.015661  -0.010783
   74  C  9  Z    0.001289  -0.001806  -0.001794  -0.003024  -0.012676
   75  O 10  S    0.037020  -0.033783   0.003633   0.037992  -0.013444
   76  O 10  S   -0.037068   0.033815  -0.003571  -0.037924   0.014960
   77  O 10  X   -0.018188   0.037032   0.017238  -0.075872   0.135739
   78  O 10  Y    0.023002  -0.027681  -0.029471   0.043187  -0.093593
   79  O 10  Z    0.008670  -0.013577  -0.009634   0.024860  -0.047835
   80  O 10  S   -0.122486   0.117809  -0.012773  -0.137720   0.043185
   81  O 10  X   -0.011908   0.027859   0.011971  -0.059918   0.114735
   82  O 10  Y    0.020378  -0.024647  -0.022717   0.037956  -0.078718
   83  O 10  Z    0.006764  -0.010956  -0.007145   0.020529  -0.040158
   84  H 11  S    0.019393   0.064180  -0.006122   0.035087  -0.046464
   85  H 11  S   -0.003923  -0.001684  -0.002853   0.001736  -0.010930
   86  H 12  S    0.019556   0.064450   0.003152   0.035616  -0.059467
   87  H 12  S   -0.003031  -0.000132   0.003716   0.000863  -0.018084
   88  H 13  S    0.034396   0.009505  -0.058256  -0.038971   0.061260
   89  H 13  S   -0.000465   0.003240  -0.010545  -0.012153   0.026140
   90  H 14  S    0.028157  -0.027297  -0.062795   0.021704  -0.010133
   91  H 14  S   -0.006707  -0.001780  -0.010145   0.000400   0.003118
   92  H 15  S    0.029848  -0.028050   0.066365   0.028376   0.047674
   93  H 15  S   -0.005546  -0.002840   0.016219   0.002807   0.032924
   94  H 16  S    0.035357   0.008962   0.061279  -0.030693  -0.012305
   95  H 16  S    0.000285   0.002588   0.011733  -0.009525  -0.007431
   96  H 17  S   -0.032229   0.039867   0.018255  -0.063212   0.102332
   97  H 17  S   -0.012833   0.017585   0.009713  -0.032417   0.064047
   98  H 18  S    0.007174   0.044283  -0.002499   0.069384   0.076371
   99  H 18  S   -0.006032  -0.005342  -0.000196   0.012161   0.025815
  100  H 19  S    0.009625   0.047553  -0.003792   0.064567   0.074733
  101  H 19  S    0.000104   0.000832  -0.001744   0.004056   0.022653

                     16         17         18         19         20
                   -0.6155    -0.5783    -0.5422    -0.4847    -0.4665
                     A          A          A          A          A   
    1  C  1  S   -0.065663   0.054990  -0.003426   0.007017  -0.003390
    2  C  1  S    0.060637  -0.051486   0.002744  -0.006801   0.004331
    3  C  1  X   -0.026663   0.022489  -0.001258  -0.029137   0.076145
    4  C  1  Y    0.000874  -0.025350   0.014480   0.038773   0.074561
    5  C  1  Z   -0.040810   0.067444  -0.008011   0.075758  -0.056081
    6  C  1  S    0.224678  -0.200951   0.014044  -0.031497   0.016088
    7  C  1  X   -0.004300   0.005867   0.002917  -0.020350   0.049547
    8  C  1  Y    0.000449  -0.010511   0.006409   0.025385   0.052512
    9  C  1  Z   -0.011096   0.028364  -0.002252   0.047155  -0.040679
   10  H  2  S    0.052821  -0.051256   0.000454  -0.057558   0.011023
   11  H  2  S    0.020825  -0.020625   0.000378  -0.043746   0.005927
   12  C  3  S    0.060904  -0.087474   0.012617  -0.024538   0.014397
   13  C  3  S   -0.055580   0.081379  -0.009162   0.020424  -0.011961
   14  C  3  X   -0.029089  -0.037904   0.008714  -0.107915   0.153410
   15  C  3  Y   -0.025380  -0.036553   0.030722   0.094325   0.115708
   16  C  3  Z   -0.050746   0.062220   0.000033   0.082678  -0.059918
   17  C  3  S   -0.214616   0.316760  -0.063455   0.110627  -0.064260
   18  C  3  X   -0.009770  -0.016943  -0.000964  -0.061273   0.091612
   19  C  3  Y   -0.024994  -0.020985   0.023550   0.072410   0.083815
   20  C  3  Z   -0.018050   0.026535   0.001004   0.058774  -0.040273
   21  C  4  S    0.010755   0.078590   0.018963   0.035041  -0.059740
   22  C  4  S   -0.010269  -0.083283  -0.021048  -0.034203   0.059152
   23  C  4  X    0.069002  -0.091028  -0.039803   0.077109  -0.114635
   24  C  4  Y   -0.139121  -0.058627   0.068957   0.159443   0.092009
   25  C  4  Z   -0.051242   0.019784   0.021102   0.034020   0.014899
   26  C  4  S   -0.033135  -0.240034  -0.063171  -0.135742   0.240514
   27  C  4  X    0.013738  -0.023645  -0.051026   0.055723  -0.055420
   28  C  4  Y   -0.045644  -0.027731   0.030920   0.090089   0.052136
   29  C  4  Z   -0.017778   0.009840   0.016422   0.019884   0.000788
   30  C  5  S    0.053659   0.008030  -0.058109  -0.008079   0.051657
   31  C  5  S   -0.056480  -0.007793   0.057260   0.009061  -0.052905
   32  C  5  X    0.083498   0.118348  -0.090456  -0.065871  -0.117903
   33  C  5  Y    0.009561   0.128385   0.095805  -0.103661  -0.087029
   34  C  5  Z   -0.017420   0.005708   0.038375  -0.001546  -0.005414
   35  C  5  S   -0.160706  -0.045189   0.228181   0.023843  -0.211765
   36  C  5  X    0.030860   0.021485  -0.032294  -0.031112  -0.073870
   37  C  5  Y    0.003926   0.059073   0.049721  -0.071377  -0.033770
   38  C  5  Z   -0.008263   0.011065   0.016433  -0.003311  -0.001337
   39  C  6  S   -0.064540  -0.086110   0.027718   0.025221  -0.043319
   40  C  6  S    0.068091   0.087715  -0.029403  -0.021809   0.042718
   41  C  6  X    0.056766  -0.036991   0.006055   0.044890   0.200513
   42  C  6  Y    0.011762   0.085865   0.112399  -0.121543   0.035244
   43  C  6  Z   -0.009813   0.026657   0.021952  -0.031999  -0.039314
   44  C  6  S    0.180168   0.292618  -0.100991  -0.129030   0.173534
   45  C  6  X    0.016681  -0.040242   0.039066   0.007681   0.084506
   46  C  6  Y    0.001635   0.018331   0.079590  -0.059791   0.018994
   47  C  6  Z   -0.002533   0.012229   0.008514  -0.012730  -0.016563
   48  C  7  S    0.029206   0.060346   0.012492   0.017927   0.020077
   49  C  7  S   -0.032867  -0.065139  -0.016732  -0.019724  -0.020625
   50  C  7  X    0.024542  -0.061804   0.222895  -0.042564  -0.077250
   51  C  7  Y    0.181191   0.027090   0.040005   0.150049   0.116541
   52  C  7  Z    0.031604   0.018673  -0.037475   0.041390   0.035027
   53  C  7  S   -0.069775  -0.213614  -0.012336  -0.045717  -0.095867
   54  C  7  X    0.009904   0.027608   0.092935  -0.020568  -0.007525
   55  C  7  Y    0.088658   0.029319   0.021822   0.139672   0.097549
   56  C  7  Z    0.015446   0.000801  -0.014616   0.034648   0.017344
   57  C  8  S    0.075245  -0.033102  -0.026728  -0.007469  -0.031464
   58  C  8  S   -0.078859   0.031310   0.026625   0.007665   0.028361
   59  C  8  X   -0.139519  -0.054456  -0.014231  -0.230884   0.016777
   60  C  8  Y   -0.050039  -0.093559  -0.164042  -0.029426  -0.126020
   61  C  8  Z    0.018005  -0.006457  -0.029877   0.044320  -0.033620
   62  C  8  S   -0.219430   0.142995   0.081652   0.055369   0.154013
   63  C  8  X   -0.054311  -0.024310   0.004890  -0.139406   0.021748
   64  C  8  Y   -0.022014  -0.019786  -0.098057   0.011726  -0.050829
   65  C  8  Z    0.007109   0.001082  -0.020405   0.032600  -0.017938
   66  C  9  S   -0.111838  -0.027623  -0.026633  -0.012197   0.033599
   67  C  9  S    0.117052   0.028541   0.025937   0.016345  -0.035025
   68  C  9  X   -0.056344   0.054763   0.039671   0.231781   0.038889
   69  C  9  Y   -0.009334  -0.112459  -0.127944  -0.001700  -0.018123
   70  C  9  Z    0.007881  -0.030417  -0.034039  -0.041608  -0.022697
   71  C  9  S    0.330874   0.078655   0.105585   0.016380  -0.131291
   72  C  9  X   -0.019846   0.007189   0.014681   0.109582   0.029580
   73  C  9  Y    0.007220  -0.059106  -0.064851   0.006350  -0.029446
   74  C  9  Z    0.003127  -0.010415  -0.016540  -0.016060  -0.020259
   75  O 10  S   -0.024848  -0.010968  -0.007491  -0.039165   0.000953
   76  O 10  S    0.024450   0.014043   0.007310   0.036502   0.002756
   77  O 10  X   -0.006211   0.139331  -0.221190   0.038055   0.129811
   78  O 10  Y    0.060325  -0.057455   0.134533   0.105579  -0.004269
   79  O 10  Z    0.013541  -0.040881   0.074315   0.014949  -0.031069
   80  O 10  S    0.093476   0.026653   0.035758   0.158715  -0.024956
   81  O 10  X   -0.002009   0.127057  -0.191144   0.039859   0.128578
   82  O 10  Y    0.050096  -0.047383   0.114087   0.093306   0.000664
   83  O 10  Z    0.010669  -0.036247   0.063819   0.011905  -0.029516
   84  H 11  S   -0.059250   0.074518   0.002250   0.104187  -0.020802
   85  H 11  S   -0.021367   0.029489   0.007543   0.069747  -0.019460
   86  H 12  S   -0.029033   0.088259  -0.022825  -0.007167  -0.108886
   87  H 12  S   -0.004372   0.037692  -0.007594  -0.010523  -0.084941
   88  H 13  S   -0.056273   0.015146   0.115738  -0.018350  -0.055097
   89  H 13  S   -0.026008   0.007440   0.069005  -0.006238  -0.036933
   90  H 14  S    0.061435   0.094163   0.028346  -0.071237   0.113771
   91  H 14  S    0.030765   0.053282   0.014340  -0.040127   0.083214
   92  H 15  S   -0.072315   0.051799   0.088519  -0.058547   0.108483
   93  H 15  S   -0.036302   0.036842   0.049614  -0.045146   0.089912
   94  H 16  S    0.094221   0.058591   0.071973  -0.046382  -0.035718
   95  H 16  S    0.042633   0.032644   0.041792  -0.038715  -0.030696
   96  H 17  S   -0.022293   0.088809  -0.150291  -0.032719   0.059562
   97  H 17  S   -0.014904   0.062976  -0.112787  -0.019909   0.064563
   98  H 18  S    0.049337  -0.040217   0.001577   0.017574  -0.051723
   99  H 18  S    0.017469  -0.013343   0.000581   0.016587  -0.044421
  100  H 19  S    0.043230  -0.055961   0.011642   0.000574   0.063663
  101  H 19  S    0.009584  -0.025515   0.011085   0.002138   0.046092

                     21         22         23         24         25
                   -0.4383    -0.4251    -0.4193    -0.4080    -0.3965
                     A          A          A          A          A   
    1  C  1  S    0.000860  -0.001832   0.002537  -0.002798  -0.002341
    2  C  1  S   -0.001000   0.001229  -0.001364   0.001058   0.002688
    3  C  1  X    0.055085  -0.084415   0.120266  -0.191445   0.148536
    4  C  1  Y    0.094690   0.160532  -0.120945  -0.102324   0.057197
    5  C  1  Z   -0.016316   0.064708  -0.040853  -0.077560  -0.043427
    6  C  1  S   -0.004620   0.011587  -0.017309   0.025192   0.007419
    7  C  1  X    0.040985  -0.061246   0.086600  -0.140608   0.106909
    8  C  1  Y    0.069244   0.123077  -0.092499  -0.084747   0.046312
    9  C  1  Z   -0.006517   0.051692  -0.037785  -0.047093  -0.038385
   10  H  2  S   -0.021083  -0.106337   0.084000   0.054123   0.023235
   11  H  2  S   -0.012114  -0.089411   0.066825   0.046483   0.015595
   12  C  3  S    0.005019   0.006470  -0.014436   0.026662  -0.015065
   13  C  3  S   -0.002966  -0.006128   0.012754  -0.023288   0.012569
   14  C  3  X    0.059616  -0.036162   0.028298   0.031256   0.041119
   15  C  3  Y    0.102091   0.133898  -0.087311  -0.111618   0.031173
   16  C  3  Z   -0.009826   0.098959  -0.109841   0.110878  -0.041961
   17  C  3  S   -0.028347  -0.026543   0.064034  -0.116214   0.071845
   18  C  3  X    0.048429  -0.031442   0.025430   0.012983   0.041439
   19  C  3  Y    0.078323   0.100041  -0.066042  -0.084364   0.025912
   20  C  3  Z   -0.012466   0.076062  -0.081909   0.079665  -0.035444
   21  C  4  S    0.039543  -0.017723   0.007479  -0.016573   0.011793
   22  C  4  S   -0.041009   0.018059  -0.007450   0.015506  -0.011370
   23  C  4  X   -0.130934   0.074289  -0.049711   0.016693  -0.037393
   24  C  4  Y    0.004537  -0.104490  -0.032734   0.022773  -0.043380
   25  C  4  Z    0.012751   0.000378  -0.049587   0.110939   0.031907
   26  C  4  S   -0.167741   0.075105  -0.029751   0.067738  -0.052696
   27  C  4  X   -0.090928   0.041040  -0.019312  -0.002087  -0.006499
   28  C  4  Y    0.010932  -0.034814   0.012481   0.015666  -0.029996
   29  C  4  Z    0.010875   0.011703  -0.033691   0.088742   0.024517
   30  C  5  S   -0.007758   0.032452   0.008054   0.000868   0.000366
   31  C  5  S    0.004773  -0.033619  -0.011394  -0.003274   0.000156
   32  C  5  X   -0.111336  -0.002495  -0.089640  -0.178406   0.134285
   33  C  5  Y    0.158440   0.057636   0.138458   0.009329   0.005239
   34  C  5  Z    0.047775   0.031075   0.018458   0.118808   0.038815
   35  C  5  S    0.048532  -0.129144  -0.024155   0.002912  -0.003609
   36  C  5  X   -0.093326   0.007147  -0.040563  -0.102255   0.081112
   37  C  5  Y    0.087689   0.050369   0.101295   0.012967  -0.006493
   38  C  5  Z    0.029330   0.023463   0.006015   0.092230   0.033029
   39  C  6  S    0.019569  -0.007892   0.018423   0.008319  -0.002324
   40  C  6  S   -0.019433   0.002316  -0.019321  -0.009798   0.004255
   41  C  6  X    0.053741   0.046042   0.057281   0.195755  -0.096525
   42  C  6  Y   -0.082418   0.220381   0.130797  -0.004719  -0.037614
   43  C  6  Z   -0.033444   0.050010  -0.007733   0.040749   0.136941
   44  C  6  S   -0.074431   0.067561  -0.089389  -0.034673  -0.000767
   45  C  6  X    0.005630   0.037314   0.023896   0.103912  -0.053708
   46  C  6  Y   -0.025472   0.136099   0.097582   0.014699  -0.035846
   47  C  6  Z   -0.009585   0.030396  -0.001179   0.040765   0.096813
   48  C  7  S   -0.059621   0.011573   0.012542  -0.016570   0.012554
   49  C  7  S    0.064914  -0.012753  -0.014237   0.018260  -0.013982
   50  C  7  X   -0.115714   0.077036  -0.014884  -0.045626   0.070138
   51  C  7  Y   -0.023294  -0.129565  -0.043689   0.016537  -0.069518
   52  C  7  Z    0.012868  -0.024021  -0.038368   0.142055   0.213883
   53  C  7  S    0.246211  -0.054569  -0.040040   0.067459  -0.047330
   54  C  7  X   -0.096566   0.047061   0.005706  -0.019294   0.067160
   55  C  7  Y   -0.031833  -0.087577   0.041965   0.021925  -0.047029
   56  C  7  Z    0.007774  -0.011036  -0.022282   0.128612   0.207599
   57  C  8  S    0.032884  -0.005176  -0.033396  -0.003509  -0.006627
   58  C  8  S   -0.029072   0.008295   0.035579   0.002498   0.007003
   59  C  8  X   -0.041548  -0.006068  -0.166902   0.024721  -0.011370
   60  C  8  Y    0.171413   0.098418   0.120927   0.001688  -0.021066
   61  C  8  Z    0.037784   0.035744   0.033272   0.078776   0.128402
   62  C  8  S   -0.162794  -0.005537   0.162607   0.026002   0.036673
   63  C  8  X   -0.042124   0.013747  -0.118198   0.017508  -0.011806
   64  C  8  Y    0.071918   0.066841   0.107657  -0.001328  -0.008321
   65  C  8  Z    0.019491   0.020910   0.027446   0.060798   0.104394
   66  C  9  S   -0.037023  -0.023966  -0.001179   0.004679   0.002277
   67  C  9  S    0.034488   0.026545   0.006450  -0.005481  -0.000956
   68  C  9  X   -0.047770  -0.001891   0.170639   0.007661   0.054369
   69  C  9  Y   -0.163100   0.162167   0.154313  -0.026177   0.002639
   70  C  9  Z   -0.029936   0.053753  -0.036419   0.071631   0.058785
   71  C  9  S    0.168633   0.092340  -0.029521  -0.013988  -0.022252
   72  C  9  X   -0.048898   0.015176   0.066924  -0.001691   0.029190
   73  C  9  Y   -0.086095   0.105335   0.108803  -0.017042  -0.001271
   74  C  9  Z   -0.013051   0.036980  -0.019823   0.060417   0.047395
   75  O 10  S    0.017766   0.014130  -0.021793   0.008275  -0.015871
   76  O 10  S   -0.018110  -0.013556   0.020159  -0.006410   0.014061
   77  O 10  X    0.052078  -0.050830   0.014658   0.102226   0.024156
   78  O 10  Y   -0.074546  -0.053037   0.073821  -0.040084  -0.007293
   79  O 10  Z   -0.031373   0.015083  -0.016358   0.098036   0.267014
   80  O 10  S   -0.072745  -0.053133   0.090404  -0.046278   0.072257
   81  O 10  X    0.045369  -0.051534   0.021535   0.103705   0.028777
   82  O 10  Y   -0.068305  -0.049620   0.069765  -0.036884  -0.013213
   83  O 10  Z   -0.028649   0.015933  -0.018892   0.101579   0.275689
   84  H 11  S    0.024631   0.103386  -0.080024  -0.014859  -0.004486
   85  H 11  S    0.028597   0.089949  -0.070726   0.001676  -0.010030
   86  H 12  S   -0.070859  -0.066629   0.036517   0.065137  -0.022862
   87  H 12  S   -0.047719  -0.058210   0.018326   0.069202  -0.026680
   88  H 13  S    0.137634   0.008419   0.097706   0.087454  -0.037942
   89  H 13  S    0.116704   0.022613   0.083810   0.072766  -0.032106
   90  H 14  S   -0.053234   0.149743   0.075356   0.052513  -0.042549
   91  H 14  S   -0.048717   0.121249   0.074491   0.044675  -0.032936
   92  H 15  S   -0.147287  -0.057971  -0.100636  -0.001374  -0.011175
   93  H 15  S   -0.129271  -0.055154  -0.099879  -0.001679  -0.012201
   94  H 16  S    0.143791  -0.077612  -0.138129   0.007005  -0.025812
   95  H 16  S    0.109900  -0.079939  -0.121626   0.010667  -0.025902
   96  H 17  S    0.053288   0.001131  -0.031099   0.038799  -0.036073
   97  H 17  S    0.038876  -0.011406  -0.029739   0.043727  -0.036436
   98  H 18  S   -0.042568   0.055423  -0.078799   0.124766  -0.108853
   99  H 18  S   -0.036095   0.047870  -0.069238   0.112114  -0.103933
  100  H 19  S    0.066708   0.076442  -0.052946  -0.070647   0.065507
  101  H 19  S    0.059368   0.062258  -0.040918  -0.057047   0.052637

                     26         27         28         29         30
                   -0.3740    -0.3647    -0.3384    -0.3312    -0.3249
                     A          A          A          A          A   
    1  C  1  S   -0.006683  -0.003831  -0.000064  -0.003240  -0.000687
    2  C  1  S    0.008496   0.004866   0.001298   0.001651   0.001360
    3  C  1  X    0.054588  -0.047710  -0.118274   0.148765  -0.042321
    4  C  1  Y   -0.135913   0.064456  -0.163082  -0.125368  -0.112863
    5  C  1  Z    0.227649   0.198033   0.022900  -0.082890  -0.003180
    6  C  1  S    0.004730   0.002974  -0.000405   0.013051   0.002538
    7  C  1  X    0.040285  -0.037988  -0.100896   0.125830  -0.038532
    8  C  1  Y   -0.101839   0.052211  -0.129439  -0.102726  -0.088884
    9  C  1  Z    0.164514   0.150841   0.013560  -0.060309  -0.004826
   10  H  2  S   -0.049177  -0.143453   0.044618   0.143926   0.051524
   11  H  2  S   -0.048488  -0.144161   0.048226   0.161923   0.053307
   12  C  3  S   -0.006757   0.002039  -0.005443   0.010034  -0.006226
   13  C  3  S    0.006815  -0.000317   0.007890  -0.012718   0.007392
   14  C  3  X   -0.153241  -0.039311   0.139224  -0.195291   0.073651
   15  C  3  Y    0.069899  -0.012496   0.174395   0.143435   0.141946
   16  C  3  Z   -0.199300  -0.137550  -0.022624   0.099928   0.002128
   17  C  3  S    0.018890  -0.017725   0.007637  -0.019647   0.013097
   18  C  3  X   -0.115150  -0.035951   0.090274  -0.126425   0.046804
   19  C  3  Y    0.048180  -0.000078   0.137869   0.119321   0.115430
   20  C  3  Z   -0.155843  -0.106372  -0.018225   0.080609   0.002382
   21  C  4  S    0.000160  -0.007086  -0.017382   0.018580  -0.005630
   22  C  4  S    0.001442   0.007425   0.015082  -0.017187   0.005255
   23  C  4  X    0.071860  -0.008638  -0.159911   0.200007  -0.074648
   24  C  4  Y    0.122480  -0.137628   0.030266  -0.053546  -0.181094
   25  C  4  Z   -0.084413  -0.085769   0.034684  -0.038580  -0.013577
   26  C  4  S    0.005318   0.036617   0.085849  -0.075960   0.018720
   27  C  4  X    0.046531  -0.003085  -0.123804   0.177913  -0.077095
   28  C  4  Y    0.089432  -0.104860   0.031638  -0.026345  -0.117158
   29  C  4  Z   -0.061340  -0.065294   0.029904  -0.031694   0.000063
   30  C  5  S   -0.003122  -0.001771   0.010838   0.000086   0.016821
   31  C  5  S    0.006122  -0.002681  -0.008650  -0.001260  -0.016418
   32  C  5  X   -0.095590  -0.035732   0.116692  -0.056953   0.068331
   33  C  5  Y   -0.090406   0.143073  -0.020402   0.007887   0.168627
   34  C  5  Z   -0.029375   0.009357  -0.023090   0.027160   0.035961
   35  C  5  S    0.002962   0.021319  -0.054958  -0.017942  -0.066622
   36  C  5  X   -0.052095  -0.036403   0.100377  -0.053900   0.024292
   37  C  5  Y   -0.039474   0.090699  -0.028069   0.015124   0.128122
   38  C  5  Z   -0.023317   0.000103  -0.013668   0.029279   0.041422
   39  C  6  S   -0.004023   0.015118  -0.004708   0.011818  -0.014429
   40  C  6  S   -0.000411  -0.010424   0.006757  -0.012582   0.016056
   41  C  6  X    0.100014   0.017491  -0.131653   0.065424  -0.020009
   42  C  6  Y    0.049039  -0.080151   0.071718   0.007323  -0.147726
   43  C  6  Z    0.011375  -0.019024   0.045252  -0.005698  -0.017760
   44  C  6  S    0.062261  -0.125047  -0.019854  -0.056975   0.086324
   45  C  6  X    0.086126  -0.027793  -0.088126   0.023316  -0.022509
   46  C  6  Y    0.031503  -0.043483   0.048996   0.004253  -0.117147
   47  C  6  Z    0.003815  -0.003241   0.028476   0.001247  -0.013030
   48  C  7  S   -0.012633   0.001576   0.011464  -0.001958  -0.006676
   49  C  7  S    0.014644  -0.002498  -0.014415   0.002186   0.008770
   50  C  7  X    0.063964  -0.105463  -0.034714  -0.054284   0.050009
   51  C  7  Y   -0.016841   0.032946  -0.149402  -0.019518   0.187928
   52  C  7  Z    0.065301   0.061394  -0.024590   0.004187   0.026865
   53  C  7  S    0.039509   0.004452  -0.034459   0.005002   0.020303
   54  C  7  X    0.010756  -0.019133   0.023989  -0.005982  -0.024659
   55  C  7  Y   -0.101203   0.144560  -0.025091   0.051421   0.041047
   56  C  7  Z    0.061039   0.069235  -0.010673   0.006842   0.010611
   57  C  8  S    0.021631  -0.016331  -0.018984   0.008354   0.013908
   58  C  8  S   -0.017837   0.008663   0.017961  -0.013883  -0.009979
   59  C  8  X   -0.002528   0.114133   0.019457   0.152964  -0.088566
   60  C  8  Y    0.002681  -0.026864   0.112990   0.011363  -0.149041
   61  C  8  Z    0.021735  -0.024759   0.013778  -0.030405  -0.010030
   62  C  8  S   -0.157427   0.166386   0.134836   0.025428  -0.150166
   63  C  8  X    0.020140   0.063420  -0.028686   0.104143  -0.002411
   64  C  8  Y   -0.028614   0.022682   0.109459   0.030508  -0.150612
   65  C  8  Z    0.006930  -0.006899   0.024337  -0.013317  -0.026592
   66  C  9  S   -0.013883   0.008341   0.008417  -0.015810  -0.016547
   67  C  9  S    0.010966  -0.003887  -0.008094   0.015016   0.016073
   68  C  9  X   -0.011174  -0.121637  -0.002209  -0.165959   0.037181
   69  C  9  Y   -0.050501   0.098961  -0.089680   0.057898   0.140846
   70  C  9  Z   -0.041417   0.021120  -0.024541   0.047595   0.023386
   71  C  9  S    0.090728  -0.078380  -0.053066   0.051343   0.116010
   72  C  9  X    0.009071  -0.084734  -0.026662  -0.121382   0.076884
   73  C  9  Y   -0.027605   0.044767  -0.075402   0.019564   0.138264
   74  C  9  Z   -0.039918   0.008103  -0.018516   0.022325   0.011340
   75  O 10  S    0.039557  -0.042204  -0.041209  -0.015236   0.035133
   76  O 10  S   -0.037377   0.041323   0.037675   0.015748  -0.033032
   77  O 10  X   -0.039850   0.158838   0.057361   0.088316  -0.103044
   78  O 10  Y   -0.181291   0.192840   0.163926   0.107620  -0.168233
   79  O 10  Z    0.094995   0.066972   0.021666  -0.007856  -0.026687
   80  O 10  S   -0.160164   0.157736   0.175722   0.049098  -0.140698
   81  O 10  X   -0.053520   0.183168   0.077991   0.104501  -0.130822
   82  O 10  Y   -0.179061   0.191396   0.167716   0.113287  -0.178265
   83  O 10  Z    0.106405   0.066190   0.018034  -0.011148  -0.024534
   84  H 11  S   -0.043124  -0.073579   0.044793   0.163082   0.066371
   85  H 11  S   -0.045320  -0.070802   0.038443   0.188677   0.076410
   86  H 12  S   -0.055781  -0.015919  -0.151445  -0.059127  -0.121471
   87  H 12  S   -0.055468  -0.016781  -0.165094  -0.054393  -0.148048
   88  H 13  S   -0.021195   0.105866  -0.083283   0.045252   0.079003
   89  H 13  S   -0.028615   0.105957  -0.084619   0.055655   0.083493
   90  H 14  S    0.068017  -0.061331   0.016795   0.018477  -0.108666
   91  H 14  S    0.044993  -0.031539   0.036862   0.038138  -0.138098
   92  H 15  S   -0.030660   0.089513  -0.055773   0.058009   0.058672
   93  H 15  S   -0.026767   0.091557  -0.066708   0.070377   0.064627
   94  H 16  S    0.055571  -0.038592   0.050348   0.033586  -0.112806
   95  H 16  S    0.052776  -0.045173   0.041017   0.028375  -0.125087
   96  H 17  S    0.060572  -0.052516  -0.077285  -0.023270   0.066889
   97  H 17  S    0.042814  -0.017103  -0.075641  -0.001519   0.059888
   98  H 18  S    0.009743   0.064977   0.107945  -0.121131   0.042664
   99  H 18  S    0.007597   0.064109   0.112975  -0.130601   0.044788
  100  H 19  S   -0.124856   0.000985  -0.145914  -0.049808  -0.092924
  101  H 19  S   -0.124450   0.004810  -0.164065  -0.052225  -0.104432

                     31         32         33         34         35
                   -0.3136    -0.2471    -0.2071     0.0090     0.0250
                     A          A          A          A          A   
    1  C  1  S    0.018979   0.001408  -0.022224  -0.000620  -0.035024
    2  C  1  S   -0.017806  -0.001574   0.017811   0.001677   0.023162
    3  C  1  X   -0.085797  -0.004895   0.062829   0.000312   0.039043
    4  C  1  Y    0.016462  -0.017523  -0.016038   0.024298  -0.020152
    5  C  1  Z   -0.108461  -0.007560   0.057961   0.005051   0.061668
    6  C  1  S   -0.086995  -0.006366   0.141487   0.000359   0.311558
    7  C  1  X   -0.055260   0.000333   0.037543  -0.016141   0.016949
    8  C  1  Y    0.013695  -0.021866  -0.021530   0.059574  -0.052014
    9  C  1  Z   -0.086317  -0.008714   0.066057   0.013416   0.135781
   10  H  2  S    0.027702   0.010623  -0.000499  -0.010509   0.008021
[...]
   13             0.033636   0.006349   0.116338   0.002720   0.027365
   14             0.040461   0.081206   0.006699   0.035558   0.119660
   15             0.051303   0.036544   0.060026   0.031235   0.105870
   16             0.081179   0.036732   0.045292   0.021270   0.014139
   17             0.005531   0.046348   0.174827   0.009336   0.034746
   18             0.018772   0.011725   0.000028   0.003928   0.028111
   19             0.012017   0.026492   0.002889   0.000173   0.036157

                     21         22         23         24         25

                  2.000000   2.000000   2.000000   2.000000   2.000000

    1             0.096630   0.268324   0.262498   0.438219   0.166168
    2             0.003659   0.096520   0.075651   0.017027   0.008983
    3             0.113564   0.201316   0.170037   0.191126   0.028071
    4             0.126534   0.087398   0.034900   0.124744   0.043459
    5             0.264484   0.060972   0.177872   0.278942   0.110130
    6             0.060866   0.341376   0.108038   0.230278   0.209135
    7             0.149935   0.115679   0.014408   0.130957   0.518269
    8             0.210127   0.080290   0.270264   0.046862   0.178606
    9             0.230067   0.203326   0.284965   0.053719   0.071063
   10             0.072971   0.036595   0.056036   0.109806   0.510805
   11             0.007780   0.088228   0.065899   0.000750   0.000168
   12             0.041472   0.037957   0.013951   0.041678   0.002029
   13             0.170187   0.006117   0.092317   0.056407   0.006300
   14             0.025044   0.192440   0.043247   0.026758   0.011519
   15             0.176574   0.036335   0.089481   0.000594   0.001435
   16             0.171726   0.073971   0.149884   0.002446   0.005654
   17             0.019430   0.000375   0.006617   0.017498   0.008148
   18             0.015867   0.024711   0.053957   0.181050   0.085490
   19             0.043085   0.048070   0.029976   0.051143   0.034569

                     26         27         28         29         30

                  2.000000   2.000000   2.000000   2.000000   2.000000

    1             0.472650   0.327751   0.279279   0.270421   0.067263
    2             0.018031   0.196639   0.031428   0.168383   0.005901
    3             0.436559   0.155167   0.310995   0.391639   0.127242
    4             0.154965   0.133373   0.118790   0.260801   0.172945
    5             0.069224   0.112967   0.070734   0.037132   0.155870
    6             0.065026   0.051275   0.091847   0.030143   0.121451
    7             0.087782   0.085527   0.065546   0.013410   0.131464
    8             0.019244   0.068994   0.064677   0.105092   0.164177
    9             0.034082   0.102722   0.029500   0.163492   0.129129
   10             0.365950   0.469725   0.294543   0.062905   0.414426
   11             0.015373   0.057054   0.029442   0.241197   0.012599
   12             0.032447   0.001747   0.222571   0.024616   0.099869
   13             0.008071   0.085955   0.037054   0.043027   0.040679
   14             0.030885   0.027661   0.002160   0.000079   0.116928
   15             0.009405   0.063566   0.018630   0.050784   0.022459
   16             0.023149   0.016158   0.011657   0.000305   0.113981
   17             0.017495   0.009690   0.037824   0.001045   0.028814
   18             0.000048   0.033920   0.077662   0.117734   0.024699
   19             0.139614   0.000109   0.205662   0.017796   0.050104

                     31         32         33

                  2.000000   2.000000   2.000000

    1             0.119658   0.002440   0.042465
    2             0.007784   0.000472   0.001839
    3             0.101347   0.001639   0.013929
    4             0.247882   0.001292   0.480285
    5             0.269606   0.525931   0.071912
    6             0.100649   0.500829   0.241574
    7             0.005925   0.000180   0.307846
    8             0.125666   0.519988   0.220250
    9             0.303388   0.446028   0.120544
   10             0.663291   0.000155   0.470232
   11             0.024646   0.000231   0.011211
   12             0.009848   0.000088   0.006029
   13             0.000023   0.000002   0.000018
   14             0.000122   0.000005   0.000001
   15             0.000002   0.000003   0.000001
   16             0.000177   0.000002   0.000018
   17             0.000005   0.000000   0.000000
   18             0.016925   0.000106   0.010536
   19             0.003055   0.000608   0.001309

               ----- POPULATIONS IN EACH AO -----
                             MULLIKEN      LOWDIN
              1  C  1  S      1.98644     1.97439
              2  C  1  S      0.36877     0.42520
              3  C  1  X      0.55850     0.52232
              4  C  1  Y      0.56619     0.52677
              5  C  1  Z      0.54745     0.51617
              6  C  1  S      1.09840     0.58245
              7  C  1  X      0.46717     0.56330
              8  C  1  Y      0.51867     0.58873
              9  C  1  Z      0.42371     0.55373
             10  H  2  S      0.47064     0.47064
             11  H  2  S      0.33696     0.43910
             12  C  3  S      1.98765     1.97394
             13  C  3  S      0.36122     0.41723
             14  C  3  X      0.54612     0.52288
             15  C  3  Y      0.57242     0.53297
             16  C  3  Z      0.55375     0.52128
             17  C  3  S      1.12916     0.55615
             18  C  3  X      0.33616     0.50841
             19  C  3  Y      0.51420     0.56857
             20  C  3  Z      0.43734     0.54935
             21  C  4  S      1.98670     1.97413
             22  C  4  S      0.40029     0.41612
             23  C  4  X      0.59051     0.56549
             24  C  4  Y      0.61726     0.58832
             25  C  4  Z      0.46820     0.44623
             26  C  4  S      0.83878     0.51392
             27  C  4  X      0.27739     0.48715
             28  C  4  Y      0.27013     0.48861
             29  C  4  Z      0.51835     0.56049
             30  C  5  S      1.98647     1.97460
             31  C  5  S      0.40373     0.42033
             32  C  5  X      0.61458     0.58147
             33  C  5  Y      0.60266     0.56621
             34  C  5  Z      0.45897     0.43771
             35  C  5  S      0.91847     0.53306
             36  C  5  X      0.29507     0.49058
             37  C  5  Y      0.36317     0.50969
             38  C  5  Z      0.54802     0.57493
             39  C  6  S      1.98629     1.97443
             40  C  6  S      0.40373     0.41981
             41  C  6  X      0.61976     0.58777
             42  C  6  Y      0.59695     0.56022
             43  C  6  Z      0.47872     0.46072
             44  C  6  S      0.88329     0.53435
             45  C  6  X      0.31033     0.48965
             46  C  6  Y      0.35033     0.51505
             47  C  6  Z      0.55308     0.58910
             48  C  7  S      1.98608     1.97361
             49  C  7  S      0.41120     0.42243
             50  C  7  X      0.51284     0.48401
             51  C  7  Y      0.65741     0.62238
             52  C  7  Z      0.47738     0.45037
             53  C  7  S      0.80050     0.50715
             54  C  7  X      0.05349     0.39000
             55  C  7  Y      0.30498     0.49375
             56  C  7  Z      0.51589     0.55570
             57  C  8  S      1.98628     1.97432
             58  C  8  S      0.40077     0.41974
             59  C  8  X      0.61424     0.58236
             60  C  8  Y      0.59244     0.55637
             61  C  8  Z      0.48839     0.47105
             62  C  8  S      0.87359     0.53591
             63  C  8  X      0.35243     0.50632
             64  C  8  Y      0.31225     0.50756
             65  C  8  Z      0.59511     0.61441
             66  C  9  S      1.98646     1.97458
             67  C  9  S      0.40381     0.42048
             68  C  9  X      0.61305     0.58029
             69  C  9  Y      0.60139     0.56349
             70  C  9  Z      0.46145     0.44110
             71  C  9  S      0.91565     0.53292
             72  C  9  X      0.28371     0.48624
             73  C  9  Y      0.39240     0.51811
             74  C  9  Z      0.53253     0.57293
             75  O 10  S      1.98539     1.97895
             76  O 10  S      0.42346     0.57909
             77  O 10  X      0.61666     0.59819
             78  O 10  Y      0.69786     0.67741
             79  O 10  Z      0.82547     0.82839
             80  O 10  S      1.54290     1.01180
             81  O 10  X      0.73784     0.76459
             82  O 10  Y      0.80588     0.84958
             83  O 10  Z      0.96543     0.96863
             84  H 11  S      0.47193     0.47729
             85  H 11  S      0.33158     0.43352
             86  H 12  S      0.47270     0.47788
             87  H 12  S      0.33353     0.43442
             88  H 13  S      0.47931     0.47110
             89  H 13  S      0.33987     0.43367
             90  H 14  S      0.47644     0.46610
             91  H 14  S      0.32487     0.42761
             92  H 15  S      0.47800     0.46931
             93  H 15  S      0.34981     0.44053
             94  H 16  S      0.47929     0.47136
             95  H 16  S      0.34073     0.43432
             96  H 17  S      0.42536     0.43208
             97  H 17  S      0.22308     0.31838
             98  H 18  S      0.47194     0.47126
             99  H 18  S      0.34532     0.44332
            100  H 19  S      0.47081     0.47064
            101  H 19  S      0.33666     0.43925

          ----- MULLIKEN ATOMIC OVERLAP POPULATIONS -----
          (OFF-DIAGONAL ELEMENTS NEED TO BE MULTIPLIED BY 2)

             1           2           3           4           5

    1    5.3379818
    2    0.3661273   0.5348110
    3    0.2828757  -0.0410712   5.3569870
    4   -0.0905544  -0.0019351   0.3025897   5.1949597
    5   -0.0007485  -0.0000159  -0.0655856   0.4476813   5.1750990
    6    0.0000366  -0.0000040   0.0035461  -0.0745420   0.4379779
    7   -0.0000005  -0.0000027  -0.0000067  -0.0322263  -0.0638059
    8   -0.0000100  -0.0000461   0.0039767  -0.0710732  -0.0244025
    9   -0.0005198   0.0026037  -0.0637577   0.4576828  -0.0785826
   10   -0.0000000   0.0000000  -0.0000000  -0.0002090   0.0027492
   11   -0.0422241   0.0035693   0.3715587  -0.0436411  -0.0031167
   12   -0.0413181  -0.0024623   0.3718694  -0.0438001   0.0033720
   13    0.0002455   0.0000075  -0.0047984  -0.0448293   0.3909946
   14    0.0000012   0.0000001  -0.0000453   0.0040141  -0.0373262
   15    0.0000012   0.0000005  -0.0000561   0.0042112  -0.0001995
   16    0.0001548   0.0002955  -0.0048160  -0.0427418   0.0040873
   17    0.0000000   0.0000000  -0.0000001   0.0000161  -0.0002401
   18    0.3567653  -0.0266488  -0.0343244   0.0047699  -0.0000047
   19    0.3664798  -0.0276273  -0.0409231  -0.0027517   0.0032111

             6           7           8           9          10

    6    5.2335689
    7    0.4071666   5.0016812
    8   -0.0971861   0.2796257   5.4638326
    9   -0.0220618  -0.0279031   0.3675667   5.1950136
   10   -0.0542304   0.2943021  -0.0623865   0.0031251   8.1654704
   11    0.0001111   0.0000053  -0.0001087   0.0030363  -0.0000000
   12   -0.0001042   0.0000044   0.0001340  -0.0031349  -0.0000000
   13   -0.0387193   0.0042287  -0.0001813   0.0040874  -0.0000067
   14    0.3772626  -0.0434080   0.0059055  -0.0005448  -0.0008658
   15    0.0037154  -0.0575608   0.3912166  -0.0362704  -0.0046586
   16   -0.0001381   0.0034675  -0.0375795   0.3897476  -0.0000049
   17    0.0061249  -0.0457969  -0.0037837   0.0003844   0.2576240
   18    0.0000001  -0.0000000   0.0000002  -0.0000110   0.0000000
   19   -0.0000487  -0.0000015  -0.0000005  -0.0000164   0.0000000

            11          12          13          14          15

   11    0.5440268
   12   -0.0286349   0.5448359
   13    0.0026558   0.0000421   0.5091139
   14   -0.0000008   0.0000005  -0.0042223   0.5007360
   15    0.0000007  -0.0000013   0.0000020  -0.0000452   0.5277541
   16    0.0000396   0.0034070  -0.0000621   0.0000020  -0.0042449
   17    0.0000000   0.0000000   0.0000014  -0.0001569   0.0039479
   18   -0.0013558  -0.0014934  -0.0000113  -0.0000000  -0.0000000
   19   -0.0024152   0.0035215   0.0006278   0.0000006   0.0000000

            16          17          18          19

   16    0.5084062
   17   -0.0000031   0.4303218
   18   -0.0000077  -0.0000000   0.5463647
   19    0.0000064   0.0000000  -0.0267803   0.5341822

          TOTAL MULLIKEN AND LOWDIN ATOMIC POPULATIONS
       ATOM         MULL.POP.    CHARGE          LOW.POP.     CHARGE
    1 C             6.535294   -0.535294         6.253080   -0.253080
    2 H             0.807601    0.192399         0.909740    0.090260
    3 C             6.438019   -0.438019         6.150772   -0.150772
    4 C             5.967621    0.032379         6.040461   -0.040461
    5 C             6.191144   -0.191144         6.088584   -0.088584
    6 C             6.182476   -0.182476         6.131104   -0.131104
    7 C             5.719769    0.280231         5.899408    0.100592
    8 C             6.215500   -0.215500         6.168051   -0.168051
    9 C             6.190445   -0.190445         6.090137   -0.090137
   10 O             8.600909   -0.600909         8.256631   -0.256631
   11 H             0.803506    0.196494         0.910805    0.089195
   12 H             0.806238    0.193762         0.912299    0.087701
   13 H             0.819176    0.180824         0.904766    0.095234
   14 H             0.801307    0.198693         0.893707    0.106293
   15 H             0.827813    0.172187         0.909841    0.090159
   16 H             0.820016    0.179984         0.905683    0.094317
   17 H             0.648440    0.351560         0.750462    0.249538
   18 H             0.817263    0.182737         0.914585    0.085415
   19 H             0.807465    0.192535         0.909885    0.090115

          -------------------------------
          BOND ORDER AND VALENCE ANALYSIS     BOND ORDER THRESHOLD=0.050
          -------------------------------

                   BOND                       BOND                       BOND
  ATOM PAIR DIST  ORDER      ATOM PAIR DIST  ORDER      ATOM PAIR DIST  ORDER
    1   2  1.095  0.923        1   3  1.551  0.931        1  18  1.096  0.923
    1  19  1.095  0.922        3   4  1.520  0.938        3  11  1.097  0.911
    3  12  1.097  0.913        4   5  1.404  1.351        4   7  2.823  0.085
    4   9  1.399  1.384        5   6  1.391  1.428        5   8  2.780  0.098
    5  13  1.085  0.930        6   7  1.399  1.319        6   9  2.782  0.102
    6  14  1.082  0.918        7   8  1.397  1.301        7  10  1.389  0.909
    8   9  1.396  1.392        8  10  2.456  0.057        8  15  1.086  0.927
    9  16  1.085  0.930       10  17  0.993  0.822

                       TOTAL       BONDED        FREE
      ATOM            VALENCE     VALENCE     VALENCE
    1 C                 3.686       3.686       0.000
    2 H                 0.920       0.920       0.000
    3 C                 3.665       3.665      -0.000
    4 C                 3.690       3.690      -0.000
    5 C                 3.771       3.771       0.000
    6 C                 3.768       3.768       0.000
    7 C                 3.571       3.571      -0.000
    8 C                 3.734       3.734       0.000
    9 C                 3.779       3.779       0.000
   10 O                 1.903       1.903      -0.000
   11 H                 0.914       0.914      -0.000
   12 H                 0.916       0.916       0.000
   13 H                 0.935       0.935       0.000
   14 H                 0.928       0.928       0.000
   15 H                 0.933       0.933      -0.000
   16 H                 0.936       0.936       0.000
   17 H                 0.856       0.856       0.000
   18 H                 0.922       0.922      -0.000
   19 H                 0.920       0.920       0.000

          ---------------------
          ELECTROSTATIC MOMENTS
          ---------------------

 POINT   1           X           Y           Z (BOHR)    CHARGE
                 2.894973   -0.088908    0.332527        0.00 (A.U.)
         DX          DY          DZ         /D/  (DEBYE)
    -0.135954   -1.424498   -0.347516    1.472565
 ...... END OF PROPERTY EVALUATION ......
 CPU     0: STEP CPU TIME=     0.04 TOTAL CPU TIME=        889.0 (     14.8 MIN)
 TOTAL WALL CLOCK TIME=        896.9 SECONDS, CPU UTILIZATION IS    99.12%
  $VIB   
          IVIB=   0 IATOM=   0 ICOORD=   0 E=     -383.7362806342
  6.515045433E-06 3.050244962E-05-1.387479638E-06 2.881977279E-05-8.994713179E-06
 -2.370154302E-06-2.325889426E-05-3.158330267E-05 3.686864231E-06 1.367141090E-06
 -4.725053643E-05-4.236320128E-06-3.176769502E-05 6.402153876E-06 1.030260263E-05
 -1.856627605E-05-2.456363972E-05 1.780805143E-05-5.763740776E-06 5.763449165E-05
  1.668841295E-05 2.714161798E-05 1.605809266E-05-1.200379148E-05 2.862342335E-05
  1.159122767E-05 5.270958982E-06-2.492277646E-05-3.978569642E-05-2.398577438E-05
 -9.802044443E-06 6.501350682E-06-2.153191992E-05 1.198096245E-05 1.161627650E-05
  1.147531438E-05 1.794393927E-05 2.940810646E-06 2.407959931E-05 1.075785484E-05
  8.736438605E-06-1.869564216E-05-8.842770448E-06-1.376691315E-05 5.409995218E-07
 -1.649323000E-05 4.978438771E-06 1.514652103E-06 1.809253474E-05 3.804323389E-06
  3.123610564E-07 9.583154597E-06 2.443687417E-05 1.159175735E-05-2.140801908E-05
 -1.925812666E-05-1.906049194E-05
 -1.359543337E-01-1.424498355E+00-3.475156735E-01
 ......END OF GEOMETRY SEARCH......
 CPU     0: STEP CPU TIME=     0.01 TOTAL CPU TIME=        889.0 (     14.8 MIN)
 TOTAL WALL CLOCK TIME=        896.9 SECONDS, CPU UTILIZATION IS    99.12%
               747386  WORDS OF DYNAMIC MEMORY USED
 EXECUTION OF GAMESS TERMINATED NORMALLY Sun May 17 17:48:39 2020
 DDI: 263640 bytes (0.3 MB / 0 MWords) used by master data server.
Note: The following floating-point exceptions are signalling: IEEE_UNDERFLOW_FLAGNote: The following floating-point exceptions are signalling: IEEE_UNDERFLOW_FLAGNote: The following floating-point exceptions are signalling: IEEE_UNDERFLOW_FLAG IEEE_DENORMAL
Note: The following floating-point exceptions are signalling:
 ----------------------------------------
 CPU timing information for all processes
 ========================================
 0: 881.692 + 7.307 = 888.999
 1: 883.602 + 3.00 = 886.603
 2: 884.232 + 2.220 = 886.453
 3: 883.842 + 2.260 = 886.102
 4: 882.835 + 2.500 = 885.335
 5: 884.206 + 1.736 = 885.942
 ----------------------------------------
 IEEE_DENORMAL
 IEEE_DENORMAL
 IEEE_UNDERFLOW_FLAG IEEE_DENORMALNote: The following floating-point exceptions are signalling: IEEE_UNDERFLOW_FLAGNote: The following floating-point exceptions are signalling: IEEE_UNDERFLOW_FLAG
 IEEE_DENORMAL IEEE_DENORMAL

 ddikick.x: exited gracefully.
unset echo
----- accounting info -----
Files used on the master node pietdev were:
-rwxr-xr-x 1 piet piet      924 mei 17 17:33 /home/piet/scr/thyrosine_geoopt.F05*
-rw-r--r-- 1 piet piet 57344000 mei 17 17:48 /home/piet/scr/thyrosine_geoopt.F10
-rw-r--r-- 1 piet piet  4961456 mei 17 17:48 /home/piet/scr/thyrosine_geoopt.F22
-rw-r--r-- 1 piet piet  4961456 mei 17 17:48 /home/piet/scr/thyrosine_geoopt.F22.001
-rw-r--r-- 1 piet piet  4961456 mei 17 17:48 /home/piet/scr/thyrosine_geoopt.F22.002
-rw-r--r-- 1 piet piet  4961456 mei 17 17:48 /home/piet/scr/thyrosine_geoopt.F22.003
-rw-r--r-- 1 piet piet  4961456 mei 17 17:48 /home/piet/scr/thyrosine_geoopt.F22.004
-rw-r--r-- 1 piet piet  4961456 mei 17 17:48 /home/piet/scr/thyrosine_geoopt.F22.005
ls: No match.
ls: No match.
ls: No match.
zo 17 mei 2020 17:48:42 CEST
0.108u 0.035s 15:00.02 0.0%	0+0k 0+8io 0pf+0w
