----- GAMESS execution script 'rungms' -----
This job is running on host pietdev
under operating system Linux at zo 17 mei 2020 12:34:34 CEST
Available scratch disk space (Kbyte units) at beginning of the job is
Filesystem     1K-blocks     Used Available Use% Mounted on
/dev/sda2      244568380 30347464 201727860  14% /
GAMESS temporary binary files will be written to /home/piet/scr
GAMESS supplementary output files will be written to /home/piet/gamess/scr
Copying input file glutamate_minus1__fukui_neu.inp to your run's scratch directory...
cp glutamate_minus1__fukui_neu.inp /home/piet/scr/glutamate_minus1__fukui_neu.F05
unset echo
 
Assuming a single but multicore node.
 
/home/piet/gamess/ddikick.x /home/piet/gamess/gamess.03.x glutamate_minus1__fukui_neu -ddi 1 6 pietdev:cpus=6 -scr /home/piet/scr

 Distributed Data Interface kickoff program.
 Initiating 6 compute processes on 1 nodes to run the following command:
 /home/piet/gamess/gamess.03.x glutamate_minus1__fukui_neu 

          ******************************************************
          *         GAMESS VERSION = 30 SEP 2019 (R2)          *
          *             FROM IOWA STATE UNIVERSITY             *
          * M.W.SCHMIDT, K.K.BALDRIDGE, J.A.BOATZ, S.T.ELBERT, *
          *   M.S.GORDON, J.H.JENSEN, S.KOSEKI, N.MATSUNAGA,   *
          *          K.A.NGUYEN, S.J.SU, T.L.WINDUS,           *
          *       TOGETHER WITH M.DUPUIS, J.A.MONTGOMERY       *
          *         J.COMPUT.CHEM.  14, 1347-1363(1993)        *
          **************** 64 BIT LINUX VERSION ****************

  SINCE 1993, STUDENTS AND POSTDOCS WORKING AT IOWA STATE UNIVERSITY
  AND ALSO IN THEIR VARIOUS JOBS AFTER LEAVING ISU HAVE MADE IMPORTANT
  CONTRIBUTIONS TO THE CODE:
     IVANA ADAMOVIC, CHRISTINE AIKENS, YURI ALEXEEV, POOJA ARORA,
     ANDREY ASADCHEV, ROB BELL, PRADIPTA BANDYOPADHYAY, JONATHAN BENTZ,
     COLLEEN BERTONI, BRETT BODE, KURT BRORSEN, CALEB CARLIN, GALINA CHABAN,
     WEI CHEN, CHEOL HO CHOI, PAUL DAY, ALBERT DEFUSCO, NUWAN DESILVA,
     TIM DUDLEY, DMITRI FEDOROV, ALEX FINDLATER, GRAHAM FLETCHER, 
     MARK FREITAG, KURT GLAESEMANN, EMILIE B GUIDEZ, ANASTASIA GUNINA, 
     DAN KEMP, SAROM SOK LEANG, GRANT MERRILL,
     NORIYUKI MINEZAWA, JONATHAN MULLIN,
     TAKESHI NAGATA, SEAN NEDD, HEATHER NETZLOFF, BOSILJKA NJEGIC, RYAN OLSON,
     MIKE PAK, BUU PHAM, DAVID POOLE,
     SPENCER PRUITT, LUKE ROSKOP, TOSAPORN SATTASATHUCHANA,
     JIM SHOEMAKER, LYUDMILA SLIPCHENKO,
     TONY SMITH, JIE SONG, TETSUYA TAKETSUGU, SIMON WEBB,
     JORGE LUIS GALVEZ VALLEJO, PENG XU, SOOHAENG YOO,
     FEDERICO ZAHARIEV

  ADDITIONAL CODE HAS BEEN PROVIDED BY COLLABORATORS IN OTHER GROUPS:
     IOWA STATE UNIVERSITY:
          JOE IVANIC, AARON WEST, LAIMUTIS BYTAUTAS, KLAUS RUEDENBERG
     UNIVERSITY OF TOKYO: KIMIHIKO HIRAO, TAKAHITO NAKAJIMA,
          TAKAO TSUNEDA, MUNEAKI KAMIYA, SUSUMU YANAGISAWA,
          KIYOSHI YAGI, MAHITO CHIBA, SEIKEN TOKURA, NAOAKI KAWAKAMI
     UNIVERSITY OF AARHUS: FRANK JENSEN
     UNIVERSITY OF IOWA: VISVALDAS KAIRYS, HUI LI
     NATIONAL INST. OF STANDARDS AND TECHNOLOGY: WALT STEVENS, DAVID GARMER
     UNIVERSITY OF PISA: BENEDETTA MENNUCCI, JACOPO TOMASI
     UNIVERSITY OF MEMPHIS: HENRY KURTZ, PRAKASHAN KORAMBATH
     UNIVERSITY OF ALBERTA: TOBY ZENG, MARIUSZ KLOBUKOWSKI
     UNIVERSITY OF NEW ENGLAND: MARK SPACKMAN
     MIE UNIVERSITY: HIROAKI UMEDA
     NAT. INST. OF ADVANCED INDUSTRIAL SCIENCE AND TECHNOLOGY: KAZUO KITAURA
     MICHIGAN STATE UNIVERSITY:
          KAROL KOWALSKI, MARTA WLOCH, JEFFREY GOUR, JESSE LUTZ,
          WEI LI, JUN SHEN, J. EMILIANO DEUSTUA, PIOTR PIECUCH
     UNIVERSITY OF MINNESOTA:
          ANDREW SAND, PRACHI SHARMA, YINAN SHU
     UNIVERSITY OF SILESIA: MONIKA MUSIAL, STANISLAW KUCHARSKI
     FACULTES UNIVERSITAIRES NOTRE-DAME DE LA PAIX:
          OLIVIER QUINET, BENOIT CHAMPAGNE
     UNIVERSITY OF CALIFORNIA - SANTA BARBARA: BERNARD KIRTMAN
     INSTITUTE FOR MOLECULAR SCIENCE:
          KAZUYA ISHIMURA, MICHIO KATOUDA, AND SHIGERU NAGASE
     UNIVERSITY OF NOTRE DAME: ANNA POMOGAEVA, DAN CHIPMAN
     KYUSHU UNIVERSITY:
          HARUYUKI NAKANO,
          FENG LONG GU, JACEK KORCHOWIEC, MARCIN MAKOWSKI, AND YURIKO AOKI,
          HIROTOSHI MORI AND EISAKU MIYOSHI
     PENNSYLVANIA STATE UNIVERSITY:
          TZVETELIN IORDANOV, CHET SWALINA, JONATHAN SKONE,
          SHARON HAMMES-SCHIFFER
     WASEDA UNIVERSITY:
          MASATO KOBAYASHI, TOMOKO AKAMA, TSUGUKI TOUMA,
          TAKESHI YOSHIKAWA, YASUHIRO IKABATA, JUNJI SEINO,
          YUYA NAKAJIMA, HIROMI NAKAI
     NANJING UNIVERSITY: SHUHUA LI
     UNIVERSITY OF NEBRASKA:
          PEIFENG SU, DEJUN SI, NANDUN THELLAMUREGE, YALI WANG, HUI LI
     UNIVERSITY OF ZURICH: ROBERTO PEVERATI, KIM BALDRIDGE
     N. COPERNICUS UNIVERSITY AND JACKSON STATE UNIVERSITY:
          MARIA BARYSZ
     UNIVERSITY OF COPENHAGEN: Jimmy Kromann, CASPER STEINMANN
     TOKYO INSTITUTE OF TECHNOLOGY: HIROYA NAKATA
     NAGOYA UNIVERSITY: YOSHIO NISHIMOTO, STEPHAN IRLE
     MOSCOW STATE UNIVERSITY: VLADIMIR MIRONOV
     A.N.NESMEYANOV INSTITUTE OF ORGANOELEMENT COMPOUNDS OF RUSSIAN ACADEMY OF SCIENCES:
          IGOR S. GERASIMOV
     JOHANNES KEPLER UNIVERSITY LINZ:
          CHRISTIAN FRIEDL


 PARALLEL VERSION RUNNING ON        6 PROCESSORS IN        1 NODES.

 EXECUTION OF GAMESS BEGUN Sun May 17 12:34:34 2020

            ECHO OF THE FIRST FEW INPUT CARDS -
 INPUT CARD> $BASIS GBASIS=N21 NGAUSS=3 $END                                                
 INPUT CARD> $CONTRL SCFTYP=RHF MAXIT=60 MULT=1 ICHARG=-1 $END                              
 INPUT CARD> $SYSTEM MEMDDI=1000 MWORDS=30 $END                                             
 INPUT CARD> $SCF DIRSCF=.TRUE. $END                                                        
 INPUT CARD> $DATA                                                                          
 INPUT CARD>                                                                                
 INPUT CARD>C1                                                                              
 INPUT CARD>C 6.0000000 1.1847484836 0.4929323043 0.3625386195                              
 INPUT CARD>H 1.0000000 1.3296060401 0.7870686000 1.4118414888                              
 INPUT CARD>C 6.0000000 -0.1443783840 -0.2719136572 0.1764651559                            
 INPUT CARD>C 6.0000000 -1.4044029703 0.5354722703 0.5220892908                             
 INPUT CARD>C 6.0000000 -2.6936786927 -0.0784995941 -0.2086709297                           
 INPUT CARD>O 8.0000000 -2.4389494828 -0.7590991270 -1.2601634982                           
 INPUT CARD>O 8.0000000 -3.8063317606 0.2145460822 0.3242251544                             
 INPUT CARD>H 1.0000000 -0.3063147959 -0.5796440551 -0.8645041326                           
 INPUT CARD>H 1.0000000 -0.1214055052 -1.1928131132 0.7781544478                            
 INPUT CARD>H 1.0000000 -1.6061534683 0.5866304073 1.5983943631                             
 INPUT CARD>H 1.0000000 -1.2855532826 1.5704770068 0.1577487254                             
 INPUT CARD>H 1.0000000 2.0515389030 -0.1121999317 0.0561856930                             
 INPUT CARD>H 1.0000000 1.1792049156 1.4099228073 -0.2426343781                             
 INPUT CARD> $END                                                                           
   30000000 WORDS OF MEMORY AVAILABLE

     BASIS OPTIONS
     -------------
     GBASIS=N21          IGAUSS=       3      POLAR=NONE    
     NDFUNC=       0     NFFUNC=       0     DIFFSP=       F
     NPFUNC=       0      DIFFS=       F     BASNAM=        


     RUN TITLE
     ---------
                                                                                 

 THE POINT GROUP OF THE MOLECULE IS C1      
 THE ORDER OF THE PRINCIPAL AXIS IS     0

 ATOM      ATOMIC                      COORDINATES (BOHR)
           CHARGE         X                   Y                   Z
 C           6.0     2.2388499984        0.9315069856        0.6850986508
 H           1.0     2.5125910874        1.4873439875        2.6679935519
 C           6.0    -0.2728355843       -0.5138423044        0.3334707910
 C           6.0    -2.6539367902        1.0118958649        0.9866057007
 C           6.0    -5.0903146282       -0.1483427230       -0.3943308787
 O           8.0    -4.6089462204       -1.4344893475       -2.3813637113
 O           8.0    -7.1929240459        0.4054333071        0.6126967001
 H           1.0    -0.5788510302       -1.0953684346       -1.6336759259
 H           1.0    -0.2294231382       -2.2540899385        1.4704986825
 H           1.0    -3.0351899493        1.1085707259        3.0205273666
 H           1.0    -2.4293434467        2.9677712129        0.2981018659
 H           1.0     3.8768463798       -0.2120271268        0.1061755642
 H           1.0     2.2283741739        2.6643677696       -0.4585124898

          INTERNUCLEAR DISTANCES (ANGS.)
          ------------------------------

                1 C          2 H          3 C          4 C          5 C     

   1 C       0.0000000    1.0993345 *  1.5447300 *  2.5944116 *  3.9616931  
   2 H       1.0993345 *  0.0000000    2.1955018 *  2.8861332 *  4.4229050  
   3 C       1.5447300 *  2.1955018 *  0.0000000    1.5359004 *  2.5854730 *
   4 C       2.5944116 *  2.8861332 *  1.5359004 *  0.0000000    1.6041209 *
   5 C       3.9616931    4.4229050    2.5854730 *  1.6041209 *  0.0000000  
   6 O       4.1631637    4.8715763    2.7506923 *  2.4336447 *  1.2781781 *
   7 O       4.9989848    5.2809609    3.6970770    2.4313383 *  1.2680106 *
   8 H       2.2089191 *  3.1186359    1.0975147 *  2.0909145 *  2.5260185 *
   9 H       2.1726740 *  2.5351381 *  1.1002789 *  2.1676306 *  2.9718863 *
  10 H       3.0537276    2.9485015 *  2.2126380 *  1.0962450 *  2.2114687 *
  11 H       2.7028563 *  3.0042529    2.1672641 *  1.1036775 *  2.1991372 *
  12 H       1.1006193 *  1.7797959 *  2.2050008 *  3.5468408    4.7527229  
  13 H       1.0986977 *  1.7742205 *  2.1808464 *  2.8327541 *  4.1491905  

                6 O          7 O          8 H          9 H         10 H     

   1 C       4.1631637    4.9989848    2.2089191 *  2.1726740 *  3.0537276  
   2 H       4.8715763    5.2809609    3.1186359    2.5351381 *  2.9485015 *
   3 C       2.7506923 *  3.6970770    1.0975147 *  1.1002789 *  2.2126380 *
   4 C       2.4336447 *  2.4313383 *  2.0909145 *  2.1676306 *  1.0962450 *
   5 C       1.2781781 *  1.2680106 *  2.5260185 *  2.9718863 *  2.2114687 *
   6 O       0.0000000    2.3082475 *  2.1764377 *  3.1167063    3.2673981  
   7 O       2.3082475 *  0.0000000    3.7807319    3.9705659    2.5695794 *
   8 H       2.1764377 *  3.7807319    0.0000000    1.7630924 *  3.0192128  
   9 H       3.1167063    3.9705659    1.7630924 *  0.0000000    2.4583916 *
  10 H       3.2673981    2.5695794 *  3.0192128    2.4583916 *  0.0000000  
  11 H       2.9610341 *  2.8671566 *  2.5742823 *  3.0620117    1.7737527 *
  12 H       4.7239538    5.8730960    2.5740334 *  2.5319264 *  4.0305688  
  13 H       4.3394773    5.1580841    2.5596615 *  3.0834772    3.4388106  

               11 H         12 H         13 H     

   1 C       2.7028563 *  1.1006193 *  1.0986977 *
   2 H       3.0042529    1.7797959 *  1.7742205 *
   3 C       2.1672641 *  2.2050008 *  2.1808464 *
   4 C       1.1036775 *  3.5468408    2.8327541 *
   5 C       2.1991372 *  4.7527229    4.1491905  
   6 O       2.9610341 *  4.7239538    4.3394773  
   7 O       2.8671566 *  5.8730960    5.1580841  
   8 H       2.5742823 *  2.5740334 *  2.5596615 *
   9 H       3.0620117    2.5319264 *  3.0834772  
  10 H       1.7737527 *  4.0305688    3.4388106  
  11 H       0.0000000    3.7387031    2.5022225 *
  12 H       3.7387031    0.0000000    1.7796398 *
  13 H       2.5022225 *  1.7796398 *  0.0000000  

  * ... LESS THAN  3.000


     ATOMIC BASIS SET
     ----------------
 THE CONTRACTED PRIMITIVE FUNCTIONS HAVE BEEN UNNORMALIZED
 THE CONTRACTED BASIS FUNCTIONS ARE NOW NORMALIZED TO UNITY

  SHELL TYPE  PRIMITIVE        EXPONENT          CONTRACTION COEFFICIENT(S)

 C         

      1   S       1           172.2560000    0.061766907377
      1   S       2            25.9109000    0.358794042852
      1   S       3             5.5333500    0.700713083689

      2   L       4             3.6649800   -0.395895162119    0.236459946619
      2   L       5             0.7705450    1.215834355681    0.860618805716

      3   L       6             0.1958570    1.000000000000    1.000000000000

 H         

      4   S       7             5.4471780    0.156284978695
      4   S       8             0.8245472    0.904690876670

      5   S       9             0.1831916    1.000000000000

 C         

      6   S      10           172.2560000    0.061766907377
      6   S      11            25.9109000    0.358794042852
      6   S      12             5.5333500    0.700713083689

      7   L      13             3.6649800   -0.395895162119    0.236459946619
      7   L      14             0.7705450    1.215834355681    0.860618805716

      8   L      15             0.1958570    1.000000000000    1.000000000000

 C         

      9   S      16           172.2560000    0.061766907377
      9   S      17            25.9109000    0.358794042852
      9   S      18             5.5333500    0.700713083689

     10   L      19             3.6649800   -0.395895162119    0.236459946619
     10   L      20             0.7705450    1.215834355681    0.860618805716

     11   L      21             0.1958570    1.000000000000    1.000000000000

 C         

     12   S      22           172.2560000    0.061766907377
     12   S      23            25.9109000    0.358794042852
     12   S      24             5.5333500    0.700713083689

     13   L      25             3.6649800   -0.395895162119    0.236459946619
     13   L      26             0.7705450    1.215834355681    0.860618805716

     14   L      27             0.1958570    1.000000000000    1.000000000000

 O         

     15   S      28           322.0370000    0.059239393389
     15   S      29            48.4308000    0.351499960776
     15   S      30            10.4206000    0.707657921031

     16   L      31             7.4029400   -0.404453583190    0.244586106967
     16   L      32             1.5762000    1.221561761397    0.853955373466

     17   L      33             0.3736840    1.000000000000    1.000000000000

 O         

     18   S      34           322.0370000    0.059239393389
     18   S      35            48.4308000    0.351499960776
     18   S      36            10.4206000    0.707657921031

     19   L      37             7.4029400   -0.404453583190    0.244586106967
     19   L      38             1.5762000    1.221561761397    0.853955373466

     20   L      39             0.3736840    1.000000000000    1.000000000000

 H         

     21   S      40             5.4471780    0.156284978695
     21   S      41             0.8245472    0.904690876670

     22   S      42             0.1831916    1.000000000000

 H         

     23   S      43             5.4471780    0.156284978695
     23   S      44             0.8245472    0.904690876670

     24   S      45             0.1831916    1.000000000000

 H         

     25   S      46             5.4471780    0.156284978695
     25   S      47             0.8245472    0.904690876670

     26   S      48             0.1831916    1.000000000000

 H         

     27   S      49             5.4471780    0.156284978695
     27   S      50             0.8245472    0.904690876670

     28   S      51             0.1831916    1.000000000000

 H         

     29   S      52             5.4471780    0.156284978695
     29   S      53             0.8245472    0.904690876670

     30   S      54             0.1831916    1.000000000000

 H         

     31   S      55             5.4471780    0.156284978695
     31   S      56             0.8245472    0.904690876670

     32   S      57             0.1831916    1.000000000000

 TOTAL NUMBER OF BASIS SET SHELLS             =   32
 NUMBER OF CARTESIAN GAUSSIAN BASIS FUNCTIONS =   68
 NUMBER OF ELECTRONS                          =   48
 CHARGE OF MOLECULE                           =   -1
 SPIN MULTIPLICITY                            =    1
 NUMBER OF OCCUPIED ORBITALS (ALPHA)          =   24
 NUMBER OF OCCUPIED ORBITALS (BETA )          =   24
 TOTAL NUMBER OF ATOMS                        =   13
 THE NUCLEAR REPULSION ENERGY IS      225.7526871660

     $CONTRL OPTIONS
     ---------------
 SCFTYP=RHF          RUNTYP=ENERGY       EXETYP=RUN     
 MPLEVL=       0     CITYP =NONE         CCTYP =NONE         VBTYP =NONE    
 DFTTYP=NONE         TDDFT =NONE    
 MULT  =       1     ICHARG=      -1     NZVAR =       0     COORD =UNIQUE  
 PP    =NONE         RELWFN=NONE         LOCAL =NONE         NUMGRD=       F
 ISPHER=      -1     NOSYM =       0     MAXIT =      60     UNITS =ANGS    
 PLTORB=       F     MOLPLT=       F     AIMPAC=       F     FRIEND=        
 NPRINT=       7     IREST =       0     GEOM  =INPUT   
 NORMF =       0     NORMP =       0     ITOL  =      20     ICUT  =       9
 INTTYP=BEST         GRDTYP=BEST         QMTTOL= 1.0E-06

     $SYSTEM OPTIONS
     ---------------
  REPLICATED MEMORY=    30000000 WORDS (ON EVERY NODE).
 DISTRIBUTED MEMDDI=        1000 MILLION WORDS IN AGGREGATE,
 MEMDDI DISTRIBUTED OVER   6 PROCESSORS IS   166666666 WORDS/PROCESSOR.
 TOTAL MEMORY REQUESTED ON EACH PROCESSOR=   196666666 WORDS.
 TIMLIM=      525600.00 MINUTES, OR     365.0 DAYS.
 PARALL= T  BALTYP=  DLB     KDIAG=    0  COREFL= F
 MXSEQ2=     300 MXSEQ3=     150  mem10=         0

          ----------------
          PROPERTIES INPUT
          ----------------

     MOMENTS            FIELD           POTENTIAL          DENSITY
 IEMOM =       1   IEFLD =       0   IEPOT =       0   IEDEN =       0
 WHERE =COMASS     WHERE =NUCLEI     WHERE =NUCLEI     WHERE =NUCLEI  
 OUTPUT=BOTH       OUTPUT=BOTH       OUTPUT=BOTH       OUTPUT=BOTH    
 IEMINT=       0   IEFINT=       0                     IEDINT=       0
                                                       MORB  =       0
          EXTRAPOLATION IN EFFECT
          SOSCF IN EFFECT
 ORBITAL PRINTING OPTION: NPREO=     1    68     2     1

     -------------------------------
     INTEGRAL TRANSFORMATION OPTIONS
     -------------------------------
     NWORD  =            0
     CUTOFF = 1.0E-09     MPTRAN =       0
     DIRTRF =       T     AOINTS =DUP     

          ----------------------
          INTEGRAL INPUT OPTIONS
          ----------------------
 NOPK  =       1 NORDER=       0 SCHWRZ=       T

     ------------------------------------------
     THE POINT GROUP IS C1 , NAXIS= 0, ORDER= 1
     ------------------------------------------

     DIMENSIONS OF THE SYMMETRY SUBSPACES ARE
 A   =   68

 ..... DONE SETTING UP THE RUN .....
 CPU     0: STEP CPU TIME=     0.02 TOTAL CPU TIME=          0.0 (      0.0 MIN)
 TOTAL WALL CLOCK TIME=          0.0 SECONDS, CPU UTILIZATION IS    66.67%

          ********************
          1 ELECTRON INTEGRALS
          ********************
 ...... END OF ONE-ELECTRON INTEGRALS ......
 CPU     0: STEP CPU TIME=     0.01 TOTAL CPU TIME=          0.0 (      0.0 MIN)
 TOTAL WALL CLOCK TIME=          0.0 SECONDS, CPU UTILIZATION IS    75.00%

          -------------
          GUESS OPTIONS
          -------------
          GUESS =HUCKEL            NORB  =       0          NORDER=       0
          MIX   =       F          PRTMO =       F          PUNMO =       F
          TOLZ  = 1.0E-08          TOLE  = 1.0E-05
          SYMDEN=       F          PURIFY=       F

 INITIAL GUESS ORBITALS GENERATED BY HUCKEL   ROUTINE.
 HUCKEL GUESS REQUIRES     48616 WORDS.

 SYMMETRIES FOR INITIAL GUESS ORBITALS FOLLOW.   BOTH SET(S).
    24 ORBITALS ARE OCCUPIED (    6 CORE ORBITALS).
     7=A        8=A        9=A       10=A       11=A       12=A       13=A   
    14=A       15=A       16=A       17=A       18=A       19=A       20=A   
    21=A       22=A       23=A       24=A       25=A       26=A       27=A   
    28=A       29=A       30=A       31=A       32=A       33=A       34=A   
 ...... END OF INITIAL ORBITAL SELECTION ......
 CPU     0: STEP CPU TIME=     0.02 TOTAL CPU TIME=          0.0 (      0.0 MIN)
 TOTAL WALL CLOCK TIME=          0.1 SECONDS, CPU UTILIZATION IS    83.33%

                    ----------------------
                    AO INTEGRAL TECHNOLOGY
                    ----------------------
     S,P,L SHELL ROTATED AXIS INTEGRALS, REPROGRAMMED BY
        KAZUYA ISHIMURA (IMS) AND JOSE SIERRA (SYNSTAR).
     S,P,D,L SHELL ROTATED AXIS INTEGRALS PROGRAMMED BY
        KAZUYA ISHIMURA (INSTITUTE FOR MOLECULAR SCIENCE).
     S,P,D,F,G SHELL TO TOTAL QUARTET ANGULAR MOMENTUM SUM 5,
        ERIC PROGRAM BY GRAHAM FLETCHER (ELORET AND NASA ADVANCED
        SUPERCOMPUTING DIVISION, AMES RESEARCH CENTER).
     S,P,D,F,G,L SHELL GENERAL RYS QUADRATURE PROGRAMMED BY
        MICHEL DUPUIS (PACIFIC NORTHWEST NATIONAL LABORATORY).

          --------------------
          2 ELECTRON INTEGRALS
          --------------------

 DIRECT SCF METHOD SKIPS INTEGRAL STORAGE ON DISK.
 DIRECT TRANSFORMATION SKIPS AO INTEGRAL STORAGE ON DISK.
  ...... END OF TWO-ELECTRON INTEGRALS .....
 CPU     0: STEP CPU TIME=     0.01 TOTAL CPU TIME=          0.1 (      0.0 MIN)
 TOTAL WALL CLOCK TIME=          0.1 SECONDS, CPU UTILIZATION IS    85.71%

          --------------------------
                 RHF SCF CALCULATION
          --------------------------

     NUCLEAR ENERGY =       225.7526871660
     MAXIT =   60     NPUNCH=    2
     EXTRAP=T  DAMP=F  SHIFT=F  RSTRCT=F  DIIS=F  DEM=F  SOSCF=T
     DENSITY MATRIX CONV=  2.00E-05
     SOSCF WILL OPTIMIZE    1056 ORBITAL ROTATIONS, SOGTOL=   0.250
     MEMORY REQUIRED FOR RHF ITERS=     82956 WORDS.

 DIRECT SCF CALCULATION, SCHWRZ=T   FDIFF=T,  DIRTHR=  0.00E+00 NITDIR=10
 SCHWARZ INEQUALITY OVERHEAD:      2261 INTEGRALS, T=        0.00

                                                                                   NONZERO     BLOCKS
 ITER EX DEM     TOTAL ENERGY        E CHANGE  DENSITY CHANGE     ORB. GRAD      INTEGRALS    SKIPPED
   1  0  0     -302.7873370906  -302.7873370906   0.844424762   0.000000000        2080457      41289
          ---------------START SECOND ORDER SCF---------------
   2  1  0     -303.4876138045    -0.7002767140   0.102488022   0.090213947        2077462      42815
   3  2  0     -303.5414944785    -0.0538806740   0.138899615   0.058254087        2067994      45316
   4  3  0     -303.5743704801    -0.0328760016   0.033480786   0.003419995        2052784      48172
   5  4  0     -303.5748571165    -0.0004866364   0.011427720   0.001210600        2019497      51265
   6  5  0     -303.5749127492    -0.0000556328   0.001120314   0.000663454        1986178      53703
   7  6  0     -303.5749205388    -0.0000077896   0.001047309   0.000268960        1924096      59072
   8  7  0     -303.5749219058    -0.0000013670   0.000217925   0.000068130        1884618      60662
   9  8  0     -303.5749220526    -0.0000001468   0.000040737   0.000013488        1806049      65861
  10  9  0     -303.5749220609    -0.0000000084   0.000011428   0.000003680        1705877      71371
  11 10  0     -303.5749220616    -0.0000000007   0.000002097   0.000000990        1629207      74984

          -----------------
          DENSITY CONVERGED
          -----------------
     TIME TO FORM FOCK OPERATORS=       0.3 SECONDS (       0.0 SEC/ITER)
     FOCK TIME ON FIRST ITERATION=       0.0, LAST ITERATION=       0.0
     TIME TO SOLVE SCF EQUATIONS=       0.0 SECONDS (       0.0 SEC/ITER)

 FINAL RHF ENERGY IS     -303.5749220616 AFTER  11 ITERATIONS

          ------------
          EIGENVECTORS
          ------------

                      1          2          3          4          5
                  -20.1513   -20.1478   -11.0667   -11.0311   -11.0041
                     A          A          A          A          A   
    1  C  1  S    0.000050  -0.000090  -0.002400   0.987504   0.003500
    2  C  1  S    0.000178  -0.000448  -0.001207   0.101418  -0.001991
    3  C  1  X    0.000379  -0.000307   0.000163   0.000184  -0.000448
    4  C  1  Y   -0.000041   0.000068  -0.000077   0.000221  -0.000163
    5  C  1  Z   -0.000130  -0.000047  -0.000157   0.000060   0.000065
    6  C  1  S   -0.002722   0.004074   0.004581  -0.079972   0.020462
    7  C  1  X    0.000583  -0.001201  -0.002658   0.004064  -0.010983
    8  C  1  Y    0.000725  -0.001655  -0.000507   0.001526  -0.005121
    9  C  1  Z    0.000922  -0.000330   0.000214   0.000600  -0.001855
   10  H  2  S    0.000055  -0.000180  -0.000461   0.000263  -0.001292
   11  H  2  S   -0.000457   0.000112  -0.000047   0.014114   0.000942
   12  C  3  S   -0.000053  -0.000013  -0.002269  -0.004281   0.987928
   13  C  3  S   -0.000146  -0.000329  -0.001117  -0.002407   0.104316
   14  C  3  X   -0.000592   0.001087   0.001267   0.000053   0.000175
   15  C  3  Y   -0.000250   0.000189   0.000197  -0.000069   0.000264
   16  C  3  Z    0.000061   0.000062   0.000062   0.000020   0.000122
   17  C  3  S    0.004692  -0.003225  -0.000510   0.018329  -0.091903
   18  C  3  X    0.000276  -0.003865  -0.004384   0.010397   0.001265
   19  C  3  Y    0.004653  -0.003544  -0.001614   0.005930  -0.006228
   20  C  3  Z    0.000749  -0.000157   0.000427   0.000800  -0.001006
   21  C  4  S    0.000077   0.000032  -0.001659  -0.003048  -0.007370
   22  C  4  S    0.000245  -0.000228  -0.002195  -0.001027  -0.003290
   23  C  4  X    0.000966  -0.000213  -0.000010  -0.000870   0.000414
   24  C  4  Y    0.000058  -0.000047   0.000176  -0.000146  -0.000127
   25  C  4  Z   -0.000185   0.000553   0.000163  -0.000210   0.000107
   26  C  4  S   -0.000715   0.000201   0.016224   0.000059   0.022578
   27  C  4  X   -0.008249   0.004892  -0.010615   0.001870   0.011771
   28  C  4  Y    0.002417  -0.000391  -0.004391   0.000780  -0.005984
   29  C  4  Z    0.005639  -0.005511  -0.006262   0.001848  -0.003437
   30  C  5  S   -0.000097  -0.000083   0.986650   0.002128   0.002204
   31  C  5  S    0.000175   0.000388   0.093842  -0.000624  -0.000501
   32  C  5  X    0.000384  -0.001564   0.000812  -0.000195  -0.000575
   33  C  5  Y   -0.001075   0.000272   0.000355   0.000087  -0.000019
   34  C  5  Z   -0.001712   0.000678   0.000392  -0.000137  -0.000164
   35  C  5  S    0.014709   0.019448  -0.043267   0.003054  -0.000854
   36  C  5  X    0.008046  -0.020416  -0.015029   0.002323   0.000207
   37  C  5  Y   -0.013545   0.006258  -0.006245  -0.000072   0.000651
   38  C  5  Z   -0.021182   0.011357  -0.007164   0.000525   0.000861
   39  O  6  S    0.981220   0.069521   0.000093   0.000006   0.000009
   40  O  6  S    0.099168   0.005994   0.000981   0.000003   0.000065
   41  O  6  X   -0.000660  -0.000771  -0.000495  -0.000023   0.000177
   42  O  6  Y    0.002372  -0.000003  -0.000116   0.000015  -0.000007
   43  O  6  Z    0.003641   0.000126  -0.000018  -0.000032  -0.000237
   44  O  6  S   -0.053647   0.002360   0.000625  -0.000483   0.000075
   45  O  6  X    0.002264   0.004379   0.003863  -0.000052  -0.001058
   46  O  6  Y   -0.008110   0.000729  -0.001146  -0.000183   0.000101
   47  O  6  Z   -0.012457   0.000543  -0.002512  -0.000197   0.000774
   48  O  7  S   -0.069763   0.981221   0.000123  -0.000011  -0.000032
   49  O  7  S   -0.008078   0.099218   0.001182  -0.000116  -0.000346
   50  O  7  X   -0.000689   0.003930  -0.000290   0.000015  -0.000127
   51  O  7  Y   -0.000330  -0.001038  -0.000293  -0.000018  -0.000083
   52  O  7  Z   -0.000477  -0.001870  -0.000388   0.000048   0.000005
   53  O  7  S    0.009810  -0.053798  -0.000897   0.000481   0.000824
   54  O  7  X    0.004005  -0.013478  -0.001975  -0.000114   0.000530
   55  O  7  Y    0.001919   0.003552   0.002720   0.000026   0.000213
   56  O  7  Z    0.002687   0.006374   0.004059  -0.000274  -0.000070
   57  H  8  S   -0.000873  -0.000355  -0.000563  -0.001075   0.000966
   58  H  8  S    0.002158   0.000557   0.000848   0.000455   0.015448
   59  H  9  S    0.000371  -0.000229  -0.000358  -0.001117   0.000902
   60  H  9  S    0.000754  -0.001102  -0.000727   0.001200   0.014048
   61  H 10  S   -0.001100   0.000788  -0.001233  -0.000018  -0.001245
   62  H 10  S   -0.001764   0.002473   0.002142  -0.001430   0.000988
   63  H 11  S    0.000434   0.000017  -0.001511  -0.000210  -0.001379
   64  H 11  S   -0.000180  -0.001563   0.002105  -0.000221  -0.000076
   65  H 12  S    0.000139  -0.000275  -0.000167   0.000184  -0.001025
   66  H 12  S    0.000683  -0.000517   0.000608   0.013761   0.000404
   67  H 13  S    0.000049  -0.000078  -0.000185   0.000314  -0.001435
   68  H 13  S    0.000385   0.000161  -0.000475   0.014389   0.000382

                      6          7          8          9         10
                  -10.9855    -1.1324    -1.0354    -0.8997    -0.7816
                     A          A          A          A          A   
    1  C  1  S    0.003004  -0.001491  -0.002795  -0.133425  -0.142119
    2  C  1  S   -0.000535   0.002985   0.001000   0.132541   0.130297
    3  C  1  X    0.000830  -0.001863  -0.002603  -0.041306   0.035852
    4  C  1  Y   -0.000069  -0.000528  -0.000599  -0.018330   0.008493
    5  C  1  Z   -0.000092  -0.000024  -0.000476  -0.004113   0.000831
    6  C  1  S    0.000832  -0.003638   0.022090   0.334268   0.453060
    7  C  1  X   -0.000590   0.004221  -0.005496   0.003489   0.009156
    8  C  1  Y   -0.000252   0.002754  -0.005919   0.002017  -0.001849
    9  C  1  Z    0.000251  -0.000408  -0.001733   0.000956   0.000487
   10  H  2  S   -0.000097   0.001110   0.000496   0.067704   0.087409
   11  H  2  S   -0.000465  -0.000235  -0.000002   0.004950   0.020877
   12  C  3  S    0.006507  -0.008382  -0.008205  -0.149566   0.031363
   13  C  3  S   -0.001812   0.010502   0.008589   0.142766  -0.030799
   14  C  3  X   -0.000406  -0.008642  -0.001052   0.011035   0.116752
   15  C  3  Y   -0.000126   0.001664   0.001424   0.033429  -0.001452
   16  C  3  Z    0.000103  -0.001530  -0.002586   0.010752  -0.004742
   17  C  3  S    0.021168   0.011154  -0.003906   0.379530  -0.089380
   18  C  3  X   -0.012030   0.009980  -0.014736   0.009189   0.004058
   19  C  3  Y    0.007431  -0.000462  -0.017051   0.009636  -0.000116
   20  C  3  Z    0.001787   0.000635   0.000250   0.002553   0.000261
   21  C  4  S    0.987972  -0.025751  -0.002907  -0.096605   0.148791
   22  C  4  S    0.104454   0.024869   0.002625   0.093488  -0.134461
   23  C  4  X    0.000276  -0.018577   0.006050   0.046095   0.004420
   24  C  4  Y    0.000102  -0.010141  -0.006035  -0.017966   0.007110
   25  C  4  Z   -0.000233  -0.011816  -0.007684  -0.008887   0.004580
   26  C  4  S   -0.092044   0.040116   0.005260   0.239468  -0.452318
   27  C  4  X   -0.000519   0.008430   0.029511  -0.005688  -0.007198
   28  C  4  Y    0.005331   0.000469  -0.007188  -0.005165   0.010295
   29  C  4  Z    0.005905   0.001590  -0.024922  -0.006800   0.007840
   30  C  5  S    0.000779  -0.140825  -0.000053  -0.002747   0.024576
   31  C  5  S   -0.002594   0.159723   0.000018   0.009075  -0.033201
   32  C  5  X    0.000537  -0.057830   0.130704   0.034271  -0.076486
   33  C  5  Y    0.000182  -0.022332  -0.090742   0.019200  -0.035642
   34  C  5  Z    0.000233  -0.030082  -0.147476   0.027831  -0.045024
   35  C  5  S    0.021879   0.153834   0.005957  -0.014645  -0.033520
   36  C  5  X    0.012579   0.038969  -0.016314  -0.006513  -0.017725
   37  C  5  Y    0.004359   0.015522   0.014146  -0.001689  -0.010347
   38  C  5  Z    0.005182   0.019139   0.023112  -0.002449  -0.013046
   39  O  6  S    0.000046  -0.141149  -0.164721   0.026712  -0.030928
   40  O  6  S    0.000082   0.128707   0.151278  -0.024910   0.028741
   41  O  6  X    0.000180  -0.017085  -0.001936   0.011704  -0.020669
   42  O  6  Y   -0.000205   0.042170   0.038359  -0.002986  -0.004151
   43  O  6  Z   -0.000134   0.064902   0.058300  -0.004289  -0.004312
   44  O  6  S   -0.001922   0.434379   0.540209  -0.087858   0.107181
   45  O  6  X   -0.001610  -0.027695   0.000196   0.012801  -0.016572
   46  O  6  Y   -0.000365   0.045762   0.045275  -0.004537  -0.000741
   47  O  6  Z   -0.000948   0.071958   0.068091  -0.006773  -0.000664
   48  O  7  S   -0.000007  -0.144849   0.162385   0.011114  -0.027435
   49  O  7  S   -0.000370   0.131981  -0.149004  -0.009681   0.024923
   50  O  7  X   -0.000158   0.071484  -0.066057   0.001421  -0.011248
   51  O  7  Y    0.000080  -0.019845   0.010554   0.004380  -0.009930
   52  O  7  Z    0.000162  -0.036103   0.021458   0.006416  -0.013255
   53  O  7  S    0.000359   0.447982  -0.532896  -0.038251   0.097758
   54  O  7  X   -0.000870   0.075836  -0.077843  -0.000574  -0.004806
   55  O  7  Y   -0.000716  -0.026966   0.010052   0.003946  -0.007589
   56  O  7  Z   -0.001085  -0.047045   0.021685   0.006865  -0.010891
   57  H  8  S   -0.001565   0.008486   0.007479   0.068190  -0.022905
   58  H  8  S    0.000646   0.002784   0.012173  -0.010048   0.002070
   59  H  9  S   -0.001236   0.003273   0.002477   0.070330  -0.018153
   60  H  9  S    0.001591   0.000042  -0.004602   0.000320  -0.003494
   61  H 10  S    0.000597   0.009357   0.001272   0.043880  -0.083780
   62  H 10  S    0.013993  -0.004219   0.004210   0.000691  -0.011711
   63  H 11  S    0.001163   0.008531   0.000431   0.048245  -0.081245
   64  H 11  S    0.014723  -0.003245  -0.003704   0.002669  -0.012383
   65  H 12  S   -0.000300   0.000920   0.000374   0.065032   0.094257
   66  H 12  S    0.001375  -0.001270  -0.002557   0.002859   0.029609
   67  H 13  S    0.000138   0.000849   0.000847   0.068151   0.086586
   68  H 13  S   -0.000955  -0.000284  -0.000199   0.006136   0.019069

                     11         12         13         14         15
                   -0.6521    -0.4920    -0.4778    -0.4326    -0.4046
                     A          A          A          A          A   
    1  C  1  S    0.070169  -0.006642  -0.001891   0.002187   0.004176
    2  C  1  S   -0.060795   0.006552   0.001549  -0.003617  -0.005997
    3  C  1  X   -0.091811   0.105559   0.064437   0.164658   0.096546
    4  C  1  Y   -0.081012  -0.053292  -0.107023  -0.181718   0.201488
    5  C  1  Z   -0.020645  -0.069134   0.191981  -0.147329   0.010077
    6  C  1  S   -0.276722   0.016136   0.006145  -0.000382   0.000107
    7  C  1  X   -0.032983   0.085901   0.051732   0.123364   0.079116
    8  C  1  Y   -0.043137  -0.037201  -0.086297  -0.152650   0.162811
    9  C  1  Z   -0.009577  -0.052029   0.148204  -0.120184   0.004355
   10  H  2  S   -0.075017  -0.040654   0.113707  -0.124103   0.051380
   11  H  2  S   -0.041267  -0.038612   0.104491  -0.117431   0.056910
   12  C  3  S   -0.141572   0.003619   0.006894   0.016685   0.010055
   13  C  3  S    0.119948  -0.001949  -0.005390  -0.013166  -0.009252
   14  C  3  X    0.009257   0.000615   0.021170   0.040441  -0.172755
   15  C  3  Y   -0.092192  -0.101902  -0.120755  -0.081567  -0.063626
   16  C  3  Z   -0.028676  -0.100791   0.199748  -0.058754  -0.029071
   17  C  3  S    0.533176   0.008590  -0.031286  -0.078590  -0.029613
   18  C  3  X    0.000433   0.022260   0.018808   0.017510  -0.145529
   19  C  3  Y   -0.028570  -0.070897  -0.086084  -0.061868  -0.048818
   20  C  3  Z   -0.012443  -0.084561   0.156540  -0.036759  -0.014806
   21  C  4  S    0.093414   0.027358  -0.002620  -0.026764  -0.005208
   22  C  4  S   -0.080695  -0.021755   0.002833   0.018779   0.005099
   23  C  4  X    0.085891  -0.163430  -0.057218  -0.049304  -0.017057
   24  C  4  Y   -0.071423  -0.103356  -0.074799   0.079609  -0.184664
   25  C  4  Z   -0.021953  -0.115625   0.133386   0.086911   0.043326
   26  C  4  S   -0.348491  -0.119872   0.010875   0.126742   0.005145
   27  C  4  X    0.010628  -0.086793  -0.033868  -0.045937  -0.027914
   28  C  4  Y   -0.027210  -0.075758  -0.055937   0.060022  -0.140921
   29  C  4  Z   -0.005208  -0.069865   0.100802   0.057439   0.025991
   30  C  5  S    0.036664  -0.115187  -0.021345   0.069587   0.046538
   31  C  5  S   -0.044638   0.138741   0.026826  -0.091354  -0.067625
   32  C  5  X   -0.060955   0.098803  -0.005252   0.018125   0.127525
   33  C  5  Y   -0.036474   0.038910  -0.023041   0.034646  -0.023802
   34  C  5  Z   -0.029982   0.053464   0.027657   0.042125   0.097528
   35  C  5  S   -0.076069   0.304890   0.054434  -0.170270  -0.094692
   36  C  5  X   -0.031325   0.136644   0.011076  -0.028470   0.051176
   37  C  5  Y   -0.022458   0.054132  -0.014697  -0.003675  -0.036224
   38  C  5  Z   -0.019839   0.068830   0.020909  -0.006531   0.070872
   39  O  6  S   -0.013742   0.068621   0.002900  -0.052681  -0.029845
   40  O  6  S    0.012933  -0.063189  -0.003125   0.047080   0.025441
   41  O  6  X   -0.003231   0.045892  -0.024674   0.037976   0.125018
   42  O  6  Y   -0.015262   0.068374  -0.010112  -0.070114  -0.089667
   43  O  6  Z   -0.011496   0.104582   0.023899  -0.112656  -0.039726
   44  O  6  S    0.050531  -0.275101  -0.012698   0.220841   0.135285
   45  O  6  X    0.003570   0.026711  -0.027378   0.045691   0.132432
   46  O  6  Y   -0.012995   0.063931  -0.010557  -0.070641  -0.092070
   47  O  6  Z   -0.010258   0.101612   0.025171  -0.115356  -0.041281
   48  O  7  S   -0.031230   0.059398   0.019900  -0.034555  -0.045177
   49  O  7  S    0.028414  -0.056333  -0.017611   0.031987   0.039245
   50  O  7  X   -0.027129   0.117761   0.036794  -0.063708  -0.080451
   51  O  7  Y   -0.011847   0.000180  -0.018833   0.041954   0.020654
   52  O  7  Z   -0.008940  -0.007376   0.003236   0.062879   0.137516
   53  O  7  S    0.117906  -0.229856  -0.081538   0.142049   0.193947
   54  O  7  X   -0.019647   0.111156   0.034673  -0.064551  -0.083580
   55  O  7  Y   -0.008705  -0.011458  -0.019805   0.049068   0.023452
   56  O  7  Z   -0.006038  -0.023233   0.001821   0.072740   0.144149
   57  H  8  S    0.110737   0.074242  -0.103793   0.035494   0.041511
   58  H  8  S    0.037509   0.026310  -0.072250   0.067271   0.070325
   59  H  9  S    0.122446   0.015746   0.134220   0.012143   0.015153
   60  H  9  S    0.056774   0.016680   0.117436   0.015281   0.015336
   61  H 10  S   -0.080574  -0.075035   0.091333   0.086063   0.033189
   62  H 10  S   -0.032948  -0.069628   0.074125   0.080562   0.047346
   63  H 11  S   -0.087308  -0.068472  -0.079810   0.044400  -0.129238
   64  H 11  S   -0.040655  -0.056888  -0.070856   0.036144  -0.127729
   65  H 12  S   -0.058981   0.093882   0.040273   0.196675  -0.036395
   66  H 12  S   -0.029796   0.083162   0.035574   0.200373  -0.037293
   67  H 13  S   -0.076407  -0.000666  -0.134005  -0.053801   0.113316
   68  H 13  S   -0.041564  -0.004099  -0.119974  -0.047330   0.113785

                     16         17         18         19         20
                   -0.3966    -0.3590    -0.3338    -0.3294    -0.2976
                     A          A          A          A          A   
    1  C  1  S    0.003295  -0.011337  -0.027541  -0.003402  -0.004059
    2  C  1  S   -0.004354   0.009614   0.021901   0.001626   0.004372
    3  C  1  X    0.063843  -0.169086  -0.185411  -0.062197   0.030692
    4  C  1  Y   -0.065882   0.025641  -0.164989   0.071889  -0.060815
    5  C  1  Z    0.225644   0.030329  -0.020506  -0.104526  -0.081815
    6  C  1  S   -0.005998   0.044886   0.137995   0.021286   0.017558
    7  C  1  X    0.048641  -0.148966  -0.172682  -0.061376   0.042747
    8  C  1  Y   -0.062551   0.023857  -0.157838   0.063478  -0.060760
    9  C  1  Z    0.197647   0.027723  -0.020337  -0.095715  -0.078866
   10  H  2  S    0.154410   0.024789  -0.044591  -0.073875  -0.080313
   11  H  2  S    0.159946   0.021790  -0.065023  -0.091571  -0.114905
   12  C  3  S    0.004859  -0.001736  -0.000458   0.008207  -0.013008
   13  C  3  S   -0.004542   0.001882   0.000505  -0.007317   0.013219
   14  C  3  X   -0.039100   0.172214   0.154670   0.095129  -0.123989
   15  C  3  Y   -0.006173  -0.035670   0.205696  -0.123847   0.157365
   16  C  3  Z   -0.058794  -0.034765   0.016905   0.166479   0.196786
   17  C  3  S   -0.019309   0.008802  -0.032295  -0.050729   0.035725
   18  C  3  X   -0.041434   0.122531   0.085859   0.074218  -0.115144
   19  C  3  Y   -0.003640  -0.013780   0.165877  -0.119600   0.166383
   20  C  3  Z   -0.053752  -0.012257   0.015857   0.167556   0.218426
   21  C  4  S   -0.001791   0.026277   0.002570   0.011758  -0.016963
   22  C  4  S    0.000392  -0.018232   0.001681  -0.010072   0.015784
   23  C  4  X    0.005523  -0.157981  -0.043656  -0.089882   0.135243
   24  C  4  Y    0.065368   0.048816  -0.093827   0.049802  -0.166586
   25  C  4  Z   -0.194283   0.025297   0.023853  -0.018650  -0.134589
   26  C  4  S    0.000507  -0.125975  -0.038363  -0.052657   0.047365
   27  C  4  X    0.000125  -0.159649  -0.035758  -0.061368   0.076378
   28  C  4  Y    0.058291   0.053425  -0.077503   0.029928  -0.139136
   29  C  4  Z   -0.171783   0.044167   0.008528  -0.046977  -0.114904
   30  C  5  S    0.030736  -0.002892  -0.004686   0.001327   0.001733
   31  C  5  S   -0.047090  -0.006545  -0.005131  -0.010222  -0.004764
   32  C  5  X    0.115516  -0.030614   0.181888   0.159403  -0.033219
   33  C  5  Y    0.082010   0.166997  -0.089579   0.072956   0.134485
   34  C  5  Z   -0.024117   0.192742   0.012819  -0.144396   0.080357
   35  C  5  S   -0.057574   0.032205   0.041891   0.018604  -0.003158
   36  C  5  X    0.044961   0.071706   0.104971   0.058107   0.000253
   37  C  5  Y    0.073680   0.081251  -0.047871   0.133857   0.097219
   38  C  5  Z   -0.013933   0.057194   0.091000  -0.058933  -0.005558
   39  O  6  S   -0.011014  -0.057186   0.010536   0.014891  -0.031606
   40  O  6  S    0.009282   0.047809  -0.011177  -0.014412   0.026439
   41  O  6  X    0.104458   0.074729   0.091419   0.043724   0.016886
   42  O  6  Y    0.032803  -0.090685  -0.004410   0.161954  -0.017318
   43  O  6  Z   -0.055945  -0.193198   0.113821   0.027913  -0.167777
   44  O  6  S    0.053844   0.248944  -0.033993  -0.054316   0.143106
   45  O  6  X    0.111554   0.068330   0.096206   0.048991   0.015046
   46  O  6  Y    0.033789  -0.097862   0.000472   0.176002  -0.020903
   47  O  6  Z   -0.058934  -0.206588   0.126175   0.036233  -0.185904
   48  O  7  S   -0.042177   0.035483  -0.034733  -0.037410   0.012651
   49  O  7  S    0.036273  -0.032820   0.027897   0.031813  -0.010127
   50  O  7  X   -0.092402   0.196047  -0.098895  -0.142682   0.102678
   51  O  7  Y    0.094988   0.077747   0.006273   0.161409   0.066392
   52  O  7  Z    0.051692   0.053099   0.167377   0.038132  -0.034144
   53  O  7  S    0.181450  -0.135674   0.157543   0.161029  -0.058052
   54  O  7  X   -0.096596   0.213062  -0.109585  -0.159856   0.114636
   55  O  7  Y    0.098743   0.081922   0.003433   0.171789   0.071889
   56  O  7  Z    0.054004   0.055523   0.175103   0.039950  -0.035756
   57  H  8  S    0.044954   0.021032  -0.059653  -0.104679  -0.155046
   58  H  8  S    0.056428   0.074080  -0.049088  -0.090881  -0.127825
   59  H  9  S   -0.025304   0.012398  -0.127315   0.151450  -0.007515
   60  H  9  S   -0.025738   0.015660  -0.146461   0.165578  -0.019900
   61  H 10  S   -0.132866   0.017056   0.021671  -0.012707  -0.118982
   62  H 10  S   -0.112102   0.020482   0.038429   0.004802  -0.150945
   63  H 11  S    0.090531  -0.005441  -0.084532   0.028495  -0.065006
   64  H 11  S    0.083907   0.003910  -0.105223   0.046627  -0.085095
   65  H 12  S    0.014030  -0.117418  -0.011341  -0.048357   0.079765
   66  H 12  S    0.017477  -0.136862  -0.024840  -0.059259   0.096210
   67  H 13  S   -0.139760   0.016521  -0.079899   0.105711  -0.002422
   68  H 13  S   -0.136952   0.012974  -0.110804   0.127244  -0.008341

                     21         22         23         24         25
                   -0.2871    -0.1666    -0.1485    -0.1404     0.4032
                     A          A          A          A          A   
    1  C  1  S   -0.002493  -0.005702  -0.014526   0.004134  -0.129864
    2  C  1  S    0.004578   0.001526   0.011571   0.001293   0.026800
    3  C  1  X   -0.003807  -0.026110  -0.055894   0.011071   0.105806
    4  C  1  Y   -0.015943  -0.013602  -0.010832   0.006838   0.061059
    5  C  1  Z    0.039433  -0.015690   0.004085   0.001195   0.014124
    6  C  1  S   -0.003218   0.060890   0.062314  -0.056887   1.827026
    7  C  1  X    0.012195  -0.043536  -0.057545   0.033273   0.499644
    8  C  1  Y   -0.014028  -0.029408   0.001389   0.021320   0.315214
    9  C  1  Z    0.035048  -0.016839   0.000403   0.006730   0.059821
   10  H  2  S    0.036200  -0.016799   0.009298   0.001959  -0.000066
   11  H  2  S    0.053424  -0.028702   0.000404   0.002616  -0.917643
   12  C  3  S   -0.008870   0.018884   0.007768  -0.000292  -0.055048
   13  C  3  S    0.006587  -0.008642   0.003330   0.006551   0.009783
   14  C  3  X   -0.029592   0.044314   0.060379  -0.008498  -0.011992
   15  C  3  Y    0.071377   0.002229  -0.020297  -0.014844  -0.061867
   16  C  3  Z   -0.126413   0.050857  -0.023623  -0.000133   0.013227
   17  C  3  S    0.051525  -0.166485  -0.080866  -0.023094   0.827300
   18  C  3  X   -0.008837   0.000641   0.133731   0.062123  -0.178883
   19  C  3  Y    0.085075  -0.012431  -0.033662   0.015543  -0.301581
   20  C  3  Z   -0.135248   0.086856  -0.025530   0.007919   0.056903
   21  C  4  S   -0.002079   0.005413  -0.047328   0.002577  -0.041563
   22  C  4  S    0.001818  -0.002455   0.022368  -0.005346   0.016758
   23  C  4  X   -0.004392   0.002922  -0.209973   0.011824  -0.006626
   24  C  4  Y   -0.121374   0.030055  -0.098159   0.011623   0.072734
   25  C  4  Z    0.161094   0.043121  -0.100181   0.002943   0.023083
   26  C  4  S    0.007793  -0.043493   0.412902  -0.004238   0.489189
   27  C  4  X   -0.003916   0.047708  -0.259919   0.034848  -0.203066
   28  C  4  Y   -0.129923   0.036707  -0.192096  -0.022811   0.399972
   29  C  4  Z    0.172053   0.035200  -0.150611  -0.044726   0.067114
   30  C  5  S   -0.000129  -0.002750   0.001667   0.000572   0.017287
   31  C  5  S    0.003329   0.002800  -0.010203   0.001292   0.001489
   32  C  5  X   -0.023683  -0.046722   0.116723  -0.007960  -0.036802
   33  C  5  Y    0.130772   0.019798   0.056741  -0.009620   0.038029
   34  C  5  Z   -0.136521   0.035722   0.078509  -0.001338  -0.049261
   35  C  5  S   -0.008510   0.014829   0.019505  -0.018478  -0.196621
   36  C  5  X   -0.020267   0.119395  -0.099559  -0.009905  -0.033814
   37  C  5  Y    0.183267  -0.050642  -0.064999  -0.002040   0.009206
   38  C  5  Z   -0.156469  -0.083783  -0.086333   0.011490  -0.103568
   39  O  6  S    0.010331   0.002027  -0.000201  -0.000149  -0.007800
   40  O  6  S   -0.007829   0.006225   0.012553  -0.001207   0.005906
   41  O  6  X   -0.020166   0.400938  -0.189107  -0.010291   0.022111
   42  O  6  Y    0.193298   0.019824  -0.095366   0.297566  -0.013315
   43  O  6  Z   -0.080033  -0.009614  -0.160137  -0.184691   0.036447
   44  O  6  S   -0.051530  -0.067347  -0.064059   0.009077   0.042667
   45  O  6  X   -0.021456   0.478989  -0.216830  -0.014259   0.044870
   46  O  6  Y    0.210280   0.010388  -0.135274   0.399621  -0.018437
   47  O  6  Z   -0.087218  -0.033573  -0.227961  -0.244077   0.067745
   48  O  7  S    0.000271  -0.001435   0.000404   0.000022  -0.004486
   49  O  7  S   -0.001101  -0.009731   0.007573   0.000021  -0.000272
   50  O  7  X   -0.029355  -0.046575  -0.255270   0.031332   0.015540
   51  O  7  Y    0.147915  -0.180923  -0.156809  -0.280851  -0.038488
   52  O  7  Z   -0.132125  -0.261672  -0.176099   0.205326   0.024328
   53  O  7  S    0.003652   0.080152  -0.041045  -0.001693   0.057880
   54  O  7  X   -0.029975  -0.025989  -0.329704   0.041184   0.044683
   55  O  7  Y    0.157597  -0.225540  -0.182918  -0.375487  -0.060290
   56  O  7  Z   -0.143118  -0.328150  -0.195373   0.272673   0.034342
   57  H  8  S    0.088797  -0.030492  -0.006603   0.006281   0.006806
   58  H  8  S    0.082135   0.090352  -0.048476   0.022948  -0.299649
   59  H  9  S   -0.105873   0.009113  -0.001738   0.014348   0.012577
   60  H  9  S   -0.132944   0.018555  -0.006538   0.018797  -0.558710
   61  H 10  S    0.133741   0.031026  -0.021739  -0.001474   0.017077
   62  H 10  S    0.142229   0.025517  -0.086235   0.053538  -0.309372
   63  H 11  S   -0.144665   0.008669  -0.032550   0.007166   0.013305
   64  H 11  S   -0.166528   0.010909  -0.057076   0.009339  -0.502507
   65  H 12  S   -0.001133  -0.002091  -0.029139   0.001934  -0.006656
   66  H 12  S   -0.006753  -0.007138  -0.055765   0.002988  -0.926764
   67  H 13  S   -0.034810   0.004818   0.004201   0.003034   0.006436
   68  H 13  S   -0.059151   0.009971  -0.011062   0.006713  -0.884313

                     26         27         28         29         30
                    0.4356     0.4582     0.4582     0.4714     0.4987
                     A          A          A          A          A   
    1  C  1  S   -0.042574   0.003539   0.060514   0.070111   0.008082
    2  C  1  S    0.007657  -0.008763  -0.009451  -0.017539  -0.007351
    3  C  1  X    0.017902  -0.132074  -0.020888   0.015623   0.062420
    4  C  1  Y   -0.086736   0.216182  -0.045905  -0.032549  -0.048906
    5  C  1  Z    0.079002   0.052732   0.186322  -0.162770   0.100589
    6  C  1  S    0.582111   0.008503  -0.855579  -0.952544  -0.120277
    7  C  1  X    0.000087  -0.710550  -0.014926   0.137946   0.374064
    8  C  1  Y   -0.323998   1.065255  -0.109774  -0.029420  -0.419670
    9  C  1  Z    0.388881   0.263851   0.821235  -0.814325   0.553438
   10  H  2  S   -0.002940  -0.017002  -0.044943   0.035599  -0.011508
   11  H  2  S   -0.559261  -0.541578  -0.683794   1.338726  -0.512130
   12  C  3  S    0.005594   0.011306  -0.054980  -0.049312   0.073689
   13  C  3  S   -0.001833   0.004987   0.008286   0.007224  -0.014266
   14  C  3  X   -0.003229   0.008427   0.014123   0.068092   0.056975
   15  C  3  Y   -0.079648   0.023163  -0.065860  -0.087272   0.102444
   16  C  3  Z    0.007764   0.013476   0.115813   0.034872  -0.045356
   17  C  3  S   -0.028232  -0.179900   0.760829   0.722661  -1.027510
   18  C  3  X   -0.134085   0.092245   0.190268   0.295404   0.362715
   19  C  3  Y   -0.254493  -0.187795  -0.327192  -0.469901   0.523867
   20  C  3  Z   -0.141233  -0.078823   0.436220   0.195004  -0.303646
   21  C  4  S    0.012256  -0.018923  -0.011140  -0.082205  -0.106383
   22  C  4  S   -0.000001  -0.018460   0.001010   0.019126   0.018076
   23  C  4  X    0.002180  -0.035096  -0.028226   0.021227   0.050530
   24  C  4  Y   -0.090461   0.060245  -0.010384   0.048118   0.123823
   25  C  4  Z    0.080560   0.065994   0.063536   0.083019   0.014376
   26  C  4  S   -0.199142   0.503257   0.220788   1.125350   1.478510
   27  C  4  X   -0.025171   0.093321  -0.072658   0.130690   0.186755
   28  C  4  Y   -0.500482   0.217331   0.090803   0.292161   0.398272
   29  C  4  Z    0.492870   0.379993   0.127762   0.425949   0.056327
   30  C  5  S    0.003664  -0.019417  -0.004825  -0.002279   0.004468
   31  C  5  S   -0.012230   0.008774   0.013191   0.018305   0.019439
   32  C  5  X   -0.004181   0.042227   0.007551   0.015712  -0.000412
   33  C  5  Y   -0.240722  -0.053575   0.128947  -0.046775  -0.072065
   34  C  5  Z    0.146747   0.076185  -0.070675   0.048998   0.048759
   35  C  5  S    0.019159   0.224884   0.006634   0.001259  -0.115730
   36  C  5  X    0.020147   0.103472  -0.015533   0.100739   0.012885
   37  C  5  Y   -0.325628  -0.074809   0.225790  -0.057985  -0.184321
   38  C  5  Z    0.195682   0.150923  -0.132333   0.083675   0.085317
   39  O  6  S    0.000492   0.001095   0.001031  -0.011741  -0.001068
   40  O  6  S    0.000335  -0.001260  -0.002106   0.010467  -0.000226
   41  O  6  X   -0.006482  -0.012056  -0.006096   0.025775  -0.012619
   42  O  6  Y    0.150731   0.050957  -0.073656   0.044880   0.049183
   43  O  6  Z   -0.096628  -0.035529   0.056996  -0.008633  -0.012581
   44  O  6  S   -0.010449  -0.008584   0.000805   0.068621   0.012517
   45  O  6  X   -0.004804  -0.027569  -0.009444   0.019563  -0.024671
   46  O  6  Y    0.242832   0.078729  -0.125356   0.077497   0.095432
   47  O  6  Z   -0.162391  -0.063852   0.100338  -0.003347  -0.023314
   48  O  7  S   -0.000899   0.003798   0.001929  -0.006074  -0.006518
   49  O  7  S    0.001448  -0.001321  -0.001522   0.002646   0.003482
   50  O  7  X   -0.002284  -0.029706  -0.008583  -0.000577   0.009453
   51  O  7  Y    0.147336   0.041888  -0.081985   0.027110   0.054948
   52  O  7  Z   -0.084229  -0.026973   0.054790  -0.013381  -0.021752
   53  O  7  S    0.004038  -0.034733  -0.014297   0.059652   0.059625
   54  O  7  X   -0.006389  -0.060758  -0.012245   0.009573   0.031796
   55  O  7  Y    0.246591   0.069868  -0.142703   0.035794   0.089510
   56  O  7  Z   -0.143148  -0.055833   0.092998  -0.047320  -0.054784
   57  H  8  S    0.009049   0.021750   0.049573  -0.026445   0.014433
   58  H  8  S   -0.089449   0.115554   0.315243  -0.196573   0.346830
   59  H  9  S   -0.038623   0.011643  -0.043202  -0.006034   0.004926
   60  H  9  S   -0.357864   0.071596  -1.052560  -0.815161   1.065120
   61  H 10  S   -0.038834  -0.036701   0.013131  -0.039371   0.013598
   62  H 10  S   -0.531720  -0.622247  -0.296483  -0.986170  -0.608574
   63  H 11  S    0.085025   0.002595  -0.045128   0.022196  -0.011320
   64  H 11  S    0.976462  -0.247195  -0.101339  -0.494231  -1.128898
   65  H 12  S    0.001856   0.048329   0.000368  -0.037545  -0.042189
   66  H 12  S   -0.365686   1.505429   0.542471  -0.133888  -0.399210
   67  H 13  S    0.007411  -0.032894   0.040519  -0.006068   0.039719
   68  H 13  S    0.390144  -0.916244   1.135241  -0.049649   0.798690

                     31         32         33         34         35
                    0.5281     0.5610     0.5830     0.6061     0.6622
                     A          A          A          A          A   
    1  C  1  S   -0.049294   0.030047   0.069781   0.002275  -0.013248
    2  C  1  S    0.007468  -0.007527  -0.005478  -0.016705  -0.025917
    3  C  1  X    0.028994   0.112802   0.107700   0.120981   0.075980
    4  C  1  Y   -0.012191   0.062033   0.060933   0.037945  -0.108875
    5  C  1  Z   -0.062341  -0.004764   0.015689   0.011158  -0.036568
    6  C  1  S    0.672787  -0.428342  -1.046638   0.028402   0.476918
    7  C  1  X   -0.033160   0.697904   1.236963   0.308321  -0.209060
    8  C  1  Y   -0.155604   0.498262   0.452543   0.493453  -0.561739
    9  C  1  Z   -0.558298  -0.191926   0.164894   0.265887   0.017986
   10  H  2  S    0.008848  -0.052324  -0.029554  -0.016353  -0.049500
   11  H  2  S    0.267019   0.009629  -0.059637  -0.356627   0.076909
   12  C  3  S    0.099778  -0.033143  -0.113729   0.038460  -0.035123
   13  C  3  S   -0.021291   0.001459   0.012006   0.003242   0.014251
   14  C  3  X   -0.050423   0.127001   0.104984   0.184108  -0.132539
   15  C  3  Y    0.039749   0.010223   0.222669  -0.050336   0.029966
   16  C  3  Z    0.163657   0.168699  -0.010551  -0.111100  -0.063352
   17  C  3  S   -1.451823   0.441184   1.672923  -0.657167   0.503610
   18  C  3  X   -0.110309   0.762791   0.447953   1.280282  -1.193373
   19  C  3  Y    0.245801   0.069269   1.417640  -0.514507   0.082748
   20  C  3  Z    0.847035   1.039825  -0.063121  -0.661025  -0.235995
   21  C  4  S   -0.003187   0.047687   0.051008  -0.011587   0.118033
   22  C  4  S   -0.003135  -0.022768  -0.001603  -0.014367  -0.037658
   23  C  4  X    0.000143   0.056598  -0.098476   0.217329   0.059053
   24  C  4  Y   -0.056745   0.090209  -0.018991  -0.134986   0.182751
   25  C  4  Z    0.118728  -0.151147   0.151283   0.063441   0.105944
   26  C  4  S    0.063325  -0.547883  -0.746728   0.369502  -1.540618
   27  C  4  X   -0.035786   0.325364  -0.867460   1.464420   0.396304
   28  C  4  Y   -0.276321   0.226949  -0.293425  -0.755275   1.177279
   29  C  4  Z    0.477804  -0.829133   0.614003   0.268767   0.837945
   30  C  5  S   -0.018721  -0.043978  -0.004519  -0.071944  -0.134665
   31  C  5  S   -0.002039   0.024461   0.011317   0.025342   0.011711
   32  C  5  X   -0.000278   0.092641   0.003656   0.131216   0.188931
   33  C  5  Y    0.089149  -0.136032   0.008927   0.137872   0.109445
   34  C  5  Z   -0.054338   0.140531   0.027994  -0.003701   0.123399
   35  C  5  S    0.231348   0.399000  -0.108022   0.901566   1.819386
   36  C  5  X   -0.040714   0.049600  -0.108766   0.414195   0.711038
   37  C  5  Y    0.196955  -0.230598   0.074725   0.430293   0.193191
   38  C  5  Z   -0.147660   0.320050  -0.031822   0.067746   0.320410
   39  O  6  S    0.025361   0.019123  -0.015768   0.009397   0.029800
   40  O  6  S   -0.018323  -0.016622   0.013532  -0.001619  -0.012891
   41  O  6  X   -0.056662  -0.041923   0.047695   0.001757  -0.028355
   42  O  6  Y   -0.050118   0.038663   0.003435  -0.100377  -0.038985
   43  O  6  Z    0.032612  -0.074990   0.036809  -0.028656  -0.096803
   44  O  6  S   -0.172554  -0.110012   0.105348  -0.098241  -0.314279
   45  O  6  X   -0.089371  -0.078749   0.076481  -0.040025  -0.075595
   46  O  6  Y   -0.118085   0.077936   0.015540  -0.201685  -0.139157
   47  O  6  Z    0.022960  -0.160835   0.079852  -0.070915  -0.253651
   48  O  7  S    0.009213   0.013470   0.013664  -0.001942   0.033631
   49  O  7  S   -0.001749  -0.005953  -0.011889   0.007837  -0.025660
   50  O  7  X   -0.019012  -0.041664  -0.052661  -0.008898  -0.132163
   51  O  7  Y   -0.041445   0.089462  -0.025334  -0.030471  -0.013710
   52  O  7  Z    0.064545  -0.063114  -0.007301   0.042802   0.004109
   53  O  7  S   -0.094149  -0.140069  -0.095502  -0.024711  -0.254066
   54  O  7  X   -0.056491  -0.106044  -0.086393  -0.060935  -0.315494
   55  O  7  Y   -0.074711   0.162432  -0.035159  -0.100093  -0.017030
   56  O  7  Z    0.118728  -0.095461   0.008964   0.052317  -0.007605
   57  H  8  S    0.064944   0.042942   0.021549  -0.028109   0.068984
   58  H  8  S    1.630563   1.003794  -0.145694  -0.439110  -0.466608
   59  H  9  S   -0.030751   0.005789   0.041274  -0.028385   0.010176
   60  H  9  S    0.168622  -0.706779   0.651208   0.141473   0.112120
   61  H 10  S   -0.040830  -0.033819  -0.001539   0.021698  -0.061383
   62  H 10  S   -0.711667   1.120544  -0.618208  -0.077662  -0.180742
   63  H 11  S    0.004738   0.018230  -0.020979  -0.025701  -0.078408
   64  H 11  S    0.503519  -0.365313   0.802483   0.572832  -0.345909
   65  H 12  S    0.013832  -0.014269  -0.027500  -0.024274   0.101452
   66  H 12  S   -0.490124  -0.194927  -0.192382  -0.114945  -0.344577
   67  H 13  S   -0.009197  -0.014304  -0.077566  -0.034632  -0.008109
   68  H 13  S   -0.458946  -0.300479  -0.031923  -0.265896   0.359511

                     36         37         38         39         40
                    0.8031     0.8988     1.0505     1.0780     1.1267
                     A          A          A          A          A   
    1  C  1  S   -0.003873  -0.014581   0.000516  -0.007905  -0.020319
    2  C  1  S   -0.005723  -0.005076  -0.007147   0.051368   0.021193
    3  C  1  X    0.058599   0.148964  -0.103457  -0.420339  -0.452549
    4  C  1  Y   -0.023269   0.035218   0.128237   0.338101  -0.550314
    5  C  1  Z   -0.018396   0.050472  -0.466004   0.142764   0.165006
    6  C  1  S    0.106233   0.214168   0.014100  -0.146106   0.296435
    7  C  1  X   -0.009460  -0.427795   0.210123   0.674151   0.524992
    8  C  1  Y   -0.032534  -0.092408  -0.165282  -0.635785   0.824796
    9  C  1  Z   -0.008027  -0.068240   0.752744  -0.295670  -0.316627
   10  H  2  S   -0.041185   0.073487  -0.479736   0.230568  -0.009391
   11  H  2  S    0.001529  -0.043406   0.049548   0.002119  -0.072805
   12  C  3  S    0.004593   0.025342  -0.002341  -0.010705   0.021651
   13  C  3  S   -0.007908   0.033888  -0.008799  -0.011154  -0.085050
   14  C  3  X   -0.023490  -0.217313   0.075081  -0.197204   0.263495
   15  C  3  Y   -0.000806  -0.039367   0.128912   0.089938   0.119611
   16  C  3  Z    0.015771  -0.016012  -0.304777   0.036787  -0.011186
   17  C  3  S   -0.057648  -0.905964   0.117899   0.470576   0.360645
   18  C  3  X   -0.124793   0.348493   0.018498  -0.035261  -0.238726
   19  C  3  Y    0.074168  -0.479625  -0.144079   0.260702  -0.263741
   20  C  3  Z    0.075060  -0.076495   0.312148   0.139687   0.065685
   21  C  4  S    0.034508  -0.017080  -0.009181   0.044308  -0.001729
   22  C  4  S    0.003687  -0.010284   0.018467  -0.022775   0.025719
   23  C  4  X   -0.078490   0.116417  -0.048283   0.530776   0.104418
   24  C  4  Y   -0.022826  -0.015528   0.008621   0.167632   0.146031
   25  C  4  Z   -0.025663  -0.079386  -0.155438   0.163187  -0.181667
   26  C  4  S   -0.772904   0.393580  -0.028456  -0.407426  -0.192073
   27  C  4  X    0.349831   0.654913   0.019682  -0.661971   0.058754
   28  C  4  Y    0.244674  -0.420443  -0.083731  -0.114848  -0.072108
   29  C  4  Z    0.282996  -0.487556   0.203509   0.000594   0.291650
   30  C  5  S    0.081258   0.000603   0.005636  -0.020050  -0.000403
   31  C  5  S    0.059227   0.009029  -0.040834   0.076159  -0.044397
   32  C  5  X    0.236082  -0.097151  -0.103810   0.200890  -0.125852
   33  C  5  Y    0.112802   0.119967   0.072696   0.062101   0.425743
   34  C  5  Z    0.152192   0.130889  -0.092565   0.108115  -0.222958
   35  C  5  S   -1.092699  -0.006922   0.083057  -0.279757   0.155230
   36  C  5  X    1.221378  -1.369927   0.060888   0.119837   0.071266
   37  C  5  Y    0.483288   0.999357  -0.015112  -0.061134  -0.168162
   38  C  5  Z    0.613567   1.596506   0.032800  -0.160437   0.400374
   39  O  6  S   -0.082813  -0.095462  -0.004821   0.001798  -0.009811
   40  O  6  S    0.049164   0.019207   0.012232  -0.004030   0.003703
   41  O  6  X   -0.183494   0.071260   0.022850  -0.049931  -0.025617
   42  O  6  Y    0.072540   0.063427   0.012586  -0.008966   0.031394
   43  O  6  Z    0.122109   0.106363   0.007117  -0.008753   0.011390
   44  O  6  S    0.798286   1.337943   0.003617  -0.035513   0.118760
   45  O  6  X   -0.457990   0.087622   0.021882  -0.048595  -0.029107
   46  O  6  Y    0.236242   0.348899  -0.001873  -0.007304   0.074201
   47  O  6  Z    0.395542   0.537939   0.000459   0.004920   0.033088
   48  O  7  S   -0.089660   0.092951   0.003482  -0.008855   0.012483
   49  O  7  S    0.048063  -0.016302  -0.003477  -0.010262  -0.011093
   50  O  7  X    0.079466  -0.131394  -0.006530  -0.029856  -0.033278
   51  O  7  Y   -0.109728  -0.028184  -0.002247  -0.035988  -0.008834
   52  O  7  Z   -0.170569  -0.039284   0.009401  -0.044642  -0.008916
   53  O  7  S    0.917079  -1.328430  -0.013953   0.177099  -0.109714
   54  O  7  X    0.338259  -0.622125  -0.026203   0.071185  -0.099556
   55  O  7  Y   -0.304001   0.016342   0.003999  -0.042589   0.032703
   56  O  7  Z   -0.483364   0.079034   0.008494  -0.057681  -0.023313
   57  H  8  S    0.059112   0.002383   0.332839  -0.055782  -0.041102
   58  H  8  S    0.130129   0.143257  -0.148504   0.053168   0.047484
   59  H  9  S    0.010423   0.008413  -0.413959  -0.140751  -0.107733
   60  H  9  S    0.027588  -0.109660   0.140351   0.085305  -0.011660
   61  H 10  S   -0.029149  -0.154476  -0.228769   0.056938  -0.189323
   62  H 10  S    0.035035   0.371095   0.038329   0.018935   0.057039
   63  H 11  S   -0.011552   0.017043   0.178601   0.201661   0.242247
   64  H 11  S    0.080872  -0.041092  -0.003637   0.122794  -0.117196
   65  H 12  S    0.053983   0.031141  -0.035193  -0.506648  -0.061732
   66  H 12  S   -0.114070   0.008746  -0.001050   0.028183  -0.032907
   67  H 13  S   -0.020458   0.027814   0.407470   0.246198  -0.372833
   68  H 13  S   -0.003741  -0.028674  -0.081370  -0.023012  -0.105694

                     41         42         43         44         45
                    1.1682     1.1906     1.2531     1.2629     1.2900
                     A          A          A          A          A   
    1  C  1  S   -0.039396  -0.010721   0.020099  -0.025979   0.006132
    2  C  1  S    0.111468  -0.045226  -0.023403   0.032599  -0.041634
    3  C  1  X   -0.545457  -0.019601   0.063556  -0.017311   0.055240
    4  C  1  Y   -0.353448  -0.180111   0.176059  -0.187305  -0.000401
    5  C  1  Z   -0.312827  -0.177980  -0.394964  -0.245857   0.083437
    6  C  1  S   -0.047194   0.391772   0.093203  -0.209773   0.178723
    7  C  1  X    0.694736  -0.057229  -0.209666   0.111905  -0.098609
    8  C  1  Y    0.491312   0.329072  -0.394283   0.554800   0.028731
    9  C  1  Z    0.536466   0.418560   0.793159   0.500628  -0.184474
   10  H  2  S   -0.293368  -0.113813  -0.045149  -0.173419   0.051829
   11  H  2  S   -0.132976  -0.187428  -0.164458  -0.179108   0.030104
   12  C  3  S    0.055665  -0.007348  -0.000204  -0.014034  -0.029727
   13  C  3  S   -0.125528  -0.039688   0.016875   0.081533   0.088423
   14  C  3  X   -0.102062  -0.198798   0.367881  -0.694235   0.053116
   15  C  3  Y   -0.347207   0.599193  -0.101449   0.140580   0.236147
   16  C  3  Z   -0.044709   0.345445   0.363076   0.222584   0.034085
   17  C  3  S    0.160048   0.537456  -0.007718  -0.422727  -0.362085
   18  C  3  X    0.299727   0.002743  -0.546509   1.317354   0.033387
   19  C  3  Y    0.481093  -1.093267   0.227047  -0.367800  -0.517485
   20  C  3  Z   -0.008592  -0.704002  -0.656759  -0.368061  -0.068071
   21  C  4  S   -0.014878   0.003322   0.003252   0.035246   0.029634
   22  C  4  S    0.055364  -0.020311  -0.014049  -0.143820  -0.057262
   23  C  4  X    0.189526   0.094098   0.222535  -0.407946  -0.356563
   24  C  4  Y   -0.058837  -0.498676  -0.057154   0.306572   0.374024
   25  C  4  Z    0.182068  -0.208408   0.254933   0.225024   0.050104
   26  C  4  S    0.003419   0.242313  -0.010969   0.826112  -0.125860
   27  C  4  X   -0.052823   0.089208  -0.361534   0.657546   0.696530
   28  C  4  Y   -0.146914   1.099585   0.167702  -0.861770  -0.597236
   29  C  4  Z   -0.391495   0.475057  -0.471854  -0.695375  -0.048866
   30  C  5  S   -0.004023  -0.000250   0.018748  -0.002697  -0.014208
   31  C  5  S    0.019996  -0.062510  -0.125636   0.100653   0.053265
   32  C  5  X   -0.010904  -0.147900  -0.101389   0.320432  -0.585440
   33  C  5  Y   -0.326447  -0.114693   0.684725   0.220081   0.040309
   34  C  5  Z    0.408018   0.063249   0.112193  -0.227748   0.719311
   35  C  5  S   -0.136129   0.396267  -0.180357  -0.278340   0.204809
   36  C  5  X   -0.278049   0.438911  -0.311117  -0.579259   0.391998
   37  C  5  Y    0.466364  -0.022882  -0.690032  -0.223255   0.402350
   38  C  5  Z   -0.088117  -0.034612   0.198703   0.262877  -0.356635
   39  O  6  S   -0.017690   0.004576  -0.017520   0.000490  -0.026316
   40  O  6  S    0.009879   0.001901   0.002364  -0.008867   0.031221
   41  O  6  X   -0.011122  -0.018392  -0.073055   0.042697  -0.039727
   42  O  6  Y   -0.010341   0.045340   0.082728  -0.027814   0.042760
   43  O  6  Z    0.044980  -0.004749   0.060421  -0.038060   0.111983
   44  O  6  S    0.196248  -0.121909   0.073009   0.122139   0.035307
   45  O  6  X    0.010059  -0.030854   0.009149   0.063665  -0.092196
   46  O  6  Y    0.023890  -0.021421   0.192995   0.042034   0.040486
   47  O  6  Z    0.143577  -0.041702   0.114336  -0.016397   0.204742
   48  O  7  S    0.017649   0.001599   0.021287  -0.009388   0.027806
   49  O  7  S   -0.015997  -0.014569  -0.026329   0.032241  -0.021626
   50  O  7  X   -0.037313  -0.044371  -0.047772   0.095279  -0.127274
   51  O  7  Y   -0.007845  -0.018593   0.033224   0.054868   0.030126
   52  O  7  Z    0.006724  -0.004710  -0.013232  -0.000422   0.108975
   53  O  7  S   -0.185885   0.107136  -0.152808  -0.150848  -0.018660
   54  O  7  X   -0.099481  -0.019740  -0.101612   0.063923  -0.245032
   55  O  7  Y   -0.035182   0.002931   0.126529   0.039343  -0.008016
   56  O  7  Z    0.064182  -0.015659   0.030104  -0.013511   0.139451
   57  H  8  S    0.103430  -0.342284  -0.134408  -0.049742  -0.086496
   58  H  8  S    0.091736  -0.215834  -0.140577  -0.068850  -0.135991
   59  H  9  S    0.231720  -0.168187   0.172295  -0.015901  -0.212445
   60  H  9  S    0.101993  -0.137839   0.084602  -0.061689  -0.053931
   61  H 10  S    0.212031  -0.040011   0.268944   0.269154   0.194023
   62  H 10  S    0.019350  -0.195889  -0.000085   0.176877   0.059623
   63  H 11  S   -0.146033  -0.359776  -0.104223   0.190455   0.193452
   64  H 11  S    0.082345  -0.144760   0.010025   0.118807   0.103685
   65  H 12  S    0.036392  -0.201823   0.162675  -0.079992  -0.082798
   66  H 12  S   -0.110810   0.169154   0.016991   0.128395   0.045234
   67  H 13  S   -0.091859  -0.001543   0.164674  -0.099899  -0.010249
   68  H 13  S   -0.068027  -0.072983   0.227761  -0.077056  -0.059150

                     46         47         48         49         50
                    1.3010     1.3358     1.4084     1.4418     1.4783
                     A          A          A          A          A   
    1  C  1  S   -0.026728   0.036494   0.044025   0.026042   0.007637
    2  C  1  S    0.012197  -0.023819  -0.015387  -0.035738   0.008433
    3  C  1  X   -0.183290   0.084420  -0.140927  -0.235320   0.348869
    4  C  1  Y    0.282656  -0.157710  -0.174939   0.212226  -0.564232
    5  C  1  Z   -0.005180  -0.241337   0.254282  -0.393392  -0.362681
    6  C  1  S   -0.071188   0.110321  -0.194558  -0.046197  -0.129350
    7  C  1  X    0.625396  -0.458574   0.049817   0.347783  -0.297939
    8  C  1  Y   -0.546259   0.245533   0.257339  -0.453830   0.568432
    9  C  1  Z    0.045251   0.463248  -0.505955   0.611920   0.340418
   10  H  2  S   -0.103305   0.184269   0.127396   0.557927   0.624800
   11  H  2  S    0.008169  -0.250325   0.253480  -0.705101  -0.808234
   12  C  3  S    0.005409  -0.004620   0.026328   0.016763   0.012165
   13  C  3  S   -0.076247   0.086946   0.035627   0.040116  -0.024231
   14  C  3  X   -0.175426   0.260378  -0.132349  -0.030172   0.048070
   15  C  3  Y   -0.368541   0.272030   0.368055  -0.037620  -0.144993
   16  C  3  Z    0.092784   0.286714  -0.285063   0.358281  -0.104292
   17  C  3  S    0.178860  -0.374014   0.045282   0.067100   0.054283
   18  C  3  X    0.062581  -0.118392   0.347912  -0.009672  -0.026330
   19  C  3  Y    0.721704  -0.514421  -0.382676   0.471055   0.407456
   20  C  3  Z   -0.173952  -0.510249   0.775465  -0.819702   0.253331
   21  C  4  S    0.006853   0.010480   0.028156   0.016608  -0.006178
   22  C  4  S    0.091129   0.011806  -0.000528   0.014864   0.013805
   23  C  4  X   -0.214115   0.236934  -0.010533  -0.074424  -0.069741
   24  C  4  Y   -0.113881   0.417828  -0.498362  -0.032236  -0.042008
   25  C  4  Z   -0.000033   0.204879   0.173409  -0.736163   0.078490
   26  C  4  S   -0.990835  -0.341308   0.115061   0.073653  -0.189795
   27  C  4  X    0.561223   0.228501   0.095229   0.052802  -0.128998
   28  C  4  Y    0.462204  -0.741905   0.541963  -0.192778   0.057566
   29  C  4  Z    0.291068  -0.319890  -0.628409   1.420276  -0.088691
   30  C  5  S   -0.062466  -0.029280  -0.034098  -0.018781   0.001512
   31  C  5  S    0.346423   0.174075   0.390791   0.192486   0.017111
   32  C  5  X   -0.695631  -0.132005  -0.156934   0.090415  -0.062802
   33  C  5  Y    0.003111  -0.528677   0.135711  -0.003428   0.050882
   34  C  5  Z   -0.441660  -0.434996  -0.012369   0.113719   0.014628
   35  C  5  S    0.447503  -0.176405  -0.310159   0.172182  -0.063740
   36  C  5  X    1.237463   0.092615   0.206712   0.177824   0.116367
   37  C  5  Y    0.188179   0.964413  -0.248649   0.076084  -0.153817
   38  C  5  Z    0.835951   0.820468   0.161397  -0.419746  -0.116127
   39  O  6  S    0.002095   0.000046  -0.002704   0.000681   0.003018
   40  O  6  S   -0.000757  -0.039214   0.006901   0.025837  -0.000546
   41  O  6  X   -0.018867  -0.083886   0.025139   0.097387   0.004302
   42  O  6  Y   -0.059024  -0.125388  -0.001853  -0.009197  -0.003232
   43  O  6  Z   -0.099595  -0.153230  -0.032967   0.021861   0.014865
   44  O  6  S    0.145537   0.516551   0.044663  -0.169375  -0.084305
   45  O  6  X   -0.169484  -0.046707  -0.040806   0.012131  -0.008105
   46  O  6  Y   -0.014809  -0.041324   0.038382  -0.068933   0.000026
   47  O  6  Z   -0.107244   0.032512  -0.012258  -0.038327  -0.027097
   48  O  7  S    0.009946   0.006620   0.003268  -0.006422  -0.003454
   49  O  7  S   -0.014632  -0.000818  -0.004462   0.007698   0.002251
   50  O  7  X   -0.158448  -0.028493  -0.067471  -0.002784  -0.013632
   51  O  7  Y    0.036790  -0.061000   0.058109   0.001705   0.015238
   52  O  7  Z    0.012998  -0.045867   0.030103   0.068065  -0.000034
   53  O  7  S    0.170928  -0.187773   0.107306   0.130455   0.096080
   54  O  7  X   -0.193172  -0.101082  -0.037023   0.039813   0.025855
   55  O  7  Y   -0.021397  -0.115501   0.026050  -0.030059   0.007918
   56  O  7  Z   -0.103029  -0.077605  -0.023033   0.014690   0.000616
   57  H  8  S   -0.042238   0.000565   0.250049   0.382576   0.185948
   58  H  8  S    0.015265  -0.211576   0.220666  -0.513460   0.061746
   59  H  9  S    0.095068  -0.028526   0.433517   0.126896   0.168440
   60  H  9  S    0.202130  -0.024116  -0.587094   0.361666   0.008272
   61  H 10  S    0.044054   0.156114   0.270958   0.200985  -0.155844
   62  H 10  S   -0.069498   0.111699   0.175106  -0.793001   0.183016
   63  H 11  S   -0.095200   0.113825   0.434585   0.190273  -0.019093
   64  H 11  S   -0.008851   0.178373  -0.565767   0.208206  -0.011994
   65  H 12  S   -0.282161   0.295889   0.388824   0.203107  -0.806911
   66  H 12  S   -0.232072   0.152802  -0.232300  -0.310689   1.180234
   67  H 13  S   -0.100614   0.169379   0.447649  -0.187526   0.371282
   68  H 13  S    0.205543  -0.023806  -0.459845   0.637865  -0.477329

                     51         52         53         54         55
                    1.4981     1.5158     1.5523     1.5586     1.5915
                     A          A          A          A          A   
    1  C  1  S   -0.004421  -0.007330   0.062543   0.043904   0.022715
    2  C  1  S    0.005160   0.087698  -0.188035  -0.227416  -0.272582
    3  C  1  X   -0.114066   0.186876  -0.056940  -0.498106  -0.208807
    4  C  1  Y    0.315882  -0.074080  -0.241324   0.039617  -0.060359
    5  C  1  Z   -0.515222   0.011176  -0.058785   0.121800  -0.096319
    6  C  1  S    0.063491  -0.402844  -0.518016   0.506766   0.773239
    7  C  1  X    0.066198  -0.194596   0.310986   0.832690   0.373850
    8  C  1  Y   -0.284701   0.277079   0.918414  -0.326403  -0.278378
    9  C  1  Z    0.419190  -0.028416   0.034128  -0.084303   0.245888
   10  H  2  S    0.476908  -0.163338   0.420973   0.200491   0.095919
   11  H  2  S   -0.703728   0.170243  -0.437399  -0.136853  -0.337128
   12  C  3  S    0.002807   0.007811  -0.049257   0.016592  -0.053362
   13  C  3  S   -0.051116  -0.045850   0.161362  -0.064976   0.305069
   14  C  3  X   -0.042277  -0.162295  -0.450937   0.002286   0.231558
   15  C  3  Y    0.319237   0.139471  -0.365033   0.168820  -0.290514
   16  C  3  Z   -0.583497  -0.486218  -0.090783   0.066750  -0.255100
   17  C  3  S   -0.008188   0.194326   0.393707  -0.124757  -0.606865
   18  C  3  X    0.099434   0.409722   1.253190   0.201040  -0.707253
   19  C  3  Y   -0.679248   0.038195   0.650187  -0.225128   0.359590
   20  C  3  Z    1.025083   0.736558   0.452963  -0.366982   0.000703
   21  C  4  S   -0.013478   0.002896  -0.017761  -0.043035   0.049104
   22  C  4  S    0.052956   0.004977  -0.014775   0.230828  -0.239143
   23  C  4  X   -0.047819   0.339569   0.291815  -0.433779  -0.297213
   24  C  4  Y   -0.026455   0.440434   0.037141   0.323471  -0.208322
   25  C  4  Z    0.314648  -0.546200   0.060559   0.022573  -0.226708
   26  C  4  S   -0.025067   0.052218   0.401634  -0.461965  -0.134782
   27  C  4  X    0.187850  -0.708082  -0.927770   1.141910   0.636271
   28  C  4  Y    0.203383  -0.685452  -0.083722  -0.382599   0.405570
   29  C  4  Z   -0.721675   0.584377  -0.141091   0.169247   0.467437
   30  C  5  S    0.006027   0.001447   0.000744   0.014538  -0.005822
   31  C  5  S   -0.052996   0.088912   0.154627  -0.328003  -0.052780
   32  C  5  X   -0.043349  -0.111500  -0.212410   0.049566   0.219648
   33  C  5  Y    0.002530   0.130577   0.156082   0.037869  -0.139301
   34  C  5  Z   -0.020837  -0.070716   0.057757  -0.043971  -0.102499
   35  C  5  S   -0.006930  -0.420432  -0.687301   0.842315   0.592974
   36  C  5  X   -0.043043   0.184536   0.490245  -0.014018  -0.356853
   37  C  5  Y   -0.022641  -0.272731  -0.695824   0.228665   0.557854
   38  C  5  Z    0.181686  -0.182882  -0.662438   0.351084   0.633708
   39  O  6  S    0.003243   0.005319   0.016548  -0.007075  -0.002919
   40  O  6  S   -0.018980  -0.002894  -0.010138   0.017477  -0.017715
   41  O  6  X   -0.063221  -0.010833   0.039819  -0.006381  -0.099800
   42  O  6  Y    0.018812   0.038943   0.020661   0.015496   0.006927
   43  O  6  Z    0.007905   0.013353   0.040665   0.035629   0.012122
   44  O  6  S    0.049483  -0.098575  -0.371515   0.047994   0.288093
   45  O  6  X   -0.010170  -0.032621  -0.064064   0.002468   0.046027
   46  O  6  Y    0.019031  -0.008613  -0.034051   0.003932   0.013118
   47  O  6  Z    0.006032  -0.031113  -0.114237  -0.004233   0.047371
   48  O  7  S    0.002669  -0.008971  -0.022749   0.003978   0.018910
   49  O  7  S   -0.000481   0.007449   0.016067   0.016536  -0.019666
   50  O  7  X    0.004059  -0.045538  -0.097362   0.094884   0.060382
   51  O  7  Y    0.006888   0.014971   0.041819   0.019149  -0.047511
   52  O  7  Z   -0.027483   0.002720  -0.011809  -0.015208  -0.003857
   53  O  7  S   -0.056261   0.213068   0.537096  -0.247200  -0.433263
   54  O  7  X   -0.025979   0.068763   0.198551  -0.107587  -0.155605
   55  O  7  Y    0.012808   0.002608   0.018207  -0.005297  -0.008892
   56  O  7  Z    0.001182  -0.026794  -0.017271   0.014117  -0.000817
   57  H  8  S   -0.282716  -0.219642  -0.150013  -0.041941  -0.877685
   58  H  8  S    0.696024   0.665378   0.386894  -0.128963   0.969400
   59  H  9  S    0.221227   0.390971  -0.665778   0.352335  -0.152840
   60  H  9  S   -0.881999  -0.643154   0.698004  -0.327944   0.313784
   61  H 10  S   -0.225892   0.573451  -0.182081  -0.371785   0.358684
   62  H 10  S    0.566794  -0.934757   0.063513   0.342685  -0.535194
   63  H 11  S   -0.016016  -0.479063  -0.246751  -0.605396   0.298884
   64  H 11  S   -0.250194   1.010255   0.210688   0.805822  -0.381923
   65  H 12  S    0.109738  -0.056712   0.568883   0.193132  -0.044752
   66  H 12  S   -0.181087   0.276652  -0.224076  -0.690531  -0.250739
   67  H 13  S   -0.667955   0.096360   0.151550   0.574897   0.301587
   68  H 13  S    0.946079  -0.199870  -0.427097  -0.451581  -0.179152

                     56         57         58         59         60
                    1.6626     1.8560     2.0790     2.1217     2.2045
                     A          A          A          A          A   
    1  C  1  S    0.002554   0.015567   0.000035  -0.005122  -0.000025
    2  C  1  S    0.078422  -0.351584  -0.990492  -0.498472   0.135262
    3  C  1  X    0.136991   0.017346   0.041949   0.003841  -0.049950
    4  C  1  Y   -0.014158   0.005985   0.012252   0.019020   0.015540
    5  C  1  Z   -0.127227   0.017719  -0.013822   0.001542   0.000171
    6  C  1  S   -0.545406   0.129470   1.620036   0.995916  -0.086183
[...]
   63  H 11  S    0.021040   0.133091  -0.086774   0.064574   0.197334
   64  H 11  S    0.099296   0.070349   0.013701   0.361354   0.168049
   65  H 12  S   -0.109762   0.037997   0.041354  -0.090954  -0.201693
   66  H 12  S   -0.251041   0.075482   0.080841  -0.138891  -0.230058
   67  H 13  S   -0.102678   0.048858   0.053348  -0.105697  -0.182120
   68  H 13  S   -0.333323   0.111570   0.086840  -0.285545  -0.268886

                     66         67         68
                    2.7348     3.7235     3.9235
                     A          A          A   
    1  C  1  S   -0.054655   0.001133   0.005966
    2  C  1  S   -0.586094   0.018603   0.026837
    3  C  1  X   -0.117434  -0.008763   0.044322
    4  C  1  Y   -0.005193  -0.002253  -0.008747
    5  C  1  Z    0.020234   0.012064  -0.008821
    6  C  1  S    2.077964  -0.056808  -0.309351
    7  C  1  X   -0.589167   0.034089   0.050192
    8  C  1  Y   -0.258812   0.033381   0.120497
    9  C  1  Z   -0.167520  -0.046649   0.081986
   10  H  2  S   -0.171351   0.012191   0.008343
   11  H  2  S   -0.058402   0.017503  -0.036774
   12  C  3  S    0.105338   0.003476  -0.002431
   13  C  3  S    1.574772   0.063589   0.028094
   14  C  3  X    0.070909  -0.033625  -0.094154
   15  C  3  Y    0.055844   0.005276  -0.020916
   16  C  3  Z   -0.006530  -0.010680   0.004581
   17  C  3  S   -4.708003  -0.134526   0.304814
   18  C  3  X    0.412165   0.150835   0.224145
   19  C  3  Y   -0.893395  -0.028817   0.366142
   20  C  3  Z   -0.118295   0.017953   0.008472
   21  C  4  S   -0.109235  -0.002450   0.001266
   22  C  4  S   -1.578357   0.063080   0.040746
   23  C  4  X    0.074461  -0.036829   0.061253
   24  C  4  Y    0.026350  -0.000026   0.019430
   25  C  4  Z    0.042509  -0.023283  -0.026072
   26  C  4  S    4.851271  -0.174271  -0.059448
   27  C  4  X    0.294022   0.194690  -0.572919
   28  C  4  Y   -0.756225  -0.058419   0.071564
   29  C  4  Z   -0.702462   0.032097   0.489687
   30  C  5  S    0.044707   0.022654  -0.000063
   31  C  5  S    0.408770  -0.151881  -0.026669
   32  C  5  X   -0.039965   0.082701   0.136777
   33  C  5  Y    0.015933   0.049559  -0.100674
   34  C  5  Z    0.011667   0.060536  -0.174403
   35  C  5  S   -1.712334  -1.357417  -0.135028
   36  C  5  X   -1.014482   0.679646   1.207090
   37  C  5  Y   -0.393468   0.337654  -0.844655
   38  C  5  Z   -0.482520   0.451637  -1.410226
   39  O  6  S    0.000502   0.044096  -0.030424
   40  O  6  S   -0.039244  -1.255606   1.223661
   41  O  6  X   -0.117047   0.113408   0.033799
   42  O  6  Y    0.041836  -0.093686   0.111555
   43  O  6  Z   -0.028748  -0.157658   0.151931
   44  O  6  S    0.138672   1.852869  -2.191556
   45  O  6  X    0.260949  -0.391066  -0.107494
   46  O  6  Y    0.014345   0.345610  -0.444146
   47  O  6  Z    0.124230   0.566442  -0.636216
   48  O  7  S    0.002095   0.040698   0.032764
   49  O  7  S   -0.034623  -1.167068  -1.317275
   50  O  7  X   -0.047772  -0.126529  -0.200080
   51  O  7  Y   -0.091605   0.088271   0.011022
   52  O  7  Z   -0.094763   0.147051   0.025730
   53  O  7  S    0.072426   1.724927   2.350329
   54  O  7  X    0.179349   0.471038   0.821239
   55  O  7  Y    0.186629  -0.301062  -0.063049
   56  O  7  Z    0.213845  -0.498414  -0.143873
   57  H  8  S    0.423775   0.060660  -0.034746
   58  H  8  S    0.330668  -0.051163   0.075823
   59  H  9  S    0.334783  -0.006554   0.044177
   60  H  9  S    0.245228   0.029878   0.082107
   61  H 10  S   -0.319488   0.026400  -0.105738
   62  H 10  S   -0.256276  -0.017608  -0.155571
   63  H 11  S   -0.393971  -0.019323   0.035976
   64  H 11  S   -0.328291   0.104244   0.070709
   65  H 12  S   -0.124358   0.004912   0.027911
   66  H 12  S   -0.225222  -0.013855   0.066464
   67  H 13  S   -0.201227   0.002227   0.006032
   68  H 13  S   -0.128197  -0.028455   0.012004
 ...... END OF RHF CALCULATION ......
 CPU     0: STEP CPU TIME=     0.34 TOTAL CPU TIME=          0.4 (      0.0 MIN)
 TOTAL WALL CLOCK TIME=          0.6 SECONDS, CPU UTILIZATION IS    66.67%

     ----------------------------------------------------------------
     PROPERTY VALUES FOR THE RHF   SELF-CONSISTENT FIELD WAVEFUNCTION
     ----------------------------------------------------------------

          -----------------
          ENERGY COMPONENTS
          -----------------

         WAVEFUNCTION NORMALIZATION =       1.0000000000

                ONE ELECTRON ENERGY =    -872.3474336817
                TWO ELECTRON ENERGY =     343.0198244542
           NUCLEAR REPULSION ENERGY =     225.7526871660
                                      ------------------
                       TOTAL ENERGY =    -303.5749220616

 ELECTRON-ELECTRON POTENTIAL ENERGY =     343.0198244542
  NUCLEUS-ELECTRON POTENTIAL ENERGY =   -1175.2140196361
   NUCLEUS-NUCLEUS POTENTIAL ENERGY =     225.7526871660
                                      ------------------
             TOTAL POTENTIAL ENERGY =    -606.4415080159
               TOTAL KINETIC ENERGY =     302.8665859543
                 VIRIAL RATIO (V/T) =       2.0023387727

          ---------------------------------------
          MULLIKEN AND LOWDIN POPULATION ANALYSES
          ---------------------------------------

     ATOMIC MULLIKEN POPULATION IN EACH MOLECULAR ORBITAL

                      1          2          3          4          5

                  2.000000   2.000000   2.000000   2.000000   2.000000

    1            -0.000000   0.000000   0.000006   1.987258   0.004579
    2            -0.000000  -0.000000   0.000000   0.002797   0.000020
    3            -0.000003   0.000002   0.000100   0.004272   1.984315
    4            -0.000053  -0.000085   0.003899   0.000055   0.005125
    5             0.006784   0.006618   1.997782   0.000010   0.000009
    6             1.983380   0.010124  -0.000780  -0.000000   0.000000
    7             0.009863   1.983333  -0.001098   0.000000   0.000000
    8             0.000029   0.000001   0.000006   0.000009   0.003103
    9             0.000000  -0.000000  -0.000001   0.000026   0.002813
   10            -0.000000   0.000010   0.000042  -0.000001   0.000019
   11            -0.000000  -0.000002   0.000043  -0.000001  -0.000001
   12             0.000000   0.000000  -0.000000   0.002718   0.000008
   13             0.000000  -0.000000   0.000000   0.002856   0.000008

                      6          7          8          9         10

                  2.000000   2.000000   2.000000   2.000000   2.000000

    1             0.000037  -0.000273   0.001137   0.628859   0.682303
    2            -0.000002   0.000001   0.000003   0.034589   0.065992
    3             0.005240   0.000671   0.002349   0.804378   0.103092
    4             1.984323   0.023171   0.014209   0.347540   0.747388
    5             0.004603   0.439728   0.193959   0.005241   0.086795
    6            -0.000006   0.747503   0.906755   0.021657   0.029889
    7            -0.000003   0.788571   0.879048   0.004183   0.023829
    8             0.000018   0.001049   0.003197   0.022293   0.002792
    9             0.000038   0.000082  -0.000254   0.033758   0.002713
   10             0.002806  -0.000344  -0.000335   0.013500   0.055414
   11             0.002949  -0.000146  -0.000031   0.017452   0.053100
   12             0.000001  -0.000012  -0.000041   0.030378   0.083757
   13            -0.000004  -0.000001   0.000002   0.036172   0.062937

                     11         12         13         14         15

                  2.000000   2.000000   2.000000   2.000000   2.000000

    1             0.282194   0.168981   0.459813   0.650940   0.364043
    2             0.056078   0.017328   0.125991   0.138554   0.025924
    3             0.682910   0.187423   0.495508   0.096403   0.272286
    4             0.369623   0.413974   0.243223   0.143350   0.289342
    5             0.089743   0.470857   0.023420   0.093493   0.199708
    6             0.009419   0.283218   0.012914   0.244907   0.243277
    7             0.034539   0.221784   0.026114   0.123276   0.276852
    8             0.107903   0.038979   0.097920   0.023208   0.028367
    9             0.142104   0.002996   0.178688   0.002030   0.002685
   10             0.059670   0.061200   0.081563   0.072835   0.013754
   11             0.074682   0.048122   0.065750   0.017844   0.156934
   12             0.032556   0.085049   0.015405   0.368509   0.011144
   13             0.058579   0.000087   0.173692   0.024652   0.115684

                     16         17         18         19         20

                  2.000000   2.000000   2.000000   2.000000   2.000000

    1             0.454528   0.211750   0.433206   0.131273   0.072968
    2             0.216042   0.004403   0.022588   0.049150   0.063065
    3             0.041487   0.193793   0.403135   0.367787   0.556448
    4             0.357700   0.238030   0.076609   0.070963   0.394462
    5             0.147693   0.286855   0.234491   0.299300   0.113228
    6             0.134264   0.497673   0.171476   0.237904   0.249962
    7             0.219530   0.418424   0.331632   0.421066   0.128497
    8             0.025114   0.014375   0.028765   0.087913   0.184478
    9             0.006116   0.001503   0.149516   0.202425   0.001777
   10             0.153145   0.003921   0.005447   0.000706   0.137899
   11             0.073240   0.000263   0.072352   0.011468   0.043728
   12             0.002116   0.127235   0.002596   0.020961   0.053187
   13             0.169025   0.001775   0.068186   0.099082   0.000301

                     21         22         23         24

                  2.000000   2.000000   2.000000   2.000000

    1             0.010217   0.008567   0.017195   0.001803
    2             0.012201   0.002297   0.000318   0.000036
    3             0.150760   0.027338   0.036977   0.001966
    4             0.287912   0.017004   0.492105   0.001959
    5             0.345964   0.044942   0.067981   0.000835
    6             0.361039   1.145071   0.499535   0.995550
    7             0.323164   0.736359   0.847036   0.994440
    8             0.060162   0.011500   0.004044   0.000350
    9             0.103364   0.001311   0.000117   0.000961
   10             0.148341   0.004647   0.013764   0.001645
   11             0.182311   0.000668   0.011777   0.000304
   12             0.000067   0.000067   0.008814   0.000031
   13             0.014498   0.000229   0.000338   0.000120

               ----- POPULATIONS IN EACH AO -----
                             MULLIKEN      LOWDIN
              1  C  1  S      1.98824     1.97652
              2  C  1  S      0.35240     0.41559
              3  C  1  X      0.53768     0.51458
              4  C  1  Y      0.53089     0.49982
              5  C  1  Z      0.52853     0.49381
              6  C  1  S      1.11466     0.58637
              7  C  1  X      0.46144     0.57398
              8  C  1  Y      0.51975     0.59761
              9  C  1  Z      0.53779     0.60095
             10  H  2  S      0.46922     0.47415
             11  H  2  S      0.36816     0.46008
             12  C  3  S      1.98919     1.97624
             13  C  3  S      0.34341     0.41134
             14  C  3  X      0.51392     0.49686
             15  C  3  Y      0.52368     0.49801
             16  C  3  Z      0.56113     0.53589
             17  C  3  S      1.11056     0.56706
             18  C  3  X      0.32156     0.51725
             19  C  3  Y      0.46116     0.56929
             20  C  3  Z      0.59402     0.60572
             21  C  4  S      1.98956     1.97657
             22  C  4  S      0.34204     0.42645
             23  C  4  X      0.53479     0.52697
             24  C  4  Y      0.52078     0.49640
             25  C  4  Z      0.53118     0.50357
             26  C  4  S      1.15095     0.59152
             27  C  4  X      0.40181     0.55592
             28  C  4  Y      0.50937     0.58907
             29  C  4  Z      0.54134     0.59454
             30  C  5  S      1.98678     1.97634
             31  C  5  S      0.42850     0.43396
             32  C  5  X      0.55335     0.52634
             33  C  5  Y      0.39944     0.38306
             34  C  5  Z      0.50090     0.47823
             35  C  5  S      0.51524     0.52259
             36  C  5  X      0.19260     0.45634
             37  C  5  Y      0.36684     0.47996
             38  C  5  Z      0.21639     0.45716
             39  O  6  S      1.98674     1.98130
             40  O  6  S      0.41393     0.57968
             41  O  6  X      0.79266     0.79715
             42  O  6  Y      0.65053     0.65355
             43  O  6  Z      0.62690     0.62603
             44  O  6  S      1.54889     1.08431
             45  O  6  X      1.00565     1.02996
             46  O  6  Y      0.91031     0.91945
             47  O  6  Z      0.84913     0.87937
             48  O  7  S      1.98679     1.98135
             49  O  7  S      0.41439     0.57941
             50  O  7  X      0.65911     0.65869
             51  O  7  Y      0.68753     0.69212
             52  O  7  Z      0.72699     0.73121
             53  O  7  S      1.54872     1.07920
             54  O  7  X      0.84604     0.88881
             55  O  7  Y      0.95472     0.95665
             56  O  7  Z      0.96614     0.97511
             57  H  8  S      0.45428     0.46577
             58  H  8  S      0.29130     0.42560
             59  H  9  S      0.47017     0.48150
             60  H  9  S      0.36460     0.45516
             61  H 10  S      0.46870     0.47780
             62  H 10  S      0.36095     0.45562
             63  H 11  S      0.46447     0.47501
             64  H 11  S      0.36834     0.45769
             65  H 12  S      0.46978     0.47474
             66  H 12  S      0.37477     0.46306
             67  H 13  S      0.46838     0.47289
             68  H 13  S      0.35984     0.45572

          ----- MULLIKEN ATOMIC OVERLAP POPULATIONS -----
          (OFF-DIAGONAL ELEMENTS NEED TO BE MULTIPLIED BY 2)

             1           2           3           4           5

    1    5.3882172
    2    0.3703117   0.5695721
    3    0.2180121  -0.0417932   5.5603041
    4   -0.0668518  -0.0006365   0.1687081   5.9240116
    5    0.0025945  -0.0000580  -0.0462660   0.1136360   4.2737764
    6    0.0002123  -0.0000016  -0.0020527  -0.1236787   0.4227423
    7   -0.0000088  -0.0000000   0.0017271  -0.1081918   0.4458106
    8   -0.0337964   0.0023089   0.3559857  -0.0606462  -0.0004242
    9   -0.0499770  -0.0020675   0.3827528  -0.0446586   0.0008415
   10    0.0004416   0.0010945  -0.0419754   0.3488511  -0.0248203
   11   -0.0034299   0.0001448  -0.0510381   0.3691363  -0.0277574
   12    0.3728434  -0.0310943  -0.0408696   0.0031044  -0.0000319
   13    0.3728152  -0.0304021  -0.0448573  -0.0009565  -0.0000060

             6           7           8           9          10

    6    8.5033034
    7   -0.0523302   8.4971072
    8    0.0336527   0.0002829   0.4691819
    9    0.0001762   0.0000298  -0.0226758   0.5677448
   10    0.0018090   0.0051796   0.0035909  -0.0029791   0.5641091
   11    0.0008853   0.0008330   0.0005118   0.0033759  -0.0256256
   12    0.0000019   0.0000000  -0.0012405  -0.0011397  -0.0000489
   13    0.0000099   0.0000001  -0.0011552   0.0033473   0.0000208

            11          12          13

   11    0.5623878
   12    0.0000546   0.5718865
   13    0.0033261  -0.0289188   0.5549965

          TOTAL MULLIKEN AND LOWDIN ATOMIC POPULATIONS
       ATOM         MULL.POP.    CHARGE          LOW.POP.     CHARGE
    1 C             6.571384   -0.571384         6.259223   -0.259223
    2 H             0.837379    0.162621         0.934230    0.065770
    3 C             6.418638   -0.418638         6.177653   -0.177653
    4 C             6.521827   -0.521827         6.261005   -0.261005
    5 C             5.160038    0.839962         5.713959    0.286041
    6 O             8.784730   -0.784730         8.550805   -0.550805
    7 O             8.790439   -0.790439         8.542557   -0.542557
    8 H             0.745577    0.254423         0.891374    0.108626
    9 H             0.834770    0.165230         0.936659    0.063341
   10 H             0.829647    0.170353         0.933424    0.066576
   11 H             0.832805    0.167195         0.932705    0.067295
   12 H             0.844547    0.155453         0.937796    0.062204
   13 H             0.828220    0.171780         0.928609    0.071391

          -------------------------------
          BOND ORDER AND VALENCE ANALYSIS     BOND ORDER THRESHOLD=0.050
          -------------------------------

                   BOND                       BOND                       BOND
  ATOM PAIR DIST  ORDER      ATOM PAIR DIST  ORDER      ATOM PAIR DIST  ORDER
    1   2  1.099  0.937        1   3  1.545  0.906        1  12  1.101  0.941
    1  13  1.099  0.935        3   4  1.536  0.886        3   8  1.098  0.877
    3   9  1.100  0.937        4   5  1.604  0.778        4  10  1.096  0.931
    4  11  1.104  0.935        5   6  1.278  1.470        5   7  1.268  1.517
    6   7  2.308  0.151        6   8  2.176  0.062

                       TOTAL       BONDED        FREE
      ATOM            VALENCE     VALENCE     VALENCE
    1 C                 3.694       3.694      -0.000
    2 H                 0.926       0.926       0.000
    3 C                 3.565       3.565       0.000
    4 C                 3.544       3.544      -0.000
    5 C                 3.734       3.734      -0.000
    6 O                 1.735       1.735      -0.000
    7 O                 1.722       1.722      -0.000
    8 H                 0.922       0.922      -0.000
    9 H                 0.923       0.923      -0.000
   10 H                 0.930       0.930       0.000
   11 H                 0.926       0.926       0.000
   12 H                 0.929       0.929      -0.000
   13 H                 0.925       0.925       0.000

          ---------------------
          ELECTROSTATIC MOMENTS
          ---------------------

 POINT   1           X           Y           Z (BOHR)    CHARGE
                -2.938096    0.041565   -0.039585       -1.00 (A.U.)
         DX          DY          DZ         /D/  (DEBYE)
     6.497637    1.419791    1.912261    6.920393
 ...... END OF PROPERTY EVALUATION ......
 CPU     0: STEP CPU TIME=     0.02 TOTAL CPU TIME=          0.4 (      0.0 MIN)
 TOTAL WALL CLOCK TIME=          0.6 SECONDS, CPU UTILIZATION IS    67.74%
               580000  WORDS OF DYNAMIC MEMORY USED
 EXECUTION OF GAMESS TERMINATED NORMALLY Sun May 17 12:34:35 2020
 DDI: 263640 bytes (0.3 MB / 0 MWords) used by master data server.
Note: The following floating-point exceptions are signalling: IEEE_DENORMAL
Note: The following floating-point exceptions are signalling: IEEE_DENORMALNote: The following floating-point exceptions are signalling: IEEE_DENORMALNote: The following floating-point exceptions are signalling: IEEE_DENORMAL

 ----------------------------------------
 CPU timing information for all processes
 ========================================
 0: 0.332 + 0.99 = 0.432
 1: 0.345 + 0.08 = 0.353
 2: 0.316 + 0.15 = 0.331
 3: 0.334 + 0.07 = 0.342
 4: 0.287 + 0.07 = 0.295
 5: 0.316 + 0.04 = 0.320
 ----------------------------------------


Note: The following floating-point exceptions are signalling:Note: The following floating-point exceptions are signalling: IEEE_DENORMAL IEEE_DENORMAL

 ddikick.x: exited gracefully.
unset echo
----- accounting info -----
Files used on the master node pietdev were:
-rwxr-xr-x 1 piet piet      844 mei 17 12:34 /home/piet/scr/glutamate_minus1__fukui_neu.F05*
-rw-r--r-- 1 piet piet 49152000 mei 17 12:34 /home/piet/scr/glutamate_minus1__fukui_neu.F10
ls: No match.
ls: No match.
ls: No match.
zo 17 mei 2020 12:34:38 CEST
0.105u 0.026s 0:03.77 3.1%	0+0k 0+8io 0pf+0w
