----- GAMESS execution script 'rungms' -----
This job is running on host pietdev
under operating system Linux at zo 17 mei 2020 12:34:16 CEST
Available scratch disk space (Kbyte units) at beginning of the job is
Filesystem     1K-blocks     Used Available Use% Mounted on
/dev/sda2      244568380 30347464 201727860  14% /
GAMESS temporary binary files will be written to /home/piet/scr
GAMESS supplementary output files will be written to /home/piet/gamess/scr
Copying input file glutamate_minus1__charge_chelpg.inp to your run's scratch directory...
cp glutamate_minus1__charge_chelpg.inp /home/piet/scr/glutamate_minus1__charge_chelpg.F05
unset echo
 
Assuming a single but multicore node.
 
/home/piet/gamess/ddikick.x /home/piet/gamess/gamess.03.x glutamate_minus1__charge_chelpg -ddi 1 6 pietdev:cpus=6 -scr /home/piet/scr

 Distributed Data Interface kickoff program.
 Initiating 6 compute processes on 1 nodes to run the following command:
 /home/piet/gamess/gamess.03.x glutamate_minus1__charge_chelpg 

          ******************************************************
          *         GAMESS VERSION = 30 SEP 2019 (R2)          *
          *             FROM IOWA STATE UNIVERSITY             *
          * M.W.SCHMIDT, K.K.BALDRIDGE, J.A.BOATZ, S.T.ELBERT, *
          *   M.S.GORDON, J.H.JENSEN, S.KOSEKI, N.MATSUNAGA,   *
          *          K.A.NGUYEN, S.J.SU, T.L.WINDUS,           *
          *       TOGETHER WITH M.DUPUIS, J.A.MONTGOMERY       *
          *         J.COMPUT.CHEM.  14, 1347-1363(1993)        *
          **************** 64 BIT LINUX VERSION ****************

  SINCE 1993, STUDENTS AND POSTDOCS WORKING AT IOWA STATE UNIVERSITY
  AND ALSO IN THEIR VARIOUS JOBS AFTER LEAVING ISU HAVE MADE IMPORTANT
  CONTRIBUTIONS TO THE CODE:
     IVANA ADAMOVIC, CHRISTINE AIKENS, YURI ALEXEEV, POOJA ARORA,
     ANDREY ASADCHEV, ROB BELL, PRADIPTA BANDYOPADHYAY, JONATHAN BENTZ,
     COLLEEN BERTONI, BRETT BODE, KURT BRORSEN, CALEB CARLIN, GALINA CHABAN,
     WEI CHEN, CHEOL HO CHOI, PAUL DAY, ALBERT DEFUSCO, NUWAN DESILVA,
     TIM DUDLEY, DMITRI FEDOROV, ALEX FINDLATER, GRAHAM FLETCHER, 
     MARK FREITAG, KURT GLAESEMANN, EMILIE B GUIDEZ, ANASTASIA GUNINA, 
     DAN KEMP, SAROM SOK LEANG, GRANT MERRILL,
     NORIYUKI MINEZAWA, JONATHAN MULLIN,
     TAKESHI NAGATA, SEAN NEDD, HEATHER NETZLOFF, BOSILJKA NJEGIC, RYAN OLSON,
     MIKE PAK, BUU PHAM, DAVID POOLE,
     SPENCER PRUITT, LUKE ROSKOP, TOSAPORN SATTASATHUCHANA,
     JIM SHOEMAKER, LYUDMILA SLIPCHENKO,
     TONY SMITH, JIE SONG, TETSUYA TAKETSUGU, SIMON WEBB,
     JORGE LUIS GALVEZ VALLEJO, PENG XU, SOOHAENG YOO,
     FEDERICO ZAHARIEV

  ADDITIONAL CODE HAS BEEN PROVIDED BY COLLABORATORS IN OTHER GROUPS:
     IOWA STATE UNIVERSITY:
          JOE IVANIC, AARON WEST, LAIMUTIS BYTAUTAS, KLAUS RUEDENBERG
     UNIVERSITY OF TOKYO: KIMIHIKO HIRAO, TAKAHITO NAKAJIMA,
          TAKAO TSUNEDA, MUNEAKI KAMIYA, SUSUMU YANAGISAWA,
          KIYOSHI YAGI, MAHITO CHIBA, SEIKEN TOKURA, NAOAKI KAWAKAMI
     UNIVERSITY OF AARHUS: FRANK JENSEN
     UNIVERSITY OF IOWA: VISVALDAS KAIRYS, HUI LI
     NATIONAL INST. OF STANDARDS AND TECHNOLOGY: WALT STEVENS, DAVID GARMER
     UNIVERSITY OF PISA: BENEDETTA MENNUCCI, JACOPO TOMASI
     UNIVERSITY OF MEMPHIS: HENRY KURTZ, PRAKASHAN KORAMBATH
     UNIVERSITY OF ALBERTA: TOBY ZENG, MARIUSZ KLOBUKOWSKI
     UNIVERSITY OF NEW ENGLAND: MARK SPACKMAN
     MIE UNIVERSITY: HIROAKI UMEDA
     NAT. INST. OF ADVANCED INDUSTRIAL SCIENCE AND TECHNOLOGY: KAZUO KITAURA
     MICHIGAN STATE UNIVERSITY:
          KAROL KOWALSKI, MARTA WLOCH, JEFFREY GOUR, JESSE LUTZ,
          WEI LI, JUN SHEN, J. EMILIANO DEUSTUA, PIOTR PIECUCH
     UNIVERSITY OF MINNESOTA:
          ANDREW SAND, PRACHI SHARMA, YINAN SHU
     UNIVERSITY OF SILESIA: MONIKA MUSIAL, STANISLAW KUCHARSKI
     FACULTES UNIVERSITAIRES NOTRE-DAME DE LA PAIX:
          OLIVIER QUINET, BENOIT CHAMPAGNE
     UNIVERSITY OF CALIFORNIA - SANTA BARBARA: BERNARD KIRTMAN
     INSTITUTE FOR MOLECULAR SCIENCE:
          KAZUYA ISHIMURA, MICHIO KATOUDA, AND SHIGERU NAGASE
     UNIVERSITY OF NOTRE DAME: ANNA POMOGAEVA, DAN CHIPMAN
     KYUSHU UNIVERSITY:
          HARUYUKI NAKANO,
          FENG LONG GU, JACEK KORCHOWIEC, MARCIN MAKOWSKI, AND YURIKO AOKI,
          HIROTOSHI MORI AND EISAKU MIYOSHI
     PENNSYLVANIA STATE UNIVERSITY:
          TZVETELIN IORDANOV, CHET SWALINA, JONATHAN SKONE,
          SHARON HAMMES-SCHIFFER
     WASEDA UNIVERSITY:
          MASATO KOBAYASHI, TOMOKO AKAMA, TSUGUKI TOUMA,
          TAKESHI YOSHIKAWA, YASUHIRO IKABATA, JUNJI SEINO,
          YUYA NAKAJIMA, HIROMI NAKAI
     NANJING UNIVERSITY: SHUHUA LI
     UNIVERSITY OF NEBRASKA:
          PEIFENG SU, DEJUN SI, NANDUN THELLAMUREGE, YALI WANG, HUI LI
     UNIVERSITY OF ZURICH: ROBERTO PEVERATI, KIM BALDRIDGE
     N. COPERNICUS UNIVERSITY AND JACKSON STATE UNIVERSITY:
          MARIA BARYSZ
     UNIVERSITY OF COPENHAGEN: Jimmy Kromann, CASPER STEINMANN
     TOKYO INSTITUTE OF TECHNOLOGY: HIROYA NAKATA
     NAGOYA UNIVERSITY: YOSHIO NISHIMOTO, STEPHAN IRLE
     MOSCOW STATE UNIVERSITY: VLADIMIR MIRONOV
     A.N.NESMEYANOV INSTITUTE OF ORGANOELEMENT COMPOUNDS OF RUSSIAN ACADEMY OF SCIENCES:
          IGOR S. GERASIMOV
     JOHANNES KEPLER UNIVERSITY LINZ:
          CHRISTIAN FRIEDL


 PARALLEL VERSION RUNNING ON        6 PROCESSORS IN        1 NODES.

 EXECUTION OF GAMESS BEGUN Sun May 17 12:34:17 2020

            ECHO OF THE FIRST FEW INPUT CARDS -
 INPUT CARD> $BASIS GBASIS=N21 NGAUSS=3 $END                                                
 INPUT CARD> $CONTRL SCFTYP=RHF DFTTYP=B3LYP MAXIT=60 MULT=1 ICHARG=-1 $END                 
 INPUT CARD> $SYSTEM MEMDDI=1000 MWORDS=30 $END                                             
 INPUT CARD> $SCF DIRSCF=.TRUE. $END                                                        
 INPUT CARD> $ELPOT  IEPOT=1 WHERE=PDC $END                                                 
 INPUT CARD> $PDC PTSEL=CHELPG CONSTR=CHARGE $END                                           
 INPUT CARD> $DATA                                                                          
 INPUT CARD>                                                                                
 INPUT CARD>C1                                                                              
 INPUT CARD>C 6.0000000 1.1847484836 0.4929323043 0.3625386195                              
 INPUT CARD>H 1.0000000 1.3296060401 0.7870686000 1.4118414888                              
 INPUT CARD>C 6.0000000 -0.1443783840 -0.2719136572 0.1764651559                            
 INPUT CARD>C 6.0000000 -1.4044029703 0.5354722703 0.5220892908                             
 INPUT CARD>C 6.0000000 -2.6936786927 -0.0784995941 -0.2086709297                           
 INPUT CARD>O 8.0000000 -2.4389494828 -0.7590991270 -1.2601634982                           
 INPUT CARD>O 8.0000000 -3.8063317606 0.2145460822 0.3242251544                             
 INPUT CARD>H 1.0000000 -0.3063147959 -0.5796440551 -0.8645041326                           
 INPUT CARD>H 1.0000000 -0.1214055052 -1.1928131132 0.7781544478                            
 INPUT CARD>H 1.0000000 -1.6061534683 0.5866304073 1.5983943631                             
 INPUT CARD>H 1.0000000 -1.2855532826 1.5704770068 0.1577487254                             
 INPUT CARD>H 1.0000000 2.0515389030 -0.1121999317 0.0561856930                             
 INPUT CARD>H 1.0000000 1.1792049156 1.4099228073 -0.2426343781                             
 INPUT CARD> $END                                                                           
   30000000 WORDS OF MEMORY AVAILABLE

     BASIS OPTIONS
     -------------
     GBASIS=N21          IGAUSS=       3      POLAR=NONE    
     NDFUNC=       0     NFFUNC=       0     DIFFSP=       F
     NPFUNC=       0      DIFFS=       F     BASNAM=        


     RUN TITLE
     ---------
                                                                                 

 THE POINT GROUP OF THE MOLECULE IS C1      
 THE ORDER OF THE PRINCIPAL AXIS IS     0

 ATOM      ATOMIC                      COORDINATES (BOHR)
           CHARGE         X                   Y                   Z
 C           6.0     2.2388499984        0.9315069856        0.6850986508
 H           1.0     2.5125910874        1.4873439875        2.6679935519
 C           6.0    -0.2728355843       -0.5138423044        0.3334707910
 C           6.0    -2.6539367902        1.0118958649        0.9866057007
 C           6.0    -5.0903146282       -0.1483427230       -0.3943308787
 O           8.0    -4.6089462204       -1.4344893475       -2.3813637113
 O           8.0    -7.1929240459        0.4054333071        0.6126967001
 H           1.0    -0.5788510302       -1.0953684346       -1.6336759259
 H           1.0    -0.2294231382       -2.2540899385        1.4704986825
 H           1.0    -3.0351899493        1.1085707259        3.0205273666
 H           1.0    -2.4293434467        2.9677712129        0.2981018659
 H           1.0     3.8768463798       -0.2120271268        0.1061755642
 H           1.0     2.2283741739        2.6643677696       -0.4585124898

          INTERNUCLEAR DISTANCES (ANGS.)
          ------------------------------

                1 C          2 H          3 C          4 C          5 C     

   1 C       0.0000000    1.0993345 *  1.5447300 *  2.5944116 *  3.9616931  
   2 H       1.0993345 *  0.0000000    2.1955018 *  2.8861332 *  4.4229050  
   3 C       1.5447300 *  2.1955018 *  0.0000000    1.5359004 *  2.5854730 *
   4 C       2.5944116 *  2.8861332 *  1.5359004 *  0.0000000    1.6041209 *
   5 C       3.9616931    4.4229050    2.5854730 *  1.6041209 *  0.0000000  
   6 O       4.1631637    4.8715763    2.7506923 *  2.4336447 *  1.2781781 *
   7 O       4.9989848    5.2809609    3.6970770    2.4313383 *  1.2680106 *
   8 H       2.2089191 *  3.1186359    1.0975147 *  2.0909145 *  2.5260185 *
   9 H       2.1726740 *  2.5351381 *  1.1002789 *  2.1676306 *  2.9718863 *
  10 H       3.0537276    2.9485015 *  2.2126380 *  1.0962450 *  2.2114687 *
  11 H       2.7028563 *  3.0042529    2.1672641 *  1.1036775 *  2.1991372 *
  12 H       1.1006193 *  1.7797959 *  2.2050008 *  3.5468408    4.7527229  
  13 H       1.0986977 *  1.7742205 *  2.1808464 *  2.8327541 *  4.1491905  

                6 O          7 O          8 H          9 H         10 H     

   1 C       4.1631637    4.9989848    2.2089191 *  2.1726740 *  3.0537276  
   2 H       4.8715763    5.2809609    3.1186359    2.5351381 *  2.9485015 *
   3 C       2.7506923 *  3.6970770    1.0975147 *  1.1002789 *  2.2126380 *
   4 C       2.4336447 *  2.4313383 *  2.0909145 *  2.1676306 *  1.0962450 *
   5 C       1.2781781 *  1.2680106 *  2.5260185 *  2.9718863 *  2.2114687 *
   6 O       0.0000000    2.3082475 *  2.1764377 *  3.1167063    3.2673981  
   7 O       2.3082475 *  0.0000000    3.7807319    3.9705659    2.5695794 *
   8 H       2.1764377 *  3.7807319    0.0000000    1.7630924 *  3.0192128  
   9 H       3.1167063    3.9705659    1.7630924 *  0.0000000    2.4583916 *
  10 H       3.2673981    2.5695794 *  3.0192128    2.4583916 *  0.0000000  
  11 H       2.9610341 *  2.8671566 *  2.5742823 *  3.0620117    1.7737527 *
  12 H       4.7239538    5.8730960    2.5740334 *  2.5319264 *  4.0305688  
  13 H       4.3394773    5.1580841    2.5596615 *  3.0834772    3.4388106  

               11 H         12 H         13 H     

   1 C       2.7028563 *  1.1006193 *  1.0986977 *
   2 H       3.0042529    1.7797959 *  1.7742205 *
   3 C       2.1672641 *  2.2050008 *  2.1808464 *
   4 C       1.1036775 *  3.5468408    2.8327541 *
   5 C       2.1991372 *  4.7527229    4.1491905  
   6 O       2.9610341 *  4.7239538    4.3394773  
   7 O       2.8671566 *  5.8730960    5.1580841  
   8 H       2.5742823 *  2.5740334 *  2.5596615 *
   9 H       3.0620117    2.5319264 *  3.0834772  
  10 H       1.7737527 *  4.0305688    3.4388106  
  11 H       0.0000000    3.7387031    2.5022225 *
  12 H       3.7387031    0.0000000    1.7796398 *
  13 H       2.5022225 *  1.7796398 *  0.0000000  

  * ... LESS THAN  3.000


     ATOMIC BASIS SET
     ----------------
 THE CONTRACTED PRIMITIVE FUNCTIONS HAVE BEEN UNNORMALIZED
 THE CONTRACTED BASIS FUNCTIONS ARE NOW NORMALIZED TO UNITY

  SHELL TYPE  PRIMITIVE        EXPONENT          CONTRACTION COEFFICIENT(S)

 C         

      1   S       1           172.2560000    0.061766907377
      1   S       2            25.9109000    0.358794042852
      1   S       3             5.5333500    0.700713083689

      2   L       4             3.6649800   -0.395895162119    0.236459946619
      2   L       5             0.7705450    1.215834355681    0.860618805716

      3   L       6             0.1958570    1.000000000000    1.000000000000

 H         

      4   S       7             5.4471780    0.156284978695
      4   S       8             0.8245472    0.904690876670

      5   S       9             0.1831916    1.000000000000

 C         

      6   S      10           172.2560000    0.061766907377
      6   S      11            25.9109000    0.358794042852
      6   S      12             5.5333500    0.700713083689

      7   L      13             3.6649800   -0.395895162119    0.236459946619
      7   L      14             0.7705450    1.215834355681    0.860618805716

      8   L      15             0.1958570    1.000000000000    1.000000000000

 C         

      9   S      16           172.2560000    0.061766907377
      9   S      17            25.9109000    0.358794042852
      9   S      18             5.5333500    0.700713083689

     10   L      19             3.6649800   -0.395895162119    0.236459946619
     10   L      20             0.7705450    1.215834355681    0.860618805716

     11   L      21             0.1958570    1.000000000000    1.000000000000

 C         

     12   S      22           172.2560000    0.061766907377
     12   S      23            25.9109000    0.358794042852
     12   S      24             5.5333500    0.700713083689

     13   L      25             3.6649800   -0.395895162119    0.236459946619
     13   L      26             0.7705450    1.215834355681    0.860618805716

     14   L      27             0.1958570    1.000000000000    1.000000000000

 O         

     15   S      28           322.0370000    0.059239393389
     15   S      29            48.4308000    0.351499960776
     15   S      30            10.4206000    0.707657921031

     16   L      31             7.4029400   -0.404453583190    0.244586106967
     16   L      32             1.5762000    1.221561761397    0.853955373466

     17   L      33             0.3736840    1.000000000000    1.000000000000

 O         

     18   S      34           322.0370000    0.059239393389
     18   S      35            48.4308000    0.351499960776
     18   S      36            10.4206000    0.707657921031

     19   L      37             7.4029400   -0.404453583190    0.244586106967
     19   L      38             1.5762000    1.221561761397    0.853955373466

     20   L      39             0.3736840    1.000000000000    1.000000000000

 H         

     21   S      40             5.4471780    0.156284978695
     21   S      41             0.8245472    0.904690876670

     22   S      42             0.1831916    1.000000000000

 H         

     23   S      43             5.4471780    0.156284978695
     23   S      44             0.8245472    0.904690876670

     24   S      45             0.1831916    1.000000000000

 H         

     25   S      46             5.4471780    0.156284978695
     25   S      47             0.8245472    0.904690876670

     26   S      48             0.1831916    1.000000000000

 H         

     27   S      49             5.4471780    0.156284978695
     27   S      50             0.8245472    0.904690876670

     28   S      51             0.1831916    1.000000000000

 H         

     29   S      52             5.4471780    0.156284978695
     29   S      53             0.8245472    0.904690876670

     30   S      54             0.1831916    1.000000000000

 H         

     31   S      55             5.4471780    0.156284978695
     31   S      56             0.8245472    0.904690876670

     32   S      57             0.1831916    1.000000000000

 TOTAL NUMBER OF BASIS SET SHELLS             =   32
 NUMBER OF CARTESIAN GAUSSIAN BASIS FUNCTIONS =   68
 NUMBER OF ELECTRONS                          =   48
 CHARGE OF MOLECULE                           =   -1
 SPIN MULTIPLICITY                            =    1
 NUMBER OF OCCUPIED ORBITALS (ALPHA)          =   24
 NUMBER OF OCCUPIED ORBITALS (BETA )          =   24
 TOTAL NUMBER OF ATOMS                        =   13
 THE NUCLEAR REPULSION ENERGY IS      225.7526871660

 SELECTED MURRAY-HANDY-LAMING RADIAL GRID

 LEGACY BECKE'S FUZZY CELL METHOD

 SELECTED ORIGINAL BECKE'S PARTITION FUNCTION

     LEBEDEV GRID-BASED DFT OPTIONS
     ------------------------------
     DFTTYP=B3LYP   
     NRAD  =      96     NLEB  =     302
     NRAD0 =      24     NLEB0 =     110
     SWOFF =    5.00E-03 (PURE SCF -> DFT)
     SWITCH=    3.00E-04 (COARSE -> TIGHT GRID)
     THRESH=    0.00E+00 GTHRE=    1.00E+00

 GRIMME'S EMPIRICAL DISPERSION CORRECTION= F

     $CONTRL OPTIONS
     ---------------
 SCFTYP=RHF          RUNTYP=ENERGY       EXETYP=RUN     
 MPLEVL=       0     CITYP =NONE         CCTYP =NONE         VBTYP =NONE    
 DFTTYP=B3LYP        TDDFT =NONE    
 MULT  =       1     ICHARG=      -1     NZVAR =       0     COORD =UNIQUE  
 PP    =NONE         RELWFN=NONE         LOCAL =NONE         NUMGRD=       F
 ISPHER=      -1     NOSYM =       0     MAXIT =      60     UNITS =ANGS    
 PLTORB=       F     MOLPLT=       F     AIMPAC=       F     FRIEND=        
 NPRINT=       7     IREST =       0     GEOM  =INPUT   
 NORMF =       0     NORMP =       0     ITOL  =      20     ICUT  =       9
 INTTYP=BEST         GRDTYP=BEST         QMTTOL= 1.0E-06

     $SYSTEM OPTIONS
     ---------------
  REPLICATED MEMORY=    30000000 WORDS (ON EVERY NODE).
 DISTRIBUTED MEMDDI=        1000 MILLION WORDS IN AGGREGATE,
 MEMDDI DISTRIBUTED OVER   6 PROCESSORS IS   166666666 WORDS/PROCESSOR.
 TOTAL MEMORY REQUESTED ON EACH PROCESSOR=   196666666 WORDS.
 TIMLIM=      525600.00 MINUTES, OR     365.0 DAYS.
 PARALL= T  BALTYP=  DLB     KDIAG=    0  COREFL= F
 MXSEQ2=     300 MXSEQ3=     150  mem10=         0

     INPUT FOR POTENTIAL-DERIVED CHARGES 
     -----------------------------------
     VDWSCL=    1.00   RMAX=    3.00   DELR=    0.80
     VDWINC=    0.20 PTDENS=    0.28
     LAYER =       4  NFREQ=      30 MAXPDC=   10000
     CONSTR=CHARGE    UNITS=ANGS      PTSEL=CHELPG  
     CENTER=  0.0000  0.0000  0.0000
     DPOLE =  0.0000  0.0000  0.0000
     QPOLE =  0.0000  0.0000  0.0000  0.0000  0.0000  0.0000


          ----------------
          PROPERTIES INPUT
          ----------------

     MOMENTS            FIELD           POTENTIAL          DENSITY
 IEMOM =       1   IEFLD =       0   IEPOT =       1   IEDEN =       0
 WHERE =COMASS     WHERE =NUCLEI     WHERE =PDC        WHERE =NUCLEI  
 OUTPUT=BOTH       OUTPUT=BOTH       OUTPUT=BOTH       OUTPUT=BOTH    
 IEMINT=       0   IEFINT=       0                     IEDINT=       0
                                                       MORB  =       0
          EXTRAPOLATION IN EFFECT
          DIIS IN EFFECT
 ORBITAL PRINTING OPTION: NPREO=     1    68     2     1

     -------------------------------
     INTEGRAL TRANSFORMATION OPTIONS
     -------------------------------
     NWORD  =            0
     CUTOFF = 1.0E-09     MPTRAN =       0
     DIRTRF =       T     AOINTS =DUP     

          ----------------------
          INTEGRAL INPUT OPTIONS
          ----------------------
 NOPK  =       1 NORDER=       0 SCHWRZ=       T

     ------------------------------------------
     THE POINT GROUP IS C1 , NAXIS= 0, ORDER= 1
     ------------------------------------------

     DIMENSIONS OF THE SYMMETRY SUBSPACES ARE
 A   =   68

 ..... DONE SETTING UP THE RUN .....
 CPU     0: STEP CPU TIME=     0.02 TOTAL CPU TIME=          0.0 (      0.0 MIN)
 TOTAL WALL CLOCK TIME=          0.0 SECONDS, CPU UTILIZATION IS    66.67%

          ********************
          1 ELECTRON INTEGRALS
          ********************
 ...... END OF ONE-ELECTRON INTEGRALS ......
 CPU     0: STEP CPU TIME=     0.01 TOTAL CPU TIME=          0.0 (      0.0 MIN)
 TOTAL WALL CLOCK TIME=          0.0 SECONDS, CPU UTILIZATION IS    75.00%

          -------------
          GUESS OPTIONS
          -------------
          GUESS =HUCKEL            NORB  =       0          NORDER=       0
          MIX   =       F          PRTMO =       F          PUNMO =       F
          TOLZ  = 1.0E-08          TOLE  = 1.0E-05
          SYMDEN=       F          PURIFY=       F

 INITIAL GUESS ORBITALS GENERATED BY HUCKEL   ROUTINE.
 HUCKEL GUESS REQUIRES     48616 WORDS.

 SYMMETRIES FOR INITIAL GUESS ORBITALS FOLLOW.   BOTH SET(S).
    24 ORBITALS ARE OCCUPIED (    6 CORE ORBITALS).
     7=A        8=A        9=A       10=A       11=A       12=A       13=A   
    14=A       15=A       16=A       17=A       18=A       19=A       20=A   
    21=A       22=A       23=A       24=A       25=A       26=A       27=A   
    28=A       29=A       30=A       31=A       32=A       33=A       34=A   
 ...... END OF INITIAL ORBITAL SELECTION ......
 CPU     0: STEP CPU TIME=     0.01 TOTAL CPU TIME=          0.0 (      0.0 MIN)
 TOTAL WALL CLOCK TIME=          0.1 SECONDS, CPU UTILIZATION IS    80.00%

                    ----------------------
                    AO INTEGRAL TECHNOLOGY
                    ----------------------
     S,P,L SHELL ROTATED AXIS INTEGRALS, REPROGRAMMED BY
        KAZUYA ISHIMURA (IMS) AND JOSE SIERRA (SYNSTAR).
     S,P,D,L SHELL ROTATED AXIS INTEGRALS PROGRAMMED BY
        KAZUYA ISHIMURA (INSTITUTE FOR MOLECULAR SCIENCE).
     S,P,D,F,G SHELL TO TOTAL QUARTET ANGULAR MOMENTUM SUM 5,
        ERIC PROGRAM BY GRAHAM FLETCHER (ELORET AND NASA ADVANCED
        SUPERCOMPUTING DIVISION, AMES RESEARCH CENTER).
     S,P,D,F,G,L SHELL GENERAL RYS QUADRATURE PROGRAMMED BY
        MICHEL DUPUIS (PACIFIC NORTHWEST NATIONAL LABORATORY).

          --------------------
          2 ELECTRON INTEGRALS
          --------------------

 DIRECT SCF METHOD SKIPS INTEGRAL STORAGE ON DISK.
 DIRECT TRANSFORMATION SKIPS AO INTEGRAL STORAGE ON DISK.
  ...... END OF TWO-ELECTRON INTEGRALS .....
 CPU     0: STEP CPU TIME=     0.01 TOTAL CPU TIME=          0.0 (      0.0 MIN)
 TOTAL WALL CLOCK TIME=          0.1 SECONDS, CPU UTILIZATION IS    83.33%

          --------------------------
             R-B3LYP SCF CALCULATION
          --------------------------

     NUCLEAR ENERGY =       225.7526871660
     MAXIT =   60     NPUNCH=    2
     EXTRAP=T  DAMP=F  SHIFT=F  RSTRCT=F  DIIS=T  DEM=F  SOSCF=F
         DENSITY MATRIX CONVERGENCE THRESHOLD=  2.00E-05
     COARSE -> FINE DFT GRID SWITCH THRESHOLD=  3.00E-04 (SWITCH IN $DFT)
                   HF -> DFT SWITCH THRESHOLD=  5.00E-03 (SWOFF IN $DFT)
     MEMORY REQUIRED FOR RHF ITERS=    520340 WORDS.

 DIRECT SCF CALCULATION, SCHWRZ=T   FDIFF=T,  DIRTHR=  0.00E+00 NITDIR=10
 SCHWARZ INEQUALITY OVERHEAD:      2261 INTEGRALS, T=        0.00

 DFT CODE IS SWITCHING FROM THE FINE GRID NRAD= 96,  NLEB=  302
                      TO THE COARSE GRID NRAD0= 24, NLEB0=  110

     EXCHANGE FUNCTIONAL   =B88&HFX   
     CORRELATION FUNCTIONAL=LYP88&VWN5
     DFT THRESHOLD         =.106E-07
     GRID CHANGE THRESHOLD =.300E-03
 FOR AN EULER-MACLAURIN QUADRATURE USING  96 RADIAL POINTS:
 SMALLEST GAUSSIAN PRIMITIVE EXPONENT=        0.1831915800 OF TYPE -S-
 ON ATOM NUMBER   2 HAS RADIAL NORMALIZATION=  1.000000
  LARGEST GAUSSIAN PRIMITIVE EXPONENT=      322.0370000000 OF TYPE -S-
 ON ATOM NUMBER   6 HAS RADIAL NORMALIZATION=  1.000000
 DFT IS SWITCHED OFF, PERFORMING PURE SCF UNTIL SWOFF THRESHOLD IS REACHED.

                                                                                   NONZERO     BLOCKS
 ITER EX DEM     TOTAL ENERGY        E CHANGE  DENSITY CHANGE    DIIS ERROR      INTEGRALS    SKIPPED
   1  0  0     -302.7873370906  -302.7873370906   0.844424762   0.852024757        2080457      41289
          * * *   INITIATING DIIS PROCEDURE   * * *
   2  1  0     -303.4876138045    -0.7002767140   0.096865303   0.160273969        2077462      42815
   3  2  0     -303.5442814753    -0.0566676707   0.114073914   0.122236965        2067351      45378
   4  3  0     -303.5741608805    -0.0298794053   0.029469381   0.010537341        2049689      48528
   5  4  0     -303.5748625139    -0.0007016333   0.005322594   0.003005040        2022251      50911
   6  5  0     -303.5749100734    -0.0000475596   0.002153205   0.001272870        1966006      55312
 CONVERGED TO SWOFF, SO DFT CALCULATION IS NOW SWITCHED ON.
          * * *   INITIATING DIIS PROCEDURE   * * *
   7  6  0     -305.2176343421    -1.6427242687   0.164850065   0.092392384        2081180      40772
   8  7  0     -305.2361209919    -0.0184866498   0.135874647   0.063353219        2069521      45176
   9  8  0     -305.2393443136    -0.0032233217   0.075567690   0.056422736        2058940      46679
  10  9  0     -305.2486911926    -0.0093468790   0.010073032   0.013148665        2043746      49041
  11 10  0     -305.2489394752    -0.0002482827   0.002186432   0.003896524        1999357      52740
  12 11  0     -305.2489522543    -0.0000127790   0.000716896   0.002384739        1949574      57086
  13 12  0     -305.2489567404    -0.0000044862   0.000397872   0.000239802        1896899      60866
  14 13  0     -305.2489570350    -0.0000002945   0.000104817   0.000049040        1833568      63802
 DFT CODE IS SWITCHING BACK TO THE FINE GRID
          * * *   INITIATING DIIS PROCEDURE   * * *
  15 14  0     -305.2486883645     0.0002686705   0.002069906   0.001081045        2081480      40532
  16 15  0     -305.2486978446    -0.0000094801   0.001004631   0.000667881        1963701      55190
  17 16  0     -305.2486968825     0.0000009621   0.000497562   0.001212037        1896125      60989
  18 17  0     -305.2486987759    -0.0000018934   0.000121315   0.000363426        1876565      62553
  19 18  0     -305.2486988913    -0.0000001154   0.000045370   0.000036713        1773068      68645
  20 19  0     -305.2486988950    -0.0000000037   0.000018225   0.000007613        1671647      72619
  21 20  0     -305.2486988952    -0.0000000002   0.000004110   0.000003595        1552375      78381

          -----------------
          DENSITY CONVERGED
          -----------------
     TIME TO FORM FOCK OPERATORS=       5.9 SECONDS (       0.3 SEC/ITER)
     FOCK TIME ON FIRST ITERATION=       0.0, LAST ITERATION=       0.7
     TIME TO SOLVE SCF EQUATIONS=       0.2 SECONDS (       0.0 SEC/ITER)

 FINAL R-B3LYP ENERGY IS     -305.2486988952 AFTER  21 ITERATIONS
 DFT EXCHANGE + CORRELATION ENERGY =       -33.5514818241
 TOTAL ELECTRON NUMBER             =        47.9998860052

          ------------
          EIGENVECTORS
          ------------

                      1          2          3          4          5
                  -18.7298   -18.7238    -9.9731    -9.9699    -9.9405
                     A          A          A          A          A   
    1  C  1  S    0.000053  -0.000101  -0.028466   0.985824   0.010984
    2  C  1  S    0.000182  -0.000499  -0.004297   0.111935  -0.001476
    3  C  1  X    0.000410  -0.000351   0.000176   0.000241  -0.000272
    4  C  1  Y   -0.000043   0.000076  -0.000088   0.000266  -0.000047
    5  C  1  Z   -0.000145  -0.000048  -0.000180   0.000061   0.000106
    6  C  1  S   -0.002878   0.004578   0.007483  -0.090214   0.022042
    7  C  1  X    0.000607  -0.001345  -0.003061   0.004506  -0.012270
    8  C  1  Y    0.000753  -0.001845  -0.000646   0.001695  -0.005719
    9  C  1  Z    0.001004  -0.000394   0.000236   0.000683  -0.002079
   10  H  2  S    0.000055  -0.000201  -0.000511  -0.000081  -0.001432
   11  H  2  S   -0.000500   0.000138  -0.000474   0.015838   0.001232
   12  C  3  S   -0.000059  -0.000012  -0.004541  -0.011861   0.986590
   13  C  3  S   -0.000163  -0.000351  -0.001472  -0.003654   0.115188
   14  C  3  X   -0.000624   0.001220   0.001433  -0.000134   0.000163
   15  C  3  Y   -0.000271   0.000216   0.000232  -0.000208   0.000181
   16  C  3  Z    0.000064   0.000065   0.000078  -0.000011   0.000072
   17  C  3  S    0.005056  -0.003728  -0.000764   0.020952  -0.103635
   18  C  3  X    0.000200  -0.004255  -0.005344   0.011488   0.001605
   19  C  3  Y    0.005016  -0.004054  -0.001956   0.006577  -0.006905
   20  C  3  Z    0.000828  -0.000193   0.000425   0.000898  -0.001095
   21  C  4  S    0.000082   0.000029  -0.005725  -0.003082  -0.016946
   22  C  4  S    0.000267  -0.000256  -0.002928  -0.001211  -0.004869
   23  C  4  X    0.001050  -0.000282   0.000221  -0.000971   0.000224
   24  C  4  Y    0.000054  -0.000058   0.000303  -0.000163  -0.000002
   25  C  4  Z   -0.000200   0.000612   0.000309  -0.000230   0.000177
   26  C  4  S   -0.000740   0.000299   0.018032   0.000499   0.026012
   27  C  4  X   -0.008942   0.005629  -0.011950   0.001817   0.013169
   28  C  4  Y    0.002637  -0.000520  -0.004841   0.000796  -0.006718
   29  C  4  Z    0.006031  -0.006249  -0.007012   0.001890  -0.003861
   30  C  5  S   -0.000098  -0.000076   0.984797   0.028079   0.004700
   31  C  5  S    0.000112   0.000319   0.103871   0.002042  -0.000303
   32  C  5  X    0.000344  -0.001597   0.000698  -0.000198  -0.000650
   33  C  5  Y   -0.001092   0.000302   0.000297   0.000104  -0.000015
   34  C  5  Z   -0.001737   0.000741   0.000309  -0.000147  -0.000187
   35  C  5  S    0.016600   0.020763  -0.048341   0.002174  -0.001140
   36  C  5  X    0.008221  -0.022663  -0.017012   0.002125   0.000218
   37  C  5  Y   -0.014684   0.007281  -0.007025  -0.000238   0.000653
   38  C  5  Z   -0.022916   0.013112  -0.008082   0.000421   0.000891
   39  O  6  S    0.981757   0.042544   0.000288   0.000015   0.000010
   40  O  6  S    0.106520   0.003479   0.001094   0.000025   0.000088
   41  O  6  X   -0.000661  -0.000834  -0.000486  -0.000040   0.000205
   42  O  6  Y    0.002357  -0.000084  -0.000323   0.000008  -0.000007
   43  O  6  Z    0.003614   0.000015  -0.000312  -0.000045  -0.000265
   44  O  6  S   -0.059552   0.004226   0.000091  -0.000506   0.000043
   45  O  6  X    0.002574   0.004727   0.004485   0.000064  -0.001170
   46  O  6  Y   -0.008769   0.001061  -0.001532  -0.000239   0.000098
   47  O  6  Z   -0.013484   0.000997  -0.003209  -0.000302   0.000849
   48  O  7  S   -0.042817   0.981767   0.000328  -0.000002  -0.000034
   49  O  7  S   -0.005778   0.106629   0.001324  -0.000085  -0.000390
   50  O  7  X   -0.000620   0.003919  -0.000651   0.000001  -0.000145
   51  O  7  Y   -0.000405  -0.001027  -0.000245  -0.000026  -0.000096
   52  O  7  Z   -0.000599  -0.001852  -0.000285   0.000047   0.000006
   53  O  7  S    0.009232  -0.060076  -0.001687   0.000450   0.000962
   54  O  7  X    0.003998  -0.014727  -0.002631  -0.000212   0.000593
   55  O  7  Y    0.002208   0.003794   0.003188   0.000114   0.000249
   56  O  7  Z    0.003132   0.006829   0.004809  -0.000177  -0.000074
   57  H  8  S   -0.000970  -0.000364  -0.000619  -0.001202   0.000678
   58  H  8  S    0.002402   0.000552   0.000886   0.000464   0.017397
   59  H  9  S    0.000402  -0.000263  -0.000371  -0.001240   0.000636
   60  H  9  S    0.000795  -0.001238  -0.000896   0.001261   0.015796
   61  H 10  S   -0.001191   0.000903  -0.001352  -0.000048  -0.001376
   62  H 10  S   -0.001873   0.002772   0.002446  -0.001548   0.000992
   63  H 11  S    0.000476   0.000003  -0.001657  -0.000277  -0.001532
   64  H 11  S   -0.000244  -0.001712   0.002336  -0.000208  -0.000185
   65  H 12  S    0.000145  -0.000308  -0.000185  -0.000164  -0.001132
   66  H 12  S    0.000736  -0.000591   0.000263   0.015457   0.000617
   67  H 13  S    0.000052  -0.000089  -0.000198  -0.000018  -0.001597
   68  H 13  S    0.000426   0.000164  -0.000940   0.016142   0.000610

                      6          7          8          9         10
                   -9.9179    -0.7785    -0.6965    -0.6121    -0.5169
                     A          A          A          A          A   
    1  C  1  S    0.003015  -0.002030   0.004408  -0.145241  -0.138201
    2  C  1  S   -0.000657   0.003301  -0.002168   0.143460   0.129712
    3  C  1  X    0.000926  -0.002219   0.003341  -0.036958   0.051492
    4  C  1  Y   -0.000084  -0.000576   0.000862  -0.016562   0.014382
    5  C  1  Z   -0.000106  -0.000103   0.000642  -0.003498   0.002124
    6  C  1  S    0.001331  -0.001720  -0.028953   0.364168   0.436141
    7  C  1  X   -0.000893   0.004070   0.007187   0.004474   0.019507
    8  C  1  Y   -0.000342   0.002376   0.007090   0.002136   0.000823
    9  C  1  Z    0.000264  -0.000283   0.001968   0.001471   0.000778
   10  H  2  S   -0.000137   0.001262  -0.001083   0.074337   0.088043
   11  H  2  S   -0.000516  -0.000277   0.000016   0.007241   0.021853
   12  C  3  S    0.016097  -0.009873   0.010687  -0.147551   0.051584
   13  C  3  S   -0.001007   0.011258  -0.011231   0.141327  -0.049634
   14  C  3  X   -0.000220  -0.009390   0.001183   0.020753   0.115902
   15  C  3  Y   -0.000291   0.001631  -0.001662   0.033073  -0.000999
   16  C  3  Z    0.000045  -0.001690   0.002936   0.012416  -0.005719
   17  C  3  S    0.022433   0.015252   0.003048   0.364308  -0.148238
   18  C  3  X   -0.013530   0.008075   0.016644   0.009996   0.009095
   19  C  3  Y    0.008209  -0.000604   0.020445   0.008521  -0.001278
   20  C  3  Z    0.001984   0.000261   0.000588   0.002717  -0.000604
   21  C  4  S    0.986677  -0.027885   0.003497  -0.087038   0.150762
   22  C  4  S    0.115335   0.025952  -0.002992   0.084400  -0.140233
   23  C  4  X    0.000315  -0.018693  -0.008531   0.047803  -0.009937
   24  C  4  Y    0.000179  -0.010224   0.007524  -0.014664   0.007660
   25  C  4  Z   -0.000188  -0.012218   0.009660  -0.006728   0.003182
   26  C  4  S   -0.103384   0.043286  -0.007237   0.206506  -0.435150
   27  C  4  X   -0.000558   0.007761  -0.034880  -0.003688  -0.005812
   28  C  4  Y    0.005816   0.001319   0.009103  -0.002173   0.006648
   29  C  4  Z    0.006461   0.000987   0.029377  -0.004181   0.005617
   30  C  5  S    0.005018  -0.147028  -0.001784   0.001170   0.018014
   31  C  5  S   -0.002542   0.162040   0.002009   0.002900  -0.023903
   32  C  5  X    0.000417  -0.060120  -0.143122   0.027726  -0.075385
   33  C  5  Y    0.000123  -0.024847   0.098312   0.019095  -0.035775
   34  C  5  Z    0.000157  -0.034075   0.159829   0.028295  -0.045981
   35  C  5  S    0.024041   0.172765  -0.003803  -0.018252  -0.019807
   36  C  5  X    0.013933   0.035668   0.014785  -0.006675  -0.013701
   37  C  5  Y    0.004815   0.014826  -0.013008  -0.002679  -0.006915
   38  C  5  Z    0.005726   0.018126  -0.021205  -0.003323  -0.008926
   39  O  6  S    0.000045  -0.139713   0.160629   0.027313  -0.031348
   40  O  6  S    0.000089   0.129035  -0.150501  -0.026282   0.030024
   41  O  6  X    0.000209  -0.020524   0.005804   0.010509  -0.020128
   42  O  6  Y   -0.000226   0.051968  -0.050428  -0.006609   0.001374
   43  O  6  Z   -0.000145   0.080018  -0.076871  -0.009814   0.003461
   44  O  6  S   -0.002087   0.417928  -0.514793  -0.086558   0.104728
   45  O  6  X   -0.001749  -0.028921   0.001006   0.012333  -0.017786
   46  O  6  Y   -0.000378   0.049094  -0.049119  -0.006440   0.002892
   47  O  6  Z   -0.001023   0.076982  -0.073875  -0.009765   0.004663
   48  O  7  S   -0.000015  -0.139732  -0.161713   0.007836  -0.025469
   49  O  7  S   -0.000424   0.128887   0.151232  -0.007010   0.023994
   50  O  7  X   -0.000171   0.085978   0.087742  -0.000228  -0.003367
   51  O  7  Y    0.000087  -0.023992  -0.016517   0.003891  -0.010109
   52  O  7  Z    0.000183  -0.043620  -0.032356   0.005906  -0.014499
   53  O  7  S    0.000482   0.418943   0.517689  -0.025493   0.086142
   54  O  7  X   -0.000904   0.079066   0.085702  -0.000614  -0.000610
   55  O  7  Y   -0.000761  -0.028142  -0.012354   0.003846  -0.008225
   56  O  7  Z   -0.001168  -0.049123  -0.025992   0.006477  -0.012387
   57  H  8  S   -0.001734   0.009475  -0.009300   0.065014  -0.033630
   58  H  8  S    0.000954   0.003047  -0.013025  -0.008954   0.000813
   59  H  9  S   -0.001367   0.003704  -0.003557   0.069347  -0.030126
   60  H  9  S    0.001991   0.000281   0.005296   0.001695  -0.006356
   61  H 10  S    0.000267   0.010142  -0.001324   0.038733  -0.083844
   62  H 10  S    0.015781  -0.003473  -0.005374   0.001625  -0.012298
   63  H 11  S    0.000908   0.009262  -0.000557   0.043581  -0.082374
   64  H 11  S    0.016567  -0.003486   0.004188   0.004067  -0.011690
   65  H 12  S   -0.000357   0.001042  -0.000982   0.072157   0.096332
   66  H 12  S    0.001568  -0.001403   0.002915   0.005583   0.031572
   67  H 13  S    0.000130   0.001087  -0.001519   0.074683   0.086854
   68  H 13  S   -0.001091  -0.000072   0.000040   0.008726   0.019779

                     11         12         13         14         15
                   -0.4172    -0.2964    -0.2894    -0.2516    -0.2312
                     A          A          A          A          A   
    1  C  1  S    0.060471  -0.000499  -0.004314  -0.001422   0.004953
    2  C  1  S   -0.055093   0.000011   0.003985   0.001646  -0.005649
    3  C  1  X   -0.093228   0.038947   0.202210  -0.049489   0.066998
    4  C  1  Y   -0.092718  -0.094924  -0.135996   0.223982   0.166386
    5  C  1  Z   -0.022782   0.237774  -0.068578   0.152717  -0.178120
    6  C  1  S   -0.235062   0.004653   0.013418   0.007898  -0.012023
    7  C  1  X   -0.033914   0.027865   0.150455  -0.020319   0.054865
    8  C  1  Y   -0.051682  -0.073938  -0.099366   0.165988   0.129678
    9  C  1  Z   -0.011736   0.172766  -0.050065   0.112606  -0.146174
   10  H  2  S   -0.071678   0.137682  -0.048084   0.144041  -0.094180
   11  H  2  S   -0.041912   0.131444  -0.046923   0.142812  -0.091968
   12  C  3  S   -0.140333   0.007629   0.016342  -0.008049   0.005493
   13  C  3  S    0.126399  -0.006390  -0.014621   0.005858  -0.005590
   14  C  3  X    0.026253   0.017340  -0.008039  -0.120084  -0.103960
   15  C  3  Y   -0.099253  -0.092280  -0.157625  -0.010983  -0.071222
   16  C  3  Z   -0.025566   0.217696  -0.070464  -0.002588   0.047487
   17  C  3  S    0.504255  -0.037479  -0.047702   0.059191  -0.019536
   18  C  3  X    0.010270   0.009100   0.013228  -0.082229  -0.077841
   19  C  3  Y   -0.032316  -0.063990  -0.107943  -0.001121  -0.053020
   20  C  3  Z   -0.009341   0.160430  -0.055463  -0.009268   0.051041
   21  C  4  S    0.104367  -0.008631   0.001311   0.026713  -0.009461
   22  C  4  S   -0.095242   0.008025  -0.002036  -0.019862   0.008494
   23  C  4  X    0.076201  -0.015203  -0.177490  -0.033284   0.006368
   24  C  4  Y   -0.078979  -0.043355  -0.088699  -0.173686  -0.148228
   25  C  4  Z   -0.025028   0.143651  -0.052696  -0.122038   0.206377
   26  C  4  S   -0.362436   0.033259  -0.002980  -0.136086   0.034950
   27  C  4  X    0.001884  -0.004727  -0.101058  -0.014466  -0.002676
   28  C  4  Y   -0.032293  -0.026877  -0.064625  -0.112888  -0.109153
   29  C  4  Z   -0.006810   0.094040  -0.032021  -0.071670   0.145390
   30  C  5  S    0.030953   0.005113  -0.076825  -0.071140   0.031646
   31  C  5  S   -0.036662  -0.006159   0.089581   0.083613  -0.037897
   32  C  5  X   -0.067182  -0.019947   0.115878   0.085394  -0.014242
   33  C  5  Y   -0.038496  -0.031961   0.045990   0.001839  -0.086964
   34  C  5  Z   -0.028898   0.008423   0.074889   0.040894   0.060159
   35  C  5  S   -0.064974  -0.011602   0.206833   0.205037  -0.088267
   36  C  5  X   -0.024097  -0.015646   0.103799   0.096967  -0.027695
   37  C  5  Y   -0.025059  -0.021147   0.037277   0.016266  -0.081769
   38  C  5  Z   -0.020880   0.008395   0.057304   0.050595   0.040001
   39  O  6  S   -0.011839  -0.012007   0.044688   0.051763  -0.024454
   40  O  6  S    0.011317   0.011177  -0.041857  -0.046853   0.021458
   41  O  6  X   -0.005096  -0.023233   0.043934   0.035072   0.000434
   42  O  6  Y   -0.011328  -0.014346   0.026936   0.036306  -0.071940
   43  O  6  Z   -0.006450   0.003181   0.047180   0.076302  -0.008585
   44  O  6  S    0.039374   0.046621  -0.172880  -0.207633   0.101406
   45  O  6  X    0.001381  -0.021085   0.029786   0.024138   0.003219
   46  O  6  Y   -0.009787  -0.012439   0.022109   0.031314  -0.064772
   47  O  6  Z   -0.006543   0.004311   0.042012   0.068599  -0.007616
   48  O  7  S   -0.030564   0.004148   0.042951   0.028679  -0.013515
   49  O  7  S    0.028206  -0.002955  -0.040772  -0.027615   0.012714
   50  O  7  X   -0.014341   0.001656   0.064444   0.053663  -0.021621
   51  O  7  Y   -0.012791  -0.011641   0.010718  -0.009739  -0.037639
   52  O  7  Z   -0.011929   0.004887   0.017294   0.001877   0.043207
   53  O  7  S    0.113616  -0.019913  -0.160703  -0.107120   0.051690
   54  O  7  X   -0.008007  -0.000194   0.055791   0.048536  -0.020270
   55  O  7  Y   -0.009508  -0.008812   0.003645  -0.016169  -0.030208
   56  O  7  Z   -0.009748   0.005944   0.007033  -0.009339   0.043795
   57  H  8  S    0.108525  -0.112400   0.054856   0.022100  -0.014169
   58  H  8  S    0.037160  -0.076405   0.032388  -0.009875   0.006555
   59  H  9  S    0.125835   0.116846   0.044553   0.009215   0.054679
   60  H  9  S    0.058720   0.104628   0.047590   0.007989   0.056319
   61  H 10  S   -0.087725   0.092146  -0.014062  -0.098649   0.141469
   62  H 10  S   -0.036724   0.081432  -0.020101  -0.088690   0.139926
   63  H 11  S   -0.096984  -0.051793  -0.056072  -0.100824  -0.131868
   64  H 11  S   -0.045673  -0.052556  -0.055159  -0.088028  -0.127462
   65  H 12  S   -0.050683   0.011472   0.173966  -0.150756   0.001795
   66  H 12  S   -0.025634   0.009443   0.166576  -0.166628   0.002110
   67  H 13  S   -0.074883  -0.139946  -0.049639   0.073026   0.169698
   68  H 13  S   -0.043736  -0.128801  -0.048408   0.068084   0.172520

                     16         17         18         19         20
                   -0.2124    -0.1789    -0.1734    -0.1504    -0.1289
                     A          A          A          A          A   
    1  C  1  S    0.020840  -0.001910   0.023738  -0.016787  -0.000608
    2  C  1  S   -0.020634   0.000395  -0.019674   0.012480  -0.001620
    3  C  1  X    0.229285  -0.089102   0.129668  -0.075696  -0.030878
    4  C  1  Y    0.054278   0.102208   0.126434  -0.042075   0.019928
    5  C  1  Z    0.122053   0.033675  -0.063083  -0.086256   0.028701
    6  C  1  S   -0.084498   0.010436  -0.129165   0.105183   0.014897
    7  C  1  X    0.179736  -0.075545   0.117342  -0.070859  -0.044816
    8  C  1  Y    0.045117   0.071336   0.111736  -0.054346   0.010736
    9  C  1  Z    0.095681   0.024691  -0.033328  -0.062639   0.020568
   10  H  2  S    0.105188   0.045525  -0.037387  -0.081545   0.031736
   11  H  2  S    0.128943   0.059471  -0.041096  -0.129792   0.056511
   12  C  3  S    0.006741   0.012094   0.000849   0.005539   0.013857
   13  C  3  S   -0.008535  -0.011674  -0.002399  -0.003076  -0.014570
   14  C  3  X   -0.221795   0.164421  -0.090335   0.044642   0.104919
   15  C  3  Y   -0.061143  -0.195766  -0.193939   0.061935  -0.095529
   16  C  3  Z   -0.107355  -0.065814   0.141464   0.209101  -0.100755
   17  C  3  S   -0.014318  -0.050425   0.015222  -0.058203  -0.068904
   18  C  3  X   -0.161833   0.108891  -0.025839  -0.010141   0.083602
   19  C  3  Y   -0.035589  -0.143081  -0.140992   0.046670  -0.122987
   20  C  3  Z   -0.074627  -0.036231   0.100696   0.192606  -0.119628
   21  C  4  S   -0.022270   0.024538   0.001611  -0.006023   0.009390
   22  C  4  S    0.017097  -0.021595  -0.003760   0.007193  -0.010717
   23  C  4  X    0.097492  -0.219155   0.061906  -0.027737  -0.087574
   24  C  4  Y   -0.003112   0.133004   0.127322  -0.090447   0.106108
   25  C  4  Z   -0.066437   0.049525  -0.080361  -0.117069   0.078563
   26  C  4  S    0.096484  -0.106993   0.009430   0.001697  -0.028344
   27  C  4  X    0.041709  -0.181794   0.061109  -0.035907  -0.008894
   28  C  4  Y    0.000635   0.107679   0.078566  -0.072452   0.067448
   29  C  4  Z   -0.067759   0.040333  -0.058243  -0.124118   0.025869
   30  C  5  S    0.092423   0.022016  -0.013526   0.025222  -0.000663
   31  C  5  S   -0.115149  -0.035976   0.022788  -0.043291  -0.000248
   32  C  5  X    0.039389   0.040703  -0.086219   0.245053   0.147150
   33  C  5  Y    0.010320   0.154927   0.041141   0.077247  -0.195831
   34  C  5  Z    0.002732   0.096651  -0.152376  -0.020924  -0.159683
   35  C  5  S   -0.253996  -0.036351   0.021027  -0.038864   0.011927
   36  C  5  X   -0.035636   0.052041  -0.068250   0.100467   0.013911
   37  C  5  Y   -0.019913   0.093120   0.061444   0.098664  -0.092121
   38  C  5  Z   -0.029321   0.017424  -0.112018   0.024463   0.023236
   39  O  6  S   -0.047233  -0.054891   0.030239  -0.016094   0.062723
   40  O  6  S    0.041388   0.044596  -0.023654   0.012430  -0.051578
   41  O  6  X    0.074287   0.078846  -0.088091   0.115385  -0.009299
   42  O  6  Y   -0.063382  -0.047247   0.104692   0.046988   0.090467
   43  O  6  Z   -0.100896  -0.155648   0.031439  -0.030337   0.265205
   44  O  6  S    0.195458   0.234513  -0.135650   0.087184  -0.254885
   45  O  6  X    0.084266   0.072722  -0.082308   0.116086  -0.000939
   46  O  6  Y   -0.060034  -0.046972   0.096256   0.049616   0.096447
   47  O  6  Z   -0.097702  -0.149182   0.030664  -0.023767   0.271360
   48  O  7  S   -0.073252   0.002346   0.012896  -0.068988  -0.053896
   49  O  7  S    0.063854  -0.002999  -0.009471   0.056400   0.043485
   50  O  7  X   -0.133377   0.046249  -0.006155  -0.168477  -0.235400
   51  O  7  Y    0.038060   0.092998   0.018787   0.139191  -0.031019
   52  O  7  Z    0.061299   0.051651  -0.119567   0.138473   0.095455
   53  O  7  S    0.303243  -0.000307  -0.062428   0.290642   0.216333
   54  O  7  X   -0.121489   0.046876  -0.007890  -0.170694  -0.245298
   55  O  7  Y    0.042695   0.092361   0.017021   0.135450  -0.030852
   56  O  7  Z    0.066028   0.054395  -0.115179   0.136375   0.092471
   57  H  8  S    0.100185   0.066131  -0.061105  -0.165264   0.072187
   58  H  8  S    0.130154   0.128775  -0.096664  -0.135671   0.028441
   59  H  9  S   -0.016334   0.091812   0.191574   0.048849   0.008454
   60  H  9  S   -0.015100   0.111361   0.225666   0.051081   0.017352
   61  H 10  S   -0.037154   0.047314  -0.070318  -0.086054   0.076618
   62  H 10  S   -0.022702   0.070504  -0.090245  -0.077114   0.127149
   63  H 11  S    0.038098   0.046416   0.124567  -0.031786   0.046547
   64  H 11  S    0.030597   0.073937   0.162273  -0.040880   0.063849
   65  H 12  S    0.070178  -0.120189   0.017510   0.008384  -0.044487
   66  H 12  S    0.092601  -0.149233   0.036116  -0.001434  -0.059250
   67  H 13  S   -0.040721   0.062334   0.102469   0.030344   0.003627
   68  H 13  S   -0.031930   0.081588   0.153018   0.033913   0.010115

                     21         22         23         24         25
                   -0.1225     0.0104     0.0143     0.0229     0.2655
                     A          A          A          A          A   
    1  C  1  S   -0.000675  -0.003071   0.007940   0.015027  -0.137466
    2  C  1  S    0.003135  -0.002390  -0.009079  -0.009004   0.055472
    3  C  1  X    0.002789  -0.004803   0.017160   0.045768   0.137064
    4  C  1  Y    0.001995  -0.004463  -0.000926   0.017896   0.071864
    5  C  1  Z    0.015821  -0.001466  -0.009665   0.005898   0.018205
    6  C  1  S   -0.011526   0.059889  -0.020540  -0.120774   1.823446
    7  C  1  X    0.021075  -0.032114  -0.010296   0.065049   0.480509
    8  C  1  Y    0.008542  -0.020058  -0.017871   0.038407   0.280211
    9  C  1  Z   -0.002319  -0.007067  -0.002250   0.011244   0.059666
   10  H  2  S    0.020895  -0.002562  -0.019539   0.002939  -0.020061
   11  H  2  S    0.042438  -0.004020  -0.016926   0.023506  -0.909900
   12  C  3  S   -0.009510  -0.000978   0.011076  -0.024290  -0.053124
   13  C  3  S    0.006909  -0.006184  -0.009827   0.008097   0.020479
   14  C  3  X   -0.029189  -0.000287  -0.006596  -0.060699  -0.016033
   15  C  3  Y    0.040647   0.015025   0.019180   0.015053  -0.075245
   16  C  3  Z   -0.082966   0.002273   0.057032  -0.019728   0.015309
   17  C  3  S    0.057039   0.036795  -0.104133   0.236749   0.739479
   18  C  3  X   -0.001091  -0.087643  -0.088267  -0.059692  -0.177408
   19  C  3  Y    0.042448  -0.019721   0.022687   0.049688  -0.274606
   20  C  3  Z   -0.062831  -0.006137   0.095390  -0.045054   0.051228
   21  C  4  S   -0.000560   0.003358   0.047250   0.031060  -0.038335
   22  C  4  S   -0.000051   0.002089  -0.025711  -0.016474   0.022946
   23  C  4  X   -0.003404   0.010864   0.156873   0.120052  -0.005243
   24  C  4  Y   -0.103154   0.000943   0.091472   0.039880   0.083433
   25  C  4  Z    0.142780   0.010983   0.098955   0.024796   0.026117
   26  C  4  S    0.001959  -0.045706  -0.411227  -0.276643   0.416051
   27  C  4  X    0.004632  -0.008606   0.245557   0.100819  -0.178678
   28  C  4  Y   -0.095299   0.051922   0.165176   0.097468   0.350677
   29  C  4  Z    0.111534   0.070736   0.124440   0.065157   0.056611
   30  C  5  S   -0.001916  -0.000716  -0.006453   0.000002   0.017946
   31  C  5  S    0.004960  -0.000456   0.008176   0.002287  -0.001957
   32  C  5  X   -0.005410  -0.003412  -0.076455  -0.026999  -0.039707
   33  C  5  Y    0.174336   0.003340  -0.022154  -0.030315   0.047386
   34  C  5  Z   -0.207359  -0.006987  -0.027713  -0.044064  -0.057435
   35  C  5  S   -0.004182   0.018042   0.029095  -0.013618  -0.190648
   36  C  5  X   -0.025659   0.024592   0.224512  -0.005370  -0.027476
   37  C  5  Y    0.228103   0.011524   0.041476   0.105483   0.014947
   38  C  5  Z   -0.182215   0.003214   0.043146   0.161784  -0.090807
   39  O  6  S    0.020936  -0.000029   0.003364  -0.006900  -0.007739
   40  O  6  S   -0.016837   0.000050  -0.005150  -0.005141   0.006568
   41  O  6  X   -0.028273   0.028316   0.419288  -0.190254   0.030609
   42  O  6  Y    0.232714  -0.300578   0.117167   0.066728  -0.018047
   43  O  6  Z   -0.055880   0.214416   0.109001   0.086687   0.046500
   44  O  6  S   -0.089661   0.000717  -0.000041   0.129050   0.044368
   45  O  6  X   -0.026286   0.031236   0.450086  -0.223617   0.048221
   46  O  6  Y    0.230533  -0.365371   0.139336   0.102521  -0.020372
   47  O  6  Z   -0.052206   0.259601   0.131209   0.137072   0.072664
   48  O  7  S   -0.007080  -0.000092  -0.003865   0.002629  -0.004663
   49  O  7  S    0.005158  -0.000622  -0.006136   0.000949   0.000844
   50  O  7  X   -0.058141  -0.000237   0.173760   0.212975   0.021931
   51  O  7  Y    0.175794   0.317317  -0.009016   0.224104  -0.049167
   52  O  7  Z   -0.128021  -0.187830   0.000503   0.350472   0.031877
   53  O  7  S    0.029534   0.006131   0.103938  -0.046475   0.056259
   54  O  7  X   -0.058566  -0.001180   0.228622   0.226774   0.047664
   55  O  7  Y    0.169593   0.382086  -0.027816   0.250539  -0.065580
   56  O  7  Z   -0.125036  -0.231604  -0.026764   0.394218   0.037675
   57  H  8  S    0.065492  -0.003959  -0.006983   0.021599   0.004269
   58  H  8  S    0.061074  -0.019119   0.150784  -0.066623  -0.271687
   59  H  9  S   -0.066863  -0.013677   0.006916  -0.000119   0.004823
   60  H  9  S   -0.103078  -0.021655   0.024706  -0.008645  -0.514149
   61  H 10  S    0.121652   0.002391   0.029382  -0.019613   0.013139
   62  H 10  S    0.148569  -0.054776   0.103825   0.042076  -0.265478
   63  H 11  S   -0.131276  -0.003284   0.022751   0.009172   0.008137
   64  H 11  S   -0.160929  -0.001663   0.052666   0.028017  -0.436117
   65  H 12  S   -0.001705   0.001790   0.019831   0.017148  -0.026305
   66  H 12  S   -0.009550   0.004041   0.055766   0.052794  -0.940027
   67  H 13  S   -0.013853  -0.003140  -0.000947  -0.007630  -0.011567
   68  H 13  S   -0.040995  -0.008644   0.023018  -0.003171  -0.859432

                     26         27         28         29         30
                    0.2909     0.3116     0.3137     0.3269     0.3512
                     A          A          A          A          A   
    1  C  1  S   -0.045411   0.038332   0.019861   0.080668   0.017338
    2  C  1  S    0.016043  -0.009554  -0.011039  -0.034023  -0.011314
    3  C  1  X    0.025063   0.062624  -0.152190   0.003995   0.081787
    4  C  1  Y   -0.082719  -0.202948   0.202798  -0.004091  -0.052583
    5  C  1  Z    0.070691   0.180279   0.209149  -0.157481   0.125728
    6  C  1  S    0.587830  -0.543193  -0.229590  -1.031842  -0.227577
    7  C  1  X    0.012123   0.303456  -0.569328   0.100839   0.394574
    8  C  1  Y   -0.242726  -0.662834   0.794632   0.124805  -0.332271
    9  C  1  Z    0.270923   0.603110   0.739069  -0.604642   0.518587
   10  H  2  S   -0.009105  -0.039160  -0.063830   0.051002  -0.024414
   11  H  2  S   -0.451127  -0.411695  -1.011652   1.084611  -0.470151
   12  C  3  S    0.010318  -0.045043  -0.015359  -0.065824   0.064514
   13  C  3  S   -0.003040   0.011329   0.010167   0.022662  -0.024041
   14  C  3  X   -0.000853   0.001921   0.005322   0.091517   0.083243
   15  C  3  Y   -0.080704  -0.087612  -0.009537  -0.116999   0.130208
   16  C  3  Z   -0.004565   0.101259   0.075506   0.065706  -0.054946
   17  C  3  S   -0.088080   0.606913   0.177484   0.898478  -0.857850
   18  C  3  X   -0.105127   0.053257   0.111653   0.339511   0.408325
   19  C  3  Y   -0.200196  -0.177162  -0.237517  -0.497183   0.486848
   20  C  3  Z   -0.148671   0.321472   0.114136   0.241640  -0.257907
   21  C  4  S    0.006808   0.006939  -0.007568  -0.085045  -0.108478
   22  C  4  S   -0.001575   0.007194  -0.013838   0.032561   0.036500
   23  C  4  X    0.009143  -0.006725  -0.059168   0.014424   0.061415
   24  C  4  Y   -0.081607  -0.071452   0.043532   0.072880   0.163072
   25  C  4  Z    0.077534   0.034871   0.089870   0.112038   0.000240
   26  C  4  S   -0.116033  -0.163340   0.321170   1.127056   1.432075
   27  C  4  X    0.005923  -0.100492  -0.016898   0.106761   0.186710
   28  C  4  Y   -0.381897  -0.135403   0.152448   0.324435   0.419652
   29  C  4  Z    0.389407  -0.008402   0.292037   0.409817  -0.027126
   30  C  5  S    0.003008   0.006390  -0.016941  -0.004090   0.003668
   31  C  5  S   -0.010014   0.001498   0.013130   0.020777   0.019728
   32  C  5  X    0.001604  -0.019592   0.035220   0.025889   0.006494
   33  C  5  Y   -0.306337   0.125678   0.018519  -0.033686  -0.072629
   34  C  5  Z    0.191649  -0.095763   0.025053   0.052279   0.054154
   35  C  5  S    0.019043  -0.090697   0.158609   0.002356  -0.119748
   36  C  5  X    0.026059  -0.057913   0.041939   0.101463   0.010105
   37  C  5  Y   -0.330581   0.171463   0.035481  -0.025388  -0.154620
   38  C  5  Z    0.209588  -0.149564   0.038143   0.069596   0.079267
   39  O  6  S    0.000049   0.001267   0.003543  -0.012490  -0.001847
   40  O  6  S    0.000399  -0.001823  -0.004095   0.012124   0.000229
   41  O  6  X   -0.008243  -0.002539  -0.021157   0.031509  -0.014939
   42  O  6  Y    0.202438  -0.085106   0.004154   0.043339   0.049675
   43  O  6  Z   -0.130231   0.064274  -0.003138  -0.002243  -0.010413
   44  O  6  S   -0.005051  -0.001569  -0.019639   0.071601   0.021442
   45  O  6  X   -0.007543   0.002416  -0.028575   0.021998  -0.024253
   46  O  6  Y    0.274774  -0.118146  -0.000515   0.063694   0.083430
   47  O  6  Z   -0.181296   0.093766  -0.007310   0.009605  -0.013630
   48  O  7  S   -0.001222  -0.000195   0.004914  -0.006098  -0.006500
   49  O  7  S    0.001705  -0.000292  -0.003100   0.003240   0.004370
   50  O  7  X   -0.002428   0.010457  -0.035235  -0.005395   0.010185
   51  O  7  Y    0.200310  -0.086526  -0.008291   0.017733   0.057853
   52  O  7  Z   -0.116316   0.061684   0.003903  -0.011928  -0.024132
   53  O  7  S    0.006029   0.003346  -0.042703   0.057595   0.055820
   54  O  7  X   -0.005709   0.019799  -0.057615   0.003565   0.029804
   55  O  7  Y    0.279022  -0.123820  -0.011500   0.014821   0.077602
   56  O  7  Z   -0.165111   0.091749   0.002657  -0.040826  -0.050025
   57  H  8  S    0.006092   0.035811   0.057142  -0.022255   0.022675
   58  H  8  S   -0.091889   0.178420   0.250769  -0.168217   0.305090
   59  H  9  S   -0.036145  -0.071617  -0.018223  -0.026844   0.028990
   60  H  9  S   -0.230118  -0.851699  -0.361240  -0.954210   0.966319
   61  H 10  S   -0.047353   0.025334  -0.025482  -0.059594   0.005344
   62  H 10  S   -0.443094   0.018221  -0.489629  -0.984574  -0.491840
   63  H 11  S    0.101618  -0.022325  -0.021204   0.003825  -0.047565
   64  H 11  S    0.764257   0.236194  -0.137865  -0.540387  -1.183120
   65  H 12  S   -0.008596  -0.028536   0.077772  -0.029977  -0.051827
   66  H 12  S   -0.362269  -0.356271   1.475020   0.114807  -0.331311
   67  H 13  S    0.008269   0.084275  -0.007888  -0.001129   0.055384
   68  H 13  S    0.225150   1.422698  -0.179384  -0.026318   0.754387

                     31         32         33         34         35
                    0.3766     0.4008     0.4220     0.4392     0.4852
                     A          A          A          A          A   
    1  C  1  S    0.055150   0.040242   0.059761  -0.004224  -0.014979
    2  C  1  S   -0.016880  -0.013525  -0.017311  -0.012788  -0.017396
    3  C  1  X   -0.008284   0.172036   0.135755   0.114285   0.052277
    4  C  1  Y    0.033340   0.089957   0.059040   0.046869  -0.128405
    5  C  1  Z    0.079013  -0.015757   0.022801   0.020115  -0.033023
    6  C  1  S   -0.716734  -0.532740  -0.815053   0.131590   0.443703
    7  C  1  X    0.171556   0.855286   0.999147   0.115541  -0.262539
    8  C  1  Y    0.227830   0.502944   0.328819   0.406377  -0.532872
    9  C  1  Z    0.482835  -0.207290   0.206563   0.242236   0.019290
   10  H  2  S   -0.016134  -0.057537  -0.016994  -0.017130  -0.035308
   11  H  2  S   -0.245539   0.043678  -0.093876  -0.335982   0.076509
   12  C  3  S   -0.116625  -0.050431  -0.098291   0.049204  -0.037440
   13  C  3  S    0.043059   0.010892   0.027462  -0.005987   0.022357
   14  C  3  X    0.071954   0.158663   0.109429   0.210620  -0.189915
   15  C  3  Y   -0.037428   0.077549   0.257219  -0.097134   0.029479
   16  C  3  Z   -0.170296   0.226484  -0.073086  -0.139236  -0.075374
   17  C  3  S    1.591741   0.637452   1.341487  -0.754164   0.496100
   18  C  3  X    0.163214   0.712180   0.343473   1.085274  -1.153519
   19  C  3  Y   -0.147307   0.369719   1.198522  -0.629345   0.045827
   20  C  3  Z   -0.633052   1.025104  -0.329200  -0.615174  -0.236917
   21  C  4  S    0.019287   0.068382   0.041799  -0.012901   0.114531
   22  C  4  S   -0.002607  -0.035355  -0.006662  -0.013355  -0.052487
   23  C  4  X   -0.010305   0.039961  -0.109327   0.288730   0.071225
   24  C  4  Y    0.069449   0.085039  -0.071735  -0.147965   0.237699
   25  C  4  Z   -0.166138  -0.125654   0.228474   0.057072   0.134032
   26  C  4  S   -0.285367  -0.790858  -0.580126   0.370214  -1.365411
   27  C  4  X   -0.030227   0.110977  -0.687878   1.436987   0.285072
   28  C  4  Y    0.248837   0.127668  -0.388794  -0.619437   1.079949
   29  C  4  Z   -0.551001  -0.576302   0.775331   0.192419   0.723841
   30  C  5  S    0.019425  -0.053651  -0.004799  -0.079713  -0.136742
   31  C  5  S   -0.001663   0.032770   0.006792   0.036344   0.039149
   32  C  5  X    0.006026   0.098569  -0.000117   0.149652   0.177305
   33  C  5  Y   -0.096440  -0.105308   0.058518   0.140464   0.101576
   34  C  5  Z    0.062538   0.131340   0.003419  -0.000545   0.120549
   35  C  5  S   -0.240410   0.460010  -0.051554   0.941919   1.692099
   36  C  5  X    0.028523   0.027897  -0.044950   0.390545   0.541222
   37  C  5  Y   -0.166286  -0.125174   0.141035   0.346457   0.136959
   38  C  5  Z    0.128725   0.207419  -0.075093   0.084047   0.257627
   39  O  6  S   -0.025566   0.022640  -0.017059   0.013590   0.031722
   40  O  6  S    0.021814  -0.020301   0.018189  -0.006985  -0.019605
   41  O  6  X    0.069357  -0.046945   0.063095  -0.005213  -0.016487
   42  O  6  Y    0.049495   0.012262  -0.013133  -0.109706  -0.045240
   43  O  6  Z   -0.031517  -0.067892   0.049034  -0.052794  -0.115900
   44  O  6  S    0.166001  -0.144569   0.095483  -0.132130  -0.317203
   45  O  6  X    0.088208  -0.067968   0.082281  -0.043438  -0.039439
   46  O  6  Y    0.102481   0.016525  -0.016547  -0.187015  -0.131718
   47  O  6  Z   -0.013208  -0.135657   0.086390  -0.105317  -0.246886
   48  O  7  S   -0.008018   0.018991   0.009740  -0.000246   0.038179
   49  O  7  S    0.001981  -0.013304  -0.010499   0.006558  -0.032646
   50  O  7  X    0.018418  -0.068432  -0.051371  -0.013720  -0.154849
   51  O  7  Y    0.038986   0.069343  -0.050244  -0.021099  -0.008463
   52  O  7  Z   -0.079333  -0.049879   0.007768   0.045342   0.012157
   53  O  7  S    0.083724  -0.171380  -0.057737  -0.042991  -0.294712
   54  O  7  X    0.049997  -0.133625  -0.069504  -0.067042  -0.311526
   55  O  7  Y    0.058402   0.107698  -0.070151  -0.068332   0.000792
   56  O  7  Z   -0.117290  -0.049843   0.022098   0.046468   0.015201
   57  H  8  S   -0.091297   0.070772   0.000251  -0.037320   0.052619
   58  H  8  S   -1.436217   1.050449  -0.372545  -0.426845  -0.491721
   59  H  9  S    0.027351  -0.001597   0.042262  -0.029628   0.014029
   60  H  9  S   -0.260901  -0.526506   0.753442   0.059794   0.084237
   61  H 10  S    0.062344  -0.015551  -0.009472   0.016424  -0.050192
   62  H 10  S    0.862186   0.896240  -0.822254   0.003880  -0.164472
   63  H 11  S   -0.015733   0.002782  -0.007201  -0.013149  -0.073774
   64  H 11  S   -0.427533  -0.086069   0.911577   0.433805  -0.361300
   65  H 12  S   -0.003571  -0.017236  -0.021701  -0.026281   0.086986
   66  H 12  S    0.427600  -0.265810  -0.186207  -0.037946  -0.265269
   67  H 13  S    0.013714  -0.033589  -0.077100  -0.028432   0.006697
   68  H 13  S    0.368455  -0.318156   0.013779  -0.235066   0.346718

                     36         37         38         39         40
                    0.6008     0.7050     0.8387     0.8492     0.8931
                     A          A          A          A          A   
    1  C  1  S   -0.005243  -0.013268   0.006437  -0.011615  -0.027469
    2  C  1  S   -0.005524   0.002000  -0.040687   0.057245   0.046986
    3  C  1  X    0.070263   0.125636   0.156227  -0.540116  -0.552439
    4  C  1  Y   -0.029231   0.035799   0.001445   0.270819  -0.675559
    5  C  1  Z   -0.020217   0.051331  -0.472658  -0.146045   0.039041
    6  C  1  S    0.132533   0.145732   0.129657  -0.157245   0.227503
    7  C  1  X   -0.045573  -0.360753  -0.213374   0.896969   0.730273
    8  C  1  Y   -0.044317  -0.058378   0.044084  -0.488727   1.060275
    9  C  1  Z   -0.004124  -0.069810   0.809946   0.192502  -0.092701
   10  H  2  S   -0.040383   0.063502  -0.483208  -0.074952  -0.126457
   11  H  2  S   -0.000731  -0.033884  -0.002765  -0.010948  -0.118850
   12  C  3  S    0.004337   0.024932  -0.000772  -0.003210   0.038985
   13  C  3  S   -0.004913   0.021907   0.005039  -0.035991  -0.127409
   14  C  3  X   -0.039404  -0.206399   0.174263  -0.124794   0.249898
   15  C  3  Y    0.004875  -0.049039   0.101490   0.082247  -0.058617
   16  C  3  Z    0.017216  -0.016585  -0.278020  -0.122533  -0.031997
   17  C  3  S   -0.077968  -0.810855  -0.131990   0.566603   0.468233
   18  C  3  X   -0.143833   0.381838  -0.076581   0.061303  -0.103003
   19  C  3  Y    0.035140  -0.417189  -0.310102   0.290899   0.043215
   20  C  3  Z    0.045320  -0.049649   0.187516   0.307772   0.075223
   21  C  4  S    0.042611  -0.017763  -0.023597   0.028715  -0.012035
   22  C  4  S   -0.012507  -0.006841   0.025698  -0.004787   0.051900
   23  C  4  X   -0.056129   0.138648  -0.305026   0.475633   0.101952
   24  C  4  Y   -0.004943  -0.027409  -0.085718   0.157587   0.057434
   25  C  4  Z   -0.009804  -0.090490  -0.233776   0.095689  -0.129437
   26  C  4  S   -0.759693   0.390388   0.052894  -0.291855  -0.191785
   27  C  4  X    0.385330   0.568882   0.402094  -0.688619   0.033676
   28  C  4  Y    0.257715  -0.409681   0.100665  -0.228011  -0.020857
   29  C  4  Z    0.286231  -0.465172   0.275664  -0.013489   0.170956
   30  C  5  S    0.075857   0.000192   0.008999  -0.008829  -0.000100
   31  C  5  S    0.020461   0.006366  -0.062211   0.038296  -0.034250
   32  C  5  X    0.314163  -0.166455  -0.210446   0.143474  -0.161049
   33  C  5  Y    0.152929   0.165573   0.056171   0.101002   0.291916
   34  C  5  Z    0.200719   0.214247  -0.146945   0.070368  -0.063158
   35  C  5  S   -0.899052  -0.010392   0.301163  -0.318788   0.123753
   36  C  5  X    1.108104  -1.298235   0.141961  -0.005062   0.042171
   37  C  5  Y    0.452804   0.900563   0.017586  -0.114997  -0.090966
   38  C  5  Z    0.577840   1.453670   0.168488  -0.172612   0.302492
   39  O  6  S   -0.080279  -0.096286  -0.004904  -0.001570  -0.013228
   40  O  6  S    0.060011   0.039610   0.013328   0.002827   0.010400
   41  O  6  X   -0.215233   0.082157   0.039075  -0.033366  -0.024024
   42  O  6  Y    0.082824   0.084168   0.020405   0.001978   0.038754
   43  O  6  Z    0.139153   0.137071   0.003764   0.005567   0.030381
   44  O  6  S    0.726010   1.241032   0.015802  -0.026875   0.121074
   45  O  6  X   -0.429256   0.085755   0.015120  -0.011074  -0.021279
   46  O  6  Y    0.211803   0.337876   0.000961   0.004889   0.073069
   47  O  6  Z    0.356181   0.515415  -0.014577   0.016544   0.052553
   48  O  7  S   -0.084793   0.096764   0.006327  -0.004581   0.016234
   49  O  7  S    0.059385  -0.038345   0.000248  -0.011032  -0.017057
   50  O  7  X    0.085261  -0.169844  -0.003248  -0.025659  -0.052089
   51  O  7  Y   -0.129568  -0.025020   0.016445  -0.031828   0.003360
   52  O  7  Z   -0.200039  -0.035545   0.028790  -0.038471  -0.002447
   53  O  7  S    0.808430  -1.261984  -0.062486   0.120220  -0.120409
   54  O  7  X    0.287028  -0.606390  -0.064369   0.057399  -0.110889
   55  O  7  Y   -0.283531   0.027470   0.019195  -0.020582   0.032273
   56  O  7  Z   -0.448202   0.090771   0.014038  -0.031009  -0.003380
   57  H  8  S    0.064252  -0.000396   0.299485   0.123777   0.022992
   58  H  8  S    0.098297   0.157331  -0.163187   0.021738   0.079125
   59  H  9  S    0.010398   0.003765  -0.307869  -0.278432   0.049988
   60  H  9  S    0.023011  -0.100129   0.057652   0.158025   0.021274
   61  H 10  S   -0.028631  -0.145048  -0.244581  -0.029295  -0.093228
   62  H 10  S    0.042662   0.354371   0.008717   0.047784   0.018991
   63  H 11  S   -0.012660   0.012464   0.056607   0.269902   0.110530
   64  H 11  S    0.071243  -0.024234  -0.089287   0.118860  -0.070029
   65  H 12  S    0.052007   0.007643   0.174661  -0.404140   0.030368
   66  H 12  S   -0.109059   0.032919   0.017425  -0.061159  -0.088354
   67  H 13  S   -0.020027   0.026272   0.251658   0.341583  -0.375716
   68  H 13  S    0.002007  -0.042269  -0.009626  -0.032434  -0.188775

                     41         42         43         44         45
                    0.9193     0.9607     0.9854     1.0115     1.0298
                     A          A          A          A          A   
    1  C  1  S   -0.025833   0.017642  -0.030757  -0.000895  -0.007814
    2  C  1  S    0.084590   0.026167   0.054238  -0.002263  -0.017223
    3  C  1  X   -0.280012   0.050671  -0.056757   0.044559  -0.051978
    4  C  1  Y   -0.143725   0.251010  -0.200293   0.022627   0.078768
    5  C  1  Z   -0.352706   0.178580   0.099075  -0.425151   0.331728
    6  C  1  S   -0.213030  -0.312493  -0.364716  -0.071992   0.073237
    7  C  1  X    0.469122  -0.006877   0.320917  -0.064289   0.233022
    8  C  1  Y    0.240423  -0.516513   0.621475   0.067155  -0.120137
    9  C  1  Z    0.641130  -0.427148  -0.188356   0.863225  -0.681384
   10  H  2  S   -0.269589   0.093408  -0.123027  -0.069106   0.002402
   11  H  2  S   -0.144067   0.256839   0.024604  -0.316944   0.259320
   12  C  3  S    0.039647   0.007813  -0.003653  -0.014557  -0.021632
   13  C  3  S   -0.085898   0.025831   0.034823   0.084159   0.033972
   14  C  3  X   -0.191994   0.371559  -0.683918  -0.140278  -0.019774
   15  C  3  Y   -0.387465  -0.643256  -0.032078  -0.012942   0.054163
   16  C  3  Z   -0.077505  -0.345192  -0.145231   0.372804  -0.196331
   17  C  3  S    0.063437  -0.436252  -0.418512  -0.427739  -0.186166
   18  C  3  X    0.453767  -0.378612   1.429335   0.512955   0.051062
   19  C  3  Y    0.618100   1.224144  -0.089870  -0.071570  -0.148834
   20  C  3  Z    0.017279   0.719883   0.290064  -0.704830   0.360377
   21  C  4  S   -0.019264  -0.015284   0.012505   0.025874   0.021628
   22  C  4  S    0.047469   0.054536  -0.074068  -0.105587  -0.005887
   23  C  4  X    0.045693   0.027713  -0.432339  -0.254367  -0.375595
   24  C  4  Y   -0.147652   0.378302   0.323256   0.283586   0.279204
   25  C  4  Z    0.181450   0.184635   0.041428   0.318254  -0.073687
   26  C  4  S    0.093180  -0.394452   0.570934   0.534908  -0.472774
   27  C  4  X   -0.020601  -0.373916   0.753062   0.380830   0.692525
   28  C  4  Y   -0.066318  -0.804608  -0.958603  -0.708084  -0.352205
   29  C  4  Z   -0.372044  -0.406969  -0.341043  -0.773543   0.319175
   30  C  5  S   -0.002408   0.010712  -0.012762   0.010120  -0.029585
   31  C  5  S    0.030380  -0.003445   0.136016  -0.023671   0.129939
   32  C  5  X    0.009745   0.123978   0.347017  -0.066545  -0.638143
   33  C  5  Y   -0.484811   0.133456  -0.185486   0.614801  -0.113765
   34  C  5  Z    0.429827  -0.053924  -0.388452   0.247931   0.555139
   35  C  5  S   -0.125602  -0.389512  -0.131736  -0.226005   0.337825
   36  C  5  X   -0.205862  -0.453390  -0.387100  -0.467043   0.905693
   37  C  5  Y    0.508392  -0.071851   0.255593  -0.565487   0.474359
   38  C  5  Z   -0.313942   0.021153   0.320729  -0.010580  -0.408278
   39  O  6  S   -0.009292  -0.004235   0.006283  -0.016326  -0.012694
   40  O  6  S    0.010458  -0.002604  -0.008538   0.009372   0.030420
   41  O  6  X    0.016856   0.006549   0.095509  -0.024766  -0.030651
   42  O  6  Y   -0.037028  -0.027883  -0.094964   0.069093   0.008946
   43  O  6  Z    0.048842   0.016936  -0.086483   0.077789   0.093707
   44  O  6  S    0.075877   0.096618   0.162787   0.032190  -0.101713
   45  O  6  X    0.021945   0.032788   0.041896   0.035860  -0.137283
   46  O  6  Y   -0.034508   0.042675  -0.044927   0.145220  -0.050525
   47  O  6  Z    0.092794   0.041766  -0.057917   0.101850   0.080821
   48  O  7  S    0.008498   0.002008  -0.017621   0.016220   0.009852
   49  O  7  S   -0.008222   0.005352   0.044078  -0.005518  -0.010783
   50  O  7  X   -0.017218   0.040048   0.130449  -0.009904  -0.155046
   51  O  7  Y   -0.009364   0.011606   0.023457   0.093566   0.020937
   52  O  7  Z    0.026816  -0.009304  -0.014101   0.045803   0.123221
   53  O  7  S   -0.084938  -0.116155  -0.122142  -0.164897   0.232711
   54  O  7  X   -0.033862   0.009495   0.076242  -0.082917  -0.140245
   55  O  7  Y   -0.055850   0.012177  -0.038923   0.111374  -0.061231
   56  O  7  Z    0.072468   0.016909  -0.039018   0.076239   0.062742
   57  H  8  S    0.133891   0.283066   0.098578  -0.097117  -0.047180
   58  H  8  S    0.077941   0.287596   0.152928  -0.228056   0.044263
   59  H  9  S    0.249172   0.157394  -0.064530   0.036917  -0.215170
   60  H  9  S    0.127119   0.203187  -0.056624   0.090884  -0.019384
   61  H 10  S    0.213224  -0.036850  -0.033091   0.407030   0.043413
   62  H 10  S   -0.016533   0.188734   0.218850   0.137714  -0.014351
   63  H 11  S   -0.251467   0.230292   0.236037   0.112757   0.162490
   64  H 11  S    0.106888   0.136051   0.132480   0.129116   0.102097
   65  H 12  S    0.100027   0.291917  -0.143378   0.037559  -0.207815
   66  H 12  S   -0.113273  -0.272546   0.044676   0.111742  -0.108550
   67  H 13  S   -0.007501   0.021097  -0.180173  -0.014050  -0.068677
   68  H 13  S    0.011656   0.138837  -0.207908   0.182287  -0.113563

                     46         47         48         49         50
                    1.0481     1.0811     1.1310     1.1662     1.1997
                     A          A          A          A          A   
    1  C  1  S   -0.025274   0.034164   0.042095   0.022401   0.007822
    2  C  1  S    0.023470  -0.034353  -0.032996  -0.042441   0.012771
    3  C  1  X   -0.162360   0.039853  -0.156445  -0.257825   0.317797
    4  C  1  Y    0.358014  -0.178219  -0.109140   0.276499  -0.457476
    5  C  1  Z   -0.073924  -0.268259   0.225719  -0.257680  -0.356809
    6  C  1  S   -0.134699   0.151806  -0.139351  -0.018366  -0.202665
    7  C  1  X    0.614620  -0.370074   0.128419   0.421449  -0.241146
    8  C  1  Y   -0.686974   0.278266   0.135414  -0.537394   0.472930
    9  C  1  Z    0.205764   0.505190  -0.456059   0.403425   0.349831
   10  H  2  S   -0.116349   0.277650   0.105508   0.496165   0.696233
   11  H  2  S   -0.018143  -0.401811   0.253541  -0.580847  -0.911587
   12  C  3  S    0.005497  -0.001116   0.025449   0.013667   0.010477
   13  C  3  S   -0.084077   0.080591   0.023346   0.028551  -0.020794
   14  C  3  X   -0.134302   0.219211  -0.139028  -0.053240   0.025357
   15  C  3  Y   -0.424266   0.227645   0.304710  -0.026225  -0.208213
   16  C  3  Z    0.178019   0.301968  -0.236023   0.265187  -0.142300
   17  C  3  S    0.292265  -0.455488   0.013896   0.093571   0.131866
   18  C  3  X   -0.054846   0.003242   0.360752   0.003279  -0.041014
   19  C  3  Y    0.886711  -0.469489  -0.311947   0.420634   0.608410
   20  C  3  Z   -0.336121  -0.575209   0.678556  -0.656036   0.329075
   21  C  4  S    0.003792   0.010728   0.029244   0.017121  -0.000116
   22  C  4  S    0.085064   0.019619  -0.011678   0.001221   0.007303
   23  C  4  X   -0.075237   0.145564  -0.079616  -0.085757  -0.056659
   24  C  4  Y   -0.191493   0.494670  -0.470412  -0.029738  -0.081194
   25  C  4  Z    0.013996   0.176451   0.209274  -0.760193  -0.023763
   26  C  4  S   -0.956328  -0.376678   0.066326   0.113071  -0.236131
   27  C  4  X    0.299213   0.413333   0.278841   0.086031  -0.249649
   28  C  4  Y    0.654622  -0.961495   0.535912  -0.151391   0.122739
   29  C  4  Z    0.315190  -0.276186  -0.656236   1.477416   0.109628
   30  C  5  S   -0.053145  -0.030702  -0.038521  -0.019138  -0.003385
   31  C  5  S    0.278066   0.197755   0.361540   0.150464   0.066670
   32  C  5  X   -0.520808  -0.229562  -0.165750   0.117567  -0.069458
   33  C  5  Y    0.066090  -0.489524   0.120762  -0.000699   0.069897
   34  C  5  Z   -0.518695  -0.313006  -0.058212   0.115006   0.034598
   35  C  5  S    0.320570  -0.207451  -0.215284   0.252960  -0.086776
   36  C  5  X    1.150918   0.153800   0.270187   0.189020   0.226401
   37  C  5  Y    0.019563   1.067168  -0.173365   0.073548  -0.223788
   38  C  5  Z    0.877894   0.807938   0.295831  -0.416750  -0.233921
   39  O  6  S    0.000948  -0.013424  -0.004842  -0.000085   0.005903
   40  O  6  S   -0.001359  -0.019139   0.007706   0.030480   0.000899
   41  O  6  X   -0.036015  -0.086200   0.016995   0.117969   0.018903
   42  O  6  Y   -0.053306  -0.138464  -0.014185  -0.001807  -0.000994
   43  O  6  Z   -0.123210  -0.141252  -0.047033   0.027273   0.023368
   44  O  6  S    0.155607   0.588493   0.093885  -0.184622  -0.155773
   45  O  6  X   -0.157996  -0.063966  -0.055951   0.000222  -0.019324
   46  O  6  Y    0.019175   0.004479   0.047629  -0.072909  -0.014349
   47  O  6  Z   -0.095801   0.119437  -0.002410  -0.045355  -0.052245
   48  O  7  S   -0.000632   0.010084   0.001597  -0.008158  -0.007380
   49  O  7  S   -0.007911  -0.001831  -0.000162   0.011393   0.004745
   50  O  7  X   -0.148791  -0.056036  -0.072911   0.007535  -0.029472
   51  O  7  Y    0.029055  -0.065159   0.066703   0.000865   0.021593
   52  O  7  Z   -0.030844  -0.033157   0.026194   0.077748   0.011109
   53  O  7  S    0.221314  -0.187858   0.091938   0.126224   0.180995
   54  O  7  X   -0.091717  -0.134479  -0.034057   0.043647   0.056526
   55  O  7  Y   -0.022651  -0.118468   0.008404  -0.030288   0.002786
   56  O  7  Z   -0.148972  -0.060566  -0.044068   0.002962  -0.007175
   57  H  8  S   -0.057852   0.072134   0.238034   0.392672   0.213620
   58  H  8  S   -0.027208  -0.306458   0.198089  -0.491238   0.102840
   59  H  9  S    0.086744  -0.043645   0.490903   0.072737   0.174959
   60  H  9  S    0.327492   0.032922  -0.619377   0.339874   0.056911
   61  H 10  S    0.009849   0.157619   0.263270   0.256026  -0.120399
   62  H 10  S   -0.101648   0.131593   0.219959  -0.920695   0.058230
   63  H 11  S   -0.160472   0.122714   0.478386   0.161197   0.040723
   64  H 11  S   -0.048038   0.295592  -0.644754   0.226500  -0.044351
   65  H 12  S   -0.229991   0.244713   0.385094   0.273252  -0.809893
   66  H 12  S   -0.283235   0.168543  -0.322459  -0.503395   1.197603
   67  H 13  S   -0.163129   0.161182   0.468643  -0.265743   0.300819
   68  H 13  S    0.390082  -0.040603  -0.450814   0.701624  -0.371364

                     51         52         53         54         55
                    1.2157     1.2373     1.2726     1.2876     1.3260
                     A          A          A          A          A   
    1  C  1  S   -0.005073  -0.011164   0.077493  -0.007079   0.006092
    2  C  1  S    0.003810   0.095185  -0.308448   0.013168  -0.219130
    3  C  1  X   -0.125797   0.188164  -0.320777  -0.267120  -0.288734
    4  C  1  Y    0.303259  -0.051819  -0.171475   0.164005   0.041239
    5  C  1  Z   -0.461736   0.027946   0.008088   0.141745  -0.052671
    6  C  1  S    0.094965  -0.367016  -0.006874   0.372258   1.026305
    7  C  1  X    0.081659  -0.226263   0.809463   0.374498   0.442258
    8  C  1  Y   -0.318737   0.194958   0.527027  -0.623749  -0.678781
    9  C  1  Z    0.422520  -0.032737   0.024121  -0.160338   0.220032
   10  H  2  S    0.447158  -0.252526   0.455207  -0.062141  -0.011119
   11  H  2  S   -0.707883   0.278705  -0.502072   0.207950  -0.202856
   12  C  3  S    0.004334   0.011416  -0.039182   0.057017  -0.026086
   13  C  3  S   -0.051142  -0.051138   0.130904  -0.236526   0.192320
   14  C  3  X   -0.032825  -0.118457  -0.329798   0.140920   0.379660
   15  C  3  Y    0.343496   0.145097  -0.221228   0.340284  -0.130988
   16  C  3  Z   -0.579443  -0.436288  -0.109760   0.233154  -0.100366
   17  C  3  S   -0.029987   0.142464   0.185327  -0.039568  -0.740662
   18  C  3  X    0.090280   0.303279   1.051450  -0.207525  -1.083129
   19  C  3  Y   -0.748307   0.017149   0.486267  -0.546246   0.085254
   20  C  3  Z    1.026164   0.676424   0.206361  -0.597494  -0.358584
   21  C  4  S   -0.014631   0.006768  -0.029218  -0.046170   0.040898
   22  C  4  S    0.056079  -0.000088   0.076244   0.268073  -0.151507
   23  C  4  X   -0.054319   0.305244  -0.045099  -0.365341  -0.471166
   24  C  4  Y    0.009356   0.407635   0.155567   0.288931  -0.121779
   25  C  4  Z    0.263739  -0.496123  -0.032851   0.074024  -0.195229
   26  C  4  S   -0.032096   0.005716   0.022777  -0.523596  -0.401188
   27  C  4  X    0.236722  -0.629324  -0.039679   1.095270   1.233153
   28  C  4  Y    0.144947  -0.696685  -0.203172  -0.405346   0.335090
   29  C  4  Z   -0.654781   0.562291   0.149044   0.047597   0.512211
   30  C  5  S    0.006856   0.000485   0.008084   0.012885  -0.004040
   31  C  5  S   -0.057886   0.085023  -0.061237  -0.283761  -0.191918
[...]
    434    1.36552    7.91574    1.07547        -5.281629       5.190038      -0.091591
    435    2.87730   -5.69028   -0.43631        -5.856919       5.751860      -0.105060
    436    2.87730   -5.69028    1.07547        -5.837900       5.735315      -0.102585
    437    2.87730   -5.69028    2.58725        -5.610259       5.512419      -0.097840
    438    2.87730   -5.69028    4.09903        -5.240926       5.148959      -0.091968
    439    2.87730   -4.17850   -3.45987        -5.987291       5.877316      -0.109975
    440    2.87730   -4.17850   -1.94809        -6.509444       6.394491      -0.114952
    441    2.87730   -4.17850   -0.43631        -6.846881       6.730114      -0.116768
    442    2.87730   -4.17850    1.07547        -6.842185       6.728214      -0.113971
    443    2.87730   -4.17850    2.58725        -6.474486       6.366972      -0.107515
    444    2.87730   -4.17850    4.09903        -5.903440       5.803817      -0.099623
    445    2.87730   -4.17850    5.61081        -5.297439       5.205965      -0.091475
    446    2.87730   -2.66672   -4.97165        -5.859278       5.750646      -0.108632
    447    2.87730   -2.66672   -3.45987        -6.647441       6.530284      -0.117156
    448    2.87730   -2.66672   -1.94809        -7.486420       7.361800      -0.124620
    449    2.87730   -2.66672    1.07547        -8.184503       8.059454      -0.125049
    450    2.87730   -2.66672    2.58725        -7.532521       7.413700      -0.118820
    451    2.87730   -2.66672    4.09903        -6.624492       6.516652      -0.107840
    452    2.87730   -2.66672    5.61081        -5.771353       5.674479      -0.096874
    453    2.87730   -1.15494   -4.97165        -6.171431       6.060068      -0.111363
    454    2.87730   -1.15494   -3.45987        -7.182034       7.060174      -0.121859
    455    2.87730   -1.15494    4.09903        -7.310202       7.196002      -0.114200
    456    2.87730   -1.15494    5.61081        -6.159090       6.058575      -0.100515
    457    2.87730   -1.15494    7.12260        -5.287830       5.198066      -0.089764
    458    2.87730    0.35684   -4.97165        -6.263984       6.153151      -0.110833
    459    2.87730    0.35684   -3.45987        -7.387606       7.265017      -0.122589
    460    2.87730    0.35684    5.61081        -6.349124       6.249462      -0.099662
    461    2.87730    0.35684    7.12260        -5.383649       5.293594      -0.090055
    462    2.87730    1.86862   -4.97165        -6.103631       5.996981      -0.106650
    463    2.87730    1.86862   -3.45987        -7.153398       7.036788      -0.116610
    464    2.87730    1.86862    5.61081        -6.232116       6.136286      -0.095830
    465    2.87730    1.86862    7.12260        -5.305503       5.217014      -0.088489
    466    2.87730    3.38040   -4.97165        -5.740169       5.640326      -0.099844
    467    2.87730    3.38040   -3.45987        -6.572304       6.466556      -0.105749
    468    2.87730    3.38040    5.61081        -5.831962       5.738356      -0.093606
    469    2.87730    3.38040    7.12260        -5.069225       4.983512      -0.085713
    470    2.87730    4.89218   -4.97165        -5.270741       5.178329      -0.092412
    471    2.87730    4.89218   -3.45987        -5.861040       5.764203      -0.096837
    472    2.87730    4.89218   -1.94809        -6.471647       6.374274      -0.097373
    473    2.87730    4.89218    1.07547        -6.949591       6.841250      -0.108341
    474    2.87730    4.89218    2.58725        -6.556345       6.450243      -0.106102
    475    2.87730    4.89218    4.09903        -5.949898       5.852580      -0.097318
    476    2.87730    4.89218    5.61081        -5.312941       5.223820      -0.089121
    477    2.87730    4.89218    7.12260        -4.736559       4.654714      -0.081845
    478    2.87730    6.40396   -3.45987        -5.188739       5.099710      -0.089029
    479    2.87730    6.40396   -1.94809        -5.550917       5.459052      -0.091865
    480    2.87730    6.40396   -0.43631        -5.781582       5.687239      -0.094343
    481    2.87730    6.40396    1.07547        -5.793538       5.697803      -0.095735
    482    2.87730    6.40396    2.58725        -5.581864       5.488187      -0.093677
    483    2.87730    6.40396    4.09903        -5.219349       5.130537      -0.088812
    484    2.87730    7.91574   -1.94809        -4.839214       4.755249      -0.083965
    485    2.87730    7.91574   -0.43631        -4.974103       4.888683      -0.085420
    486    2.87730    7.91574    1.07547        -4.978209       4.892602      -0.085607
    487    4.38908   -5.69028   -0.43631        -5.271525       5.178054      -0.093472
    488    4.38908   -5.69028    1.07547        -5.261197       5.169108      -0.092089
    489    4.38908   -4.17850   -3.45987        -5.362489       5.265877      -0.096613
    490    4.38908   -4.17850   -1.94809        -5.748885       5.648970      -0.099915
    491    4.38908   -4.17850   -0.43631        -5.991146       5.889993      -0.101154
    492    4.38908   -4.17850    1.07547        -5.989921       5.889853      -0.100068
    493    4.38908   -4.17850    2.58725        -5.736479       5.640165      -0.096315
    494    4.38908   -4.17850    4.09903        -5.325142       5.234564      -0.090577
    495    4.38908   -2.66672   -4.97165        -5.268490       5.172651      -0.095838
    496    4.38908   -2.66672   -3.45987        -5.851180       5.749427      -0.101754
    497    4.38908   -2.66672   -1.94809        -6.439473       6.333935      -0.105538
    498    4.38908   -2.66672    2.58725        -6.479781       6.375054      -0.104727
    499    4.38908   -2.66672    4.09903        -5.863642       5.766752      -0.096889
    500    4.38908   -2.66672    5.61081        -5.236482       5.148025      -0.088457
    501    4.38908   -1.15494   -4.97165        -5.512283       5.414132      -0.098151
    502    4.38908   -1.15494   -3.45987        -6.244704       6.139237      -0.105467
    503    4.38908   -1.15494    4.09903        -6.354720       6.252266      -0.102454
    504    4.38908   -1.15494    5.61081        -5.536369       5.444944      -0.091425
    505    4.38908   -1.15494    7.12260        -4.863829       4.781047      -0.082782
    506    4.38908    0.35684   -4.97165        -5.594599       5.496383      -0.098215
    507    4.38908    0.35684   -3.45987        -6.408068       6.301002      -0.107066
    508    4.38908    0.35684    5.61081        -5.679965       5.588388      -0.091577
    509    4.38908    0.35684    7.12260        -4.942136       4.859067      -0.083069
    510    4.38908    1.86862   -4.97165        -5.485646       5.390090      -0.095556
    511    4.38908    1.86862   -3.45987        -6.255250       6.151164      -0.104086
    512    4.38908    1.86862   -1.94809        -7.225701       7.112820      -0.112881
    513    4.38908    1.86862    5.61081        -5.593538       5.504286      -0.089251
    514    4.38908    1.86862    7.12260        -4.881170       4.799346      -0.081824
    515    4.38908    3.38040   -4.97165        -5.214014       5.123335      -0.090679
    516    4.38908    3.38040   -3.45987        -5.842714       5.745927      -0.096787
    517    4.38908    3.38040    1.07547        -7.223723       7.112570      -0.111153
    518    4.38908    3.38040    4.09903        -6.006336       5.912021      -0.094315
    519    4.38908    3.38040    5.61081        -5.294277       5.207889      -0.086389
    520    4.38908    3.38040    7.12260        -4.691866       4.612382      -0.079484
    521    4.38908    4.89218   -4.97165        -4.847573       4.762636      -0.084937
    522    4.38908    4.89218   -3.45987        -5.313310       5.224068      -0.089242
    523    4.38908    4.89218   -1.94809        -5.766755       5.673966      -0.092789
    524    4.38908    4.89218   -0.43631        -6.085692       5.989228      -0.096464
    525    4.38908    4.89218    1.07547        -6.113267       6.014056      -0.099211
    526    4.38908    4.89218    2.58725        -5.839375       5.743557      -0.095818
    527    4.38908    4.89218    4.09903        -5.387489       5.298524      -0.088965
    528    4.38908    4.89218    5.61081        -4.889277       4.807009      -0.082268
    529    4.38908    6.40396   -3.45987        -4.785870       4.703372      -0.082498
    530    4.38908    6.40396   -1.94809        -5.075268       4.990062      -0.085206
    531    4.38908    6.40396   -0.43631        -5.256014       5.168718      -0.087296
    532    4.38908    6.40396    1.07547        -5.267336       5.179382      -0.087954
    533    4.38908    6.40396    2.58725        -5.103599       5.017592      -0.086007
    534    4.38908    6.40396    4.09903        -4.815159       4.733167      -0.081992
    535    5.90087   -4.17850   -1.94809        -5.058405       4.970498      -0.087907
    536    5.90087   -4.17850   -0.43631        -5.223158       5.134399      -0.088760
    537    5.90087   -4.17850    1.07547        -5.222601       5.134420      -0.088181
    538    5.90087   -4.17850    2.58725        -5.052509       4.966673      -0.085836
    539    5.90087   -2.66672   -3.45987        -5.131297       5.042056      -0.089241
    540    5.90087   -2.66672   -1.94809        -5.516153       5.424455      -0.091698
    541    5.90087   -2.66672   -0.43631        -5.775978       5.683826      -0.092152
    542    5.90087   -2.66672    1.07547        -5.786376       5.693561      -0.092815
    543    5.90087   -2.66672    2.58725        -5.537919       5.446681      -0.091239
    544    5.90087   -2.66672    4.09903        -5.141832       5.055530      -0.086301
    545    5.90087   -1.15494   -4.97165        -4.897855       4.810884      -0.086970
    546    5.90087   -1.15494   -3.45987        -5.397606       5.305823      -0.091783
    547    5.90087   -1.15494   -1.94809        -5.912568       5.818753      -0.093815
    548    5.90087   -1.15494    2.58725        -5.980580       5.884015      -0.096564
    549    5.90087   -1.15494    4.09903        -5.455017       5.364968      -0.090049
    550    5.90087   -1.15494    5.61081        -4.916330       4.833706      -0.082623
    551    5.90087    0.35684   -4.97165        -4.960373       4.873179      -0.087193
    552    5.90087    0.35684   -3.45987        -5.503828       5.410883      -0.092944
    553    5.90087    0.35684   -1.94809        -6.093421       5.996338      -0.097083
    554    5.90087    0.35684    2.58725        -6.216998       6.116552      -0.100447
    555    5.90087    0.35684    4.09903        -5.609616       5.517997      -0.091619
    556    5.90087    0.35684    5.61081        -5.010561       4.927339      -0.083222
    557    5.90087    1.86862   -3.45987        -5.403696       5.312266      -0.091430
    558    5.90087    1.86862   -1.94809        -5.949825       5.851945      -0.097880
    559    5.90087    1.86862   -0.43631        -6.384583       6.281877      -0.102706
    560    5.90087    1.86862    1.07547        -6.446468       6.342509      -0.103959
    561    5.90087    1.86862    2.58725        -6.085132       5.986092      -0.099041
    562    5.90087    1.86862    4.09903        -5.521465       5.431599      -0.089866
    563    5.90087    1.86862    5.61081        -4.947254       4.865314      -0.081940
    564    5.90087    1.86862    7.12260        -4.437848       4.362370      -0.075478
    565    5.90087    3.38040   -3.45987        -5.129125       5.042055      -0.087069
    566    5.90087    3.38040   -1.94809        -5.559857       5.467709      -0.092148
    567    5.90087    3.38040   -0.43631        -5.869910       5.773439      -0.096470
    568    5.90087    3.38040    1.07547        -5.908918       5.811668      -0.097251
    569    5.90087    3.38040    2.58725        -5.650022       5.557073      -0.092949
    570    5.90087    3.38040    4.09903        -5.215088       5.129172      -0.085915
    571    5.90087    3.38040    5.61081        -4.739032       4.659732      -0.079300
    572    5.90087    4.89218   -3.45987        -4.759561       4.677966      -0.081596
    573    5.90087    4.89218   -1.94809        -5.069476       4.984514      -0.084962
    574    5.90087    4.89218   -0.43631        -5.271613       5.184062      -0.087551
    575    5.90087    4.89218    1.07547        -5.290471       5.202432      -0.088039
    576    5.90087    4.89218    2.58725        -5.115234       5.029796      -0.085438
    577    5.90087    4.89218    4.09903        -4.806890       4.726101      -0.080789
    578    5.90087    4.89218    5.61081        -4.443920       4.368217      -0.075703
    579    5.90087    6.40396   -1.94809        -4.584600       4.506128      -0.078472
    580    5.90087    6.40396   -0.43631        -4.715524       4.635541      -0.079983
    581    5.90087    6.40396    1.07547        -4.723886       4.643769      -0.080117
    582    7.41265   -4.17850   -0.43631        -4.570813       4.491844      -0.078969
    583    7.41265   -4.17850    1.07547        -4.569898       4.491375      -0.078524
    584    7.41265   -2.66672   -3.45987        -4.512014       4.432748      -0.079266
    585    7.41265   -2.66672   -1.94809        -4.757873       4.676680      -0.081194
    586    7.41265   -2.66672   -0.43631        -4.908691       4.826648      -0.082043
    587    7.41265   -2.66672    1.07547        -4.913179       4.831235      -0.081943
    588    7.41265   -2.66672    2.58725        -4.766748       4.686412      -0.080336
    589    7.41265   -1.15494   -3.45987        -4.686294       4.605289      -0.081005
    590    7.41265   -1.15494   -1.94809        -4.986317       4.903006      -0.083312
    591    7.41265   -1.15494   -0.43631        -5.183009       5.098613      -0.084396
    592    7.41265   -1.15494    1.07547        -5.194940       5.110122      -0.084818
    593    7.41265   -1.15494    2.58725        -5.013912       4.930638      -0.083274
    594    7.41265   -1.15494    4.09903        -4.710521       4.631146      -0.079374
    595    7.41265    0.35684   -3.45987        -4.751912       4.670279      -0.081633
    596    7.41265    0.35684   -1.94809        -5.079826       4.995137      -0.084689
    597    7.41265    0.35684   -0.43631        -5.302353       5.215805      -0.086547
    598    7.41265    0.35684    1.07547        -5.321672       5.234568      -0.087104
    599    7.41265    0.35684    2.58725        -5.124960       5.040005      -0.084956
    600    7.41265    0.35684    4.09903        -4.795213       4.714882      -0.080331
    601    7.41265    1.86862   -3.45987        -4.686979       4.606348      -0.080631
    602    7.41265    1.86862   -1.94809        -4.999405       4.915271      -0.084134
    603    7.41265    1.86862   -0.43631        -5.208717       5.122147      -0.086570
    604    7.41265    1.86862    1.07547        -5.230063       5.143236      -0.086827
    605    7.41265    1.86862    2.58725        -5.049219       4.965082      -0.084137
    606    7.41265    1.86862    4.09903        -4.736300       4.656894      -0.079407
    607    7.41265    3.38040   -1.94809        -4.772085       4.691070      -0.081015
    608    7.41265    3.38040   -0.43631        -4.942257       4.859154      -0.083103
    609    7.41265    3.38040    1.07547        -4.958692       4.875509      -0.083183
    610    7.41265    3.38040    2.58725        -4.811177       4.730354      -0.080823
    611    7.41265    3.38040    4.09903        -4.547354       4.470562      -0.076792
    612    7.41265    4.89218   -0.43631        -4.588873       4.510845      -0.078028
    613    8.92443   -2.66672   -0.43631        -4.250308       4.177063      -0.073245
    614    8.92443   -1.15494   -1.94809        -4.297607       4.223548      -0.074059
    615    8.92443   -1.15494   -0.43631        -4.407383       4.332467      -0.074916
    616    8.92443   -1.15494    1.07547        -4.411807       4.337034      -0.074773
    617    8.92443    0.35684   -1.94809        -4.350455       4.275808      -0.074647
    618    8.92443    0.35684   -0.43631        -4.469390       4.393652      -0.075738
    619    8.92443    0.35684    1.07547        -4.476470       4.400815      -0.075655
    620    8.92443    0.35684    2.58725        -4.367105       4.292971      -0.074133
    621    8.92443    1.86862   -0.43631        -4.416163       4.340965      -0.075198
    622    8.92443    1.86862    1.07547        -4.424105       4.349005      -0.075100

 NET CHARGES:
 -------------------------------------
 ATOM                CHARGE    E.S.D.
 -------------------------------------
 C                  -0.3106    0.2819
 H                   0.0428    0.0196
 C                   0.2171    0.2244
 C                  -0.2717    0.2554
 C                   0.6705    0.0573
 O                  -0.6958    0.0079
 O                  -0.7038    0.0060
 H                  -0.0293    0.0192
 H                  -0.0571    0.0165
 H                   0.0109    0.0224
 H                   0.0310    0.0173
 H                   0.0343    0.0204
 H                   0.0617    0.0181
 -------------------------------------

 RMS DEVIATION IS            0.661 KCAL/MOLE
 RELATIVE RMS DEVIATION IS   0.781 %

 MULTIPOLE MOMENTS:
 ---------------------------------------------------------
 STATUS  ACTUAL VALUE       QUANTITY        FITTED VALUE 
 ---------------------------------------------------------
 FIXED      -1.0000       TOTAL CHARGE        -1.0000
             5.8676 D    DIPOLE MOMENT         5.8833 D
 FREE        5.5387 D          DX              5.5518 D
 FREE        1.1580 D          DY              1.1815 D
 FREE        1.5525 D          DZ              1.5472 D
 FREE        0.0000 BU         QXX           -15.5366 BU
 FREE        0.0000 BU         QYY            10.4508 BU
 FREE        0.0000 BU         QZZ             5.0858 BU
 FREE        0.0000 BU         QXY            -1.1831 BU
 FREE        0.0000 BU         QXZ            -1.7670 BU
 FREE        0.0000 BU         QYZ            -5.5144 BU
 ---------------------------------------------------------
 ...... END OF PROPERTY EVALUATION ......
 CPU     0: STEP CPU TIME=     0.08 TOTAL CPU TIME=          6.4 (      0.1 MIN)
 TOTAL WALL CLOCK TIME=          8.7 SECONDS, CPU UTILIZATION IS    73.39%
               580000  WORDS OF DYNAMIC MEMORY USED
 EXECUTION OF GAMESS TERMINATED NORMALLY Sun May 17 12:34:25 2020
 DDI: 263640 bytes (0.3 MB / 0 MWords) used by master data server.
Note: The following floating-point exceptions are signalling: IEEE_UNDERFLOW_FLAGNote: The following floating-point exceptions are signalling: IEEE_UNDERFLOW_FLAGNote: The following floating-point exceptions are signalling: IEEE_UNDERFLOW_FLAGNote: The following floating-point exceptions are signalling: IEEE_DENORMAL

 ----------------------------------------
 CPU timing information for all processes
 ========================================
 0: 6.176 + 0.206 = 6.382
 1: 5.580 + 0.61 = 5.641
 2: 5.68 + 0.28 = 5.96
 3: 5.834 + 0.28 = 5.863
 4: 5.237 + 0.68 = 5.305
 5: 4.897 + 0.32 = 4.929
 ----------------------------------------
 IEEE_DENORMAL
 IEEE_DENORMAL
 IEEE_UNDERFLOW_FLAG IEEE_DENORMALNote: The following floating-point exceptions are signalling: IEEE_UNDERFLOW_FLAGNote: The following floating-point exceptions are signalling:
 IEEE_DENORMAL
 IEEE_UNDERFLOW_FLAG IEEE_DENORMAL
 ddikick.x: exited gracefully.
unset echo
----- accounting info -----
Files used on the master node pietdev were:
-rwxr-xr-x 1 piet piet      927 mei 17 12:34 /home/piet/scr/glutamate_minus1__charge_chelpg.F05*
-rw-r--r-- 1 piet piet 50790400 mei 17 12:34 /home/piet/scr/glutamate_minus1__charge_chelpg.F10
ls: No match.
ls: No match.
ls: No match.
zo 17 mei 2020 12:34:28 CEST
0.109u 0.018s 0:11.82 0.9%	0+0k 0+8io 0pf+0w
