----- GAMESS execution script 'rungms' -----
This job is running on host pietdev
under operating system Linux at zo 17 mei 2020 12:36:23 CEST
Available scratch disk space (Kbyte units) at beginning of the job is
Filesystem     1K-blocks     Used Available Use% Mounted on
/dev/sda2      244568380 30347464 201727860  14% /
GAMESS temporary binary files will be written to /home/piet/scr
GAMESS supplementary output files will be written to /home/piet/gamess/scr
Copying input file glutamate_minus1__fukui_base.inp to your run's scratch directory...
cp glutamate_minus1__fukui_base.inp /home/piet/scr/glutamate_minus1__fukui_base.F05
unset echo
 
Assuming a single but multicore node.
 
/home/piet/gamess/ddikick.x /home/piet/gamess/gamess.03.x glutamate_minus1__fukui_base -ddi 1 6 pietdev:cpus=6 -scr /home/piet/scr

 Distributed Data Interface kickoff program.
 Initiating 6 compute processes on 1 nodes to run the following command:
 /home/piet/gamess/gamess.03.x glutamate_minus1__fukui_base 

          ******************************************************
          *         GAMESS VERSION = 30 SEP 2019 (R2)          *
          *             FROM IOWA STATE UNIVERSITY             *
          * M.W.SCHMIDT, K.K.BALDRIDGE, J.A.BOATZ, S.T.ELBERT, *
          *   M.S.GORDON, J.H.JENSEN, S.KOSEKI, N.MATSUNAGA,   *
          *          K.A.NGUYEN, S.J.SU, T.L.WINDUS,           *
          *       TOGETHER WITH M.DUPUIS, J.A.MONTGOMERY       *
          *         J.COMPUT.CHEM.  14, 1347-1363(1993)        *
          **************** 64 BIT LINUX VERSION ****************

  SINCE 1993, STUDENTS AND POSTDOCS WORKING AT IOWA STATE UNIVERSITY
  AND ALSO IN THEIR VARIOUS JOBS AFTER LEAVING ISU HAVE MADE IMPORTANT
  CONTRIBUTIONS TO THE CODE:
     IVANA ADAMOVIC, CHRISTINE AIKENS, YURI ALEXEEV, POOJA ARORA,
     ANDREY ASADCHEV, ROB BELL, PRADIPTA BANDYOPADHYAY, JONATHAN BENTZ,
     COLLEEN BERTONI, BRETT BODE, KURT BRORSEN, CALEB CARLIN, GALINA CHABAN,
     WEI CHEN, CHEOL HO CHOI, PAUL DAY, ALBERT DEFUSCO, NUWAN DESILVA,
     TIM DUDLEY, DMITRI FEDOROV, ALEX FINDLATER, GRAHAM FLETCHER, 
     MARK FREITAG, KURT GLAESEMANN, EMILIE B GUIDEZ, ANASTASIA GUNINA, 
     DAN KEMP, SAROM SOK LEANG, GRANT MERRILL,
     NORIYUKI MINEZAWA, JONATHAN MULLIN,
     TAKESHI NAGATA, SEAN NEDD, HEATHER NETZLOFF, BOSILJKA NJEGIC, RYAN OLSON,
     MIKE PAK, BUU PHAM, DAVID POOLE,
     SPENCER PRUITT, LUKE ROSKOP, TOSAPORN SATTASATHUCHANA,
     JIM SHOEMAKER, LYUDMILA SLIPCHENKO,
     TONY SMITH, JIE SONG, TETSUYA TAKETSUGU, SIMON WEBB,
     JORGE LUIS GALVEZ VALLEJO, PENG XU, SOOHAENG YOO,
     FEDERICO ZAHARIEV

  ADDITIONAL CODE HAS BEEN PROVIDED BY COLLABORATORS IN OTHER GROUPS:
     IOWA STATE UNIVERSITY:
          JOE IVANIC, AARON WEST, LAIMUTIS BYTAUTAS, KLAUS RUEDENBERG
     UNIVERSITY OF TOKYO: KIMIHIKO HIRAO, TAKAHITO NAKAJIMA,
          TAKAO TSUNEDA, MUNEAKI KAMIYA, SUSUMU YANAGISAWA,
          KIYOSHI YAGI, MAHITO CHIBA, SEIKEN TOKURA, NAOAKI KAWAKAMI
     UNIVERSITY OF AARHUS: FRANK JENSEN
     UNIVERSITY OF IOWA: VISVALDAS KAIRYS, HUI LI
     NATIONAL INST. OF STANDARDS AND TECHNOLOGY: WALT STEVENS, DAVID GARMER
     UNIVERSITY OF PISA: BENEDETTA MENNUCCI, JACOPO TOMASI
     UNIVERSITY OF MEMPHIS: HENRY KURTZ, PRAKASHAN KORAMBATH
     UNIVERSITY OF ALBERTA: TOBY ZENG, MARIUSZ KLOBUKOWSKI
     UNIVERSITY OF NEW ENGLAND: MARK SPACKMAN
     MIE UNIVERSITY: HIROAKI UMEDA
     NAT. INST. OF ADVANCED INDUSTRIAL SCIENCE AND TECHNOLOGY: KAZUO KITAURA
     MICHIGAN STATE UNIVERSITY:
          KAROL KOWALSKI, MARTA WLOCH, JEFFREY GOUR, JESSE LUTZ,
          WEI LI, JUN SHEN, J. EMILIANO DEUSTUA, PIOTR PIECUCH
     UNIVERSITY OF MINNESOTA:
          ANDREW SAND, PRACHI SHARMA, YINAN SHU
     UNIVERSITY OF SILESIA: MONIKA MUSIAL, STANISLAW KUCHARSKI
     FACULTES UNIVERSITAIRES NOTRE-DAME DE LA PAIX:
          OLIVIER QUINET, BENOIT CHAMPAGNE
     UNIVERSITY OF CALIFORNIA - SANTA BARBARA: BERNARD KIRTMAN
     INSTITUTE FOR MOLECULAR SCIENCE:
          KAZUYA ISHIMURA, MICHIO KATOUDA, AND SHIGERU NAGASE
     UNIVERSITY OF NOTRE DAME: ANNA POMOGAEVA, DAN CHIPMAN
     KYUSHU UNIVERSITY:
          HARUYUKI NAKANO,
          FENG LONG GU, JACEK KORCHOWIEC, MARCIN MAKOWSKI, AND YURIKO AOKI,
          HIROTOSHI MORI AND EISAKU MIYOSHI
     PENNSYLVANIA STATE UNIVERSITY:
          TZVETELIN IORDANOV, CHET SWALINA, JONATHAN SKONE,
          SHARON HAMMES-SCHIFFER
     WASEDA UNIVERSITY:
          MASATO KOBAYASHI, TOMOKO AKAMA, TSUGUKI TOUMA,
          TAKESHI YOSHIKAWA, YASUHIRO IKABATA, JUNJI SEINO,
          YUYA NAKAJIMA, HIROMI NAKAI
     NANJING UNIVERSITY: SHUHUA LI
     UNIVERSITY OF NEBRASKA:
          PEIFENG SU, DEJUN SI, NANDUN THELLAMUREGE, YALI WANG, HUI LI
     UNIVERSITY OF ZURICH: ROBERTO PEVERATI, KIM BALDRIDGE
     N. COPERNICUS UNIVERSITY AND JACKSON STATE UNIVERSITY:
          MARIA BARYSZ
     UNIVERSITY OF COPENHAGEN: Jimmy Kromann, CASPER STEINMANN
     TOKYO INSTITUTE OF TECHNOLOGY: HIROYA NAKATA
     NAGOYA UNIVERSITY: YOSHIO NISHIMOTO, STEPHAN IRLE
     MOSCOW STATE UNIVERSITY: VLADIMIR MIRONOV
     A.N.NESMEYANOV INSTITUTE OF ORGANOELEMENT COMPOUNDS OF RUSSIAN ACADEMY OF SCIENCES:
          IGOR S. GERASIMOV
     JOHANNES KEPLER UNIVERSITY LINZ:
          CHRISTIAN FRIEDL


 PARALLEL VERSION RUNNING ON        6 PROCESSORS IN        1 NODES.

 EXECUTION OF GAMESS BEGUN Sun May 17 12:36:23 2020

            ECHO OF THE FIRST FEW INPUT CARDS -
 INPUT CARD> $BASIS GBASIS=N21 NGAUSS=3 $END                                                
 INPUT CARD> $CONTRL SCFTYP=UHF MAXIT=60 MULT=2 ICHARG=0 $END                               
 INPUT CARD> $SYSTEM MEMDDI=1000 MWORDS=30 $END                                             
 INPUT CARD> $SCF DIRSCF=.TRUE. $END                                                        
 INPUT CARD> $STATPT OPTTOL=0.0001 NSTEP=999 $END                                           
 INPUT CARD> $DATA                                                                          
 INPUT CARD>                                                                                
 INPUT CARD>C1                                                                              
 INPUT CARD>C 6.0000000 1.1847484836 0.4929323043 0.3625386195                              
 INPUT CARD>H 1.0000000 1.3296060401 0.7870686000 1.4118414888                              
 INPUT CARD>C 6.0000000 -0.1443783840 -0.2719136572 0.1764651559                            
 INPUT CARD>C 6.0000000 -1.4044029703 0.5354722703 0.5220892908                             
 INPUT CARD>C 6.0000000 -2.6936786927 -0.0784995941 -0.2086709297                           
 INPUT CARD>O 8.0000000 -2.4389494828 -0.7590991270 -1.2601634982                           
 INPUT CARD>O 8.0000000 -3.8063317606 0.2145460822 0.3242251544                             
 INPUT CARD>H 1.0000000 -0.3063147959 -0.5796440551 -0.8645041326                           
 INPUT CARD>H 1.0000000 -0.1214055052 -1.1928131132 0.7781544478                            
 INPUT CARD>H 1.0000000 -1.6061534683 0.5866304073 1.5983943631                             
 INPUT CARD>H 1.0000000 -1.2855532826 1.5704770068 0.1577487254                             
 INPUT CARD>H 1.0000000 2.0515389030 -0.1121999317 0.0561856930                             
 INPUT CARD>H 1.0000000 1.1792049156 1.4099228073 -0.2426343781                             
 INPUT CARD> $END                                                                           
   30000000 WORDS OF MEMORY AVAILABLE

     BASIS OPTIONS
     -------------
     GBASIS=N21          IGAUSS=       3      POLAR=NONE    
     NDFUNC=       0     NFFUNC=       0     DIFFSP=       F
     NPFUNC=       0      DIFFS=       F     BASNAM=        


     RUN TITLE
     ---------
                                                                                 

 THE POINT GROUP OF THE MOLECULE IS C1      
 THE ORDER OF THE PRINCIPAL AXIS IS     0

 ATOM      ATOMIC                      COORDINATES (BOHR)
           CHARGE         X                   Y                   Z
 C           6.0     2.2388499984        0.9315069856        0.6850986508
 H           1.0     2.5125910874        1.4873439875        2.6679935519
 C           6.0    -0.2728355843       -0.5138423044        0.3334707910
 C           6.0    -2.6539367902        1.0118958649        0.9866057007
 C           6.0    -5.0903146282       -0.1483427230       -0.3943308787
 O           8.0    -4.6089462204       -1.4344893475       -2.3813637113
 O           8.0    -7.1929240459        0.4054333071        0.6126967001
 H           1.0    -0.5788510302       -1.0953684346       -1.6336759259
 H           1.0    -0.2294231382       -2.2540899385        1.4704986825
 H           1.0    -3.0351899493        1.1085707259        3.0205273666
 H           1.0    -2.4293434467        2.9677712129        0.2981018659
 H           1.0     3.8768463798       -0.2120271268        0.1061755642
 H           1.0     2.2283741739        2.6643677696       -0.4585124898

          INTERNUCLEAR DISTANCES (ANGS.)
          ------------------------------

                1 C          2 H          3 C          4 C          5 C     

   1 C       0.0000000    1.0993345 *  1.5447300 *  2.5944116 *  3.9616931  
   2 H       1.0993345 *  0.0000000    2.1955018 *  2.8861332 *  4.4229050  
   3 C       1.5447300 *  2.1955018 *  0.0000000    1.5359004 *  2.5854730 *
   4 C       2.5944116 *  2.8861332 *  1.5359004 *  0.0000000    1.6041209 *
   5 C       3.9616931    4.4229050    2.5854730 *  1.6041209 *  0.0000000  
   6 O       4.1631637    4.8715763    2.7506923 *  2.4336447 *  1.2781781 *
   7 O       4.9989848    5.2809609    3.6970770    2.4313383 *  1.2680106 *
   8 H       2.2089191 *  3.1186359    1.0975147 *  2.0909145 *  2.5260185 *
   9 H       2.1726740 *  2.5351381 *  1.1002789 *  2.1676306 *  2.9718863 *
  10 H       3.0537276    2.9485015 *  2.2126380 *  1.0962450 *  2.2114687 *
  11 H       2.7028563 *  3.0042529    2.1672641 *  1.1036775 *  2.1991372 *
  12 H       1.1006193 *  1.7797959 *  2.2050008 *  3.5468408    4.7527229  
  13 H       1.0986977 *  1.7742205 *  2.1808464 *  2.8327541 *  4.1491905  

                6 O          7 O          8 H          9 H         10 H     

   1 C       4.1631637    4.9989848    2.2089191 *  2.1726740 *  3.0537276  
   2 H       4.8715763    5.2809609    3.1186359    2.5351381 *  2.9485015 *
   3 C       2.7506923 *  3.6970770    1.0975147 *  1.1002789 *  2.2126380 *
   4 C       2.4336447 *  2.4313383 *  2.0909145 *  2.1676306 *  1.0962450 *
   5 C       1.2781781 *  1.2680106 *  2.5260185 *  2.9718863 *  2.2114687 *
   6 O       0.0000000    2.3082475 *  2.1764377 *  3.1167063    3.2673981  
   7 O       2.3082475 *  0.0000000    3.7807319    3.9705659    2.5695794 *
   8 H       2.1764377 *  3.7807319    0.0000000    1.7630924 *  3.0192128  
   9 H       3.1167063    3.9705659    1.7630924 *  0.0000000    2.4583916 *
  10 H       3.2673981    2.5695794 *  3.0192128    2.4583916 *  0.0000000  
  11 H       2.9610341 *  2.8671566 *  2.5742823 *  3.0620117    1.7737527 *
  12 H       4.7239538    5.8730960    2.5740334 *  2.5319264 *  4.0305688  
  13 H       4.3394773    5.1580841    2.5596615 *  3.0834772    3.4388106  

               11 H         12 H         13 H     

   1 C       2.7028563 *  1.1006193 *  1.0986977 *
   2 H       3.0042529    1.7797959 *  1.7742205 *
   3 C       2.1672641 *  2.2050008 *  2.1808464 *
   4 C       1.1036775 *  3.5468408    2.8327541 *
   5 C       2.1991372 *  4.7527229    4.1491905  
   6 O       2.9610341 *  4.7239538    4.3394773  
   7 O       2.8671566 *  5.8730960    5.1580841  
   8 H       2.5742823 *  2.5740334 *  2.5596615 *
   9 H       3.0620117    2.5319264 *  3.0834772  
  10 H       1.7737527 *  4.0305688    3.4388106  
  11 H       0.0000000    3.7387031    2.5022225 *
  12 H       3.7387031    0.0000000    1.7796398 *
  13 H       2.5022225 *  1.7796398 *  0.0000000  

  * ... LESS THAN  3.000


     ATOMIC BASIS SET
     ----------------
 THE CONTRACTED PRIMITIVE FUNCTIONS HAVE BEEN UNNORMALIZED
 THE CONTRACTED BASIS FUNCTIONS ARE NOW NORMALIZED TO UNITY

  SHELL TYPE  PRIMITIVE        EXPONENT          CONTRACTION COEFFICIENT(S)

 C         

      1   S       1           172.2560000    0.061766907377
      1   S       2            25.9109000    0.358794042852
      1   S       3             5.5333500    0.700713083689

      2   L       4             3.6649800   -0.395895162119    0.236459946619
      2   L       5             0.7705450    1.215834355681    0.860618805716

      3   L       6             0.1958570    1.000000000000    1.000000000000

 H         

      4   S       7             5.4471780    0.156284978695
      4   S       8             0.8245472    0.904690876670

      5   S       9             0.1831916    1.000000000000

 C         

      6   S      10           172.2560000    0.061766907377
      6   S      11            25.9109000    0.358794042852
      6   S      12             5.5333500    0.700713083689

      7   L      13             3.6649800   -0.395895162119    0.236459946619
      7   L      14             0.7705450    1.215834355681    0.860618805716

      8   L      15             0.1958570    1.000000000000    1.000000000000

 C         

      9   S      16           172.2560000    0.061766907377
      9   S      17            25.9109000    0.358794042852
      9   S      18             5.5333500    0.700713083689

     10   L      19             3.6649800   -0.395895162119    0.236459946619
     10   L      20             0.7705450    1.215834355681    0.860618805716

     11   L      21             0.1958570    1.000000000000    1.000000000000

 C         

     12   S      22           172.2560000    0.061766907377
     12   S      23            25.9109000    0.358794042852
     12   S      24             5.5333500    0.700713083689

     13   L      25             3.6649800   -0.395895162119    0.236459946619
     13   L      26             0.7705450    1.215834355681    0.860618805716

     14   L      27             0.1958570    1.000000000000    1.000000000000

 O         

     15   S      28           322.0370000    0.059239393389
     15   S      29            48.4308000    0.351499960776
     15   S      30            10.4206000    0.707657921031

     16   L      31             7.4029400   -0.404453583190    0.244586106967
     16   L      32             1.5762000    1.221561761397    0.853955373466

     17   L      33             0.3736840    1.000000000000    1.000000000000

 O         

     18   S      34           322.0370000    0.059239393389
     18   S      35            48.4308000    0.351499960776
     18   S      36            10.4206000    0.707657921031

     19   L      37             7.4029400   -0.404453583190    0.244586106967
     19   L      38             1.5762000    1.221561761397    0.853955373466

     20   L      39             0.3736840    1.000000000000    1.000000000000

 H         

     21   S      40             5.4471780    0.156284978695
     21   S      41             0.8245472    0.904690876670

     22   S      42             0.1831916    1.000000000000

 H         

     23   S      43             5.4471780    0.156284978695
     23   S      44             0.8245472    0.904690876670

     24   S      45             0.1831916    1.000000000000

 H         

     25   S      46             5.4471780    0.156284978695
     25   S      47             0.8245472    0.904690876670

     26   S      48             0.1831916    1.000000000000

 H         

     27   S      49             5.4471780    0.156284978695
     27   S      50             0.8245472    0.904690876670

     28   S      51             0.1831916    1.000000000000

 H         

     29   S      52             5.4471780    0.156284978695
     29   S      53             0.8245472    0.904690876670

     30   S      54             0.1831916    1.000000000000

 H         

     31   S      55             5.4471780    0.156284978695
     31   S      56             0.8245472    0.904690876670

     32   S      57             0.1831916    1.000000000000

 TOTAL NUMBER OF BASIS SET SHELLS             =   32
 NUMBER OF CARTESIAN GAUSSIAN BASIS FUNCTIONS =   68
 NUMBER OF ELECTRONS                          =   47
 CHARGE OF MOLECULE                           =    0
 SPIN MULTIPLICITY                            =    2
 NUMBER OF OCCUPIED ORBITALS (ALPHA)          =   24
 NUMBER OF OCCUPIED ORBITALS (BETA )          =   23
 TOTAL NUMBER OF ATOMS                        =   13
 THE NUCLEAR REPULSION ENERGY IS      225.7526871660

     $CONTRL OPTIONS
     ---------------
 SCFTYP=UHF          RUNTYP=ENERGY       EXETYP=RUN     
 MPLEVL=       0     CITYP =NONE         CCTYP =NONE         VBTYP =NONE    
 DFTTYP=NONE         TDDFT =NONE    
 MULT  =       2     ICHARG=       0     NZVAR =       0     COORD =UNIQUE  
 PP    =NONE         RELWFN=NONE         LOCAL =NONE         NUMGRD=       F
 ISPHER=      -1     NOSYM =       0     MAXIT =      60     UNITS =ANGS    
 PLTORB=       F     MOLPLT=       F     AIMPAC=       F     FRIEND=        
 NPRINT=       7     IREST =       0     GEOM  =INPUT   
 NORMF =       0     NORMP =       0     ITOL  =      20     ICUT  =       9
 INTTYP=BEST         GRDTYP=BEST         QMTTOL= 1.0E-06

     $SYSTEM OPTIONS
     ---------------
  REPLICATED MEMORY=    30000000 WORDS (ON EVERY NODE).
 DISTRIBUTED MEMDDI=        1000 MILLION WORDS IN AGGREGATE,
 MEMDDI DISTRIBUTED OVER   6 PROCESSORS IS   166666666 WORDS/PROCESSOR.
 TOTAL MEMORY REQUESTED ON EACH PROCESSOR=   196666666 WORDS.
 TIMLIM=      525600.00 MINUTES, OR     365.0 DAYS.
 PARALL= T  BALTYP=  DLB     KDIAG=    0  COREFL= F
 MXSEQ2=     300 MXSEQ3=     150  mem10=         0

          ----------------
          PROPERTIES INPUT
          ----------------

     MOMENTS            FIELD           POTENTIAL          DENSITY
 IEMOM =       1   IEFLD =       0   IEPOT =       0   IEDEN =       0
 WHERE =COMASS     WHERE =NUCLEI     WHERE =NUCLEI     WHERE =NUCLEI  
 OUTPUT=BOTH       OUTPUT=BOTH       OUTPUT=BOTH       OUTPUT=BOTH    
 IEMINT=       0   IEFINT=       0                     IEDINT=       0
                                                       MORB  =       0
          EXTRAPOLATION IN EFFECT
          SOSCF IN EFFECT
          DIIS or SOSCF will be reset if energy rises
 ORBITAL PRINTING OPTION: NPREO=     1    68     2     1

     -------------------------------
     INTEGRAL TRANSFORMATION OPTIONS
     -------------------------------
     NWORD  =            0
     CUTOFF = 1.0E-09     MPTRAN =       0
     DIRTRF =       T     AOINTS =DUP     

          ----------------------
          INTEGRAL INPUT OPTIONS
          ----------------------
 NOPK  =       1 NORDER=       0 SCHWRZ=       T

     ------------------------------------------
     THE POINT GROUP IS C1 , NAXIS= 0, ORDER= 1
     ------------------------------------------

     DIMENSIONS OF THE SYMMETRY SUBSPACES ARE
 A   =   68

 ..... DONE SETTING UP THE RUN .....
 CPU     0: STEP CPU TIME=     0.02 TOTAL CPU TIME=          0.0 (      0.0 MIN)
 TOTAL WALL CLOCK TIME=          0.0 SECONDS, CPU UTILIZATION IS    66.67%

          ********************
          1 ELECTRON INTEGRALS
          ********************
 ...... END OF ONE-ELECTRON INTEGRALS ......
 CPU     0: STEP CPU TIME=     0.01 TOTAL CPU TIME=          0.0 (      0.0 MIN)
 TOTAL WALL CLOCK TIME=          0.0 SECONDS, CPU UTILIZATION IS    75.00%

          -------------
          GUESS OPTIONS
          -------------
          GUESS =HUCKEL            NORB  =       0          NORDER=       0
          MIX   =       F          PRTMO =       F          PUNMO =       F
          TOLZ  = 1.0E-08          TOLE  = 1.0E-05
          SYMDEN=       F          PURIFY=       F

 INITIAL GUESS ORBITALS GENERATED BY HUCKEL   ROUTINE.
 HUCKEL GUESS REQUIRES     48616 WORDS.

 SYMMETRIES FOR INITIAL GUESS ORBITALS FOLLOW.  ALPHA SET(S).
    24 ORBITALS ARE OCCUPIED (    6 CORE ORBITALS).
     7=A        8=A        9=A       10=A       11=A       12=A       13=A   
    14=A       15=A       16=A       17=A       18=A       19=A       20=A   
    21=A       22=A       23=A       24=A       25=A       26=A       27=A   
    28=A       29=A       30=A       31=A       32=A       33=A       34=A   

 SYMMETRIES FOR INITIAL GUESS ORBITALS FOLLOW.   BETA SET(S).
    23 ORBITALS ARE OCCUPIED (    6 CORE ORBITALS).
     7=A        8=A        9=A       10=A       11=A       12=A       13=A   
    14=A       15=A       16=A       17=A       18=A       19=A       20=A   
    21=A       22=A       23=A       24=A       25=A       26=A       27=A   
    28=A       29=A       30=A       31=A       32=A       33=A   
 ...... END OF INITIAL ORBITAL SELECTION ......
 CPU     0: STEP CPU TIME=     0.02 TOTAL CPU TIME=          0.0 (      0.0 MIN)
 TOTAL WALL CLOCK TIME=          0.1 SECONDS, CPU UTILIZATION IS    83.33%

                    ----------------------
                    AO INTEGRAL TECHNOLOGY
                    ----------------------
     S,P,L SHELL ROTATED AXIS INTEGRALS, REPROGRAMMED BY
        KAZUYA ISHIMURA (IMS) AND JOSE SIERRA (SYNSTAR).
     S,P,D,L SHELL ROTATED AXIS INTEGRALS PROGRAMMED BY
        KAZUYA ISHIMURA (INSTITUTE FOR MOLECULAR SCIENCE).
     S,P,D,F,G SHELL TO TOTAL QUARTET ANGULAR MOMENTUM SUM 5,
        ERIC PROGRAM BY GRAHAM FLETCHER (ELORET AND NASA ADVANCED
        SUPERCOMPUTING DIVISION, AMES RESEARCH CENTER).
     S,P,D,F,G,L SHELL GENERAL RYS QUADRATURE PROGRAMMED BY
        MICHEL DUPUIS (PACIFIC NORTHWEST NATIONAL LABORATORY).

          --------------------
          2 ELECTRON INTEGRALS
          --------------------

 DIRECT SCF METHOD SKIPS INTEGRAL STORAGE ON DISK.
 DIRECT TRANSFORMATION SKIPS AO INTEGRAL STORAGE ON DISK.
  ...... END OF TWO-ELECTRON INTEGRALS .....
 CPU     0: STEP CPU TIME=     0.01 TOTAL CPU TIME=          0.1 (      0.0 MIN)
 TOTAL WALL CLOCK TIME=          0.1 SECONDS, CPU UTILIZATION IS    85.71%

          ---------------------------
                  UHF SCF CALCULATION
          ---------------------------

     NUCLEAR ENERGY =       225.7526871660
     MAXIT = 60     NPUNCH=  2     MULT=  2
     EXTRAP=T  DAMP=F  SHIFT=F  RSTRCT=F  DIIS=F  SOSCF=T
     DENSITY MATRIX CONV=  2.00E-05
     SOSCF WILL OPTIMIZE    1056 ALPHA AND    1035 BETA ROTATION ANGLES.
     SOGTOL= 2.500E-01
     MEMORY REQUIRED FOR UHF/ROHF ITERS=    107377 WORDS.

 DIRECT SCF CALCULATION, SCHWRZ=T   FDIFF=T
 SCHWARZ INEQUALITY OVERHEAD:      2261 INTEGRALS, T=        0.00

                                                                                NONZERO     BLOCKS
 ITER EX      TOTAL ENERGY        E CHANGE  DENSITY CHANGE    ORB. GRAD       INTEGRALS    SKIPPED
   1  0     -302.6668672521  -302.6668672521   0.767327428   0.000000000        2078053      42543
          ---------------START SECOND ORDER SCF---------------
   2  1     -303.3725954615    -0.7057282095   0.128522948   0.111676274        2073342      44098
   3  2     -303.4297326765    -0.0571372150   0.090918023   0.054358102        2061376      46684
   4  3     -303.4815175042    -0.0517848278   0.037044164   0.022239327        2046535      49256
   5  4     -303.4887988748    -0.0072813706   0.165729110   0.018364272        2036168      50678
   6  5     -303.4799572131     0.0088416617   0.136184776   0.058870249        2063485      46809
   7  6     -303.5038366198    -0.0238794066   0.039040569   0.024695426        2057937      47775
   8  7     -303.5149931874    -0.0111565677   0.076667313   0.018536111        2035073      51134
   9  8     -303.5147599662     0.0002332212   0.046163545   0.038639057        2049815      49434
  10  9     -303.5225616595    -0.0078016933   0.014603038   0.006452469        2035717      51074
  11 10     -303.5234322267    -0.0008705672   0.014986521   0.003032284        2002976      53679
  12 11     -303.5237611335    -0.0003289067   0.003002361   0.001276803        1997069      54089
  13 12     -303.5237926562    -0.0000315227   0.006009957   0.001230732        1909908      59857
  14 13     -303.5238291627    -0.0000365065   0.002770913   0.000730745        1946185      57691
  15 14     -303.5238430887    -0.0000139260   0.005238391   0.000727096        1899706      60990
  16 15     -303.5238662786    -0.0000231899   0.003853614   0.000740753        1931336      59026
  17 16     -303.5238799683    -0.0000136897   0.002540531   0.000523247        1910351      60711
  18 17     -303.5238877410    -0.0000077726   0.001369121   0.000194956        1902903      61208
  19 18     -303.5238895973    -0.0000018564   0.000610879   0.000142399        1863002      63211
  20 19     -303.5238899642    -0.0000003668   0.000198587   0.000054024        1806541      65691
  21 20     -303.5238900388    -0.0000000746   0.000079356   0.000024373        1746057      68693
  22 21     -303.5238900554    -0.0000000166   0.000051745   0.000012441        1694223      71585
  23 22     -303.5238900609    -0.0000000055   0.000045808   0.000009078        1655639      73643
  24 23     -303.5238900639    -0.0000000029   0.000038999   0.000007577        1631946      75020
  25 24     -303.5238900660    -0.0000000021   0.000044214   0.000005706        1620157      76263
  26 25     -303.5238900678    -0.0000000018   0.000039050   0.000006425        1618496      77701
  27 26     -303.5238900693    -0.0000000015   0.000024807   0.000004037        1615791      77882
  28 27     -303.5238900697    -0.0000000004   0.000009606   0.000002147        1582159      78280
  29 28     -303.5238900699    -0.0000000001   0.000003674   0.000000722        1501099      81566

          -----------------
          DENSITY CONVERGED
          -----------------
     TIME TO FORM FOCK OPERATORS=       0.7 SECONDS (       0.0 SEC/ITER)
     FOCK TIME ON FIRST ITERATION=       0.0, LAST ITERATION=       0.0
     TIME TO SOLVE SCF EQUATIONS=       0.1 SECONDS (       0.0 SEC/ITER)

 FINAL UHF ENERGY IS     -303.5238900699 AFTER  29 ITERATIONS

          --------------------
          SPIN SZ   =    0.500
          S-SQUARED =    0.761
          --------------------

  ----- ALPHA SET ----- 

          ------------
          EIGENVECTORS
          ------------

                      1          2          3          4          5
                  -20.6134   -20.4583   -11.3594   -11.2196   -11.1806
                     A          A          A          A          A   
    1  C  1  S   -0.000093   0.000044  -0.000570  -0.002927  -0.014243
    2  C  1  S   -0.000457   0.000144  -0.001005  -0.001081  -0.003834
    3  C  1  X   -0.000332   0.000357   0.000170   0.000797  -0.000444
    4  C  1  Y    0.000070  -0.000035  -0.000079  -0.000055  -0.000177
    5  C  1  Z   -0.000037  -0.000132  -0.000153  -0.000087   0.000061
    6  C  1  S    0.004240  -0.002423   0.004324   0.001085   0.021842
    7  C  1  X   -0.001234   0.000493  -0.002625  -0.000372  -0.011041
    8  C  1  Y   -0.001694   0.000607  -0.000451  -0.000315  -0.005062
    9  C  1  Z   -0.000394   0.000895   0.000211   0.000239  -0.001851
   10  H  2  S   -0.000183   0.000041  -0.000455  -0.000063  -0.001299
   11  H  2  S    0.000144  -0.000444  -0.000018  -0.000558   0.000661
   12  C  3  S   -0.000009  -0.000054  -0.000824  -0.003730   0.987857
   13  C  3  S   -0.000318  -0.000171  -0.000935  -0.002929   0.104322
   14  C  3  X    0.001123  -0.000512   0.001230  -0.000398  -0.000259
   15  C  3  Y    0.000205  -0.000235   0.000192  -0.000120   0.000413
   16  C  3  Z    0.000057   0.000067   0.000059   0.000110   0.000118
   17  C  3  S   -0.003542   0.004452  -0.000621   0.022053  -0.091897
   18  C  3  X   -0.003856   0.000014  -0.004171  -0.012189   0.001225
   19  C  3  Y   -0.003855   0.004370  -0.001554   0.007403  -0.006316
   20  C  3  Z   -0.000209   0.000717   0.000447   0.001722  -0.000976
   21  C  4  S    0.000026   0.000077  -0.001095   0.987975   0.002843
   22  C  4  S   -0.000247   0.000220  -0.002186   0.104549  -0.002156
   23  C  4  X   -0.000282   0.000944  -0.000002  -0.000529   0.000423
   24  C  4  Y   -0.000052   0.000056   0.000172  -0.000169  -0.000116
   25  C  4  Z    0.000561  -0.000144   0.000157  -0.000480   0.000107
   26  C  4  S    0.000279  -0.000640   0.016156  -0.092229   0.021571
   27  C  4  X    0.005442  -0.007871  -0.010532  -0.000176   0.011715
   28  C  4  Y   -0.000571   0.002363  -0.004366   0.005591  -0.005968
   29  C  4  Z   -0.005887   0.005207  -0.006177   0.006069  -0.003392
   30  C  5  S   -0.000069  -0.000100   0.986607   0.000181   0.000755
   31  C  5  S    0.000364   0.000231   0.093960  -0.002615  -0.000675
   32  C  5  X   -0.001559   0.000267  -0.000374   0.000552  -0.000582
   33  C  5  Y    0.000339  -0.001066   0.000438   0.000185  -0.000016
   34  C  5  Z    0.000783  -0.001680   0.000613   0.000246  -0.000162
   35  C  5  S    0.018237   0.016122  -0.042913   0.022067  -0.000589
   36  C  5  X   -0.020891   0.006487  -0.014489   0.012488   0.000426
   37  C  5  Y    0.007187  -0.013082  -0.006184   0.004436   0.000648
   38  C  5  Z    0.012803  -0.020340  -0.007119   0.005290   0.000847
   39  O  6  S   -0.001650   0.983722   0.000077   0.000043   0.000011
   40  O  6  S   -0.001195   0.099230   0.000957   0.000054   0.000075
   41  O  6  X   -0.000717  -0.000908  -0.000480   0.000169   0.000178
   42  O  6  Y   -0.000175   0.002451  -0.000106  -0.000210  -0.000009
   43  O  6  Z   -0.000139   0.003780  -0.000009  -0.000137  -0.000238
   44  O  6  S    0.006218  -0.053418   0.000664  -0.001822  -0.000007
   45  O  6  X    0.004190   0.002669   0.003788  -0.001562  -0.001076
   46  O  6  Y    0.001312  -0.008081  -0.001114  -0.000334   0.000090
   47  O  6  Z    0.001441  -0.012457  -0.002447  -0.000916   0.000751
   48  O  7  S    0.983402   0.001409   0.000153  -0.000005  -0.000034
   49  O  7  S    0.100570  -0.000871   0.001294  -0.000362  -0.000367
   50  O  7  X    0.003987  -0.000405  -0.000260  -0.000170  -0.000129
   51  O  7  Y   -0.001066  -0.000405  -0.000294   0.000076  -0.000083
   52  O  7  Z   -0.001913  -0.000613  -0.000391   0.000156   0.000008
   53  O  7  S   -0.054273   0.005857  -0.001144   0.000256   0.000908
   54  O  7  X   -0.013698   0.003018  -0.002304  -0.000869   0.000549
   55  O  7  Y    0.003414   0.002182   0.002772  -0.000696   0.000202
   56  O  7  Z    0.006175   0.003158   0.004162  -0.001044  -0.000094
   57  H  8  S   -0.000290  -0.000887  -0.000535  -0.001587   0.000979
   58  H  8  S    0.000399   0.002148   0.000851   0.000430   0.015432
   59  H  9  S   -0.000255   0.000352  -0.000346  -0.001251   0.000934
   60  H  9  S   -0.001149   0.000672  -0.000686   0.001427   0.013973
   61  H 10  S    0.000862  -0.001041  -0.001243   0.000641  -0.001236
   62  H 10  S    0.002579  -0.001579   0.002098   0.013921   0.001176
   63  H 11  S   -0.000016   0.000431  -0.001502   0.001207  -0.001352
   64  H 11  S   -0.001538  -0.000292   0.002058   0.014605   0.000118
   65  H 12  S   -0.000283   0.000120  -0.000158  -0.000305  -0.001015
   66  H 12  S   -0.000561   0.000644   0.000644   0.001199   0.000164
   67  H 13  S   -0.000082   0.000043  -0.000188   0.000172  -0.001446
   68  H 13  S    0.000131   0.000393  -0.000448  -0.001012   0.000086

                      6          7          8          9         10
                  -11.1729    -1.5451    -1.3581    -1.0855    -0.9758
                     A          A          A          A          A   
    1  C  1  S    0.987402   0.000285  -0.001251  -0.086841  -0.151326
    2  C  1  S    0.101378   0.002067   0.000454   0.088748   0.142292
    3  C  1  X   -0.000118   0.000472  -0.002216  -0.041357  -0.008374
    4  C  1  Y    0.000117  -0.000220  -0.000269  -0.015846  -0.011071
    5  C  1  Z    0.000036   0.000183  -0.000159  -0.003436  -0.003535
    6  C  1  S   -0.079502  -0.017154   0.013333   0.197539   0.445221
    7  C  1  X    0.004021   0.006577  -0.002630   0.002569  -0.006517
    8  C  1  Y    0.001460   0.006770  -0.003721   0.004101  -0.006360
    9  C  1  Z    0.000573   0.000949  -0.001896   0.001687  -0.000131
   10  H  2  S    0.000257   0.000727   0.000163   0.041299   0.081641
   11  H  2  S    0.014085  -0.000278   0.000188  -0.001200   0.008644
   12  C  3  S    0.013488  -0.001368  -0.007161  -0.141169  -0.058309
   13  C  3  S   -0.000512   0.002989   0.008880   0.136219   0.051646
   14  C  3  X    0.000035  -0.005645  -0.004254  -0.022313   0.102509
   15  C  3  Y   -0.000065  -0.000377   0.001865   0.034596   0.003596
   16  C  3  Z    0.000021  -0.000565  -0.002225   0.011102  -0.001966
   17  C  3  S    0.016734   0.012628  -0.010045   0.351738   0.177394
   18  C  3  X    0.010369   0.018311  -0.005697   0.005957  -0.004594
   19  C  3  Y    0.005855   0.012058  -0.017190   0.009069   0.004919
   20  C  3  Z    0.000787   0.000994  -0.000437   0.001175   0.002127
   21  C  4  S    0.002907  -0.012048  -0.015226  -0.144666   0.119361
   22  C  4  S   -0.000453   0.010979   0.014516   0.138778  -0.107111
   23  C  4  X   -0.000876  -0.012556  -0.007963   0.029892   0.066123
   24  C  4  Y   -0.000151  -0.004448  -0.009550  -0.022592  -0.006359
   25  C  4  Z   -0.000210  -0.005703  -0.011508  -0.014007   0.002705
   26  C  4  S   -0.000103   0.016541   0.025953   0.390648  -0.391460
   27  C  4  X    0.002192  -0.014630   0.033564  -0.012632   0.012328
   28  C  4  Y    0.000726   0.004199  -0.006902  -0.008388   0.003478
   29  C  4  Z    0.001834   0.018678  -0.022350  -0.010562   0.002456
   30  C  5  S    0.000324  -0.106138  -0.080213  -0.025476   0.052932
   31  C  5  S   -0.000830   0.120943   0.094222   0.036694  -0.065192
   32  C  5  X   -0.000203  -0.103529   0.069746   0.062842  -0.072106
   33  C  5  Y    0.000087   0.018029  -0.089720   0.038922  -0.053972
   34  C  5  Z   -0.000140   0.034838  -0.141563   0.053943  -0.067716
   35  C  5  S    0.003299   0.050854   0.110861   0.028781  -0.112467
   36  C  5  X    0.002432   0.069497  -0.014732   0.007133  -0.039455
   37  C  5  Y    0.000006  -0.008322   0.029465   0.009567  -0.031233
   38  C  5  Z    0.000633  -0.019022   0.045165   0.013336  -0.039704
   39  O  6  S    0.000006  -0.041241  -0.211529   0.032875  -0.029442
   40  O  6  S   -0.000002   0.038480   0.198497  -0.032379   0.029691
   41  O  6  X   -0.000016  -0.011068  -0.015731   0.020975  -0.020407
   42  O  6  Y    0.000013   0.015747   0.058532   0.001245  -0.011204
   43  O  6  Z   -0.000038   0.024420   0.089351   0.001038  -0.012377
   44  O  6  S   -0.000470   0.110264   0.677332  -0.108733   0.100273
   45  O  6  X   -0.000094  -0.026467  -0.020508   0.019033  -0.011348
   46  O  6  Y   -0.000176   0.015757   0.068615  -0.001736  -0.007446
   47  O  6  Z   -0.000178   0.026589   0.105177  -0.002827  -0.009363
   48  O  7  S   -0.000011  -0.221960   0.070524   0.018249  -0.033480
   49  O  7  S   -0.000122   0.216913  -0.068935  -0.017738   0.033457
   50  O  7  X    0.000013   0.096774  -0.016651   0.027056  -0.074102
   51  O  7  Y   -0.000019  -0.024698  -0.004967   0.014158  -0.024394
   52  O  7  Z    0.000051  -0.045376  -0.006273   0.018807  -0.027726
   53  O  7  S    0.000474   0.720673  -0.259261  -0.070293   0.132835
   54  O  7  X   -0.000116   0.124152  -0.033777   0.018155  -0.056907
   55  O  7  Y    0.000021  -0.035061  -0.006714   0.011725  -0.019659
   56  O  7  Z   -0.000291  -0.063119  -0.007396   0.017014  -0.022992
   57  H  8  S   -0.001064   0.003266   0.007845   0.065563   0.025272
   58  H  8  S    0.000760  -0.003143   0.007247  -0.012403   0.003618
   59  H  9  S   -0.001103   0.001167   0.001847   0.063984   0.031280
   60  H  9  S    0.001485   0.003524  -0.004438  -0.004550   0.003165
   61  H 10  S   -0.000036   0.001813   0.006724   0.068444  -0.072202
   62  H 10  S   -0.001328  -0.009604   0.002451  -0.003220  -0.004529
   63  H 11  S   -0.000236   0.003079   0.004338   0.070889  -0.065699
   64  H 11  S   -0.000136   0.000082  -0.005770  -0.002976  -0.002825
   65  H 12  S    0.000186   0.000854  -0.000018   0.037823   0.084603
   66  H 12  S    0.013685   0.001262  -0.002968  -0.003947   0.013985
   67  H 13  S    0.000303   0.000271   0.000257   0.041871   0.081868
   68  H 13  S    0.014357  -0.000306  -0.000373   0.001222   0.007994

                     11         12         13         14         15
                   -0.8488    -0.7948    -0.7572    -0.6982    -0.6859
                     A          A          A          A          A   
    1  C  1  S    0.107780  -0.033723   0.002015   0.002881   0.013698
    2  C  1  S   -0.097268   0.027297  -0.002364  -0.002491  -0.011393
    3  C  1  X   -0.075144   0.036530   0.005023  -0.008587  -0.056685
    4  C  1  Y   -0.047713   0.045739  -0.027373   0.000545  -0.019349
    5  C  1  Z   -0.011699   0.011938  -0.012037  -0.034235   0.022423
    6  C  1  S   -0.378796   0.147681  -0.008547  -0.012225  -0.059617
    7  C  1  X   -0.019928   0.000498   0.007430  -0.004429  -0.035284
    8  C  1  Y   -0.023042   0.019281  -0.021452  -0.000759  -0.011467
    9  C  1  Z   -0.004409   0.005859  -0.006072  -0.022748   0.016565
   10  H  2  S   -0.083944   0.036767  -0.011768  -0.023083  -0.003078
   11  H  2  S   -0.030089   0.018714  -0.009576  -0.016997  -0.000179
   12  C  3  S   -0.118198   0.073449  -0.025532  -0.008648  -0.017795
   13  C  3  S    0.100786  -0.064075   0.018941   0.006174   0.013498
   14  C  3  X   -0.061713  -0.006915   0.024080   0.007699   0.036432
   15  C  3  Y   -0.052326   0.072073  -0.065604   0.011440   0.014845
   16  C  3  Z   -0.014838   0.022952  -0.035749  -0.076090   0.064231
   17  C  3  S    0.430397  -0.294937   0.124197   0.042838   0.074243
   18  C  3  X   -0.036650  -0.018391  -0.013309  -0.000225   0.012817
   19  C  3  Y   -0.016982   0.026434  -0.027705   0.008427   0.027574
   20  C  3  Z   -0.005373   0.017067  -0.017385  -0.057719   0.058536
   21  C  4  S    0.010932  -0.067014   0.056987   0.014278  -0.011983
   22  C  4  S   -0.009703   0.055141  -0.044517  -0.011433   0.009731
   23  C  4  X    0.120078   0.003304  -0.066582  -0.008680   0.079525
   24  C  4  Y   -0.047072   0.085836  -0.077151   0.050812   0.098699
   25  C  4  Z   -0.005481   0.044633  -0.039717  -0.138811   0.123452
   26  C  4  S   -0.054713   0.279953  -0.273712  -0.070582   0.063931
   27  C  4  X    0.034967  -0.007388  -0.049015   0.003393   0.003122
   28  C  4  Y   -0.026810   0.046961  -0.028047   0.040485   0.077092
   29  C  4  Z   -0.014832   0.000001  -0.012202  -0.091184   0.104707
   30  C  5  S    0.080857   0.094441   0.003582  -0.017140   0.065441
   31  C  5  S   -0.100633  -0.126868  -0.018213   0.018873  -0.076688
   32  C  5  X    0.017537   0.148401   0.107523   0.042463  -0.225822
   33  C  5  Y   -0.057201  -0.004721   0.056270   0.158529   0.103973
   34  C  5  Z   -0.065422  -0.046788   0.105034  -0.123373   0.063721
   35  C  5  S   -0.195031  -0.216156   0.031946   0.063440  -0.229872
   36  C  5  X   -0.048568  -0.024596   0.103238   0.035156  -0.123259
   37  C  5  Y   -0.046630   0.000587   0.058581   0.162300   0.022626
   38  C  5  Z   -0.048893  -0.012293   0.104805  -0.090655  -0.061200
   39  O  6  S   -0.024359  -0.051340  -0.035203   0.020211  -0.081321
   40  O  6  S    0.025691   0.048303   0.026530  -0.018333   0.074867
   41  O  6  X    0.014358   0.043709   0.093756   0.027879  -0.080408
   42  O  6  Y   -0.023590  -0.026242  -0.033052   0.119155  -0.106891
   43  O  6  Z   -0.024614  -0.058435  -0.040541  -0.015347  -0.215888
   44  O  6  S    0.087236   0.212283   0.170861  -0.084774   0.336785
   45  O  6  X    0.026131   0.049785   0.080319   0.025412  -0.073731
   46  O  6  Y   -0.021302  -0.019547  -0.023139   0.107970  -0.101254
   47  O  6  Z   -0.024430  -0.049177  -0.026267  -0.014081  -0.203326
   48  O  7  S   -0.059230  -0.076862  -0.011663  -0.004539   0.020070
   49  O  7  S    0.059828   0.079433   0.010191   0.003431  -0.018437
   50  O  7  X   -0.203755  -0.260602   0.179317  -0.044653   0.209675
   51  O  7  Y   -0.015935   0.113393   0.217415   0.329745   0.130727
   52  O  7  Z    0.007358   0.166578   0.353129  -0.205117  -0.068022
   53  O  7  S    0.239733   0.302058   0.053165   0.022353  -0.078997
   54  O  7  X   -0.181482  -0.247723   0.174810  -0.045973   0.220219
   55  O  7  Y   -0.011004   0.114155   0.210239   0.332466   0.143108
   56  O  7  Z    0.010694   0.167306   0.341302  -0.213522  -0.057492
   57  H  8  S    0.087747  -0.066192   0.045556   0.047262  -0.033803
   58  H  8  S    0.027516  -0.002836   0.039540   0.020223   0.004391
   59  H  9  S    0.088972  -0.073248   0.036149  -0.025685   0.027575
   60  H  9  S    0.028246  -0.035384   0.019929  -0.020028   0.019411
   61  H 10  S   -0.021270   0.069828  -0.055418  -0.092331   0.076867
   62  H 10  S   -0.002341   0.049106  -0.012341  -0.073880   0.048124
   63  H 11  S   -0.022922   0.079230  -0.077309   0.047569   0.045209
   64  H 11  S   -0.009918   0.037629  -0.042387   0.039437   0.038235
   65  H 12  S   -0.082450   0.021615   0.010228  -0.000724  -0.034529
   66  H 12  S   -0.031248   0.010070   0.006524  -0.000415  -0.022842
   67  H 13  S   -0.083479   0.038622  -0.011328   0.010734  -0.026363
   68  H 13  S   -0.029040   0.020850  -0.007510   0.009164  -0.016215

                     16         17         18         19         20
                   -0.6433    -0.5956    -0.5743    -0.5615    -0.5062
                     A          A          A          A          A   
    1  C  1  S   -0.004898  -0.004279   0.004006   0.001205   0.014485
    2  C  1  S    0.003737   0.002224  -0.001454  -0.001907  -0.012184
    3  C  1  X    0.058327   0.181648  -0.021428   0.042937   0.275988
    4  C  1  Y   -0.077083  -0.109271  -0.215955  -0.088625  -0.013457
    5  C  1  Z    0.125530  -0.126102  -0.067697   0.248722   0.002817
    6  C  1  S    0.021184   0.029587  -0.036520   0.001508  -0.043543
    7  C  1  X    0.043597   0.137484  -0.006013   0.031018   0.238973
    8  C  1  Y   -0.061220  -0.096236  -0.169301  -0.075807  -0.029887
    9  C  1  Z    0.091781  -0.102168  -0.056475   0.206848  -0.003291
   10  H  2  S    0.073295  -0.083959  -0.090319   0.157037   0.011134
   11  H  2  S    0.060325  -0.070968  -0.080532   0.145014   0.019723
   12  C  3  S    0.004418   0.019080  -0.011939   0.006546   0.004980
   13  C  3  S   -0.004326  -0.013087   0.007578  -0.002797  -0.005082
   14  C  3  X    0.021088   0.011083   0.184517  -0.003026  -0.270761
   15  C  3  Y   -0.126866  -0.139727  -0.034932  -0.041126  -0.004954
   16  C  3  Z    0.184141  -0.119589  -0.001998   0.057273  -0.001972
   17  C  3  S   -0.014581  -0.077871   0.074390  -0.042007  -0.021950
   18  C  3  X    0.015444   0.002873   0.141678  -0.002298  -0.206171
   19  C  3  Y   -0.095401  -0.104259  -0.026765  -0.042529  -0.020090
   20  C  3  Z    0.140560  -0.091017   0.000478   0.071534  -0.018384
   21  C  4  S    0.001229  -0.017149   0.008136  -0.002271  -0.029719
   22  C  4  S   -0.001121   0.009036  -0.008941   0.001061   0.022323
   23  C  4  X   -0.078414  -0.149637  -0.032087  -0.007402   0.212276
   24  C  4  Y   -0.107603   0.008176   0.225177   0.088164  -0.055552
   25  C  4  Z    0.155636   0.050082   0.010291  -0.198364  -0.071678
   26  C  4  S   -0.006112   0.101077  -0.019565   0.011453   0.147842
   27  C  4  X   -0.051655  -0.126583  -0.028536   0.003953   0.184251
   28  C  4  Y   -0.099958  -0.001036   0.196674   0.091931  -0.051826
   29  C  4  Z    0.137024   0.043830  -0.009125  -0.189217  -0.073162
   30  C  5  S   -0.020417   0.019843  -0.012180   0.005364   0.018805
   31  C  5  S    0.024125  -0.033342   0.021568  -0.013750  -0.010016
   32  C  5  X    0.065664   0.020504  -0.019788   0.026325  -0.093357
   33  C  5  Y    0.005001   0.081018  -0.071053   0.075592  -0.070592
   34  C  5  Z   -0.075509   0.122547  -0.127739   0.081565  -0.067664
   35  C  5  S    0.075048  -0.031047   0.014363   0.006768  -0.108615
   36  C  5  X    0.015598   0.027734  -0.058671   0.052705  -0.127661
   37  C  5  Y    0.051021   0.001970  -0.014177   0.018117  -0.043300
   38  C  5  Z   -0.022540   0.002545  -0.016465   0.015531  -0.024670
   39  O  6  S    0.021734  -0.031758   0.027099  -0.019495   0.008739
   40  O  6  S   -0.020955   0.033496  -0.028300   0.020607  -0.010499
   41  O  6  X   -0.023142   0.093736  -0.134496   0.102288  -0.171290
   42  O  6  Y    0.066821  -0.092904   0.093967  -0.033300  -0.017492
   43  O  6  Z    0.067547  -0.136614   0.113801  -0.103884   0.042630
   44  O  6  S   -0.088182   0.115282  -0.101451   0.072252  -0.021687
   45  O  6  X   -0.024533   0.097264  -0.138991   0.105428  -0.180380
   46  O  6  Y    0.062886  -0.104128   0.108296  -0.036767  -0.015343
   47  O  6  Z    0.072198  -0.152106   0.126004  -0.120014   0.056740
   48  O  7  S   -0.004056   0.002778   0.000162  -0.001078  -0.001703
   49  O  7  S    0.005016  -0.003472   0.002528  -0.000527   0.005648
   50  O  7  X   -0.088652  -0.082744   0.013577  -0.007639   0.085650
   51  O  7  Y    0.160649  -0.092873  -0.010623  -0.134590   0.090219
   52  O  7  Z   -0.079022  -0.158192   0.165413  -0.016987   0.076891
   53  O  7  S    0.005992  -0.001276  -0.022014   0.018775  -0.014488
   54  O  7  X   -0.098089  -0.086743   0.008471  -0.005397   0.092590
   55  O  7  Y    0.168608  -0.097263  -0.012578  -0.151594   0.108259
   56  O  7  Z   -0.084856  -0.167082   0.184053  -0.019573   0.091122
   57  H  8  S   -0.093019   0.087937  -0.003864  -0.027040   0.009621
   58  H  8  S   -0.071568   0.102458  -0.034037   0.008898  -0.032788
   59  H  9  S    0.130358   0.019959   0.032017   0.041900  -0.007677
   60  H  9  S    0.101172   0.023491   0.026845   0.032064  -0.010046
   61  H 10  S    0.105473   0.063601   0.010510  -0.138841  -0.055573
   62  H 10  S    0.074243   0.038961   0.023074  -0.119928  -0.055635
   63  H 11  S   -0.108153  -0.007472   0.135286   0.106755   0.021790
   64  H 11  S   -0.077295  -0.010325   0.116878   0.083173   0.014638
   65  H 12  S    0.038145   0.166289   0.084707   0.008167   0.160164
   66  H 12  S    0.028292   0.142576   0.075364   0.008350   0.163003
   67  H 13  S   -0.085749  -0.013538  -0.100632  -0.152520  -0.025412
   68  H 13  S   -0.070806  -0.009495  -0.088755  -0.137710  -0.016121

                     21         22         23         24         25
                   -0.4912    -0.4794    -0.4597    -0.4384     0.1631
                     A          A          A          A          A   
    1  C  1  S   -0.016301  -0.004985   0.002831   0.007118  -0.001265
    2  C  1  S    0.015981   0.004894   0.001531  -0.007387   0.002441
    3  C  1  X   -0.071249  -0.018505   0.029521   0.053136   0.015096
    4  C  1  Y   -0.244891  -0.011494   0.005587   0.001567   0.023740
    5  C  1  Z    0.000717  -0.192466   0.027923  -0.043071  -0.005967
    6  C  1  S    0.057618   0.015192  -0.038704  -0.000477   0.023049
    7  C  1  X   -0.039835  -0.008312   0.045991   0.043545   0.090075
    8  C  1  Y   -0.222102  -0.003623   0.010050  -0.019853   0.059888
    9  C  1  Z    0.004903  -0.188149   0.032927  -0.042839  -0.051525
   10  H  2  S   -0.041242  -0.152568   0.026268  -0.035719  -0.003486
   11  H  2  S   -0.054010  -0.173686   0.030182  -0.036948  -0.009234
   12  C  3  S   -0.007179   0.000247  -0.005048   0.010201  -0.024112
   13  C  3  S    0.008646   0.005570   0.007978  -0.011972   0.002908
   14  C  3  X    0.043739   0.000444  -0.049793  -0.032606  -0.030833
   15  C  3  Y    0.289686   0.020689   0.017775  -0.008386   0.023341
   16  C  3  Z   -0.002049   0.273520  -0.058261   0.077082   0.020841
   17  C  3  S   -0.008822  -0.050098   0.009613  -0.055360   0.296423
   18  C  3  X    0.040253   0.026890   0.008010  -0.091517  -0.072609
   19  C  3  Y    0.264555   0.011191   0.047615  -0.019050   0.029357
   20  C  3  Z   -0.009076   0.290781  -0.063978   0.082419   0.160960
   21  C  4  S   -0.016341  -0.012964  -0.001401   0.021233  -0.005913
   22  C  4  S    0.017114   0.010016  -0.001126  -0.007043   0.007576
   23  C  4  X    0.079825   0.026565   0.017833   0.163211  -0.010223
   24  C  4  Y   -0.154598  -0.067985  -0.064510   0.099893   0.007057
   25  C  4  Z    0.004989  -0.140305   0.072446   0.098034  -0.008904
   26  C  4  S    0.057055   0.068339   0.011837  -0.200685   0.045796
   27  C  4  X    0.071384   0.029990   0.024833   0.197941  -0.098188
   28  C  4  Y   -0.144992  -0.080100  -0.101600   0.141177   0.243564
   29  C  4  Z    0.019686  -0.152965   0.057359   0.100557  -0.172675
   30  C  5  S   -0.003704  -0.007965   0.004346   0.019952   0.005205
   31  C  5  S    0.002459   0.002686  -0.001980  -0.011177   0.003516
   32  C  5  X    0.023226   0.057331  -0.028596  -0.098102  -0.022662
   33  C  5  Y   -0.001177   0.088329   0.139943  -0.059643   0.346918
   34  C  5  Z    0.046996   0.046549  -0.118727  -0.082277  -0.235169
   35  C  5  S    0.016523   0.054668  -0.035351  -0.142727  -0.078990
   36  C  5  X    0.047572   0.024417  -0.031074   0.124342  -0.049151
   37  C  5  Y   -0.005967   0.064613   0.183763  -0.016825   0.494734
   38  C  5  Z    0.022658   0.007832  -0.136989  -0.034906  -0.355878
   39  O  6  S   -0.006402  -0.014558   0.002730  -0.000047  -0.001028
   40  O  6  S    0.006769   0.014533  -0.003106  -0.001227   0.000488
   41  O  6  X    0.069080  -0.000239  -0.024870   0.404893   0.012831
   42  O  6  Y   -0.037467   0.024091   0.333361   0.108266  -0.236474
   43  O  6  Z   -0.003652  -0.119891  -0.199755   0.127433   0.163977
   44  O  6  S    0.023412   0.060072  -0.008359   0.007015   0.008679
   45  O  6  X    0.073215  -0.005193  -0.027296   0.461493   0.022199
   46  O  6  Y   -0.044698   0.028701   0.399472   0.130302  -0.382584
   47  O  6  Z   -0.004652  -0.140975  -0.237429   0.154229   0.269970
   48  O  7  S   -0.002030  -0.000249  -0.000256  -0.014162  -0.000494
   49  O  7  S   -0.000330   0.002262  -0.000083  -0.000524  -0.001069
   50  O  7  X    0.002625  -0.026918   0.021659   0.136967   0.010277
   51  O  7  Y    0.031727  -0.072327  -0.168055  -0.012729  -0.159344
   52  O  7  Z   -0.054077   0.011159   0.121532  -0.028002   0.099030
   53  O  7  S    0.023295  -0.009963   0.002627   0.158973   0.012047
   54  O  7  X    0.007567  -0.037099   0.029168   0.198853   0.022420
   55  O  7  Y    0.035281  -0.088950  -0.222531  -0.025757  -0.238470
   56  O  7  Z   -0.067146   0.016697   0.160478  -0.053125   0.150821
   57  H  8  S   -0.050927  -0.204120   0.048422  -0.037037   0.004283
   58  H  8  S   -0.038579  -0.176274   0.051726   0.029097   0.033085
   59  H  9  S   -0.183780   0.110030  -0.035640   0.030525   0.003088
   60  H  9  S   -0.195057   0.107434  -0.043374   0.038420  -0.117349
   61  H 10  S    0.005499  -0.112342   0.058669   0.043642   0.053194
   62  H 10  S   -0.011120  -0.126637   0.089597   0.069865   0.218626
   63  H 11  S   -0.102100   0.004541  -0.071008   0.049479  -0.092959
   64  H 11  S   -0.125246   0.008225  -0.073518   0.057801  -0.478391
   65  H 12  S    0.082527   0.043511   0.008660   0.038808   0.000092
   66  H 12  S    0.075866   0.042717   0.007184   0.041618  -0.035012
   67  H 13  S   -0.150356   0.085779  -0.013440   0.015934   0.008554
   68  H 13  S   -0.172399   0.089571  -0.018352   0.029425  -0.076330

                     26         27         28         29         30
                    0.2548     0.2953     0.2964     0.3242     0.3425
                     A          A          A          A          A   
    1  C  1  S   -0.089942  -0.007949  -0.104559   0.066332   0.007374
    2  C  1  S    0.022680   0.005093   0.035558  -0.006054  -0.005231
    3  C  1  X    0.057346  -0.003637   0.054754   0.060414  -0.039450
    4  C  1  Y    0.055104  -0.097084  -0.056018  -0.184718   0.062361
    5  C  1  Z    0.012075   0.098173  -0.015616  -0.084241  -0.232137
    6  C  1  S    1.254741   0.083685   1.372686  -1.008074  -0.050458
    7  C  1  X    0.325775  -0.040879   0.333092   0.440977  -0.272943
    8  C  1  Y    0.286548  -0.311180  -0.305759  -0.872361   0.418266
    9  C  1  Z    0.054694   0.389775  -0.038991  -0.395850  -1.101399
   10  H  2  S    0.006387  -0.020406   0.016208   0.046082   0.052381
   11  H  2  S   -0.649072  -0.446704  -0.389302   1.101748   1.293458
   12  C  3  S   -0.061290  -0.036394  -0.009812  -0.009513  -0.050360
   13  C  3  S    0.013238   0.005044  -0.004140  -0.002075   0.012439
   14  C  3  X    0.000071  -0.034991  -0.045219   0.069024  -0.028453
   15  C  3  Y   -0.076155  -0.097163  -0.013500  -0.075395  -0.051411
   16  C  3  Z    0.016941   0.096953  -0.071810  -0.031051  -0.038845
   17  C  3  S    0.933683   0.519539   0.204394   0.177514   0.701541
   18  C  3  X   -0.130572  -0.182009  -0.403997   0.342689  -0.242134
   19  C  3  Y   -0.401812  -0.357371   0.123276  -0.142464  -0.351344
   20  C  3  Z    0.005953   0.320161  -0.246252  -0.073317  -0.081779
   21  C  4  S   -0.089538   0.047661   0.051804  -0.084564   0.044992
   22  C  4  S    0.032829  -0.007165   0.000198   0.043238  -0.009957
   23  C  4  X   -0.041136  -0.030664  -0.028432   0.011303  -0.004846
   24  C  4  Y    0.090183  -0.167882  -0.076295  -0.033305  -0.067416
   25  C  4  Z    0.070506   0.134444  -0.154065  -0.027351   0.056397
   26  C  4  S    1.152657  -0.676951  -0.943671   0.953858  -0.623651
   27  C  4  X   -0.292111  -0.211170  -0.386637   0.026679   0.002032
   28  C  4  Y    0.498512  -0.621025  -0.338631  -0.101832  -0.179873
   29  C  4  Z    0.355873   0.535040  -0.660096  -0.136760   0.393696
   30  C  5  S    0.031475  -0.004632   0.049695   0.048703  -0.015481
   31  C  5  S    0.006462  -0.014899  -0.042454   0.002551  -0.007546
   32  C  5  X   -0.034205  -0.028995  -0.065410  -0.021025   0.010851
   33  C  5  Y   -0.054926   0.056104  -0.058916  -0.031431   0.042875
   34  C  5  Z    0.011527  -0.046121  -0.064535  -0.038507  -0.002134
   35  C  5  S   -0.379440   0.101828  -0.530641  -0.608492   0.251022
   36  C  5  X   -0.012393  -0.070035  -0.204754  -0.022363   0.099482
   37  C  5  Y   -0.140863   0.188265  -0.163370  -0.078768   0.165060
   38  C  5  Z   -0.023915  -0.150910  -0.153286  -0.114571   0.035211
   39  O  6  S   -0.016755   0.006257  -0.003844  -0.017126  -0.007228
   40  O  6  S    0.013049  -0.003845   0.003986   0.015433   0.008410
   41  O  6  X    0.020601   0.003958   0.014489   0.014282   0.028366
   42  O  6  Y    0.060313  -0.037742   0.007527   0.015740  -0.014019
   43  O  6  Z    0.015584   0.022363   0.002174   0.032370  -0.000254
   44  O  6  S    0.108924  -0.052105   0.022492   0.118671   0.039228
   45  O  6  X    0.033370   0.018695   0.052462   0.009700   0.027843
   46  O  6  Y    0.107514  -0.085979   0.025841   0.045520  -0.036220
   47  O  6  Z    0.046210   0.034174   0.011261   0.078949   0.009253
   48  O  7  S   -0.010788   0.007376  -0.009140  -0.023967   0.005187
   49  O  7  S    0.004356  -0.003907   0.003631   0.016214  -0.003014
   50  O  7  X    0.019440  -0.012275   0.048746   0.063322  -0.018576
   51  O  7  Y    0.008427  -0.031756   0.002916  -0.002063  -0.022737
   52  O  7  Z   -0.011216   0.037760  -0.021793  -0.011756   0.008805
   53  O  7  S    0.124255  -0.072987   0.092453   0.230148  -0.050470
   54  O  7  X    0.068065  -0.035895   0.106003   0.153718  -0.049413
   55  O  7  Y    0.012097  -0.046075   0.017615  -0.021772  -0.035089
   56  O  7  Z   -0.040526   0.071072  -0.011434  -0.045875   0.012190
   57  H  8  S    0.003010   0.036198  -0.045770  -0.044449  -0.044503
   58  H  8  S   -0.365013   0.200276  -0.548225  -0.299668  -0.607132
   59  H  9  S   -0.000332  -0.069035   0.015967  -0.013523   0.009828
   60  H  9  S   -0.688848  -1.022277   0.204270  -0.262066  -0.437838
   61  H 10  S   -0.016155  -0.020616   0.051554   0.020991  -0.041559
   62  H 10  S   -0.962207  -0.449799   1.139129  -0.233237  -0.193803
   63  H 11  S    0.023060   0.031815   0.035948   0.010501   0.030098
   64  H 11  S   -0.708200   1.305331   0.507041  -0.328916   0.684156
   65  H 12  S   -0.017746   0.010323  -0.019393  -0.082730   0.019960
   66  H 12  S   -0.581406  -0.094745  -1.050620  -0.864018   0.165496
   67  H 13  S    0.010737   0.015418   0.006727   0.044009  -0.066913
   68  H 13  S   -0.632101   0.629233  -0.297219   1.052543  -1.171570

                     31         32         33         34         35
                    0.3542     0.3677     0.3936     0.4045     0.4483
                     A          A          A          A          A   
    1  C  1  S    0.076369  -0.021747  -0.051572  -0.033023   0.043725
    2  C  1  S   -0.015394  -0.001316  -0.003440   0.014841   0.009921
    3  C  1  X   -0.013134   0.172229  -0.037060  -0.170935   0.077888
    4  C  1  Y    0.042094  -0.019501  -0.006748   0.016296   0.162691
    5  C  1  Z    0.064732  -0.078786   0.026472  -0.044584   0.029778
    6  C  1  S   -1.023326   0.381993   0.799400   0.350373  -0.808929
    7  C  1  X    0.021693   0.671688  -0.656738  -0.888275   0.878789
    8  C  1  Y    0.374826   0.011627   0.101786  -0.009773   1.035563
    9  C  1  Z    0.366345  -0.526219   0.291265  -0.489899   0.078025
   10  H  2  S   -0.036910  -0.022924   0.003504   0.022678  -0.005402
   11  H  2  S   -0.123945   0.258213  -0.446181   0.379655  -0.241796
   12  C  3  S   -0.132680   0.004860   0.089857   0.074037  -0.011304
   13  C  3  S    0.030868   0.001755  -0.002439  -0.022081   0.003039
   14  C  3  X    0.028339   0.065340   0.078997  -0.064437   0.246652
   15  C  3  Y   -0.081957  -0.031174  -0.191409  -0.130018   0.041797
   16  C  3  Z    0.010569   0.146438  -0.133104   0.175410   0.057062
   17  C  3  S    1.863155  -0.121252  -1.308246  -1.013725   0.136722
   18  C  3  X    0.161745   0.389589   0.475568  -0.292311   1.702423
   19  C  3  Y   -0.467536  -0.139606  -1.251117  -0.713873   0.336585
   20  C  3  Z    0.083181   0.916149  -0.763774   0.933437   0.275042
   21  C  4  S    0.053250   0.053682  -0.041810  -0.059016  -0.049393
   22  C  4  S   -0.017301  -0.023255   0.005185   0.015165   0.015740
   23  C  4  X    0.002134   0.170287   0.181228  -0.117182  -0.027412
   24  C  4  Y    0.078287   0.088339  -0.077530  -0.025928  -0.173001
   25  C  4  Z   -0.136271  -0.025943  -0.018051  -0.174465  -0.035991
   26  C  4  S   -0.669413  -0.591405   0.710762   0.717999   0.653663
   27  C  4  X    0.080223   0.692067   1.473617  -0.311574   0.052976
   28  C  4  Y    0.466635   0.284388  -0.328803   0.019082  -1.103536
   29  C  4  Z   -0.625822  -0.264870   0.014105  -0.803105  -0.397506
   30  C  5  S   -0.009940  -0.103336  -0.033765   0.086884   0.078436
   31  C  5  S    0.016618   0.041002   0.019330  -0.041462   0.009970
   32  C  5  X    0.063323   0.088231   0.120919  -0.074968   0.040694
   33  C  5  Y   -0.049043   0.005758   0.089501  -0.107540  -0.045708
   34  C  5  Z    0.077721   0.099914  -0.031817  -0.083692  -0.024832
   35  C  5  S    0.064222   1.180462   0.537469  -0.998530  -1.144954
   36  C  5  X    0.101828   0.156315   0.584745  -0.247485  -0.073378
   37  C  5  Y   -0.056003   0.041000   0.165893  -0.347687   0.076221
   38  C  5  Z    0.276451   0.206580  -0.063274  -0.266811  -0.063841
   39  O  6  S   -0.015584   0.039931   0.013377   0.007805  -0.032282
   40  O  6  S    0.007881  -0.028943   0.000245  -0.008325   0.020071
   41  O  6  X    0.011694  -0.025778  -0.035221  -0.052631  -0.025775
   42  O  6  Y    0.026749  -0.040800  -0.066296   0.043207   0.013655
   43  O  6  Z   -0.028390  -0.084200  -0.043982   0.024444   0.084079
   44  O  6  S    0.145696  -0.312570  -0.176513  -0.044660   0.318404
   45  O  6  X    0.001869  -0.043836  -0.092203  -0.052719  -0.072652
   46  O  6  Y    0.079193  -0.101658  -0.149346   0.079759   0.081542
   47  O  6  Z   -0.017633  -0.212617  -0.110937   0.034503   0.208747
   48  O  7  S    0.001579   0.031699  -0.027966  -0.028844  -0.039516
   49  O  7  S   -0.003661  -0.020573   0.023988   0.020378   0.034532
   50  O  7  X   -0.016102  -0.082961   0.056272   0.098542   0.093577
   51  O  7  Y    0.013330   0.040892  -0.007945   0.019168  -0.018845
   52  O  7  Z   -0.054391   0.022954   0.018229  -0.017605  -0.047260
   53  O  7  S   -0.016072  -0.313598   0.266267   0.278560   0.341633
   54  O  7  X   -0.025703  -0.217743   0.104547   0.227697   0.231696
   55  O  7  Y    0.023421   0.067361  -0.067148   0.028490  -0.075385
   56  O  7  Z   -0.078011   0.062469  -0.037859  -0.039292  -0.102428
   57  H  8  S   -0.011656   0.057674  -0.035587  -0.001106  -0.004832
   58  H  8  S   -0.788247   1.015676  -0.656308   1.054535   0.508712
   59  H  9  S    0.008218  -0.014124  -0.035107  -0.033536   0.016643
   60  H  9  S   -1.145927  -0.645300  -0.178274  -0.825756   0.005779
   61  H 10  S    0.016079  -0.026066   0.052822  -0.004437   0.033681
   62  H 10  S    1.028954   0.586351   0.140598   0.503750   0.127731
   63  H 11  S   -0.027616   0.003017   0.012578   0.040467   0.043900
   64  H 11  S   -0.458710  -0.204614  -0.030990  -0.445982   0.692059
   65  H 12  S    0.016660  -0.011724   0.002568   0.006515  -0.064228
   66  H 12  S    0.749436  -0.975503   0.197177   0.499488   0.178022
   67  H 13  S    0.009096  -0.002333   0.018336   0.039208  -0.045886
   68  H 13  S    0.372332  -0.356127  -0.146099  -0.352787  -0.618077

                     36         37         38         39         40
                    0.4880     0.6291     0.8782     0.8972     0.9239
                     A          A          A          A          A   
    1  C  1  S   -0.016109  -0.026757   0.008016   0.002619   0.004420
    2  C  1  S   -0.004585  -0.000709  -0.040334  -0.050956  -0.025402
    3  C  1  X    0.047155   0.064440   0.020861   0.433145   0.035323
    4  C  1  Y   -0.054317   0.007570  -0.059591  -0.240416  -0.272191
    5  C  1  Z   -0.023762   0.028072  -0.287742  -0.063148   0.363635
    6  C  1  S    0.332039   0.389502   0.102440   0.178376   0.123640
    7  C  1  X   -0.024244  -0.443698   0.076126  -0.622451  -0.075490
    8  C  1  Y   -0.304615  -0.093058   0.149228   0.405566   0.426175
    9  C  1  Z   -0.092391  -0.041553   0.458262   0.148341  -0.577841
   10  H  2  S   -0.030837   0.048514  -0.372917  -0.120991   0.286947
   11  H  2  S    0.053631  -0.072357   0.035772  -0.017521  -0.041567
   12  C  3  S    0.000489   0.049242  -0.007583   0.009359  -0.005480
   13  C  3  S   -0.010155   0.014908  -0.006434   0.016333   0.001121
   14  C  3  X   -0.087490  -0.148482   0.226999   0.047951   0.184039
   15  C  3  Y    0.025077  -0.074498   0.161306  -0.134595   0.023926
   16  C  3  Z    0.029405  -0.017325  -0.249610   0.030988   0.232371
   17  C  3  S    0.045845  -1.140792   0.109922  -0.514719   0.036405
   18  C  3  X   -0.599747   0.317711  -0.110709   0.066779  -0.200553
   19  C  3  Y    0.201009  -0.622203  -0.254492  -0.190020  -0.088035
   20  C  3  Z    0.155287  -0.087486   0.249345  -0.233507  -0.228002
   21  C  4  S    0.073457  -0.030591  -0.011937  -0.030390   0.005960
   22  C  4  S   -0.006438   0.002542   0.031704   0.038431  -0.018224
   23  C  4  X   -0.020186   0.157682  -0.251589  -0.568200  -0.057742
   24  C  4  Y    0.049826  -0.040760   0.031713  -0.235819   0.115128
   25  C  4  Z    0.027625  -0.106602  -0.285220  -0.103985  -0.032666
   26  C  4  S   -1.278529   0.486133  -0.167378   0.136120  -0.032625
   27  C  4  X    0.227828   0.771049   0.316451   0.887577   0.084961
   28  C  4  Y    0.571731  -0.462419   0.038698   0.300095   0.003105
   29  C  4  Z    0.490964  -0.545628   0.430122   0.030923   0.020539
   30  C  5  S    0.049173   0.016818   0.001988   0.003245   0.003204
   31  C  5  S    0.032429   0.003409  -0.031887   0.005327  -0.024472
   32  C  5  X    0.305434  -0.169759  -0.245383  -0.253983  -0.019409
   33  C  5  Y    0.115057   0.151538   0.333426  -0.264057   0.590721
   34  C  5  Z    0.150342   0.152971  -0.364936   0.068226  -0.375075
   35  C  5  S   -0.589935  -0.196893   0.302877   0.396819   0.051182
   36  C  5  X    1.325520  -1.223056   0.357722   0.170027  -0.017695
   37  C  5  Y    0.431068   1.008482  -0.249928   0.373415  -0.571252
   38  C  5  Z    0.568635   1.600700   0.330183   0.179343   0.458376
   39  O  6  S   -0.062151  -0.102094  -0.000887  -0.007170   0.001712
   40  O  6  S    0.035333   0.023912   0.011121   0.010976  -0.010472
   41  O  6  X   -0.209050   0.041124   0.021620   0.036897  -0.024357
   42  O  6  Y    0.067728   0.080642   0.020842  -0.003942   0.028936
   43  O  6  Z    0.100746   0.136783  -0.014197   0.009868  -0.016067
   44  O  6  S    0.589922   1.393382  -0.022894   0.094767   0.025116
   45  O  6  X   -0.463340   0.033094  -0.019501  -0.016454  -0.014178
   46  O  6  Y    0.176919   0.373136   0.015429  -0.014037   0.093374
   47  O  6  Z    0.285636   0.582125  -0.064317   0.022776  -0.042249
   48  O  7  S   -0.075518   0.079738   0.000509   0.007572   0.001747
   49  O  7  S    0.049632  -0.029704   0.003309   0.009459   0.001833
   50  O  7  X    0.061057  -0.126966  -0.011657   0.002307   0.006866
   51  O  7  Y   -0.109644  -0.032908   0.020891   0.030374   0.034531
   52  O  7  Z   -0.165192  -0.046077   0.010053   0.053567  -0.024526
   53  O  7  S    0.808487  -1.160299   0.037485  -0.114273  -0.049396
   54  O  7  X    0.280187  -0.534788  -0.046819  -0.113701  -0.022258
   55  O  7  Y   -0.248096   0.014276   0.033153  -0.020349   0.076220
   56  O  7  Z   -0.402130   0.071888  -0.039485   0.022877  -0.045806
   57  H  8  S    0.064021  -0.003757   0.264729  -0.009183  -0.245151
   58  H  8  S    0.203833   0.196144  -0.142092  -0.049624   0.088699
   59  H  9  S    0.003323  -0.008787  -0.349661   0.231832   0.171875
   60  H  9  S    0.076780  -0.128402   0.068887  -0.097125  -0.125718
   61  H 10  S   -0.036157  -0.129953  -0.314652   0.035682  -0.001781
   62  H 10  S   -0.018790   0.404467   0.034149  -0.027762   0.019540
   63  H 11  S   -0.017608   0.037858   0.206579  -0.321215   0.077156
   64  H 11  S    0.028701  -0.072069  -0.088317  -0.079108  -0.068927
   65  H 12  S    0.050637   0.010575   0.079746   0.406563   0.055551
   66  H 12  S   -0.301429  -0.002335  -0.037464  -0.089304  -0.002602
   67  H 13  S   -0.009018   0.028535   0.145717  -0.237599  -0.416090
   68  H 13  S    0.094680  -0.057336  -0.039606   0.035473   0.046987

                     41         42         43         44         45
                    0.9679     0.9920     1.0153     1.0180     1.0635
                     A          A          A          A          A   
    1  C  1  S   -0.010411   0.009565  -0.011630  -0.028681  -0.005774
    2  C  1  S    0.022152  -0.059772   0.064039   0.057861   0.046474
    3  C  1  X   -0.397804   0.193008  -0.225448  -0.406170  -0.115258
    4  C  1  Y   -0.188512   0.170667  -0.082993  -0.591618   0.160903
    5  C  1  Z   -0.034692   0.132106   0.211831  -0.105254  -0.419578
    6  C  1  S    0.175554   0.156207  -0.230758   0.229772  -0.195223
    7  C  1  X    0.560391  -0.228502   0.401555   0.365662   0.225189
    8  C  1  Y    0.216335  -0.247679   0.092185   0.892259  -0.340678
    9  C  1  Z    0.066680  -0.158773  -0.440780   0.188112   0.786214
   10  H  2  S   -0.057972   0.144155   0.090732  -0.201895  -0.207792
   11  H  2  S   -0.071099  -0.029685   0.063827  -0.118731  -0.090198
   12  C  3  S    0.014279  -0.017581   0.017347   0.047889   0.028174
   13  C  3  S   -0.098811  -0.000971  -0.021823  -0.146220  -0.072330
   14  C  3  X    0.222431  -0.154403  -0.026821   0.134823   0.030814
   15  C  3  Y    0.089672   0.392475  -0.361248   0.020788  -0.431831
   16  C  3  Z    0.113283   0.178255  -0.217194  -0.065517   0.169598
   17  C  3  S    0.613545   0.333654  -0.242248   0.490646   0.158344
   18  C  3  X   -0.362777  -0.120233   0.233075  -0.146040  -0.060356
   19  C  3  Y   -0.050354  -0.602977   0.655859  -0.175703   0.805142
   20  C  3  Z   -0.188058  -0.313247   0.447868  -0.002810  -0.247708
   21  C  4  S    0.004702   0.001489   0.001510  -0.032234  -0.010929
   22  C  4  S    0.077378   0.023601   0.078008   0.042462   0.059623
   23  C  4  X    0.162868   0.144950  -0.058920   0.338326   0.249087
   24  C  4  Y   -0.134328  -0.395657   0.424157  -0.233512  -0.261879
   25  C  4  Z   -0.053486  -0.236931   0.071078  -0.175125   0.344611
   26  C  4  S   -0.682714  -0.274542  -0.736638   0.278318  -0.318342
   27  C  4  X   -0.027066   0.040349   0.360603  -0.369085  -0.320556
   28  C  4  Y    0.507949   0.994015  -0.806158   0.370326   0.459912
   29  C  4  Z    0.359963   0.662277  -0.031605   0.252026  -0.639752
   30  C  5  S   -0.031153  -0.030774  -0.049509   0.026783  -0.013764
   31  C  5  S    0.179495   0.122990   0.338174  -0.266770   0.109327
   32  C  5  X   -0.825426  -0.136474  -0.212942   0.444085  -0.076899
   33  C  5  Y    0.037883  -0.364703  -0.522391  -0.257870   0.211210
   34  C  5  Z    0.405327  -0.562937  -0.452959  -0.107492  -0.458308
   35  C  5  S    0.152341   0.404536  -0.078851   0.164694  -0.218746
   36  C  5  X    1.150739   0.815796   0.445233  -0.542028   0.044218
   37  C  5  Y    0.141429   0.232488   0.895053   0.156386  -0.367891
   38  C  5  Z   -0.144705   0.464404   0.651386  -0.026994   0.727371
   39  O  6  S   -0.013649   0.025300   0.005279   0.007307   0.001931
   40  O  6  S    0.019351  -0.027363  -0.020940  -0.010386  -0.020026
   41  O  6  X   -0.081441  -0.004453  -0.002820   0.012126  -0.041321
   42  O  6  Y    0.041662  -0.056033  -0.151411   0.000928  -0.027373
   43  O  6  Z    0.053953  -0.146003  -0.135638  -0.008263  -0.086480
   44  O  6  S   -0.048905  -0.031514   0.355992   0.001310   0.193075
   45  O  6  X   -0.171874  -0.070227  -0.085831   0.100053  -0.014176
   46  O  6  Y    0.021372  -0.121498  -0.094983  -0.042382   0.089442
   47  O  6  Z    0.081910  -0.202316  -0.045921  -0.028125  -0.053305
   48  O  7  S    0.016785  -0.014193  -0.002188  -0.002147   0.004444
   49  O  7  S   -0.039883   0.006302   0.012667  -0.005144  -0.014095
   50  O  7  X   -0.234687  -0.044115  -0.047836   0.099789  -0.045123
   51  O  7  Y    0.000748  -0.052998  -0.033118  -0.070318   0.035070
   52  O  7  Z    0.058517  -0.060855  -0.017213  -0.061836  -0.081304
   53  O  7  S    0.319365   0.206877  -0.011184  -0.198467  -0.043259
   54  O  7  X   -0.144545   0.058113  -0.060920   0.068694  -0.014142
   55  O  7  Y   -0.008225  -0.045642  -0.116455  -0.003529   0.042899
   56  O  7  Z    0.021762  -0.112737  -0.076670   0.008891  -0.063222
   57  H  8  S   -0.139390  -0.225443   0.207482   0.027145   0.038188
   58  H  8  S   -0.074216  -0.070564   0.178083   0.050608   0.053796
   59  H  9  S   -0.030912  -0.141199   0.092841   0.040701   0.304843
   60  H  9  S    0.039847  -0.077900   0.102503  -0.000794   0.142201
   61  H 10  S    0.108380  -0.192270  -0.029463  -0.199377   0.235313
   62  H 10  S   -0.133795  -0.190642   0.123430  -0.091914   0.047070
   63  H 11  S   -0.058538  -0.223679   0.268224  -0.159854  -0.229261
   64  H 11  S   -0.053887  -0.152263   0.133579  -0.107780  -0.045564
   65  H 12  S   -0.153202  -0.185907   0.005407   0.073573   0.094917
   66  H 12  S   -0.040545   0.080435  -0.136085   0.008238  -0.090780
   67  H 13  S   -0.093936   0.071489  -0.141352  -0.251364   0.158072
   68  H 13  S   -0.019746   0.013659  -0.022521  -0.119166   0.148789

                     46         47         48         49         50
                    1.0755     1.1320     1.2213     1.2481     1.3201
                     A          A          A          A          A   
    1  C  1  S   -0.037398  -0.033769  -0.046456   0.016208  -0.000031
    2  C  1  S    0.041609   0.055702  -0.009385   0.005170   0.068015
    3  C  1  X   -0.245683  -0.246781   0.018387  -0.102577   0.222013
    4  C  1  Y   -0.308385   0.150460   0.220639   0.163253  -0.138533
    5  C  1  Z   -0.249435   0.319235  -0.145600  -0.298274   0.124077
    6  C  1  S   -0.044319  -0.319239   0.163275  -0.119819  -0.538966
    7  C  1  X    0.428601   0.785583   0.303036   0.155358  -0.265876
    8  C  1  Y    0.701613  -0.266277  -0.324187  -0.396705   0.607242
    9  C  1  Z    0.495537  -0.638424   0.364281   0.630038  -0.242618
   10  H  2  S   -0.228234  -0.038082  -0.218575   0.268740  -0.234938
   11  H  2  S   -0.207783   0.196264  -0.141542  -0.422174   0.324822
   12  C  3  S   -0.004497   0.018440  -0.024813   0.012505  -0.002386
   13  C  3  S    0.044965  -0.105968  -0.078120   0.045824  -0.019769
   14  C  3  X   -0.740985  -0.406651  -0.007870   0.018821  -0.293072
   15  C  3  Y    0.292172  -0.401619  -0.412552  -0.139332   0.130831
   16  C  3  Z    0.248752  -0.357126   0.219626   0.462002  -0.582505
   17  C  3  S   -0.192817   0.526797   0.075122   0.072966   0.226354
   18  C  3  X    1.298256   0.325771  -0.095630  -0.123548   0.788066
   19  C  3  Y   -0.639219   0.918512   0.493782   0.692919  -0.086763
   20  C  3  Z   -0.428406   0.712575  -0.672792  -1.070430   1.084171
   21  C  4  S    0.035529  -0.008214  -0.028990   0.019325  -0.006936
   22  C  4  S   -0.097934   0.064031   0.026746  -0.003544  -0.014790
   23  C  4  X   -0.390637  -0.174068  -0.099417   0.090595   0.421783
   24  C  4  Y    0.129393  -0.499873   0.464103   0.129852   0.393395
   25  C  4  Z    0.126743  -0.267637  -0.125578  -0.862005  -0.316820
   26  C  4  S    0.599862  -0.093028  -0.320564   0.051978   0.319942
   27  C  4  X    0.875044  -0.232819   0.171833  -0.287374  -0.935538
   28  C  4  Y   -0.479900   0.856623  -0.405442  -0.456258  -0.649323
   29  C  4  Z   -0.465480   0.524868   0.614240   1.653730   0.086742
   30  C  5  S   -0.020504  -0.009573   0.025328  -0.017345   0.007486
   31  C  5  S    0.211355   0.160334  -0.449000   0.244193   0.092966
   32  C  5  X    0.052458  -0.004197  -0.026308   0.102656  -0.125415
   33  C  5  Y    0.040305   0.269035  -0.030856  -0.000257   0.134689
   34  C  5  Z   -0.100375   0.104335  -0.010432   0.043007  -0.056316
   35  C  5  S   -0.081887   0.073232   0.636495  -0.072137  -0.705346
   36  C  5  X   -0.161142   0.430651   0.118613   0.137885   0.141922
   37  C  5  Y    0.103898  -0.677930   0.138305   0.072105  -0.456262
   38  C  5  Z    0.360738  -0.491504  -0.036638  -0.383922  -0.316417
   39  O  6  S   -0.007435   0.008843   0.003352  -0.000100   0.009023
   40  O  6  S    0.004527   0.029646  -0.002113   0.022349  -0.011793
   41  O  6  X    0.031897   0.112670  -0.033530   0.094136  -0.002662
   42  O  6  Y   -0.027508   0.049349   0.016168  -0.015795   0.046562
   43  O  6  Z   -0.038487   0.061354   0.046866   0.002837   0.018276
   44  O  6  S    0.198577  -0.412695  -0.110700  -0.110193  -0.149317
   45  O  6  X   -0.000658  -0.033190   0.004777  -0.000409  -0.035136
   46  O  6  Y    0.031133  -0.030880  -0.034847  -0.055230  -0.010433
   47  O  6  Z    0.023272  -0.130043  -0.028529  -0.024673  -0.046868
   48  O  7  S    0.000920  -0.015530   0.000439  -0.008436  -0.014742
   49  O  7  S    0.017946   0.015936   0.000605   0.011912   0.022985
   50  O  7  X    0.027415  -0.025702   0.042025  -0.016679  -0.072304
   51  O  7  Y    0.060453   0.071836  -0.045754  -0.014819   0.038845
   52  O  7  Z    0.025400   0.042941  -0.036766   0.085317  -0.019460
   53  O  7  S   -0.122630   0.345987  -0.074996   0.153051   0.288843
   54  O  7  X   -0.054656   0.113356  -0.027784   0.065234   0.149414
   55  O  7  Y   -0.017592   0.022768   0.010574  -0.029484  -0.002087
   56  O  7  Z   -0.021327  -0.025763   0.030137  -0.040130  -0.014032
   57  H  8  S   -0.101087   0.144029  -0.312370   0.301978  -0.242402
   58  H  8  S   -0.086089   0.294950  -0.136642  -0.528126   0.796622
   59  H  9  S   -0.068216   0.127908  -0.363474   0.118803   0.195537
   60  H  9  S   -0.089402   0.093180   0.513672   0.512407  -0.618192
   61  H 10  S    0.276072  -0.196152  -0.286213   0.400356   0.469264
   62  H 10  S    0.119966  -0.137059  -0.133273  -1.147606  -0.670560
   63  H 11  S    0.109279  -0.029626  -0.575169   0.060199  -0.523375
   64  H 11  S    0.066458  -0.211313   0.673614   0.525089   0.915168
   65  H 12  S   -0.189836  -0.291038  -0.452075   0.152597   0.154204
   66  H 12  S    0.066291  -0.267491   0.066246  -0.153943   0.194855
   67  H 13  S   -0.116900  -0.136998  -0.335634  -0.052560   0.087118
   68  H 13  S   -0.153579  -0.006501   0.299628   0.442772  -0.373978

                     51         52         53         54         55
                    1.3394     1.3484     1.3681     1.3842     1.4197
                     A          A          A          A          A   
    1  C  1  S    0.018296   0.000293  -0.017635   0.047868   0.068365
    2  C  1  S    0.013756  -0.018554  -0.022329  -0.090249  -0.368542
    3  C  1  X    0.327647  -0.297656  -0.155246  -0.396128  -0.371266
    4  C  1  Y   -0.535584   0.452542  -0.008251   0.035626  -0.184851
    5  C  1  Z   -0.446707  -0.505939   0.212847   0.240845  -0.065696
    6  C  1  S   -0.334985   0.246627   0.711540  -0.104038   0.503043
    7  C  1  X   -0.289692   0.325187   0.225790   0.603503   0.728984
    8  C  1  Y    0.718887  -0.678484  -0.676468   0.054362   0.154870
    9  C  1  Z    0.477634   0.492120  -0.318656  -0.275920   0.130160
   10  H  2  S    0.747091   0.486423  -0.193630   0.136564   0.422824
   11  H  2  S   -0.966950  -0.706707   0.328866   0.122708  -0.549751
   12  C  3  S    0.013677   0.014142   0.032479   0.026648  -0.060058
   13  C  3  S   -0.037999  -0.057904  -0.086187  -0.101563   0.322751
   14  C  3  X   -0.093416   0.031622   0.385446  -0.220924  -0.005530
   15  C  3  Y   -0.084570   0.370642   0.220837   0.199666  -0.353001
   16  C  3  Z   -0.100474  -0.448245  -0.054311   0.273747  -0.206895
   17  C  3  S    0.189070  -0.082709  -0.367286   0.244997  -0.347848
   18  C  3  X    0.381943  -0.109814  -1.012177   0.800911   0.087049
   19  C  3  Y    0.367374  -0.648941  -0.347400  -0.189328   0.526711
   20  C  3  Z    0.265595   0.621323  -0.148468  -0.375705   0.158363
   21  C  4  S   -0.020763  -0.009087   0.016407  -0.055286   0.020218
   22  C  4  S    0.056950   0.107608   0.067546   0.311367  -0.120196
   23  C  4  X    0.055281  -0.169370  -0.423116  -0.082522  -0.228158
   24  C  4  Y    0.083556   0.045673   0.061592   0.288238  -0.094728
   25  C  4  Z    0.063300   0.047242  -0.179068   0.118574  -0.130070
   26  C  4  S   -0.021239  -0.237169  -0.785442  -0.208086  -0.094223
   27  C  4  X   -0.404085   0.568466   1.256845   0.362727   0.454376
   28  C  4  Y   -0.206641   0.076609   0.116660  -0.480269   0.246481
   29  C  4  Z   -0.060778  -0.182748   0.287029  -0.058222   0.284800
   30  C  5  S    0.003840   0.001776  -0.000276   0.005850  -0.002369
   31  C  5  S    0.062073  -0.096273  -0.286335  -0.106008  -0.063232
   32  C  5  X   -0.089061   0.016334   0.117080  -0.095996   0.066410
   33  C  5  Y    0.071590  -0.016133  -0.064920   0.098939  -0.025806
   34  C  5  Z    0.036986  -0.028685  -0.110435   0.033387  -0.063749
   35  C  5  S   -0.333502   0.384120   1.137487   0.164480   0.461439
   36  C  5  X    0.204044  -0.062200  -0.262979   0.284402  -0.035386
   37  C  5  Y   -0.314829   0.192134   0.657667  -0.179616   0.188288
   38  C  5  Z   -0.384782   0.311906   0.925811  -0.178298   0.336605
   39  O  6  S    0.008130  -0.001036  -0.019445  -0.001601   0.002450
   40  O  6  S   -0.006395  -0.007049   0.029086   0.024364  -0.011443
   41  O  6  X    0.031538  -0.062656  -0.076201   0.076988  -0.073026
   42  O  6  Y   -0.009619   0.021840   0.020440  -0.003627   0.026583
[...]
    8             0.000008  -0.000077   0.001182   0.008980   0.002745
    9             0.000018   0.000043  -0.000152   0.011877   0.003786
   10            -0.000001  -0.000785   0.000134   0.014335   0.018315
   11            -0.000000   0.000048  -0.000259   0.015496   0.014880
   12             0.001354   0.000001  -0.000012   0.003706   0.029966
   13             0.001427  -0.000000  -0.000002   0.006294   0.025263

                     11         12         13         14         15

                  1.000000   1.000000   1.000000   1.000000   1.000000

    1             0.217398   0.032295   0.005458   0.005876   0.019697
    2             0.031880   0.006712   0.000833   0.002672   0.000034
    3             0.243008   0.106758   0.033802   0.029770   0.032210
    4             0.060180   0.104652   0.096840   0.094957   0.126999
    5             0.099400   0.112949   0.101146   0.208263   0.214833
    6             0.016160   0.062764   0.063445   0.066700   0.342250
    7             0.197031   0.470958   0.640450   0.525907   0.213008
    8             0.034189   0.013168   0.013522   0.008799   0.002286
    9             0.034381   0.024811   0.006248   0.003415   0.003444
   10             0.001528   0.026141   0.010245   0.041792   0.026321
   11             0.002507   0.028962   0.026725   0.011215   0.010420
   12             0.030909   0.002197   0.000553   0.000002   0.005436
   13             0.031428   0.007634   0.000732   0.000631   0.003061

                     16         17         18         19         20

                  1.000000   1.000000   1.000000   1.000000   1.000000

    1             0.112420   0.250432   0.199003   0.282704   0.267082
    2             0.025869   0.031112   0.036734   0.109737   0.001017
    3             0.219968   0.136530   0.132282   0.025039   0.217551
    4             0.183714   0.094336   0.192179   0.180470   0.168262
    5             0.024976   0.037396   0.041891   0.026758   0.053035
    6             0.043671   0.150969   0.157772   0.087299   0.108275
    7             0.129471   0.109010   0.080129   0.054730   0.053352
    8             0.040436   0.045565   0.001183   0.001450   0.000821
    9             0.079015   0.002497   0.004617   0.007390   0.000301
   10             0.047230   0.014709   0.001054   0.079384   0.012610
   11             0.050875   0.000421   0.077081   0.043821   0.001456
   12             0.006633   0.126332   0.031577   0.000332   0.114245
   13             0.035720   0.000691   0.044497   0.100886   0.001991

                     21         22         23         24

                  1.000000   1.000000   1.000000   1.000000

    1             0.223761   0.131133   0.007052   0.013944
    2             0.009282   0.104754   0.003034   0.004566
    3             0.285105   0.268991   0.018166   0.028894
    4             0.096857   0.083562   0.030399   0.166648
    5             0.008235   0.029907   0.140999   0.056091
    6             0.021885   0.059094   0.612061   0.645669
    7             0.011474   0.017900   0.133844   0.048154
    8             0.010134   0.164101   0.009178   0.002887
    9             0.149508   0.047539   0.006674   0.004632
   10             0.000182   0.054765   0.017062   0.009494
   11             0.050714   0.000048   0.020253   0.010712
   12             0.026384   0.007529   0.000275   0.006597
   13             0.106480   0.030677   0.001004   0.001712

     ATOMIC MULLIKEN POPULATION IN EACH MOLECULAR ORBITAL
         BETA ORBITALS

                      1          2          3          4          5

                  1.000000   1.000000   1.000000   1.000000   1.000000

    1             0.000000  -0.000000  -0.000000   0.000016   0.002469
    2            -0.000000  -0.000000  -0.000000  -0.000000   0.000006
    3             0.000000  -0.000001   0.000041   0.002596   0.992044
    4            -0.000050  -0.000019   0.001946   0.992226   0.002512
    5             0.003427   0.003254   0.998935   0.002291   0.000005
    6             0.000002   0.996746  -0.000376  -0.000003  -0.000000
    7             0.996617   0.000005  -0.000591  -0.000001   0.000000
    8            -0.000000   0.000015   0.000003   0.000006   0.001550
    9            -0.000000   0.000000  -0.000001   0.000015   0.001399
   10             0.000005  -0.000000   0.000021   0.001396   0.000012
   11            -0.000001  -0.000000   0.000021   0.001461   0.000001
   12             0.000000   0.000000  -0.000000  -0.000000   0.000002
   13            -0.000000   0.000000   0.000000  -0.000001   0.000001

                      6          7          8          9         10

                  1.000000   1.000000   1.000000   1.000000   1.000000

    1             0.993461  -0.000138   0.000277   0.159491   0.401682
    2             0.001398  -0.000000   0.000001   0.006445   0.027951
    3             0.002301  -0.000938   0.000738   0.387539   0.062126
    4             0.000032   0.005954   0.006980   0.336368   0.283461
    5             0.000002   0.213630   0.092733   0.026144   0.083921
    6            -0.000000   0.232598   0.603681   0.013088   0.013937
    7             0.000000   0.549689   0.294796   0.005987   0.019540
    8             0.000008  -0.000006   0.001146   0.010216   0.001411
    9             0.000018   0.000045  -0.000139   0.013270   0.002213
   10            -0.000001  -0.000685  -0.000133   0.014017   0.023213
   11            -0.000000  -0.000146  -0.000068   0.015309   0.019938
   12             0.001354  -0.000001  -0.000009   0.004646   0.033375
   13             0.001427  -0.000001  -0.000002   0.007479   0.027232

                     11         12         13         14         15

                  1.000000   1.000000   1.000000   1.000000   1.000000

    1             0.215435   0.006640   0.025619   0.031028   0.121823
    2             0.035115   0.001440   0.001878   0.006984   0.015417
    3             0.323246   0.045398   0.082122   0.049423   0.176268
    4             0.100222   0.106215   0.193600   0.157420   0.107106
    5             0.061225   0.153683   0.224465   0.244521   0.107295
    6             0.011408   0.112150   0.185182   0.091914   0.040458
    7             0.058276   0.498238   0.170000   0.307638   0.242544
    8             0.049522   0.005078   0.024604   0.003849   0.011965
    9             0.054411   0.010717   0.009916   0.010127   0.075331
   10             0.010938   0.029003   0.071179   0.021324   0.021052
   11             0.015942   0.029539   0.000512   0.067488   0.021840
   12             0.028883   0.000116   0.005442   0.007189   0.015962
   13             0.035377   0.001783   0.005479   0.001094   0.042940

                     16         17         18         19         20

                  1.000000   1.000000   1.000000   1.000000   1.000000

    1             0.062674   0.318265   0.258087   0.349771   0.199539
    2             0.016164   0.097993   0.057006   0.017513   0.011668
    3             0.076745   0.102704   0.032864   0.296937   0.279967
    4             0.050737   0.116759   0.239645   0.125099   0.137831
    5             0.177667   0.044865   0.008153   0.044564   0.002591
    6             0.480477   0.105486   0.014306   0.030872   0.007350
    7             0.060623   0.026381   0.086937   0.015178   0.008523
    8             0.052140   0.004763   0.002632   0.007583   0.014350
    9             0.000785   0.001673   0.004015   0.000108   0.142028
   10             0.000151   0.023182   0.073488   0.009052   0.000543
   11             0.000128   0.030544   0.091442   0.001286   0.058612
   12             0.019790   0.116229   0.000992   0.101007   0.041164
   13             0.001919   0.011156   0.130432   0.001030   0.095832

                     21         22         23

                  1.000000   1.000000   1.000000

    1             0.126440   0.004402   0.010729
    2             0.096949   0.001384   0.006047
    3             0.266795   0.005382   0.031258
    4             0.095646   0.011760   0.126975
    5             0.016779   0.072455   0.054700
    6             0.039990   0.635182   0.676618
    7             0.013919   0.246556   0.061791
    8             0.162256   0.004689   0.004398
    9             0.060400   0.000856   0.004666
   10             0.070770   0.009328   0.006549
   11             0.002796   0.007968   0.009618
   12             0.011269   0.000019   0.005047
   13             0.035990   0.000019   0.001605

     ATOMIC SPIN POPULATION (ALPHA MINUS BETA)
       ATOM         MULL.POP.                    LOW.POP.
    1 C             0.007000                     0.006052
    2 H            -0.000728                    -0.000471
    3 C             0.000014                     0.002311
    4 C             0.118680                     0.089962
    5 C            -0.118789                    -0.064568
    6 O             0.001061                    -0.002052
    7 O             1.008149                     0.977752
    8 H            -0.000048                     0.000366
    9 H            -0.000396                    -0.000225
   10 H            -0.008452                    -0.005379
   11 H            -0.007369                    -0.004628
   12 H             0.001542                     0.001258
   13 H            -0.000664                    -0.000377


          ********* ALL ELECTRONS ********

               ----- POPULATIONS IN EACH AO -----
                             MULLIKEN      LOWDIN
              1  C  1  S      1.98815     1.97640
              2  C  1  S      0.35116     0.41236
              3  C  1  X      0.52634     0.50312
              4  C  1  Y      0.53615     0.50543
              5  C  1  Z      0.54136     0.50738
              6  C  1  S      1.12544     0.58609
              7  C  1  X      0.43587     0.56167
              8  C  1  Y      0.52401     0.59605
              9  C  1  Z      0.55394     0.60654
             10  H  2  S      0.46558     0.46877
             11  H  2  S      0.33641     0.44482
             12  C  3  S      1.98912     1.97615
             13  C  3  S      0.34378     0.40916
             14  C  3  X      0.50605     0.48798
             15  C  3  Y      0.53056     0.50498
             16  C  3  Z      0.56608     0.53998
             17  C  3  S      1.11948     0.56656
             18  C  3  X      0.31469     0.51321
             19  C  3  Y      0.46621     0.56777
             20  C  3  Z      0.59514     0.60250
             21  C  4  S      1.98944     1.97641
             22  C  4  S      0.34429     0.42148
             23  C  4  X      0.49477     0.48170
             24  C  4  Y      0.54349     0.51894
             25  C  4  Z      0.54456     0.51636
             26  C  4  S      1.15759     0.58664
             27  C  4  X      0.36490     0.53905
             28  C  4  Y      0.53267     0.58898
             29  C  4  Z      0.54383     0.58392
             30  C  5  S      1.98684     1.97645
             31  C  5  S      0.43821     0.44158
             32  C  5  X      0.55650     0.53456
             33  C  5  Y      0.41281     0.39291
             34  C  5  Z      0.52892     0.50256
             35  C  5  S      0.53444     0.52674
             36  C  5  X      0.17175     0.43934
             37  C  5  Y      0.33234     0.45063
             38  C  5  Z      0.19400     0.43942
             39  O  6  S      1.98717     1.98196
             40  O  6  S      0.43077     0.59518
             41  O  6  X      0.81378     0.81388
             42  O  6  Y      0.61296     0.60811
             43  O  6  Z      0.60578     0.59742
             44  O  6  S      1.56239     1.08138
             45  O  6  X      0.96924     1.00082
             46  O  6  Y      0.82336     0.84622
             47  O  6  Z      0.77775     0.82358
             48  O  7  S      1.98772     1.98271
             49  O  7  S      0.44773     0.61336
             50  O  7  X      0.63595     0.62992
             51  O  7  Y      0.74530     0.74663
             52  O  7  Z      0.64549     0.64413
             53  O  7  S      1.57305     1.07419
             54  O  7  X      0.70263     0.73503
             55  O  7  Y      0.86629     0.85775
             56  O  7  Z      0.72927     0.72787
             57  H  8  S      0.45677     0.46680
             58  H  8  S      0.26754     0.41460
             59  H  9  S      0.46532     0.47544
             60  H  9  S      0.31799     0.43397
             61  H 10  S      0.46343     0.46987
             62  H 10  S      0.29693     0.42725
             63  H 11  S      0.45455     0.46235
             64  H 11  S      0.28654     0.41990
             65  H 12  S      0.46270     0.46423
             66  H 12  S      0.32379     0.43812
             67  H 13  S      0.46578     0.46872
             68  H 13  S      0.33514     0.44402

          ----- MULLIKEN ATOMIC OVERLAP POPULATIONS -----
          (OFF-DIAGONAL ELEMENTS NEED TO BE MULTIPLIED BY 2)

             1           2           3           4           5

    1    5.3489941
    2    0.3745804   0.5239888
    3    0.2395143  -0.0437050   5.4896504
    4   -0.0654592  -0.0012401   0.2017041   5.7072867
    5    0.0028519  -0.0000574  -0.0549186   0.1976613   4.4700155
    6    0.0001782  -0.0000014  -0.0039627  -0.0817508   0.4716080
    7   -0.0000055  -0.0000001   0.0010215  -0.0665919   0.1452244
    8   -0.0313697   0.0021997   0.3742939  -0.0594182  -0.0047260
    9   -0.0419484  -0.0018093   0.3865232  -0.0472383   0.0005131
   10    0.0009953   0.0008127  -0.0343655   0.3601003  -0.0384725
   11   -0.0014824   0.0000687  -0.0408439   0.3691624  -0.0338150
   12    0.3808213  -0.0253948  -0.0371263   0.0029207  -0.0000399
   13    0.3747560  -0.0274514  -0.0466691  -0.0015995  -0.0000293

             6           7           8           9          10

    6    8.2129769
    7   -0.0382405   8.2889014
    8    0.0204894   0.0001799   0.4432462
    9    0.0002334   0.0000140  -0.0210132   0.5062293
   10    0.0013586   0.0020177   0.0030083  -0.0025737   0.4878004
   11    0.0003025   0.0009216   0.0001520   0.0027247  -0.0202984
   12    0.0000002   0.0000000  -0.0014655  -0.0012349  -0.0000446
   13    0.0000068   0.0000001  -0.0012675   0.0028926   0.0000137

            11          12          13

   11    0.4612321
   12    0.0000076   0.4921745
   13    0.0029569  -0.0241274   0.5214364

          TOTAL MULLIKEN AND LOWDIN ATOMIC POPULATIONS
       ATOM         MULL.POP.    CHARGE          LOW.POP.     CHARGE
    1 C             6.582426   -0.582426         6.255024   -0.255024
    2 H             0.801991    0.198009         0.913596    0.086404
    3 C             6.431116   -0.431116         6.168305   -0.168305
    4 C             6.515537   -0.515537         6.213489   -0.213489
    5 C             5.155815    0.844185         5.704189    0.295811
    6 O             8.583199   -0.583199         8.348547   -0.348547
    7 O             8.333443   -0.333443         8.011580   -0.011580
    8 H             0.724309    0.275691         0.881399    0.118601
    9 H             0.783312    0.216688         0.909414    0.090586
   10 H             0.760352    0.239648         0.897124    0.102876
   11 H             0.741089    0.258911         0.882246    0.117754
   12 H             0.786491    0.213509         0.902348    0.097652
   13 H             0.800918    0.199082         0.912740    0.087260

          -------------------------------
          BOND ORDER AND VALENCE ANALYSIS     BOND ORDER THRESHOLD=0.050
          -------------------------------

                   BOND                       BOND                       BOND
  ATOM PAIR DIST  ORDER      ATOM PAIR DIST  ORDER      ATOM PAIR DIST  ORDER
    1   2  1.099  0.927        1   3  1.545  0.914        1  12  1.101  0.927
    1  13  1.099  0.926        3   4  1.536  0.881        3   8  1.098  0.878
    3   9  1.100  0.922        4   5  1.604  0.824        4  10  1.096  0.900
    4  11  1.104  0.896        5   6  1.278  1.723        5   7  1.268  0.939
    6   7  2.308  0.109

                       TOTAL       BONDED        FREE
      ATOM            VALENCE     VALENCE     VALENCE
    1 C                 3.669       3.669       0.000
    2 H                 0.916       0.916       0.000
    3 C                 3.557       3.557       0.000
    4 C                 3.531       3.521       0.010
    5 C                 3.480       3.471       0.009
    6 O                 1.921       1.916       0.005
    7 O                 1.945       1.094       0.852
    8 H                 0.898       0.898       0.000
    9 H                 0.907       0.907       0.000
   10 H                 0.899       0.899       0.000
   11 H                 0.892       0.892       0.000
   12 H                 0.916       0.916       0.000
   13 H                 0.917       0.917       0.000

          -----------------------------------------
          ATOMIC SPIN DENSITY AT THE NUCLEUS (A.U.)
          -----------------------------------------
                            SPIN DENS    ALPHA DENS     BETA DENS
    1  C            6.0     0.0048175      46.98525      46.98043
    2  H            1.0    -0.0001971       0.18220       0.18240
    3  C            6.0     0.0028981      47.02250      47.01960
    4  C            6.0     0.0428478      47.07172      47.02887
    5  C            6.0    -0.0688055      46.94781      47.01661
    6  O            8.0    -0.0320931     116.94604     116.97813
    7  O            8.0     0.2053902     117.19005     116.98466
    8  H            1.0     0.0003620       0.17982       0.17946
    9  H            1.0    -0.0000869       0.18273       0.18282
   10  H            1.0    -0.0024850       0.18044       0.18292
   11  H            1.0    -0.0018708       0.17712       0.17899
   12  H            1.0     0.0005725       0.18106       0.18049
   13  H            1.0    -0.0001360       0.18236       0.18250

          ---------------------
          ELECTROSTATIC MOMENTS
          ---------------------

 POINT   1           X           Y           Z (BOHR)    CHARGE
                -2.938096    0.041565   -0.039585       -0.00 (A.U.)
         DX          DY          DZ         /D/  (DEBYE)
     1.334081    1.620862    2.186872    3.031398
 ...... END OF PROPERTY EVALUATION ......
 CPU     0: STEP CPU TIME=     0.03 TOTAL CPU TIME=          0.9 (      0.0 MIN)
 TOTAL WALL CLOCK TIME=          0.9 SECONDS, CPU UTILIZATION IS    96.70%
               580000  WORDS OF DYNAMIC MEMORY USED
 EXECUTION OF GAMESS TERMINATED NORMALLY Sun May 17 12:36:24 2020
 DDI: 263640 bytes (0.3 MB / 0 MWords) used by master data server.
Note: The following floating-point exceptions are signalling:Note: The following floating-point exceptions are signalling:Note: The following floating-point exceptions are signalling: IEEE_DENORMAL IEEE_DENORMAL
Note: The following floating-point exceptions are signalling: IEEE_DENORMAL IEEE_DENORMAL

 ----------------------------------------
 CPU timing information for all processes
 ========================================
 0: 0.773 + 0.116 = 0.889
 1: 0.745 + 0.16 = 0.761
 2: 0.746 + 0.12 = 0.759
 3: 0.726 + 0.20 = 0.746
 4: 0.737 + 0.23 = 0.761
 5: 0.719 + 0.16 = 0.735
 ----------------------------------------


Note: The following floating-point exceptions are signalling: IEEE_DENORMALNote: The following floating-point exceptions are signalling:
 IEEE_DENORMAL
 ddikick.x: exited gracefully.
unset echo
----- accounting info -----
Files used on the master node pietdev were:
-rwxr-xr-x 1 piet piet      881 mei 17 12:36 /home/piet/scr/glutamate_minus1__fukui_base.F05*
-rw-r--r-- 1 piet piet 68812800 mei 17 12:36 /home/piet/scr/glutamate_minus1__fukui_base.F10
ls: No match.
ls: No match.
ls: No match.
zo 17 mei 2020 12:36:27 CEST
0.112u 0.027s 0:04.05 3.2%	0+0k 0+8io 0pf+0w
