----- GAMESS execution script 'rungms' -----
This job is running on host pietdev
under operating system Linux at ma 25 mei 2020 19:10:41 CEST
Available scratch disk space (Kbyte units) at beginning of the job is
Filesystem     1K-blocks     Used Available Use% Mounted on
/dev/sda2      244568380 31071476 201003848  14% /
GAMESS temporary binary files will be written to /home/piet/scr
GAMESS supplementary output files will be written to /home/piet/gamess/scr
Copying input file linalyl_acetate_fukui_base.inp to your run's scratch directory...
cp linalyl_acetate_fukui_base.inp /home/piet/scr/linalyl_acetate_fukui_base.F05
unset echo
 
Assuming a single but multicore node.
 
/home/piet/gamess/ddikick.x /home/piet/gamess/gamess.03.x linalyl_acetate_fukui_base -ddi 1 6 pietdev:cpus=6 -scr /home/piet/scr

 Distributed Data Interface kickoff program.
 Initiating 6 compute processes on 1 nodes to run the following command:
 /home/piet/gamess/gamess.03.x linalyl_acetate_fukui_base 

          ******************************************************
          *         GAMESS VERSION = 30 SEP 2019 (R2)          *
          *             FROM IOWA STATE UNIVERSITY             *
          * M.W.SCHMIDT, K.K.BALDRIDGE, J.A.BOATZ, S.T.ELBERT, *
          *   M.S.GORDON, J.H.JENSEN, S.KOSEKI, N.MATSUNAGA,   *
          *          K.A.NGUYEN, S.J.SU, T.L.WINDUS,           *
          *       TOGETHER WITH M.DUPUIS, J.A.MONTGOMERY       *
          *         J.COMPUT.CHEM.  14, 1347-1363(1993)        *
          **************** 64 BIT LINUX VERSION ****************

  SINCE 1993, STUDENTS AND POSTDOCS WORKING AT IOWA STATE UNIVERSITY
  AND ALSO IN THEIR VARIOUS JOBS AFTER LEAVING ISU HAVE MADE IMPORTANT
  CONTRIBUTIONS TO THE CODE:
     IVANA ADAMOVIC, CHRISTINE AIKENS, YURI ALEXEEV, POOJA ARORA,
     ANDREY ASADCHEV, ROB BELL, PRADIPTA BANDYOPADHYAY, JONATHAN BENTZ,
     COLLEEN BERTONI, BRETT BODE, KURT BRORSEN, CALEB CARLIN, GALINA CHABAN,
     WEI CHEN, CHEOL HO CHOI, PAUL DAY, ALBERT DEFUSCO, NUWAN DESILVA,
     TIM DUDLEY, DMITRI FEDOROV, ALEX FINDLATER, GRAHAM FLETCHER, 
     MARK FREITAG, KURT GLAESEMANN, EMILIE B GUIDEZ, ANASTASIA GUNINA, 
     DAN KEMP, SAROM SOK LEANG, GRANT MERRILL,
     NORIYUKI MINEZAWA, JONATHAN MULLIN,
     TAKESHI NAGATA, SEAN NEDD, HEATHER NETZLOFF, BOSILJKA NJEGIC, RYAN OLSON,
     MIKE PAK, BUU PHAM, DAVID POOLE,
     SPENCER PRUITT, LUKE ROSKOP, TOSAPORN SATTASATHUCHANA,
     JIM SHOEMAKER, LYUDMILA SLIPCHENKO,
     TONY SMITH, JIE SONG, TETSUYA TAKETSUGU, SIMON WEBB,
     JORGE LUIS GALVEZ VALLEJO, PENG XU, SOOHAENG YOO,
     FEDERICO ZAHARIEV

  ADDITIONAL CODE HAS BEEN PROVIDED BY COLLABORATORS IN OTHER GROUPS:
     IOWA STATE UNIVERSITY:
          JOE IVANIC, AARON WEST, LAIMUTIS BYTAUTAS, KLAUS RUEDENBERG
     UNIVERSITY OF TOKYO: KIMIHIKO HIRAO, TAKAHITO NAKAJIMA,
          TAKAO TSUNEDA, MUNEAKI KAMIYA, SUSUMU YANAGISAWA,
          KIYOSHI YAGI, MAHITO CHIBA, SEIKEN TOKURA, NAOAKI KAWAKAMI
     UNIVERSITY OF AARHUS: FRANK JENSEN
     UNIVERSITY OF IOWA: VISVALDAS KAIRYS, HUI LI
     NATIONAL INST. OF STANDARDS AND TECHNOLOGY: WALT STEVENS, DAVID GARMER
     UNIVERSITY OF PISA: BENEDETTA MENNUCCI, JACOPO TOMASI
     UNIVERSITY OF MEMPHIS: HENRY KURTZ, PRAKASHAN KORAMBATH
     UNIVERSITY OF ALBERTA: TOBY ZENG, MARIUSZ KLOBUKOWSKI
     UNIVERSITY OF NEW ENGLAND: MARK SPACKMAN
     MIE UNIVERSITY: HIROAKI UMEDA
     NAT. INST. OF ADVANCED INDUSTRIAL SCIENCE AND TECHNOLOGY: KAZUO KITAURA
     MICHIGAN STATE UNIVERSITY:
          KAROL KOWALSKI, MARTA WLOCH, JEFFREY GOUR, JESSE LUTZ,
          WEI LI, JUN SHEN, J. EMILIANO DEUSTUA, PIOTR PIECUCH
     UNIVERSITY OF MINNESOTA:
          ANDREW SAND, PRACHI SHARMA, YINAN SHU
     UNIVERSITY OF SILESIA: MONIKA MUSIAL, STANISLAW KUCHARSKI
     FACULTES UNIVERSITAIRES NOTRE-DAME DE LA PAIX:
          OLIVIER QUINET, BENOIT CHAMPAGNE
     UNIVERSITY OF CALIFORNIA - SANTA BARBARA: BERNARD KIRTMAN
     INSTITUTE FOR MOLECULAR SCIENCE:
          KAZUYA ISHIMURA, MICHIO KATOUDA, AND SHIGERU NAGASE
     UNIVERSITY OF NOTRE DAME: ANNA POMOGAEVA, DAN CHIPMAN
     KYUSHU UNIVERSITY:
          HARUYUKI NAKANO,
          FENG LONG GU, JACEK KORCHOWIEC, MARCIN MAKOWSKI, AND YURIKO AOKI,
          HIROTOSHI MORI AND EISAKU MIYOSHI
     PENNSYLVANIA STATE UNIVERSITY:
          TZVETELIN IORDANOV, CHET SWALINA, JONATHAN SKONE,
          SHARON HAMMES-SCHIFFER
     WASEDA UNIVERSITY:
          MASATO KOBAYASHI, TOMOKO AKAMA, TSUGUKI TOUMA,
          TAKESHI YOSHIKAWA, YASUHIRO IKABATA, JUNJI SEINO,
          YUYA NAKAJIMA, HIROMI NAKAI
     NANJING UNIVERSITY: SHUHUA LI
     UNIVERSITY OF NEBRASKA:
          PEIFENG SU, DEJUN SI, NANDUN THELLAMUREGE, YALI WANG, HUI LI
     UNIVERSITY OF ZURICH: ROBERTO PEVERATI, KIM BALDRIDGE
     N. COPERNICUS UNIVERSITY AND JACKSON STATE UNIVERSITY:
          MARIA BARYSZ
     UNIVERSITY OF COPENHAGEN: Jimmy Kromann, CASPER STEINMANN
     TOKYO INSTITUTE OF TECHNOLOGY: HIROYA NAKATA
     NAGOYA UNIVERSITY: YOSHIO NISHIMOTO, STEPHAN IRLE
     MOSCOW STATE UNIVERSITY: VLADIMIR MIRONOV
     A.N.NESMEYANOV INSTITUTE OF ORGANOELEMENT COMPOUNDS OF RUSSIAN ACADEMY OF SCIENCES:
          IGOR S. GERASIMOV
     JOHANNES KEPLER UNIVERSITY LINZ:
          CHRISTIAN FRIEDL


 PARALLEL VERSION RUNNING ON        6 PROCESSORS IN        1 NODES.

 EXECUTION OF GAMESS BEGUN Mon May 25 19:10:41 2020

            ECHO OF THE FIRST FEW INPUT CARDS -
 INPUT CARD> $BASIS GBASIS=N21 NGAUSS=3 $END                                                
 INPUT CARD> $CONTRL SCFTYP=UHF MAXIT=60 MULT=2 ICHARG=1 $END                               
 INPUT CARD> $SYSTEM MEMDDI=1000 MWORDS=30 $END                                             
 INPUT CARD> $SCF DIRSCF=.TRUE. $END                                                        
 INPUT CARD> $STATPT OPTTOL=0.0001 NSTEP=999 $END                                           
 INPUT CARD> $DATA                                                                          
 INPUT CARD>                                                                                
 INPUT CARD>C1                                                                              
 INPUT CARD>C 6.0000000 2.55806 -1.10163 0.29447                                            
 INPUT CARD>C 6.0000000 2.50420 -2.58020 -0.02301                                           
 INPUT CARD>O 8.0000000 3.52611 -0.53063 0.75001                                            
 INPUT CARD>O 8.0000000 1.36790 -0.51784 0.01006                                            
 INPUT CARD>C 6.0000000 1.12092 0.91205 0.24626                                             
 INPUT CARD>C 6.0000000 1.42216 1.29732 1.70340                                             
 INPUT CARD>C 6.0000000 1.92140 1.76709 -0.71804                                            
 INPUT CARD>C 6.0000000 2.45727 1.37689 -1.87481                                            
 INPUT CARD>C 6.0000000 -0.38215 1.07297 -0.09627                                           
 INPUT CARD>C 6.0000000 -1.36938 0.32096 0.82065                                            
 INPUT CARD>C 6.0000000 -2.79864 0.50827 0.37948                                            
 INPUT CARD>C 6.0000000 -3.63700 -0.40126 -0.14832                                          
 INPUT CARD>C 6.0000000 -3.28613 -1.84590 -0.41697                                          
 INPUT CARD>C 6.0000000 -5.05324 -0.02634 -0.52106                                          
 INPUT CARD>H 1.0000000 3.51061 -2.99649 0.02858                                            
 INPUT CARD>H 1.0000000 1.86569 -3.08805 0.70826                                            
 INPUT CARD>H 1.0000000 2.07020 -2.74999 -1.01224                                           
 INPUT CARD>H 1.0000000 2.49523 1.32453 1.89088                                             
 INPUT CARD>H 1.0000000 0.99919 2.28752 1.90765                                             
 INPUT CARD>H 1.0000000 0.96543 0.58498 2.39574                                             
 INPUT CARD>H 1.0000000 2.00655 2.81032 -0.41421                                            
 INPUT CARD>H 1.0000000 2.40017 0.34818 -2.21936                                            
 INPUT CARD>H 1.0000000 2.98870 2.07866 -2.51029                                            
 INPUT CARD>H 1.0000000 -0.61183 2.14628 -0.08585                                           
 INPUT CARD>H 1.0000000 -0.51961 0.73582 -1.12962                                           
 INPUT CARD>H 1.0000000 -1.09515 -0.73704 0.84932                                           
 INPUT CARD>H 1.0000000 -1.27405 0.69846 1.84728                                            
 INPUT CARD>H 1.0000000 -3.18464 1.52201 0.50684                                            
 INPUT CARD>H 1.0000000 -3.93019 -2.51646 0.16845                                           
 INPUT CARD>H 1.0000000 -3.46332 -2.08925 -1.47312                                          
 INPUT CARD>H 1.0000000 -2.24716 -2.09043 -0.18757                                          
 INPUT CARD>H 1.0000000 -5.24089 -0.20235 -1.58918                                          
 INPUT CARD>H 1.0000000 -5.77884 -0.64228 0.02798                                           
 INPUT CARD>H 1.0000000 -5.26913 1.02450 -0.30590                                           
 INPUT CARD> $END                                                                           
   30000000 WORDS OF MEMORY AVAILABLE

     BASIS OPTIONS
     -------------
     GBASIS=N21          IGAUSS=       3      POLAR=NONE    
     NDFUNC=       0     NFFUNC=       0     DIFFSP=       F
     NPFUNC=       0      DIFFS=       F     BASNAM=        


     RUN TITLE
     ---------
                                                                                 

 THE POINT GROUP OF THE MOLECULE IS C1      
 THE ORDER OF THE PRINCIPAL AXIS IS     0

 ATOM      ATOMIC                      COORDINATES (BOHR)
           CHARGE         X                   Y                   Z
 C           6.0     4.8340324602       -2.0817788399        0.5564676116
 C           6.0     4.7322518185       -4.8758709935       -0.0434825950
 O           8.0     6.6633817026       -1.0027453009        1.4173133881
 O           8.0     2.5849561786       -0.9785757055        0.0190106434
 C           6.0     2.1182316542        1.7235245871        0.4653639217
 C           6.0     2.6874927107        2.4515793184        3.2189592475
 C           6.0     3.6309195128        3.3393158956       -1.3568988482
 C           6.0     4.6435669778        2.6019448152       -3.5428771790
 C           6.0    -0.7221587862        2.0276192930       -0.1819239208
 C           6.0    -2.5877529731        0.6065264530        1.5508036318
 C           6.0    -5.2886627383        0.9604910278        0.7171132178
 C           6.0    -6.8729334173       -0.7582714498       -0.2802841585
 C           6.0    -6.2098852600       -3.4882452007       -0.7879590451
 C           6.0    -9.5492389502       -0.0497753825       -0.9846606232
 H           1.0     6.6340909498       -5.6625450249        0.0540083687
 H           1.0     3.5256428780       -5.8355683364        1.3384173281
 H           1.0     3.9121107398       -5.1967275690       -1.9128562338
 H           1.0     4.7153009763        2.5029987625        3.5732450757
 H           1.0     1.8881953097        4.3227859914        3.6049357805
 H           1.0     1.8243981603        1.1054519083        4.5272921378
 H           1.0     3.7918296807        5.3107347378       -0.7827434014
 H           1.0     4.5356636240        0.6579647944       -4.1939822681
 H           1.0     5.6478240595        3.9280978216       -4.7437602497
 H           1.0    -1.1561910511        4.0558810929       -0.1622329760
 H           1.0    -0.9819205205        1.3904981763       -2.1346722703
 H           1.0    -2.0695334155       -1.3928036420        1.6049820759
 H           1.0    -2.4076053947        1.3198980134        3.4908530226
 H           1.0    -6.0180969695        2.8761818506        0.9577887196
 H           1.0    -7.4269821797       -4.7554198591        0.3183243426
 H           1.0    -6.5447258078       -3.9481100198       -2.7837931470
 H           1.0    -4.2465166506       -3.9503398965       -0.3544559035
 H           1.0    -9.9038460318       -0.3823860536       -3.0031147452
 H           1.0   -10.9204241269       -1.2137332074        0.0528745331
 H           1.0    -9.9572118937        1.9360242744       -0.5780671796

          INTERNUCLEAR DISTANCES (ANGS.)
          ------------------------------

                1 C          2 C          3 O          4 O          5 C     

   1 C       0.0000000    1.5132296 *  1.2127153 *  1.3557952 *  2.4743894 *
   2 C       1.5132296 *  0.0000000    2.4171465 *  2.3549098 *  3.7658704  
   3 O       1.2127153 *  2.4171465 *  0.0000000    2.2815696 *  2.8495664 *
   4 O       1.3557952 *  2.3549098 *  2.2815696 *  0.0000000    1.4701615 *
   5 C       2.4743894 *  3.7658704    2.8495664 *  1.4701615 *  0.0000000  
   6 C       3.0050480    4.3802355    2.9456679 *  2.4829721 *  1.5370216 *
   7 C       3.1080648    4.4409068    3.1638240    2.4611780 *  1.5171474 *
   8 C       3.2952990    4.3692021    3.4162452    2.8860810 *  2.5496756 *
   9 C       3.6778251    4.6563971    4.3083894    2.3674158 *  1.5499811 *
  10 C       4.2101559    4.9125465    4.9695088    2.9754568 *  2.6231480 *
  11 C       5.5940361    6.1498583    6.4202078    4.3069047    3.9425546  
  12 C       6.2502280    6.5175010    7.2203794    5.0087622    4.9515936  
  13 C       5.9341926    5.8499848    7.0355093    4.8586102    5.2410163  
  14 C       7.7300211    7.9928189    8.6876449    6.4617876    6.2920273  
  15 H       2.1374151 *  1.0903302 *  2.5692736 *  3.2764699    4.5863589  
  16 H       2.1439363 *  1.0956105 *  3.0494483    2.7094755 *  4.0949880  
  17 H       2.1593029 *  1.0935084 *  3.1860254    2.5535889 *  3.9869151  
  18 H       2.9049483 *  4.3485597    2.4095470 *  2.8640328 *  2.1825771 *
  19 H       4.0643281    5.4485963    3.9582098    3.4068812    2.1603131 *
  20 H       3.1299296    4.2704249    3.2419277    2.6588838 *  2.1797743 *
  21 H       4.0136945    5.4275592    3.8505088    3.4153371    2.1963584 *
  22 H       2.9062380 *  3.6619919    3.2950275    2.6049732 *  2.8343803 *
  23 H       4.2622029    5.3034214    4.2103159    3.9649677    3.5281934  
  24 H       4.5543128    5.6615550    4.9987055    3.3205519    2.1531473 *
  25 H       3.8569817    4.6221209    4.6373219    2.5363809 *  2.1483579 *
  26 H       3.7130483    4.1368489    4.6269333    2.6113256 *  2.8273920 *
  27 H       4.5096131    5.3406712    5.0750566    3.4401545    2.8887310 *
  28 H       6.3172139    7.0336170    7.0218679    5.0133221    4.3563517  
  29 H       6.6419134    6.4375534    7.7380968    5.6647442    6.1052803  
  30 H       6.3526990    6.1607748    7.4982488    5.2924322    5.7427629  
  31 H       4.9295261    4.7793699    6.0533197    3.9472466    4.5328862  
  32 H       8.0734418    8.2518773    9.0796402    6.8068501    6.7144139  
  33 H       8.3537968    8.5068728    9.3335892    7.1478458    7.0760353  
  34 H       8.1330054    8.5731294    8.9938658    6.8212030    6.4148472  

                6 C          7 C          8 C          9 C         10 C     

   1 C       3.0050480    3.1080648    3.2952990    3.6778251    4.2101559  
   2 C       4.3802355    4.4409068    4.3692021    4.6563971    4.9125465  
   3 O       2.9456679 *  3.1638240    3.4162452    4.3083894    4.9695088  
   4 O       2.4829721 *  2.4611780 *  2.8860810 *  2.3674158 *  2.9754568 *
   5 C       1.5370216 *  1.5171474 *  2.5496756 *  1.5499811 *  2.6231480 *
   6 C       0.0000000    2.5166041 *  3.7257712    2.5582571 *  3.0862958  
   7 C       2.5166041 *  0.0000000    1.3332402 *  2.4849030 *  3.9099990  
   8 C       3.7257712    1.3332402 *  0.0000000    3.3642054    4.7983063  
   9 C       2.5582571 *  2.4849030 *  3.3642054    0.0000000    1.5430115 *
  10 C       3.0862958    3.9099990    4.7983063    1.5430115 *  0.0000000  
  11 C       4.4933859    5.0067909    5.7845410    2.5267861 *  1.5074814 *
  12 C       5.6488177    5.9935076    6.5789598    3.5735293    2.5695535 *
  13 C       6.0451465    6.3452903    6.7452440    4.1298608    3.1465721  
  14 C       6.9736005    7.2042207    7.7594751    4.8174693    3.9359405  
  15 H       5.0599852    5.0768814    4.8845544    5.6329098    5.9537511  
  16 H       4.5186826    5.0606146    5.1921004    4.7973056    4.7010274  
  17 H       4.9168460    4.5290956    4.2337913    4.6333621    4.9619482  
  18 H       1.0896643 *  2.7076934 *  3.7662453    3.5059041    4.1337338  
  19 H       1.0959552 *  2.8311776 *  4.1547861    2.7200969 *  3.2648202  
  20 H       1.0933276 *  3.4650958    4.5924182    2.8747556 *  2.8287723 *
  21 H       2.6673869 *  1.0899046 *  2.0955244 *  2.9707505 *  4.3724931  
  22 H       4.1527601    2.1204924 *  1.0863790 *  3.5740924    4.8427171  
  23 H       4.5628635    2.1091148 *  1.0856951 *  4.2663257    5.7599941  
  24 H       2.8388843 *  2.6383145 *  3.6347921    1.0976593 *  2.1742625 *
  25 H       3.4801947    2.6816871 *  3.1349790    1.0956174 *  2.1674342 *
  26 H       3.3473755    4.2221864    4.9506840    2.1630177 *  1.0933380 *
  27 H       2.7656614 *  4.2348244    5.3138470    2.1709744 *  1.0979814 *
  28 H       4.7649604    5.2566187    6.1257216    2.9016080 *  2.1991286 *
  29 H       6.7489732    7.3058723    7.7545297    5.0539759    3.8773786  
  30 H       6.7399592    6.6660868    6.8723262    4.6248200    3.9312947  
  31 H       5.3400868    5.7042748    6.0828241    3.6733769    2.7571375 *
  32 H       7.5819739    7.4790358    7.8636665    5.2404748    4.5901769  
  33 H       7.6435255    8.1027962    8.6908668    5.6640784    4.5825205  
  34 H       6.9917865    7.2405125    7.8919525    4.8917142    4.1197249  

               11 C         12 C         13 C         14 C         15 H     

   1 C       5.5940361    6.2502280    5.9341926    7.7300211    2.1374151 *
   2 C       6.1498583    6.5175010    5.8499848    7.9928189    1.0903302 *
   3 O       6.4202078    7.2203794    7.0355093    8.6876449    2.5692736 *
   4 O       4.3069047    5.0087622    4.8586102    6.4617876    3.2764699  
   5 C       3.9425546    4.9515936    5.2410163    6.2920273    4.5863589  
   6 C       4.4933859    5.6488177    6.0451465    6.9736005    5.0599852  
   7 C       5.0067909    5.9935076    6.3452903    7.2042207    5.0768814  
   8 C       5.7845410    6.5789598    6.7452440    7.7594751    4.8845544  
   9 C       2.5267861 *  3.5735293    4.1298608    4.8174693    5.6329098  
  10 C       1.5074814 *  2.5695535 *  3.1465721    3.9359405    5.9537511  
  11 C       0.0000000    1.3448662 *  2.5326065 *  2.4859608 *  7.2258639  
  12 C       1.3448662 *  0.0000000    1.5107175 *  1.5116997 *  7.6062370  
  13 C       2.5326065 *  1.5107175 *  0.0000000    2.5385648 *  6.9078250  
  14 C       2.4859608 *  1.5116997 *  2.5385648 *  0.0000000    9.0809373  
  15 H       7.2258639    7.6062370    6.9078250    9.0809373    0.0000000  
  16 H       5.8989481    6.1832166    5.4175943    7.6653042    1.7821644 *
  17 H       6.0215235    6.2317752    5.4646131    7.6421806    1.7941152 *
  18 H       5.5655790    6.6888663    6.9858372    8.0387626    4.8135612  
  19 H       4.4636921    5.7402795    6.3916341    6.9198619    6.1448268  
  20 H       4.2707624    5.3504460    5.6476790    6.7160869    4.9908231  
  21 H       5.3869499    6.4988153    7.0493158    7.6091190    6.0147570  
  22 H       5.8143980    6.4263745    6.3558323    7.6536141    4.1800872  
  23 H       6.6565907    7.4584721    7.6914011    8.5475646    5.6987190  
  24 H       2.7715964 *  3.9554413    4.8165363    4.9634472    6.5920929  
  25 H       2.7428342 *  3.4603498    3.8505559    4.6373521    5.6137544  
  26 H       2.1618105 *  2.7511880 *  2.7628706 *  4.2484718    5.1953589  
  27 H       2.1248491 *  3.2825807    3.9558895    4.5184783    6.3129467  
  28 H       1.0921929 *  2.0815455 *  3.4937863    2.6354567 *  8.0914737  
  29 H       3.2363453    2.1587901 *  1.0987177 *  2.8173326 *  7.4575798  
  30 H       3.2589932    2.1528052 *  1.0982114 *  2.7730600 *  7.1912368  
  31 H       2.7164163 *  2.1878051 *  1.0917316 *  3.4993954    5.8326307  
  32 H       3.2163936    2.1652034 *  2.8100569 *  1.0986685 *  9.3280822  
  33 H       3.2138621    2.1625566 *  2.8036199 *  1.0987822 *  9.5831199  
  34 H       2.6152552 *  2.1728947 *  3.4905332    1.0941513 *  9.6625086  

               16 H         17 H         18 H         19 H         20 H     

   1 C       2.1439363 *  2.1593029 *  2.9049483 *  4.0643281    3.1299296  
   2 C       1.0956105 *  1.0935084 *  4.3485597    5.4485963    4.2704249  
   3 O       3.0494483    3.1860254    2.4095470 *  3.9582098    3.2419277  
   4 O       2.7094755 *  2.5535889 *  2.8640328 *  3.4068812    2.6588838 *
   5 C       4.0949880    3.9869151    2.1825771 *  2.1603131 *  2.1797743 *
   6 C       4.5186826    4.9168460    1.0896643 *  1.0959552 *  1.0933276 *
   7 C       5.0606146    4.5290956    2.7076934 *  2.8311776 *  3.4650958  
   8 C       5.1921004    4.2337913    3.7662453    4.1547861    4.5924182  
   9 C       4.7973056    4.6333621    3.5059041    2.7200969 *  2.8747556 *
  10 C       4.7010274    4.9619482    4.1337338    3.2648202    2.8287723 *
  11 C       5.8989481    6.0215235    5.5655790    4.4636921    4.2707624  
  12 C       6.1832166    6.2317752    6.6888663    5.7402795    5.3504460  
  13 C       5.4175943    5.4646131    6.9858372    6.3916341    5.6476790  
  14 C       7.6653042    7.6421806    8.0387626    6.9198619    6.7160869  
  15 H       1.7821644 *  1.7941152 *  4.8135612    6.1448268    4.9908231  
  16 H       0.0000000    1.7652844 *  4.6114827    5.5754920    4.1411600  
  17 H       1.7652844 *  0.0000000    5.0210028    5.9202472    4.8945755  
  18 H       4.6114827    5.0210028    0.0000000    1.7792601 *  1.7725986 *
  19 H       5.5754920    5.9202472    1.7792601 *  0.0000000    1.7714441 *
  20 H       4.1411600    4.8945755    1.7725986 *  1.7714441 *  0.0000000  
  21 H       6.0058762    5.5927398    2.7856453 *  2.5844009 *  3.7325444  
  22 H       4.5458007    3.3413584    4.2256797    4.7703245    4.8387706  
  23 H       6.1899199    5.1384489    4.4924962    4.8497388    5.5130601  
  24 H       5.8452482    5.6590585    3.7731361    2.5669781 *  3.3292185  
  25 H       4.8671800    4.3441645    4.3080460    3.7335687    3.8283495  
  26 H       3.7833477    4.1876979    4.2691623    3.8280916    2.8957109 *
  27 H       5.0490585    5.5904088    3.8211695    2.7742344 *  2.3084533 *
  28 H       6.8409836    6.9405282    5.8494007    4.4780250    4.6550026  
  29 H       5.8489602    6.1199057    7.6815357    7.0994245    6.2086106  
  30 H       5.8441738    5.5918540    7.6468757    7.1063153    6.4601401  
  31 H       4.3258863    4.4446257    6.2025937    5.8391079    4.9144729  
  32 H       8.0068080    7.7637212    8.6191492    7.5740261    7.4174041  
  33 H       8.0550239    8.1934076    8.7062605    7.6196180    7.2524225  
  34 H       8.2974240    8.2832032    8.0747227    6.7665988    6.8089482  

               21 H         22 H         23 H         24 H         25 H     

   1 C       4.0136945    2.9062380 *  4.2622029    4.5543128    3.8569817  
   2 C       5.4275592    3.6619919    5.3034214    5.6615550    4.6221209  
   3 O       3.8505088    3.2950275    4.2103159    4.9987055    4.6373219  
   4 O       3.4153371    2.6049732 *  3.9649677    3.3205519    2.5363809 *
   5 C       2.1963584 *  2.8343803 *  3.5281934    2.1531473 *  2.1483579 *
   6 C       2.6673869 *  4.1527601    4.5628635    2.8388843 *  3.4801947  
   7 C       1.0899046 *  2.1204924 *  2.1091148 *  2.6383145 *  2.6816871 *
   8 C       2.0955244 *  1.0863790 *  1.0856951 *  3.6347921    3.1349790  
   9 C       2.9707505 *  3.5740924    4.2663257    1.0976593 *  1.0956174 *
  10 C       4.3724931    4.8427171    5.7599941    2.1742625 *  2.1674342 *
  11 C       5.3869499    5.8143980    6.6565907    2.7715964 *  2.7428342 *
  12 C       6.4988153    6.4263745    7.4584721    3.9554413    3.4603498  
  13 C       7.0493158    6.3558323    7.6914011    4.8165363    3.8505559  
  14 C       7.6091190    7.6536141    8.5475646    4.9634472    4.6373521  
  15 H       6.0147570    4.1800872    5.6987190    6.5920929    5.6137544  
  16 H       6.0058762    4.5458007    6.1899199    5.8452482    4.8671800  
  17 H       5.5927398    3.3413584    5.1384489    5.6590585    4.3441645  
  18 H       2.7856453 *  4.2256797    4.4924962    3.7731361    4.3080460  
  19 H       2.5844009 *  4.7703245    4.8497388    2.5669781 *  3.7335687  
  20 H       3.7325444    4.8387706    5.5130601    3.3292185    3.8283495  
  21 H       0.0000000    3.0782522    2.4276524 *  2.7211548 *  3.3461689  
  22 H       3.0782522    0.0000000    1.8508292 *  4.1057487    3.1405275  
  23 H       2.4276524 *  1.8508292 *  0.0000000    4.3412323    4.0022129  
  24 H       2.7211548 *  4.1057487    4.3412323    0.0000000    1.7570879 *
  25 H       3.3461689    3.1405275    4.0022129    1.7570879 *  0.0000000  
  26 H       4.8786078    4.7761660    5.9910748    3.0694748    2.5331337 *
  27 H       4.5096148    5.4918257    6.2501525    2.5043382 *  3.0712390  
  28 H       5.4273870    6.3245669    6.8936971    2.7129957 *  3.2246676  
  29 H       7.9974346    7.3471938    8.7270737    5.7286408    4.8881865  
  30 H       7.4193365    6.3936261    7.7508553    5.2910517    4.0944403  
  31 H       6.4932861    5.6278473    7.0845303    4.5425062    3.4437736  
  32 H       7.9361276    7.6867424    8.5893889    5.4040966    4.8354776  
  33 H       8.5280875    8.5397747    9.5244993    5.8725647    5.5586597  
  34 H       7.4924231    7.9332780    8.6117562    4.7955454    4.8290569  

               26 H         27 H         28 H         29 H         30 H     

   1 C       3.7130483    4.5096131    6.3172139    6.6419134    6.3526990  
   2 C       4.1368489    5.3406712    7.0336170    6.4375534    6.1607748  
   3 O       4.6269333    5.0750566    7.0218679    7.7380968    7.4982488  
   4 O       2.6113256 *  3.4401545    5.0133221    5.6647442    5.2924322  
   5 C       2.8273920 *  2.8887310 *  4.3563517    6.1052803    5.7427629  
   6 C       3.3473755    2.7656614 *  4.7649604    6.7489732    6.7399592  
   7 C       4.2221864    4.2348244    5.2566187    7.3058723    6.6660868  
   8 C       4.9506840    5.3138470    6.1257216    7.7545297    6.8723262  
   9 C       2.1630177 *  2.1709744 *  2.9016080 *  5.0539759    4.6248200  
  10 C       1.0933380 *  1.0979814 *  2.1991286 *  3.8773786    3.9312947  
  11 C       2.1618105 *  2.1248491 *  1.0921929 *  3.2363453    3.2589932  
  12 C       2.7511880 *  3.2825807    2.0815455 *  2.1587901 *  2.1528052 *
  13 C       2.7628706 *  3.9558895    3.4937863    1.0987177 *  1.0982114 *
  14 C       4.2484718    4.5184783    2.6354567 *  2.8173326 *  2.7730600 *
  15 H       5.1953589    6.3129467    8.0914737    7.4575798    7.1912368  
  16 H       3.7833477    5.0490585    6.8409836    5.8489602    5.8441738  
  17 H       4.1876979    5.5904088    6.9405282    6.1199057    5.5918540  
  18 H       4.2691623    3.8211695    5.8494007    7.6815357    7.6468757  
  19 H       3.8280916    2.7742344 *  4.4780250    7.0994245    7.1063153  
  20 H       2.8957109 *  2.3084533 *  4.6550026    6.2086106    6.4601401  
  21 H       4.8786078    4.5096148    5.4273870    7.9974346    7.4193365  
  22 H       4.7761660    5.4918257    6.3245669    7.3471938    6.3936261  
  23 H       5.9910748    6.2501525    6.8936971    8.7270737    7.7508553  
  24 H       3.0694748    2.5043382 *  2.7129957 *  5.7286408    5.2910517  
  25 H       2.5331337 *  3.0712390    3.2246676    4.8881865    4.0944403  
  26 H       0.0000000    1.7574384 *  3.0962183    3.4157534    3.5819588  
  27 H       1.7574384 *  0.0000000    2.4749481 *  4.4954711    4.8568803  
  28 H       3.0962183    2.4749481 *  0.0000000    4.1206301    4.1278448  
  29 H       3.4157534    4.4954711    4.1206301    0.0000000    1.7593260 *
  30 H       3.5819588    4.8568803    4.1278448    1.7593260 *  0.0000000  
  31 H       2.0576522 *  3.5868461    3.7961555    1.7722420 *  1.7696568 *
  32 H       4.8393528    5.3250855    3.4051257    3.1878367    2.5949213 *
  33 H       4.7561046    5.0398977    3.4122327    2.6362453 *  3.1158717  
  34 H       4.6754321    4.5500715    2.2919775 *  3.8152544    3.7840179  

               31 H         32 H         33 H         34 H     

   1 C       4.9295261    8.0734418    8.3537968    8.1330054  
   2 C       4.7793699    8.2518773    8.5068728    8.5731294  
   3 O       6.0533197    9.0796402    9.3335892    8.9938658  
   4 O       3.9472466    6.8068501    7.1478458    6.8212030  
   5 C       4.5328862    6.7144139    7.0760353    6.4148472  
   6 C       5.3400868    7.5819739    7.6435255    6.9917865  
   7 C       5.7042748    7.4790358    8.1027962    7.2405125  
   8 C       6.0828241    7.8636665    8.6908668    7.8919525  
   9 C       3.6733769    5.2404748    5.6640784    4.8917142  
  10 C       2.7571375 *  4.5901769    4.5825205    4.1197249  
  11 C       2.7164163 *  3.2163936    3.2138621    2.6152552 *
  12 C       2.1878051 *  2.1652034 *  2.1625566 *  2.1728947 *
  13 C       1.0917316 *  2.8100569 *  2.8036199 *  3.4905332  
  14 C       3.4993954    1.0986685 *  1.0987822 *  1.0941513 *
  15 H       5.8326307    9.3280822    9.5831199    9.6625086  
  16 H       4.3258863    8.0068080    8.0550239    8.2974240  
  17 H       4.4446257    7.7637212    8.1934076    8.2832032  
  18 H       6.2025937    8.6191492    8.7062605    8.0747227  
  19 H       5.8391079    7.5740261    7.6196180    6.7665988  
  20 H       4.9144729    7.4174041    7.2524225    6.8089482  
  21 H       6.4932861    7.9361276    8.5280875    7.4924231  
  22 H       5.6278473    7.6867424    8.5397747    7.9332780  
  23 H       7.0845303    8.5893889    9.5244993    8.6117562  
  24 H       4.5425062    5.4040966    5.8725647    4.7955454  
  25 H       3.4437736    4.8354776    5.5586597    4.8290569  
  26 H       2.0576522 *  4.8393528    4.7561046    4.6754321  
  27 H       3.5868461    5.3250855    5.0398977    4.5500715  
  28 H       3.7961555    3.4051257    3.4122327    2.2919775 *
  29 H       1.7722420 *  3.1878367    2.6362453 *  3.8152544  
  30 H       1.7696568 *  2.5949213 *  3.1158717    3.7840179  
  31 H       0.0000000    3.8068065    3.8231353    4.3415543  
  32 H       3.8068065    0.0000000    1.7601520 *  1.7756030 *
  33 H       3.8231353    1.7601520 *  0.0000000    1.7746650 *
  34 H       4.3415543    1.7756030 *  1.7746650 *  0.0000000  

  * ... LESS THAN  3.000


     ATOMIC BASIS SET
     ----------------
 THE CONTRACTED PRIMITIVE FUNCTIONS HAVE BEEN UNNORMALIZED
 THE CONTRACTED BASIS FUNCTIONS ARE NOW NORMALIZED TO UNITY

  SHELL TYPE  PRIMITIVE        EXPONENT          CONTRACTION COEFFICIENT(S)

 C         

      1   S       1           172.2560000    0.061766907377
      1   S       2            25.9109000    0.358794042852
      1   S       3             5.5333500    0.700713083689

      2   L       4             3.6649800   -0.395895162119    0.236459946619
      2   L       5             0.7705450    1.215834355681    0.860618805716

      3   L       6             0.1958570    1.000000000000    1.000000000000

 C         

      4   S       7           172.2560000    0.061766907377
      4   S       8            25.9109000    0.358794042852
      4   S       9             5.5333500    0.700713083689

      5   L      10             3.6649800   -0.395895162119    0.236459946619
      5   L      11             0.7705450    1.215834355681    0.860618805716

      6   L      12             0.1958570    1.000000000000    1.000000000000

 O         

      7   S      13           322.0370000    0.059239393389
      7   S      14            48.4308000    0.351499960776
      7   S      15            10.4206000    0.707657921031

      8   L      16             7.4029400   -0.404453583190    0.244586106967
      8   L      17             1.5762000    1.221561761397    0.853955373466

      9   L      18             0.3736840    1.000000000000    1.000000000000

 O         

     10   S      19           322.0370000    0.059239393389
     10   S      20            48.4308000    0.351499960776
     10   S      21            10.4206000    0.707657921031

     11   L      22             7.4029400   -0.404453583190    0.244586106967
     11   L      23             1.5762000    1.221561761397    0.853955373466

     12   L      24             0.3736840    1.000000000000    1.000000000000

 C         

     13   S      25           172.2560000    0.061766907377
     13   S      26            25.9109000    0.358794042852
     13   S      27             5.5333500    0.700713083689

     14   L      28             3.6649800   -0.395895162119    0.236459946619
     14   L      29             0.7705450    1.215834355681    0.860618805716

     15   L      30             0.1958570    1.000000000000    1.000000000000

 C         

     16   S      31           172.2560000    0.061766907377
     16   S      32            25.9109000    0.358794042852
     16   S      33             5.5333500    0.700713083689

     17   L      34             3.6649800   -0.395895162119    0.236459946619
     17   L      35             0.7705450    1.215834355681    0.860618805716

     18   L      36             0.1958570    1.000000000000    1.000000000000

 C         

     19   S      37           172.2560000    0.061766907377
     19   S      38            25.9109000    0.358794042852
     19   S      39             5.5333500    0.700713083689

     20   L      40             3.6649800   -0.395895162119    0.236459946619
     20   L      41             0.7705450    1.215834355681    0.860618805716

     21   L      42             0.1958570    1.000000000000    1.000000000000

 C         

     22   S      43           172.2560000    0.061766907377
     22   S      44            25.9109000    0.358794042852
     22   S      45             5.5333500    0.700713083689

     23   L      46             3.6649800   -0.395895162119    0.236459946619
     23   L      47             0.7705450    1.215834355681    0.860618805716

     24   L      48             0.1958570    1.000000000000    1.000000000000

 C         

     25   S      49           172.2560000    0.061766907377
     25   S      50            25.9109000    0.358794042852
     25   S      51             5.5333500    0.700713083689

     26   L      52             3.6649800   -0.395895162119    0.236459946619
     26   L      53             0.7705450    1.215834355681    0.860618805716

     27   L      54             0.1958570    1.000000000000    1.000000000000

 C         

     28   S      55           172.2560000    0.061766907377
     28   S      56            25.9109000    0.358794042852
     28   S      57             5.5333500    0.700713083689

     29   L      58             3.6649800   -0.395895162119    0.236459946619
     29   L      59             0.7705450    1.215834355681    0.860618805716

     30   L      60             0.1958570    1.000000000000    1.000000000000

 C         

     31   S      61           172.2560000    0.061766907377
     31   S      62            25.9109000    0.358794042852
     31   S      63             5.5333500    0.700713083689

     32   L      64             3.6649800   -0.395895162119    0.236459946619
     32   L      65             0.7705450    1.215834355681    0.860618805716

     33   L      66             0.1958570    1.000000000000    1.000000000000

 C         

     34   S      67           172.2560000    0.061766907377
     34   S      68            25.9109000    0.358794042852
     34   S      69             5.5333500    0.700713083689

     35   L      70             3.6649800   -0.395895162119    0.236459946619
     35   L      71             0.7705450    1.215834355681    0.860618805716

     36   L      72             0.1958570    1.000000000000    1.000000000000

 C         

     37   S      73           172.2560000    0.061766907377
     37   S      74            25.9109000    0.358794042852
     37   S      75             5.5333500    0.700713083689

     38   L      76             3.6649800   -0.395895162119    0.236459946619
     38   L      77             0.7705450    1.215834355681    0.860618805716

     39   L      78             0.1958570    1.000000000000    1.000000000000

 C         

     40   S      79           172.2560000    0.061766907377
     40   S      80            25.9109000    0.358794042852
     40   S      81             5.5333500    0.700713083689

     41   L      82             3.6649800   -0.395895162119    0.236459946619
     41   L      83             0.7705450    1.215834355681    0.860618805716

     42   L      84             0.1958570    1.000000000000    1.000000000000

 H         

     43   S      85             5.4471780    0.156284978695
     43   S      86             0.8245472    0.904690876670

     44   S      87             0.1831916    1.000000000000

 H         

     45   S      88             5.4471780    0.156284978695
     45   S      89             0.8245472    0.904690876670

     46   S      90             0.1831916    1.000000000000

 H         

     47   S      91             5.4471780    0.156284978695
     47   S      92             0.8245472    0.904690876670

     48   S      93             0.1831916    1.000000000000

 H         

     49   S      94             5.4471780    0.156284978695
     49   S      95             0.8245472    0.904690876670

     50   S      96             0.1831916    1.000000000000

 H         

     51   S      97             5.4471780    0.156284978695
     51   S      98             0.8245472    0.904690876670

     52   S      99             0.1831916    1.000000000000

 H         

     53   S     100             5.4471780    0.156284978695
     53   S     101             0.8245472    0.904690876670

     54   S     102             0.1831916    1.000000000000

 H         

     55   S     103             5.4471780    0.156284978695
     55   S     104             0.8245472    0.904690876670

     56   S     105             0.1831916    1.000000000000

 H         

     57   S     106             5.4471780    0.156284978695
     57   S     107             0.8245472    0.904690876670

     58   S     108             0.1831916    1.000000000000

 H         

     59   S     109             5.4471780    0.156284978695
     59   S     110             0.8245472    0.904690876670

     60   S     111             0.1831916    1.000000000000

 H         

     61   S     112             5.4471780    0.156284978695
     61   S     113             0.8245472    0.904690876670

     62   S     114             0.1831916    1.000000000000

 H         

     63   S     115             5.4471780    0.156284978695
     63   S     116             0.8245472    0.904690876670

     64   S     117             0.1831916    1.000000000000

 H         

     65   S     118             5.4471780    0.156284978695
     65   S     119             0.8245472    0.904690876670

     66   S     120             0.1831916    1.000000000000

 H         

     67   S     121             5.4471780    0.156284978695
     67   S     122             0.8245472    0.904690876670

     68   S     123             0.1831916    1.000000000000

 H         

     69   S     124             5.4471780    0.156284978695
     69   S     125             0.8245472    0.904690876670

     70   S     126             0.1831916    1.000000000000

 H         

     71   S     127             5.4471780    0.156284978695
     71   S     128             0.8245472    0.904690876670

     72   S     129             0.1831916    1.000000000000

 H         

     73   S     130             5.4471780    0.156284978695
     73   S     131             0.8245472    0.904690876670

     74   S     132             0.1831916    1.000000000000

 H         

     75   S     133             5.4471780    0.156284978695
     75   S     134             0.8245472    0.904690876670

     76   S     135             0.1831916    1.000000000000

 H         

     77   S     136             5.4471780    0.156284978695
     77   S     137             0.8245472    0.904690876670

     78   S     138             0.1831916    1.000000000000

 H         

     79   S     139             5.4471780    0.156284978695
     79   S     140             0.8245472    0.904690876670

     80   S     141             0.1831916    1.000000000000

 H         

     81   S     142             5.4471780    0.156284978695
     81   S     143             0.8245472    0.904690876670

     82   S     144             0.1831916    1.000000000000

 TOTAL NUMBER OF BASIS SET SHELLS             =   82
 NUMBER OF CARTESIAN GAUSSIAN BASIS FUNCTIONS =  166
 NUMBER OF ELECTRONS                          =  107
 CHARGE OF MOLECULE                           =    1
 SPIN MULTIPLICITY                            =    2
 NUMBER OF OCCUPIED ORBITALS (ALPHA)          =   54
 NUMBER OF OCCUPIED ORBITALS (BETA )          =   53
 TOTAL NUMBER OF ATOMS                        =   34
 THE NUCLEAR REPULSION ENERGY IS      912.8377646726

     $CONTRL OPTIONS
     ---------------
 SCFTYP=UHF          RUNTYP=ENERGY       EXETYP=RUN     
 MPLEVL=       0     CITYP =NONE         CCTYP =NONE         VBTYP =NONE    
 DFTTYP=NONE         TDDFT =NONE    
 MULT  =       2     ICHARG=       1     NZVAR =       0     COORD =UNIQUE  
 PP    =NONE         RELWFN=NONE         LOCAL =NONE         NUMGRD=       F
 ISPHER=      -1     NOSYM =       0     MAXIT =      60     UNITS =ANGS    
 PLTORB=       F     MOLPLT=       F     AIMPAC=       F     FRIEND=        
 NPRINT=       7     IREST =       0     GEOM  =INPUT   
 NORMF =       0     NORMP =       0     ITOL  =      20     ICUT  =       9
 INTTYP=BEST         GRDTYP=BEST         QMTTOL= 1.0E-06

     $SYSTEM OPTIONS
     ---------------
  REPLICATED MEMORY=    30000000 WORDS (ON EVERY NODE).
 DISTRIBUTED MEMDDI=        1000 MILLION WORDS IN AGGREGATE,
 MEMDDI DISTRIBUTED OVER   6 PROCESSORS IS   166666666 WORDS/PROCESSOR.
 TOTAL MEMORY REQUESTED ON EACH PROCESSOR=   196666666 WORDS.
 TIMLIM=      525600.00 MINUTES, OR     365.0 DAYS.
 PARALL= T  BALTYP=  DLB     KDIAG=    0  COREFL= F
 MXSEQ2=     300 MXSEQ3=     150  mem10=         0

          ----------------
          PROPERTIES INPUT
          ----------------

     MOMENTS            FIELD           POTENTIAL          DENSITY
 IEMOM =       1   IEFLD =       0   IEPOT =       0   IEDEN =       0
 WHERE =COMASS     WHERE =NUCLEI     WHERE =NUCLEI     WHERE =NUCLEI  
 OUTPUT=BOTH       OUTPUT=BOTH       OUTPUT=BOTH       OUTPUT=BOTH    
 IEMINT=       0   IEFINT=       0                     IEDINT=       0
                                                       MORB  =       0
          EXTRAPOLATION IN EFFECT
          SOSCF IN EFFECT
          DIIS or SOSCF will be reset if energy rises
 ORBITAL PRINTING OPTION: NPREO=     1   166     2     1

     -------------------------------
     INTEGRAL TRANSFORMATION OPTIONS
     -------------------------------
     NWORD  =            0
     CUTOFF = 1.0E-09     MPTRAN =       0
     DIRTRF =       T     AOINTS =DUP     

          ----------------------
          INTEGRAL INPUT OPTIONS
          ----------------------
 NOPK  =       1 NORDER=       0 SCHWRZ=       T

     ------------------------------------------
     THE POINT GROUP IS C1 , NAXIS= 0, ORDER= 1
     ------------------------------------------

     DIMENSIONS OF THE SYMMETRY SUBSPACES ARE
 A   =  166

 ..... DONE SETTING UP THE RUN .....
 CPU     0: STEP CPU TIME=     0.03 TOTAL CPU TIME=          0.0 (      0.0 MIN)
 TOTAL WALL CLOCK TIME=          0.0 SECONDS, CPU UTILIZATION IS    75.00%

          ********************
          1 ELECTRON INTEGRALS
          ********************
 ...... END OF ONE-ELECTRON INTEGRALS ......
 CPU     0: STEP CPU TIME=     0.01 TOTAL CPU TIME=          0.0 (      0.0 MIN)
 TOTAL WALL CLOCK TIME=          0.1 SECONDS, CPU UTILIZATION IS    66.67%

          -------------
          GUESS OPTIONS
          -------------
          GUESS =HUCKEL            NORB  =       0          NORDER=       0
          MIX   =       F          PRTMO =       F          PUNMO =       F
          TOLZ  = 1.0E-08          TOLE  = 1.0E-05
          SYMDEN=       F          PURIFY=       F

 INITIAL GUESS ORBITALS GENERATED BY HUCKEL   ROUTINE.
 HUCKEL GUESS REQUIRES    257058 WORDS.

 SYMMETRIES FOR INITIAL GUESS ORBITALS FOLLOW.  ALPHA SET(S).
    54 ORBITALS ARE OCCUPIED (   14 CORE ORBITALS).
    15=A       16=A       17=A       18=A       19=A       20=A       21=A   
    22=A       23=A       24=A       25=A       26=A       27=A       28=A   
    29=A       30=A       31=A       32=A       33=A       34=A       35=A   
    36=A       37=A       38=A       39=A       40=A       41=A       42=A   
    43=A       44=A       45=A       46=A       47=A       48=A       49=A   
    50=A       51=A       52=A       53=A       54=A       55=A       56=A   
    57=A       58=A       59=A       60=A       61=A       62=A       63=A   
    64=A   

 SYMMETRIES FOR INITIAL GUESS ORBITALS FOLLOW.   BETA SET(S).
    53 ORBITALS ARE OCCUPIED (   14 CORE ORBITALS).
    15=A       16=A       17=A       18=A       19=A       20=A       21=A   
    22=A       23=A       24=A       25=A       26=A       27=A       28=A   
    29=A       30=A       31=A       32=A       33=A       34=A       35=A   
    36=A       37=A       38=A       39=A       40=A       41=A       42=A   
    43=A       44=A       45=A       46=A       47=A       48=A       49=A   
    50=A       51=A       52=A       53=A       54=A       55=A       56=A   
    57=A       58=A       59=A       60=A       61=A       62=A       63=A   
 ...... END OF INITIAL ORBITAL SELECTION ......
 CPU     0: STEP CPU TIME=     0.06 TOTAL CPU TIME=          0.1 (      0.0 MIN)
 TOTAL WALL CLOCK TIME=          0.1 SECONDS, CPU UTILIZATION IS    66.67%

                    ----------------------
                    AO INTEGRAL TECHNOLOGY
                    ----------------------
     S,P,L SHELL ROTATED AXIS INTEGRALS, REPROGRAMMED BY
        KAZUYA ISHIMURA (IMS) AND JOSE SIERRA (SYNSTAR).
     S,P,D,L SHELL ROTATED AXIS INTEGRALS PROGRAMMED BY
        KAZUYA ISHIMURA (INSTITUTE FOR MOLECULAR SCIENCE).
     S,P,D,F,G SHELL TO TOTAL QUARTET ANGULAR MOMENTUM SUM 5,
        ERIC PROGRAM BY GRAHAM FLETCHER (ELORET AND NASA ADVANCED
        SUPERCOMPUTING DIVISION, AMES RESEARCH CENTER).
     S,P,D,F,G,L SHELL GENERAL RYS QUADRATURE PROGRAMMED BY
        MICHEL DUPUIS (PACIFIC NORTHWEST NATIONAL LABORATORY).

          --------------------
          2 ELECTRON INTEGRALS
          --------------------

 DIRECT SCF METHOD SKIPS INTEGRAL STORAGE ON DISK.
 DIRECT TRANSFORMATION SKIPS AO INTEGRAL STORAGE ON DISK.
  ...... END OF TWO-ELECTRON INTEGRALS .....
 CPU     0: STEP CPU TIME=     0.01 TOTAL CPU TIME=          0.1 (      0.0 MIN)
 TOTAL WALL CLOCK TIME=          0.2 SECONDS, CPU UTILIZATION IS    64.71%

          ---------------------------
                  UHF SCF CALCULATION
          ---------------------------

     NUCLEAR ENERGY =       912.8377646726
     MAXIT = 60     NPUNCH=  2     MULT=  2
     EXTRAP=T  DAMP=F  SHIFT=F  RSTRCT=F  DIIS=F  SOSCF=T
     DENSITY MATRIX CONV=  2.00E-05
     SOSCF WILL OPTIMIZE    6048 ALPHA AND    5989 BETA ROTATION ANGLES.
     SOGTOL= 2.500E-01
     MEMORY REQUIRED FOR UHF/ROHF ITERS=    413637 WORDS.

 DIRECT SCF CALCULATION, SCHWRZ=T   FDIFF=T
 SCHWARZ INEQUALITY OVERHEAD:     12086 INTEGRALS, T=        0.00

                                                                                NONZERO     BLOCKS
 ITER EX      TOTAL ENERGY        E CHANGE  DENSITY CHANGE    ORB. GRAD       INTEGRALS    SKIPPED
   1  0     -610.4685924491  -610.4685924491   0.866566688   0.000000000       37634127    4028738
          ---------------START SECOND ORDER SCF---------------
   2  1     -611.8045303348    -1.3359378857   0.179585315   0.135375695       37469917    4076246
   3  2     -611.9041083909    -0.0995780561   0.114947334   0.099854658       37193108    4138443
   4  3     -612.0081284163    -0.1040200254   0.085792369   0.041625979       36707851    4215098
   5  4     -612.0516373173    -0.0435089010   0.139862871   0.014660641       36429974    4246466
   6  5     -612.0468625650     0.0047747523   0.066601183   0.056759902       36519616    4226440
   7  6     -612.0703255843    -0.0234630193   0.016254925   0.015839446       36143292    4277437
   8  7     -612.0729820437    -0.0026564594   0.024695269   0.005532715       34171557    4416295
   9  8     -612.0738316868    -0.0008496431   0.003551991   0.002390484       34242619    4412763
  10  9     -612.0739317891    -0.0001001023   0.001581890   0.000573240       32026622    4554335
  11 10     -612.0739515939    -0.0000198048   0.001266281   0.000455449       30400567    4631604
  12 11     -612.0739593795    -0.0000077855   0.001605155   0.000432349       29375041    4686139
  13 12     -612.0739662623    -0.0000068828   0.003098169   0.000346942       28894402    4707191
  14 13     -612.0739761890    -0.0000099267   0.003497885   0.000283862       29544982    4675924
  15 14     -612.0739854070    -0.0000092180   0.003895838   0.000314144       29526083    4684909
  16 15     -612.0739934985    -0.0000080916   0.003703108   0.000303809       29669474    4681646
  17 16     -612.0740002733    -0.0000067747   0.004521986   0.000403722       29644287    4675346
  18 17     -612.0740079959    -0.0000077226   0.007079589   0.000446972       29808915    4663259
  19 18     -612.0740194180    -0.0000114221   0.012120024   0.000464352       30318510    4637919
  20 19     -612.0740374570    -0.0000180391   0.012570748   0.000513766       31008426    4604863
  21 20     -612.0740587399    -0.0000212828   0.006392751   0.000657985       30893984    4617026
  22 21     -612.0740819058    -0.0000231659   0.002699249   0.000606315       30640468    4621997
  23 22     -612.0740953174    -0.0000134117   0.002030424   0.000342860       30034123    4638460
  24 23     -612.0740992172    -0.0000038998   0.000841943   0.000145128       29123460    4691495
  25 24     -612.0741002879    -0.0000010707   0.000775192   0.000048566       28013418    4750810
  26 25     -612.0741005553    -0.0000002674   0.000215533   0.000032037       26760618    4819144
  27 26     -612.0741006190    -0.0000000637   0.000072867   0.000015702       24810039    4901406
  28 27     -612.0741006347    -0.0000000156   0.000048806   0.000008615       23174710    4972465
  29 28     -612.0741006377    -0.0000000030   0.000021547   0.000003437       21480230    5046358
  30 29     -612.0741006385    -0.0000000008   0.000005802   0.000001784       20100136    5108730
  31 30     -612.0741006381     0.0000000004   0.000002381   0.000000866       18130645    5191045

          -----------------
          DENSITY CONVERGED
          -----------------
     TIME TO FORM FOCK OPERATORS=      20.7 SECONDS (       0.7 SEC/ITER)
     FOCK TIME ON FIRST ITERATION=       0.6, LAST ITERATION=       0.3
     TIME TO SOLVE SCF EQUATIONS=       0.6 SECONDS (       0.0 SEC/ITER)

 FINAL UHF ENERGY IS     -612.0741006381 AFTER  31 ITERATIONS

          --------------------
          SPIN SZ   =    0.500
          S-SQUARED =    0.815
          --------------------

  ----- ALPHA SET ----- 

          ------------
          EIGENVECTORS
          ------------

                      1          2          3          4          5
                  -20.5997   -20.5400   -11.4764   -11.4574   -11.4265
                     A          A          A          A          A   
    1  C  1  S   -0.000322   0.000257  -0.000010   0.000084   0.986697
    2  C  1  S   -0.000293   0.001498  -0.000004   0.000024   0.094954
    3  C  1  X   -0.001113   0.001854   0.000006   0.000023   0.000006
    4  C  1  Y    0.000984   0.000487  -0.000012  -0.000118   0.000788
    5  C  1  Z   -0.000200   0.000753   0.000003   0.000010   0.000056
    6  C  1  S    0.012059   0.017374  -0.000013  -0.000258  -0.047364
    7  C  1  X   -0.012277   0.021352   0.000041   0.000281   0.005060
    8  C  1  Y    0.008876   0.016069   0.000073   0.001087   0.016566
    9  C  1  Z   -0.002343   0.010727   0.000017   0.000211   0.005587
   10  C  2  S   -0.000017  -0.000061  -0.000003  -0.000032  -0.001511
   11  C  2  S   -0.000365  -0.000437  -0.000007  -0.000085  -0.002603
   12  C  2  X    0.000022   0.000322  -0.000002  -0.000009  -0.000050
   13  C  2  Y   -0.000298   0.000097   0.000005   0.000043  -0.000627
   14  C  2  Z   -0.000138   0.000091  -0.000001  -0.000001  -0.000043
   15  C  2  S    0.001813   0.006944   0.000066   0.000823   0.020167
   16  C  2  X    0.003672  -0.007526  -0.000003   0.000009  -0.000663
   17  C  2  Y    0.000715   0.003919   0.000018   0.000393   0.014062
   18  C  2  Z    0.001859  -0.001651   0.000015   0.000124   0.001943
   19  O  3  S    0.000590   0.983825   0.000001   0.000010   0.000122
   20  O  3  S    0.000377   0.100600   0.000007   0.000079   0.001340
   21  O  3  X   -0.000405  -0.003922  -0.000001   0.000004   0.000167
   22  O  3  Y    0.000594  -0.002076  -0.000003  -0.000005   0.000702
   23  O  3  Z   -0.000035  -0.001785  -0.000002   0.000001   0.000228
   24  O  3  S   -0.000503  -0.058847  -0.000042  -0.000472  -0.003599
   25  O  3  X    0.003038   0.013556   0.000012   0.000124   0.005539
   26  O  3  Y   -0.003213   0.007081   0.000011  -0.000018  -0.000230
   27  O  3  Z    0.000418   0.006213   0.000013   0.000054   0.001758
   28  O  4  S    0.983819  -0.000504   0.000002   0.000025   0.000082
   29  O  4  S    0.100990   0.000171   0.000019   0.000169   0.001299
   30  O  4  X    0.002783   0.000076  -0.000008   0.000022   0.000935
   31  O  4  Y    0.001741   0.001117   0.000004   0.000084   0.000469
   32  O  4  Z    0.001384   0.000288  -0.000003  -0.000012   0.000396
   33  O  4  S   -0.057294   0.000819  -0.000069  -0.001000   0.001470
   34  O  4  X   -0.007881  -0.000719   0.000063   0.000154  -0.003489
   35  O  4  Y   -0.005884  -0.006359  -0.000052  -0.000762  -0.003534
   36  O  4  Z   -0.003985  -0.001661  -0.000002  -0.000057  -0.001966
   37  C  5  S   -0.000925  -0.000123  -0.000094  -0.001357  -0.001747
   38  C  5  S   -0.003978  -0.000198  -0.000134  -0.001219  -0.001158
   39  C  5  X    0.000614   0.000557   0.000001   0.000320  -0.000638
   40  C  5  Y   -0.000675  -0.000715   0.000015   0.000037   0.000137
   41  C  5  Z    0.000206   0.000112   0.000008  -0.000033  -0.000332
   42  C  5  S    0.020414   0.004959   0.000747   0.004890   0.003559
   43  C  5  X    0.001250  -0.002857  -0.000305  -0.004424   0.003910
   44  C  5  Y   -0.014211  -0.001890   0.000107  -0.001314  -0.002525
   45  C  5  Z   -0.004489  -0.001480   0.000098  -0.000756   0.001242
   46  C  6  S    0.000207   0.000108   0.000033  -0.000097  -0.000107
   47  C  6  S    0.000974   0.000750   0.000060  -0.000091   0.000162
   48  C  6  X    0.000297   0.000238  -0.000072   0.000209  -0.000093
   49  C  6  Y    0.000033  -0.000275  -0.000008   0.000069   0.000519
   50  C  6  Z    0.000298  -0.000001  -0.000000   0.000108   0.000311
   51  C  6  S   -0.002915  -0.001511  -0.000163  -0.000048  -0.002697
   52  C  6  X   -0.001878  -0.000925   0.000348  -0.000033  -0.000329
   53  C  6  Y    0.004227   0.001810   0.000063   0.000078  -0.000413
   54  C  6  Z    0.000419  -0.000114   0.000153  -0.000433   0.000546
   55  C  7  S    0.000239   0.000065  -0.000001  -0.000402   0.000069
   56  C  7  S    0.001099   0.000447   0.000004  -0.000573   0.000329
   57  C  7  X    0.000483   0.000195  -0.000002   0.000259   0.000061
   58  C  7  Y   -0.000164  -0.000233   0.000000   0.000058   0.000300
   59  C  7  Z   -0.000641  -0.000065  -0.000007  -0.000099  -0.000115
   60  C  7  S   -0.006994  -0.000857  -0.000022   0.001693  -0.003589
   61  C  7  X   -0.001892  -0.000131   0.000093  -0.000784  -0.001276
   62  C  7  Y    0.008029   0.001367   0.000019  -0.000412   0.000881
   63  C  7  Z    0.004910   0.000899  -0.000049   0.000977   0.000599
   64  C  8  S   -0.000041   0.000038  -0.000000   0.000031  -0.000007
   65  C  8  S   -0.000059   0.000378   0.000000   0.000056   0.000024
   66  C  8  X   -0.000200   0.000049  -0.000000  -0.000029  -0.000025
   67  C  8  Y    0.000067  -0.000228  -0.000001  -0.000064   0.000175
   68  C  8  Z    0.000508   0.000329  -0.000001   0.000022  -0.000389
   69  C  8  S    0.007290   0.000577  -0.000036   0.000161   0.000077
   70  C  8  X   -0.001485  -0.000330  -0.000012   0.000274  -0.000522
   71  C  8  Y   -0.000649   0.000716  -0.000029   0.000542   0.000464
   72  C  8  Z    0.002695  -0.000332  -0.000017  -0.000119   0.002802
   73  C  9  S    0.000205   0.000121   0.000198  -0.001526   0.000419
   74  C  9  S    0.000793   0.000647   0.000251  -0.001508   0.000287
   75  C  9  X   -0.000680  -0.000129  -0.000026   0.001473   0.000230
   76  C  9  Y   -0.000030  -0.000044   0.000042   0.000017  -0.000533
   77  C  9  Z   -0.000266  -0.000031  -0.000045  -0.000088  -0.000045
   78  C  9  S   -0.005799  -0.004070  -0.001419   0.002070   0.001148
   79  C  9  X   -0.001757  -0.001763  -0.000031  -0.008094   0.000635
   80  C  9  Y    0.004862   0.001062  -0.000584   0.001148   0.002782
   81  C  9  Z    0.001718  -0.000309  -0.000493   0.001914   0.000469
   82  C 10  S   -0.000016  -0.000028  -0.000654  -0.000758  -0.000204
   83  C 10  S    0.000090  -0.000114  -0.000209  -0.001294  -0.000238
   84  C 10  X    0.000346   0.000067   0.000572   0.000153   0.000119
   85  C 10  Y    0.000257   0.000040  -0.000094   0.000535   0.000102
   86  C 10  Z    0.000216  -0.000009   0.000199   0.000115   0.000071
   87  C 10  S    0.001563   0.001053  -0.000464   0.014625   0.001538
   88  C 10  X   -0.000995   0.000113   0.000114  -0.012071  -0.000039
   89  C 10  Y   -0.001325  -0.000042   0.003416  -0.006489  -0.000806
   90  C 10  Z   -0.002581  -0.000419   0.000586  -0.002845  -0.001025
   91  C 11  S    0.000042   0.000017  -0.003490   0.987059  -0.000073
   92  C 11  S    0.000246   0.000111  -0.004820   0.099640   0.000057
   93  C 11  X    0.000062   0.000046   0.001168   0.000256  -0.000014
   94  C 11  Y   -0.000076   0.000019   0.001709  -0.000904  -0.000044
   95  C 11  Z   -0.000042  -0.000021   0.000841  -0.000508  -0.000011
   96  C 11  S   -0.001496  -0.000319   0.031913  -0.083219  -0.000681
   97  C 11  X   -0.001366  -0.000555  -0.011007  -0.001347  -0.000272
   98  C 11  Y    0.001151  -0.000053  -0.013974   0.014446   0.000659
   99  C 11  Z    0.000376   0.000073  -0.007361   0.004126   0.000205
  100  C 12  S   -0.000012  -0.000001   0.987295   0.002876   0.000002
  101  C 12  S   -0.000037   0.000002   0.100141  -0.003961  -0.000028
  102  C 12  X    0.000061  -0.000006   0.000372  -0.002229   0.000019
  103  C 12  Y    0.000051   0.000014   0.000691  -0.001348   0.000018
  104  C 12  Z    0.000059   0.000015   0.000328  -0.001036   0.000018
  105  C 12  S    0.000856  -0.000082  -0.087118   0.028848   0.000546
  106  C 12  X    0.000439   0.000110  -0.004851   0.020472   0.000282
  107  C 12  Y   -0.000450  -0.000217  -0.006588   0.008888  -0.000017
  108  C 12  Z   -0.000207  -0.000150  -0.003466   0.008783   0.000033
  109  C 13  S    0.000008   0.000003  -0.001080  -0.001096   0.000024
  110  C 13  S    0.000041   0.000018  -0.001739  -0.000390   0.000025
  111  C 13  X    0.000022   0.000004  -0.000304  -0.000070   0.000010
  112  C 13  Y    0.000022  -0.000002  -0.000357  -0.000919  -0.000002
  113  C 13  Z   -0.000004  -0.000008  -0.000143  -0.000299  -0.000006
  114  C 13  S   -0.000313  -0.000157   0.014202  -0.002547  -0.000173
  115  C 13  X    0.000096   0.000001   0.000817  -0.003103  -0.000048
  116  C 13  Y   -0.000471  -0.000099   0.009804  -0.000702  -0.000109
  117  C 13  Z    0.000025   0.000039   0.002617  -0.000959   0.000006
  118  C 14  S    0.000007  -0.000000  -0.001135  -0.001716   0.000032
  119  C 14  S    0.000056   0.000004  -0.001846  -0.001494   0.000020
  120  C 14  X    0.000024   0.000011  -0.000225  -0.000290   0.000009
  121  C 14  Y    0.000015   0.000002  -0.000290  -0.000137   0.000005
  122  C 14  Z    0.000018   0.000006  -0.000154  -0.000154   0.000006
  123  C 14  S   -0.000035   0.000070   0.015632   0.007725   0.000014
  124  C 14  X   -0.000057   0.000006   0.009913   0.003133  -0.000019
  125  C 14  Y   -0.000039   0.000009   0.000713  -0.002399  -0.000041
  126  C 14  Z    0.000002   0.000026   0.003528   0.000602  -0.000009
  127  H 15  S   -0.000794   0.000784  -0.000002  -0.000031  -0.001093
  128  H 15  S   -0.000338   0.002529  -0.000007  -0.000030   0.002110
  129  H 16  S    0.000238  -0.000449   0.000001  -0.000057  -0.001522
  130  H 16  S   -0.000198  -0.001014  -0.000019   0.000030   0.002536
  131  H 17  S    0.000327  -0.000955  -0.000003  -0.000022  -0.001513
  132  H 17  S    0.001001  -0.001471   0.000005  -0.000002   0.001478
  133  H 18  S    0.000599  -0.000131  -0.000017  -0.000014   0.000081
  134  H 18  S    0.000995   0.001317  -0.000179   0.000310   0.000319
  135  H 19  S   -0.000413  -0.000108   0.000063  -0.000007   0.000061
  136  H 19  S   -0.000970  -0.000742  -0.000041  -0.000007   0.000790
  137  H 20  S    0.000672   0.000471   0.000067  -0.000057  -0.000245
  138  H 20  S    0.000585   0.000172  -0.000031   0.000364   0.000526
  139  H 21  S   -0.000806  -0.000100   0.000015  -0.000154   0.000002
  140  H 21  S   -0.002570  -0.000602  -0.000039  -0.000041   0.000300
  141  H 22  S   -0.000217   0.000232  -0.000001   0.000095  -0.000915
  142  H 22  S   -0.001293  -0.000043  -0.000013   0.000151   0.003073
  143  H 23  S   -0.000045  -0.000053   0.000004  -0.000067   0.000129
  144  H 23  S    0.000322  -0.000337   0.000009  -0.000249   0.000880
  145  H 24  S   -0.000417   0.000108   0.000007  -0.000550  -0.000307
  146  H 24  S   -0.000752  -0.000160   0.000817  -0.001984  -0.001333
  147  H 25  S    0.000772   0.000278  -0.000037  -0.000743   0.000319
  148  H 25  S    0.001570   0.000220  -0.000082   0.001455   0.000309
  149  H 26  S   -0.000492  -0.000082   0.000347  -0.001432  -0.000131
  150  H 26  S    0.000051  -0.000112   0.001478  -0.002606  -0.000564
  151  H 27  S    0.000378  -0.000027  -0.000180  -0.000668   0.000119
  152  H 27  S    0.001003   0.000090  -0.000054   0.002529   0.000211
  153  H 28  S   -0.000042   0.000027  -0.000889  -0.001478  -0.000062
  154  H 28  S   -0.000666  -0.000054   0.001430   0.009122  -0.000212
  155  H 29  S   -0.000011  -0.000002  -0.001031  -0.000014  -0.000001
  156  H 29  S   -0.000064  -0.000017   0.002429  -0.000211  -0.000024
  157  H 30  S    0.000019   0.000014  -0.000989   0.000033   0.000009
  158  H 30  S   -0.000004   0.000015   0.002112  -0.000119   0.000009
  159  H 31  S    0.000120   0.000012  -0.001069   0.000270   0.000023
  160  H 31  S   -0.000409  -0.000011  -0.001195   0.001840   0.000024
  161  H 32  S    0.000012   0.000003  -0.001064  -0.000357   0.000001
  162  H 32  S   -0.000018  -0.000006   0.002220  -0.000087  -0.000011
  163  H 33  S   -0.000007  -0.000008  -0.001072  -0.000407  -0.000003
  164  H 33  S    0.000007   0.000004   0.002229  -0.000177  -0.000006
  165  H 34  S    0.000015   0.000002  -0.001018  -0.000121   0.000010
  166  H 34  S    0.000027  -0.000027  -0.001728  -0.000070   0.000012

                      6          7          8          9         10
                  -11.3776   -11.3616   -11.3604   -11.3542   -11.3276
                     A          A          A          A          A   
    1  C  1  S    0.001564  -0.000026  -0.000026   0.000178  -0.000454
    2  C  1  S   -0.000241   0.000009   0.000006  -0.000026  -0.000031
    3  C  1  X    0.000500  -0.000006  -0.000005   0.000091  -0.000388
    4  C  1  Y   -0.001397   0.000003   0.000001  -0.000084  -0.000209
    5  C  1  Z   -0.000110   0.000002  -0.000003   0.000056  -0.000084
    6  C  1  S   -0.000666  -0.000031   0.000019  -0.000633   0.001455
    7  C  1  X   -0.001669   0.000059  -0.000006   0.000626  -0.000470
    8  C  1  Y    0.010036  -0.000006   0.000137  -0.000309   0.004117
    9  C  1  Z    0.001519   0.000017   0.000004   0.000180   0.000409
   10  C  2  S   -0.000833   0.000006  -0.000025  -0.000088  -0.000484
   11  C  2  S   -0.001186   0.000004  -0.000025  -0.000081  -0.000388
   12  C  2  X   -0.000059  -0.000000  -0.000009  -0.000002   0.000003
   13  C  2  Y    0.000230   0.000003   0.000012   0.000032   0.000072
   14  C  2  Z    0.000003   0.000000  -0.000002  -0.000006  -0.000013
   15  C  2  S    0.007940  -0.000000   0.000165   0.000322   0.002668
   16  C  2  X    0.000821  -0.000012   0.000034  -0.000215   0.000173
   17  C  2  Y    0.003602   0.000000   0.000005  -0.000077   0.001101
   18  C  2  Z    0.001091  -0.000004   0.000022  -0.000004   0.000484
   19  O  3  S    0.000064   0.000001   0.000001  -0.000000   0.000034
   20  O  3  S    0.000519   0.000006   0.000010  -0.000002   0.000270
   21  O  3  X   -0.000098   0.000001  -0.000001   0.000015  -0.000013
   22  O  3  Y    0.000190  -0.000002   0.000001  -0.000035   0.000016
   23  O  3  Z    0.000031  -0.000001  -0.000002   0.000010  -0.000008
   24  O  3  S   -0.002770  -0.000028  -0.000054  -0.000046  -0.001573
   25  O  3  X    0.001479   0.000000   0.000024  -0.000102   0.000615
   26  O  3  Y   -0.001326   0.000012  -0.000012   0.000177  -0.000285
   27  O  3  Z    0.000160   0.000005   0.000016  -0.000038   0.000207
   28  O  4  S   -0.000280   0.000005   0.000007   0.000010   0.000051
   29  O  4  S   -0.000969   0.000041   0.000040   0.000171   0.000103
   30  O  4  X    0.000106  -0.000003   0.000045  -0.000343   0.000756
   31  O  4  Y    0.000677   0.000007   0.000023   0.000042  -0.000365
   32  O  4  Z    0.000221   0.000009  -0.000005   0.000001   0.000181
   33  O  4  S    0.009792  -0.000200  -0.000323  -0.000045  -0.002121
   34  O  4  X   -0.002494   0.000050  -0.000102   0.001559  -0.002275
   35  O  4  Y    0.004774  -0.000110  -0.000197  -0.000169   0.000480
   36  O  4  Z    0.000041  -0.000050  -0.000027  -0.000050  -0.000737
   37  C  5  S    0.988984   0.000160   0.000663   0.002556   0.001027
   38  C  5  S    0.109896  -0.000022  -0.000069   0.000414  -0.001507
   39  C  5  X   -0.000047   0.000035   0.000058   0.000762  -0.000431
   40  C  5  Y    0.000119   0.000060   0.000100   0.000203  -0.000031
   41  C  5  Z    0.000117  -0.000016  -0.000013  -0.000156  -0.000016
   42  C  5  S   -0.114440  -0.000047   0.000371  -0.004125   0.016582
   43  C  5  X    0.001400  -0.000183  -0.000521  -0.001696  -0.014448
   44  C  5  Y   -0.009670  -0.000530  -0.000705  -0.001585   0.000054
   45  C  5  Z    0.000775   0.000072   0.000082   0.000683  -0.002143
   46  C  6  S   -0.000972  -0.000008   0.000043  -0.000248  -0.003497
   47  C  6  S   -0.002860  -0.000004   0.000044  -0.000169  -0.001905
   48  C  6  X   -0.000128   0.000017   0.000015  -0.000086   0.000983
   49  C  6  Y   -0.000218  -0.000006  -0.000016   0.000194  -0.000056
   50  C  6  Z   -0.001295   0.000002   0.000019  -0.000168   0.000594
   51  C  6  S    0.026970   0.000025  -0.000164   0.001860   0.003255
   52  C  6  X   -0.003453  -0.000022   0.000040   0.001017  -0.002209
   53  C  6  Y   -0.002813   0.000165   0.000270  -0.000649   0.000262
   54  C  6  Z   -0.013635  -0.000077  -0.000148   0.000202  -0.001156
   55  C  7  S   -0.000469   0.000038   0.000003  -0.001544  -0.004324
   56  C  7  S   -0.001967   0.000025   0.000001  -0.001323  -0.002259
   57  C  7  X   -0.000207  -0.000018  -0.000005   0.000369   0.000657
   58  C  7  Y    0.000091  -0.000009  -0.000005   0.000108   0.000343
   59  C  7  Z    0.000358  -0.000002  -0.000007  -0.000053  -0.000183
   60  C  7  S    0.023166   0.000119   0.000212   0.004421   0.006841
   61  C  7  X   -0.012173  -0.000058  -0.000107  -0.002977  -0.000260
   62  C  7  Y   -0.012509   0.000011  -0.000003  -0.001822  -0.002602
   63  C  7  Z    0.014534   0.000230   0.000322   0.001776  -0.000160
   64  C  8  S   -0.000983   0.000005  -0.000001  -0.000093   0.001034
   65  C  8  S   -0.000733  -0.000001  -0.000005  -0.000020   0.000700
   66  C  8  X    0.000447  -0.000007  -0.000002   0.000022  -0.000207
   67  C  8  Y   -0.000089  -0.000005  -0.000007  -0.000094  -0.000291
   68  C  8  Z   -0.000675   0.000008   0.000009  -0.000063   0.000049
   69  C  8  S    0.003142   0.000133   0.000176   0.000141  -0.003174
   70  C  8  X    0.000215  -0.000020  -0.000034   0.000710   0.001973
   71  C  8  Y    0.005978   0.000062   0.000092   0.001315   0.001472
   72  C  8  Z    0.002294   0.000034   0.000050   0.000083  -0.002294
   73  C  9  S   -0.001932   0.000230  -0.000162  -0.004449   0.987962
   74  C  9  S   -0.003240   0.000172   0.000015  -0.002923   0.104797
   75  C  9  X    0.000930   0.000007   0.000069  -0.000492   0.000032
   76  C  9  Y    0.000080  -0.000039  -0.000019  -0.000025  -0.000249
   77  C  9  Z   -0.000106  -0.000045  -0.000052  -0.000149   0.000390
   78  C  9  S    0.028717  -0.000901  -0.000719   0.022886  -0.092198
   79  C  9  X    0.014526   0.000467  -0.000071  -0.009680  -0.002707
   80  C  9  Y   -0.001491   0.000466   0.000487  -0.006523   0.003535
   81  C  9  Z    0.005741   0.000121  -0.000202   0.009316  -0.004521
   82  C 10  S   -0.002292  -0.009241  -0.011112   0.988012   0.003606
   83  C 10  S    0.000129  -0.001620  -0.001975   0.105632  -0.001817
   84  C 10  X   -0.000728   0.000331  -0.000042  -0.000530   0.000466
   85  C 10  Y    0.000170   0.000028   0.000188   0.000399   0.000156
   86  C 10  Z    0.000131   0.000182  -0.000042  -0.000160  -0.000021
   87  C 10  S   -0.006159   0.002177   0.007057  -0.100425   0.018984
   88  C 10  X    0.001144  -0.001102  -0.001861   0.003742   0.009762
   89  C 10  Y   -0.002832   0.000240  -0.000496  -0.005396   0.005915
   90  C 10  Z    0.001527  -0.000946  -0.000463   0.005811  -0.007384
   91  C 11  S    0.001056   0.001228   0.001380   0.000362   0.001270
   92  C 11  S   -0.000903  -0.000764  -0.000670  -0.001634  -0.001278
   93  C 11  X   -0.000503   0.000717   0.000448  -0.000316  -0.000741
   94  C 11  Y   -0.000283  -0.000020   0.000761   0.000389  -0.000135
   95  C 11  Z    0.000036   0.000256   0.000363  -0.000152   0.000019
   96  C 11  S    0.002384   0.000683   0.001233   0.019105   0.004107
   97  C 11  X    0.006006  -0.000244  -0.006653   0.019713   0.000520
   98  C 11  Y    0.002321  -0.002589   0.000513  -0.001965  -0.001129
   99  C 11  Z    0.000907  -0.000737  -0.002202   0.005509   0.000483
  100  C 12  S    0.000061   0.000570   0.000832   0.000758  -0.000122
  101  C 12  S   -0.000083  -0.001128  -0.001575  -0.000229   0.000240
  102  C 12  X    0.000176   0.000522  -0.000422  -0.000653   0.000245
  103  C 12  Y   -0.000153  -0.000362   0.000644  -0.000418  -0.000041
  104  C 12  Z   -0.000059   0.000076   0.000030  -0.000280  -0.000145
  105  C 12  S    0.002741   0.011763   0.016485   0.001559  -0.001477
  106  C 12  X   -0.000624  -0.015785   0.004931   0.000141  -0.002094
  107  C 12  Y    0.003003   0.009025  -0.016680   0.006351  -0.000257
  108  C 12  Z    0.001388  -0.002897  -0.002804   0.001910  -0.000285
  109  C 13  S   -0.000698  -0.193022   0.968489   0.008877   0.000218
  110  C 13  S   -0.000268  -0.021921   0.099866   0.000251  -0.000138
  111  C 13  X   -0.000019   0.000987  -0.000148  -0.000281   0.000019
  112  C 13  Y    0.000056  -0.000512   0.000059   0.000092   0.000139
  113  C 13  Z    0.000049   0.000161  -0.000065   0.000137  -0.000095
  114  C 13  S    0.001810   0.022424  -0.082960   0.004605   0.001126
  115  C 13  X   -0.000124  -0.002462   0.001341   0.000271   0.000553
  116  C 13  Y    0.000835   0.003630  -0.005270   0.001645  -0.000036
  117  C 13  Z   -0.000164   0.000312  -0.000753  -0.000378   0.000553
  118  C 14  S   -0.000314   0.968531   0.192422   0.011028  -0.000107
  119  C 14  S   -0.000007   0.100347   0.017791   0.000371   0.000064
  120  C 14  X   -0.000133   0.000395  -0.000222  -0.000381  -0.000083
  121  C 14  Y   -0.000005  -0.000513   0.000844  -0.000039  -0.000019
  122  C 14  Z   -0.000060   0.000003   0.000159  -0.000171   0.000049
  123  C 14  S   -0.001081  -0.082624  -0.008256   0.000038  -0.001015
  124  C 14  X   -0.000239  -0.005728   0.002199   0.001258  -0.000115
  125  C 14  Y   -0.000266   0.002385  -0.001572  -0.000688   0.000357
  126  C 14  Z   -0.000279  -0.001308   0.000249   0.000340  -0.000411
  127  H 15  S   -0.000488   0.000003  -0.000012   0.000015  -0.000148
  128  H 15  S   -0.000272  -0.000000  -0.000035  -0.000029  -0.000055
  129  H 16  S   -0.000332  -0.000001   0.000006   0.000052  -0.000098
  130  H 16  S   -0.000133   0.000003  -0.000042  -0.000314  -0.000176
  131  H 17  S   -0.000249  -0.000001   0.000017  -0.000027  -0.000050
  132  H 17  S   -0.000028  -0.000001  -0.000048  -0.000080  -0.000021
  133  H 18  S   -0.001239   0.000004   0.000015  -0.000278  -0.000128
  134  H 18  S   -0.000411   0.000014   0.000016  -0.000560   0.001812
  135  H 19  S   -0.001531  -0.000005  -0.000012   0.000342  -0.000599
  136  H 19  S   -0.000327  -0.000101  -0.000066  -0.000527  -0.000790
  137  H 20  S   -0.001609  -0.000008  -0.000015   0.000187   0.000067
  138  H 20  S    0.000287   0.000126   0.000310  -0.001551  -0.001878
  139  H 21  S   -0.000771  -0.000008  -0.000014  -0.000254   0.000127
  140  H 21  S    0.002330  -0.000045  -0.000060   0.000292  -0.000619
  141  H 22  S    0.000412   0.000006   0.000004   0.000148   0.000619
  142  H 22  S    0.002922   0.000011   0.000027   0.000658   0.000124
  143  H 23  S   -0.000767  -0.000009  -0.000012  -0.000164  -0.000187
  144  H 23  S   -0.000080  -0.000015  -0.000017  -0.000391  -0.001091
  145  H 24  S   -0.001519  -0.000032  -0.000055  -0.001302   0.001014
  146  H 24  S    0.000013   0.000066   0.000001   0.000432   0.014499
  147  H 25  S   -0.001316   0.000109   0.000123  -0.001212   0.001107
  148  H 25  S    0.000869   0.000199  -0.000150   0.001215   0.014551
  149  H 26  S   -0.000172  -0.000211  -0.000068   0.000866  -0.001383
  150  H 26  S   -0.000547   0.000358  -0.002590   0.015242   0.001111
  151  H 27  S    0.000760  -0.000042  -0.000316   0.001420  -0.001280
  152  H 27  S   -0.001238   0.000138  -0.000235   0.015461   0.001164
  153  H 28  S   -0.000386   0.000151  -0.000478  -0.000621   0.000046
  154  H 28  S   -0.000213   0.000230  -0.000319   0.002316  -0.000790
  155  H 29  S   -0.000033  -0.000544   0.000467  -0.000187  -0.000042
  156  H 29  S    0.000047  -0.003888   0.013790   0.000472  -0.000255
  157  H 30  S   -0.000118  -0.000592   0.000494  -0.000306  -0.000028
  158  H 30  S   -0.000106  -0.003700   0.013974  -0.000327   0.000258
  159  H 31  S   -0.000043  -0.000296   0.000055  -0.000062   0.000067
  160  H 31  S   -0.000061  -0.001407   0.015015  -0.002030  -0.001002
  161  H 32  S    0.000005   0.000500  -0.000400  -0.000080   0.000008
  162  H 32  S    0.000023   0.014183   0.001647   0.000281  -0.000099
  163  H 33  S    0.000070   0.000525  -0.000442  -0.000090   0.000096
  164  H 33  S   -0.000043   0.014161   0.001836   0.000160   0.000225
  165  H 34  S   -0.000001   0.000344  -0.000283  -0.000284  -0.000051
  166  H 34  S    0.000457   0.013213   0.003822   0.001108   0.000174

                     11         12         13         14         15
                  -11.2775   -11.2735   -11.2703   -11.2687    -1.5538
                     A          A          A          A          A   
    1  C  1  S    0.000041   0.000017   0.000867   0.000196  -0.119234
    2  C  1  S    0.000228   0.000114  -0.002303  -0.000048   0.137299
    3  C  1  X    0.000026   0.000010   0.000055   0.000199   0.002452
    4  C  1  Y   -0.000393  -0.000420   0.000555  -0.000556   0.074131
    5  C  1  Z    0.000113   0.000087   0.000197  -0.000409   0.017379
    6  C  1  S   -0.001102  -0.000407   0.022233  -0.000591   0.112691
    7  C  1  X    0.000800   0.000802   0.001190  -0.000610  -0.018904
    8  C  1  Y    0.002019   0.003178  -0.015870   0.003488  -0.067434
    9  C  1  Z    0.000298   0.000430  -0.003007   0.001759  -0.020623
   10  C  2  S   -0.002297  -0.006441   0.987406   0.015535  -0.016575
   11  C  2  S   -0.000477  -0.001001   0.102214   0.001202   0.018734
   12  C  2  X    0.000006   0.000072  -0.000206  -0.000063  -0.000473
   13  C  2  Y    0.000064   0.000163   0.000202   0.000104   0.020007
   14  C  2  Z   -0.000044  -0.000051   0.000103   0.000135   0.003907
   15  C  2  S    0.002006   0.003258  -0.084982   0.001911  -0.006001
   16  C  2  X   -0.000160  -0.000470  -0.000326   0.000513  -0.000085
   17  C  2  Y    0.000836   0.000860  -0.006857   0.001469  -0.018694
   18  C  2  Z    0.000421   0.000457  -0.001894  -0.000385  -0.002730
   19  O  3  S    0.000033   0.000042   0.000018   0.000050  -0.118004
   20  O  3  S    0.000290   0.000369  -0.000122   0.000462   0.107396
   21  O  3  X   -0.000106  -0.000100   0.000236  -0.000033  -0.066768
   22  O  3  Y   -0.000035   0.000030  -0.000014   0.000208  -0.031753
   23  O  3  Z    0.000059  -0.000018   0.000053   0.000064  -0.029378
   24  O  3  S   -0.001188  -0.001680  -0.000397  -0.001747   0.377303
   25  O  3  X    0.000596   0.000712  -0.000711   0.000691  -0.083258
   26  O  3  Y   -0.000064  -0.000209   0.002031  -0.001005  -0.024907
   27  O  3  Z   -0.000016   0.000282   0.000274  -0.000324  -0.033481
   28  O  4  S    0.000076   0.000019   0.000015   0.000076  -0.171890
   29  O  4  S    0.000397   0.000151  -0.000253   0.000377   0.153159
   30  O  4  X   -0.000088   0.000051  -0.000242  -0.000019   0.056741
   31  O  4  Y   -0.000092   0.000054   0.000650  -0.000090   0.009639
   32  O  4  Z    0.000072  -0.000050   0.000007  -0.000046   0.022533
   33  O  4  S   -0.003161  -0.000490  -0.000631  -0.002943   0.550209
   34  O  4  X   -0.000029  -0.000385   0.000580  -0.000178   0.080274
   35  O  4  Y   -0.001728  -0.000497  -0.001573  -0.001020   0.037941
   36  O  4  Z   -0.000045   0.000410   0.000083  -0.001106   0.037812
   37  C  5  S    0.000010   0.000929   0.000483   0.000231  -0.045180
   38  C  5  S   -0.000539  -0.000356  -0.000924  -0.001167   0.048190
   39  C  5  X   -0.000254  -0.000141  -0.000454   0.000218   0.010689
   40  C  5  Y    0.000566  -0.000157  -0.000032   0.000338  -0.043823
   41  C  5  Z   -0.000000   0.000825  -0.000100   0.000292  -0.006610
   42  C  5  S    0.010880   0.000986   0.003151   0.014046   0.071550
   43  C  5  X    0.010393  -0.001436   0.003422   0.002320  -0.001808
   44  C  5  Y   -0.001376   0.000851  -0.001489  -0.001789   0.030799
   45  C  5  Z   -0.008998  -0.002415  -0.000336   0.011390   0.001934
   46  C  6  S   -0.012856  -0.006203  -0.015670   0.987289  -0.009696
   47  C  6  S   -0.002317  -0.001104  -0.001717   0.102060   0.007733
   48  C  6  X   -0.000107   0.000010  -0.000063  -0.000301  -0.001462
   49  C  6  Y   -0.000368  -0.000225   0.000211  -0.000035  -0.004636
   50  C  6  Z    0.000617   0.000059   0.000173  -0.000539  -0.008464
   51  C  6  S    0.004048   0.002771   0.000496  -0.079991   0.013398
[...]
            141  H 22  S      0.46956     0.46332
            142  H 22  S      0.30754     0.43493
            143  H 23  S      0.46739     0.46010
            144  H 23  S      0.28640     0.42298
            145  H 24  S      0.46394     0.47369
            146  H 24  S      0.29966     0.42571
            147  H 25  S      0.46320     0.47388
            148  H 25  S      0.28239     0.41901
            149  H 26  S      0.45989     0.46755
            150  H 26  S      0.25488     0.40886
            151  H 27  S      0.45058     0.45805
            152  H 27  S      0.25017     0.40111
            153  H 28  S      0.46253     0.46342
            154  H 28  S      0.20796     0.38835
            155  H 29  S      0.44526     0.44282
            156  H 29  S      0.25360     0.39998
            157  H 30  S      0.44666     0.44475
            158  H 30  S      0.25436     0.40051
            159  H 31  S      0.46040     0.45922
            160  H 31  S      0.26000     0.40998
            161  H 32  S      0.44590     0.44332
            162  H 32  S      0.25273     0.40021
            163  H 33  S      0.44585     0.44339
            164  H 33  S      0.25264     0.40017
            165  H 34  S      0.45990     0.45980
            166  H 34  S      0.27189     0.41435

          ----- MULLIKEN ATOMIC OVERLAP POPULATIONS -----
          (OFF-DIAGONAL ELEMENTS NEED TO BE MULTIPLIED BY 2)

             1           2           3           4           5

    1    4.4286994
    2    0.2075867   5.5408543
    3    0.5166207  -0.0791716   8.1863393
    4    0.1659897  -0.0819276  -0.0537344   8.6151009
    5   -0.0534309   0.0029505   0.0012675   0.1915824   5.3375473
    6   -0.0067627  -0.0003080  -0.0041266  -0.0376844   0.2302201
    7   -0.0013420  -0.0001171   0.0008629  -0.0479695   0.2602379
    8    0.0002060  -0.0001804  -0.0009796   0.0017953  -0.0803621
    9    0.0039471  -0.0000510   0.0000447  -0.0479644   0.2675712
   10   -0.0001163  -0.0000046  -0.0000011  -0.0007872  -0.0496615
   11    0.0000019   0.0000001   0.0000000   0.0000669   0.0028663
   12   -0.0000000   0.0000000  -0.0000000  -0.0000002  -0.0000614
   13    0.0000000  -0.0000002  -0.0000000   0.0000011   0.0000007
   14   -0.0000000  -0.0000000  -0.0000000  -0.0000000   0.0000002
   15   -0.0445159   0.3615869   0.0029568   0.0019565  -0.0000810
   16   -0.0403009   0.3625173   0.0006967   0.0019670  -0.0000637
   17   -0.0374224   0.3569315   0.0012308   0.0034170  -0.0000626
   18    0.0002734   0.0001652   0.0119316  -0.0009915  -0.0348437
   19    0.0003224   0.0000047   0.0001081   0.0013973  -0.0440796
   20    0.0000547  -0.0000465  -0.0002720   0.0006231  -0.0459942
   21    0.0001388   0.0000024  -0.0000038   0.0010369  -0.0417907
   22   -0.0005892  -0.0000360  -0.0003972   0.0042028  -0.0025314
   23    0.0000009  -0.0000003  -0.0000043   0.0000770   0.0023247
   24   -0.0000321   0.0000011   0.0000015   0.0015718  -0.0445004
   25   -0.0000336  -0.0000114   0.0000008   0.0022838  -0.0420862
   26   -0.0000254   0.0000267   0.0000036   0.0089900  -0.0030756
   27    0.0000011  -0.0000001   0.0000000   0.0000262  -0.0021827
   28   -0.0000000   0.0000000  -0.0000000  -0.0000001  -0.0000209
   29    0.0000000  -0.0000000   0.0000000   0.0000000  -0.0000000
   30   -0.0000000  -0.0000000  -0.0000000  -0.0000000  -0.0000000
   31   -0.0000007   0.0000034  -0.0000000  -0.0000451  -0.0000009
   32   -0.0000000   0.0000000  -0.0000000   0.0000000  -0.0000000
   33    0.0000000  -0.0000000   0.0000000   0.0000000  -0.0000000
   34    0.0000000   0.0000000   0.0000000   0.0000000   0.0000000

             6           7           8           9          10

    6    5.4739856
    7   -0.0873427   5.3657896
    8    0.0018772   0.5199748   5.1886649
    9   -0.0861431  -0.1029758   0.0004687   5.5154584
   10   -0.0031506   0.0045425  -0.0000032   0.1837754   5.6211561
   11   -0.0000651  -0.0000366  -0.0000007  -0.0742790   0.2183719
   12   -0.0000017   0.0000004   0.0000000   0.0027010  -0.0644284
   13    0.0000001   0.0000000  -0.0000000   0.0001354  -0.0047387
   14    0.0000000  -0.0000000  -0.0000000  -0.0000474   0.0017436
   15    0.0000043   0.0000064   0.0000024   0.0000004  -0.0000000
   16   -0.0000054   0.0000001   0.0000019  -0.0000017  -0.0000005
   17    0.0000052  -0.0000177   0.0000167  -0.0000093  -0.0000004
   18    0.3682074  -0.0020587   0.0000994   0.0028537   0.0000067
   19    0.3573555   0.0009296  -0.0000664  -0.0011095   0.0000378
   20    0.3751758   0.0041122  -0.0000325  -0.0016672  -0.0000628
   21   -0.0001726   0.3873433  -0.0323447   0.0018286  -0.0000732
   22    0.0000992  -0.0554549   0.3955692   0.0000389  -0.0000028
   23   -0.0000306  -0.0470197   0.3896397  -0.0000490   0.0000004
   24    0.0026045   0.0013014   0.0004646   0.3761776  -0.0485699
   25    0.0034837  -0.0009434   0.0020351   0.3816432  -0.0463815
   26    0.0005252   0.0001724  -0.0000000  -0.0375822   0.3773146
   27    0.0021691  -0.0000041  -0.0000012  -0.0320322   0.3714699
   28    0.0000042  -0.0000000  -0.0000000   0.0003029  -0.0232548
   29    0.0000000   0.0000000   0.0000000  -0.0000019   0.0000462
   30    0.0000000  -0.0000000   0.0000000  -0.0000044   0.0001124
   31    0.0000001  -0.0000003   0.0000000   0.0000197   0.0006597
   32    0.0000000   0.0000000   0.0000000   0.0000033  -0.0000359
   33   -0.0000000   0.0000000   0.0000000  -0.0000001  -0.0000350
   34   -0.0000000   0.0000000  -0.0000000  -0.0000019   0.0001034

            11          12          13          14          15

   11    5.4588526
   12    0.2700353   5.6439591
   13   -0.0532434   0.2041534   5.4549905
   14   -0.0724677   0.2095075  -0.0649193   5.4517907
   15    0.0000000  -0.0000000   0.0000000  -0.0000000   0.4405126
   16   -0.0000000  -0.0000000  -0.0000000  -0.0000000  -0.0163027
   17   -0.0000000   0.0000000  -0.0000001   0.0000000  -0.0162795
   18    0.0000003   0.0000000  -0.0000000  -0.0000000  -0.0000011
   19   -0.0000174   0.0000002  -0.0000000  -0.0000000  -0.0000000
   20    0.0000822  -0.0000006   0.0000000  -0.0000000   0.0000012
   21    0.0000005   0.0000000  -0.0000000   0.0000000  -0.0000001
   22    0.0000000   0.0000000  -0.0000000   0.0000000   0.0000003
   23   -0.0000000   0.0000000  -0.0000000  -0.0000000  -0.0000000
   24   -0.0000639   0.0002009  -0.0000060  -0.0000011  -0.0000000
   25   -0.0031133   0.0002275   0.0001380  -0.0000069   0.0000000
   26   -0.0461157   0.0007205  -0.0001780   0.0000467   0.0000003
   27   -0.0436115   0.0022499   0.0001143  -0.0000361  -0.0000000
   28    0.3824464  -0.0512291   0.0014097   0.0008473  -0.0000000
   29    0.0015481  -0.0420087   0.3648103  -0.0007483  -0.0000000
   30    0.0017881  -0.0427384   0.3664422  -0.0011201  -0.0000000
   31   -0.0024413  -0.0430935   0.3773409   0.0020507  -0.0000000
   32    0.0020485  -0.0413955  -0.0006369   0.3642831   0.0000000
   33    0.0019646  -0.0420857  -0.0004954   0.3646935  -0.0000000
   34    0.0014060  -0.0498882   0.0021480   0.3819288  -0.0000000

            16          17          18          19          20

   16    0.4702304
   17   -0.0203262   0.4711118
   18   -0.0000075  -0.0000019   0.3944221
   19   -0.0000003  -0.0000000  -0.0166818   0.5202286
   20    0.0000106  -0.0000001  -0.0193066  -0.0246816   0.5032465
   21   -0.0000000   0.0000000   0.0004332   0.0008146  -0.0000218
   22   -0.0000008   0.0002546   0.0000065  -0.0000031   0.0000009
   23   -0.0000000  -0.0000001  -0.0000026  -0.0000011   0.0000003
   24   -0.0000000  -0.0000000  -0.0000366   0.0010780   0.0000499
   25    0.0000002   0.0000058  -0.0000354  -0.0000148  -0.0000923
   26    0.0000396   0.0000006  -0.0000168   0.0000076   0.0004200
   27   -0.0000001   0.0000000  -0.0000110   0.0003299   0.0002293
   28    0.0000000  -0.0000000  -0.0000000  -0.0000004   0.0000012
   29   -0.0000000  -0.0000000  -0.0000000  -0.0000000   0.0000000
   30   -0.0000000  -0.0000000  -0.0000000   0.0000000   0.0000000
   31    0.0000013   0.0000018   0.0000000  -0.0000000  -0.0000007
   32    0.0000000   0.0000000  -0.0000000   0.0000000   0.0000000
   33    0.0000000  -0.0000000   0.0000000   0.0000000  -0.0000000
   34   -0.0000000  -0.0000000   0.0000000  -0.0000000   0.0000000

            21          22          23          24          25

   21    0.4358103
   22    0.0019337   0.4507948
   23   -0.0017802  -0.0171381   0.4277809
   24    0.0001779   0.0000084  -0.0000029   0.4907642
   25    0.0002151   0.0003456  -0.0000032  -0.0199863   0.4661476
   26   -0.0000040  -0.0000008  -0.0000000   0.0027380  -0.0007489
   27    0.0000009   0.0000000   0.0000000  -0.0013827   0.0023468
   28   -0.0000001  -0.0000000  -0.0000000   0.0010435   0.0001200
   29    0.0000000   0.0000000   0.0000000  -0.0000000  -0.0000002
   30    0.0000000  -0.0000000   0.0000000   0.0000002  -0.0000069
   31    0.0000000   0.0000000   0.0000000  -0.0000017   0.0000584
   32   -0.0000000  -0.0000000   0.0000000  -0.0000000  -0.0000000
   33   -0.0000000  -0.0000000   0.0000000   0.0000000   0.0000001
   34    0.0000000   0.0000000  -0.0000000   0.0000005  -0.0000002

            26          27          28          29          30

   26    0.4249537
   27   -0.0183049   0.4208376
   28    0.0014858  -0.0014825   0.3572666
   29   -0.0000409  -0.0000012  -0.0000328   0.4080259
   30    0.0000027  -0.0000024  -0.0000303  -0.0162011   0.4099708
   31    0.0034061   0.0000218   0.0000396  -0.0170238  -0.0177844
   32    0.0000003  -0.0000000   0.0000391   0.0001222   0.0004813
   33    0.0000009   0.0000017   0.0000391   0.0003973   0.0001195
   34   -0.0000007  -0.0000016   0.0014918  -0.0000226  -0.0000091

            31          32          33          34

   31    0.4172523
   32   -0.0000220   0.4068517
   33   -0.0000103  -0.0158914   0.4071032
   34   -0.0000338  -0.0172149  -0.0173138   0.4291902

          TOTAL MULLIKEN AND LOWDIN ATOMIC POPULATIONS
       ATOM         MULL.POP.    CHARGE          LOW.POP.     CHARGE
    1 C             5.139271    0.860729         5.648957    0.351043
    2 C             6.670776   -0.670776         6.311019   -0.311019
    3 O             8.583374   -0.583374         8.292046   -0.292046
    4 O             8.730981   -0.730981         8.333418   -0.333418
    5 C             5.851739    0.148261         5.823005    0.176995
    6 C             6.589924   -0.589924         6.273057   -0.273057
    7 C             6.199991   -0.199991         6.127309   -0.127309
    8 C             6.386845   -0.386845         6.164049   -0.164049
    9 C             6.353050   -0.353050         6.143111   -0.143111
   10 C             6.538032   -0.538032         6.186435   -0.186435
   11 C             6.046024   -0.046024         5.868591    0.131409
   12 C             5.956824    0.043176         5.808728    0.191272
   13 C             6.647467   -0.647467         6.273429   -0.273429
   14 C             6.637545   -0.637545         6.270023   -0.270023
   15 H             0.729848    0.270152         0.869797    0.130203
   16 H             0.758455    0.241545         0.880025    0.119975
   17 H             0.758855    0.241145         0.882303    0.117697
   18 H             0.704404    0.295596         0.861558    0.138442
   19 H             0.795958    0.204042         0.905019    0.094981
   20 H             0.791829    0.208171         0.907739    0.092261
   21 H             0.753545    0.246455         0.890925    0.109075
   22 H             0.777101    0.222899         0.898245    0.101755
   23 H             0.753792    0.246208         0.883076    0.116924
   24 H             0.763601    0.236399         0.899403    0.100597
   25 H             0.745587    0.254413         0.892886    0.107114
   26 H             0.714761    0.285239         0.876415    0.123585
   27 H             0.700745    0.299255         0.859155    0.140845
   28 H             0.670486    0.329514         0.851768    0.148232
   29 H             0.698869    0.301131         0.842802    0.157198
   30 H             0.701020    0.298980         0.845260    0.154740
   31 H             0.720397    0.279603         0.869192    0.130808
   32 H             0.698633    0.301367         0.843530    0.156470
   33 H             0.698488    0.301512         0.843565    0.156435
   34 H             0.731782    0.268218         0.874157    0.125843

          -------------------------------
          BOND ORDER AND VALENCE ANALYSIS     BOND ORDER THRESHOLD=0.050
          -------------------------------

                   BOND                       BOND                       BOND
  ATOM PAIR DIST  ORDER      ATOM PAIR DIST  ORDER      ATOM PAIR DIST  ORDER
    1   2  1.513  0.867        1   3  1.213  1.795        1   4  1.356  0.829
    2  15  1.090  0.896        2  16  1.096  0.906        2  17  1.094  0.905
    3   4  2.282  0.078        4   5  1.470  0.741        5   6  1.537  0.890
    5   7  1.517  0.889        5   9  1.550  0.887        6  18  1.090  0.886
    6  19  1.096  0.914        6  20  1.093  0.922        7   8  1.333  1.824
    7  21  1.090  0.918        8  22  1.086  0.936        8  23  1.086  0.928
    9  10  1.543  0.848        9  24  1.098  0.909        9  25  1.096  0.906
   10  11  1.507  0.944       10  26  1.093  0.885       10  27  1.098  0.866
   11  12  1.345  1.309       11  28  1.092  0.883       12  13  1.511  0.927
   12  14  1.512  0.927       13  29  1.099  0.867       13  30  1.098  0.870
   13  31  1.092  0.895       14  32  1.099  0.868       14  33  1.099  0.869
   14  34  1.094  0.906

                       TOTAL       BONDED        FREE
      ATOM            VALENCE     VALENCE     VALENCE
    1 C                 3.474       3.474       0.000
    2 C                 3.586       3.586       0.000
    3 O                 1.946       1.946       0.000
    4 O                 1.716       1.716       0.000
    5 C                 3.337       3.336       0.001
    6 C                 3.585       3.585       0.000
    7 C                 3.636       3.567       0.069
    8 C                 3.754       3.681       0.074
    9 C                 3.521       3.519       0.002
   10 C                 3.495       3.491       0.004
   11 C                 3.395       3.126       0.269
   12 C                 3.313       3.141       0.172
   13 C                 3.528       3.525       0.002
   14 C                 3.529       3.527       0.003
   15 H                 0.893       0.893       0.000
   16 H                 0.903       0.903       0.000
   17 H                 0.905       0.905       0.000
   18 H                 0.896       0.896       0.000
   19 H                 0.916       0.916       0.000
   20 H                 0.918       0.918       0.000
   21 H                 0.909       0.909       0.001
   22 H                 0.925       0.925       0.001
   23 H                 0.913       0.912       0.001
   24 H                 0.901       0.901       0.000
   25 H                 0.896       0.896       0.000
   26 H                 0.891       0.891       0.000
   27 H                 0.872       0.871       0.001
   28 H                 0.866       0.864       0.002
   29 H                 0.875       0.874       0.001
   30 H                 0.876       0.876       0.001
   31 H                 0.891       0.891       0.000
   32 H                 0.875       0.874       0.001
   33 H                 0.875       0.874       0.001
   34 H                 0.895       0.895       0.000

          -----------------------------------------
          ATOMIC SPIN DENSITY AT THE NUCLEUS (A.U.)
          -----------------------------------------
                            SPIN DENS    ALPHA DENS     BETA DENS
    1  C            6.0    -0.0000482      46.98126      46.98131
    2  C            6.0    -0.0001233      47.00250      47.00262
    3  O            8.0     0.0001301     116.94123     116.94110
    4  O            8.0    -0.0019227     116.79754     116.79946
    5  C            6.0     0.0172308      47.10929      47.09206
    6  C            6.0    -0.0057128      47.00305      47.00876
    7  C            6.0    -0.0651036      46.97806      47.04317
    8  C            6.0     0.0631860      47.00451      46.94133
    9  C            6.0     0.0059027      47.05642      47.05051
   10  C            6.0    -0.0292395      47.03206      47.06130
   11  C            6.0     0.0924359      47.13288      47.04044
   12  C            6.0     0.0717268      47.14087      47.06914
   13  C            6.0    -0.0221505      46.98712      47.00928
   14  C            6.0    -0.0233650      46.98698      47.01034
   15  H            1.0    -0.0000142       0.17954       0.17956
   16  H            1.0    -0.0000142       0.17897       0.17899
   17  H            1.0    -0.0000104       0.17980       0.17981
   18  H            1.0     0.0004745       0.17890       0.17843
   19  H            1.0     0.0002559       0.18227       0.18201
   20  H            1.0     0.0000951       0.18324       0.18315
   21  H            1.0     0.0072919       0.18580       0.17851
   22  H            1.0    -0.0073485       0.17911       0.18646
   23  H            1.0    -0.0073830       0.17806       0.18544
   24  H            1.0    -0.0009263       0.18186       0.18278
   25  H            1.0    -0.0009111       0.18172       0.18263
   26  H            1.0     0.0013268       0.18138       0.18005
   27  H            1.0     0.0114972       0.18248       0.17098
   28  H            1.0    -0.0141284       0.17307       0.18720
   29  H            1.0     0.0121223       0.17966       0.16754
   30  H            1.0     0.0104919       0.17948       0.16899
   31  H            1.0     0.0007501       0.18039       0.17964
   32  H            1.0     0.0127203       0.18017       0.16745
   33  H            1.0     0.0122446       0.17993       0.16769
   34  H            1.0     0.0007248       0.18017       0.17944

          ---------------------
          ELECTROSTATIC MOMENTS
          ---------------------

 POINT   1           X           Y           Z (BOHR)    CHARGE
                 0.099731   -0.026309    0.070384        1.00 (A.U.)
         DX          DY          DZ         /D/  (DEBYE)
   -15.442917   -0.837047   -0.995305   15.497579
 ...... END OF PROPERTY EVALUATION ......
 CPU     0: STEP CPU TIME=     0.05 TOTAL CPU TIME=         21.6 (      0.4 MIN)
 TOTAL WALL CLOCK TIME=         36.6 SECONDS, CPU UTILIZATION IS    59.01%
               580000  WORDS OF DYNAMIC MEMORY USED
 EXECUTION OF GAMESS TERMINATED NORMALLY Mon May 25 19:11:17 2020
 DDI: 263640 bytes (0.3 MB / 0 MWords) used by master data server.
Note: The following floating-point exceptions are signalling: IEEE_DENORMALNote: The following floating-point exceptions are signalling: IEEE_DENORMALNote: The following floating-point exceptions are signalling:
Note: The following floating-point exceptions are signalling:
 ----------------------------------------
 CPU timing information for all processes
 ========================================
 0: 21.166 + 0.420 = 21.586
 1: 21.448 + 0.262 = 21.711
 2: 21.80 + 0.213 = 21.293
 3: 20.522 + 0.239 = 20.761
 4: 21.176 + 0.179 = 21.355
 5: 20.886 + 0.228 = 21.114
 ----------------------------------------

 IEEE_DENORMAL
 IEEE_DENORMAL
Note: The following floating-point exceptions are signalling: IEEE_DENORMALNote: The following floating-point exceptions are signalling: IEEE_DENORMAL

 ddikick.x: exited gracefully.
unset echo
----- accounting info -----
Files used on the master node pietdev were:
-rwxr-xr-x 1 piet piet     1473 mei 25 19:10 /home/piet/scr/linalyl_acetate_fukui_base.F05*
-rw-r--r-- 1 piet piet 68812800 mei 25 19:11 /home/piet/scr/linalyl_acetate_fukui_base.F10
ls: No match.
ls: No match.
ls: No match.
ma 25 mei 2020 19:11:20 CEST
0.114u 0.019s 0:39.72 0.3%	0+0k 0+8io 0pf+0w
