----- GAMESS execution script 'rungms' -----
This job is running on host pietdev
under operating system Linux at ma 25 mei 2020 19:10:41 CEST
Available scratch disk space (Kbyte units) at beginning of the job is
Filesystem     1K-blocks     Used Available Use% Mounted on
/dev/sda2      244568380 31071476 201003848  14% /
GAMESS temporary binary files will be written to /home/piet/scr
GAMESS supplementary output files will be written to /home/piet/gamess/scr
Copying input file linalyl_acetate_fukui_acid.inp to your run's scratch directory...
cp linalyl_acetate_fukui_acid.inp /home/piet/scr/linalyl_acetate_fukui_acid.F05
unset echo
 
Assuming a single but multicore node.
 
/home/piet/gamess/ddikick.x /home/piet/gamess/gamess.03.x linalyl_acetate_fukui_acid -ddi 1 6 pietdev:cpus=6 -scr /home/piet/scr

 Distributed Data Interface kickoff program.
 Initiating 6 compute processes on 1 nodes to run the following command:
 /home/piet/gamess/gamess.03.x linalyl_acetate_fukui_acid 

          ******************************************************
          *         GAMESS VERSION = 30 SEP 2019 (R2)          *
          *             FROM IOWA STATE UNIVERSITY             *
          * M.W.SCHMIDT, K.K.BALDRIDGE, J.A.BOATZ, S.T.ELBERT, *
          *   M.S.GORDON, J.H.JENSEN, S.KOSEKI, N.MATSUNAGA,   *
          *          K.A.NGUYEN, S.J.SU, T.L.WINDUS,           *
          *       TOGETHER WITH M.DUPUIS, J.A.MONTGOMERY       *
          *         J.COMPUT.CHEM.  14, 1347-1363(1993)        *
          **************** 64 BIT LINUX VERSION ****************

  SINCE 1993, STUDENTS AND POSTDOCS WORKING AT IOWA STATE UNIVERSITY
  AND ALSO IN THEIR VARIOUS JOBS AFTER LEAVING ISU HAVE MADE IMPORTANT
  CONTRIBUTIONS TO THE CODE:
     IVANA ADAMOVIC, CHRISTINE AIKENS, YURI ALEXEEV, POOJA ARORA,
     ANDREY ASADCHEV, ROB BELL, PRADIPTA BANDYOPADHYAY, JONATHAN BENTZ,
     COLLEEN BERTONI, BRETT BODE, KURT BRORSEN, CALEB CARLIN, GALINA CHABAN,
     WEI CHEN, CHEOL HO CHOI, PAUL DAY, ALBERT DEFUSCO, NUWAN DESILVA,
     TIM DUDLEY, DMITRI FEDOROV, ALEX FINDLATER, GRAHAM FLETCHER, 
     MARK FREITAG, KURT GLAESEMANN, EMILIE B GUIDEZ, ANASTASIA GUNINA, 
     DAN KEMP, SAROM SOK LEANG, GRANT MERRILL,
     NORIYUKI MINEZAWA, JONATHAN MULLIN,
     TAKESHI NAGATA, SEAN NEDD, HEATHER NETZLOFF, BOSILJKA NJEGIC, RYAN OLSON,
     MIKE PAK, BUU PHAM, DAVID POOLE,
     SPENCER PRUITT, LUKE ROSKOP, TOSAPORN SATTASATHUCHANA,
     JIM SHOEMAKER, LYUDMILA SLIPCHENKO,
     TONY SMITH, JIE SONG, TETSUYA TAKETSUGU, SIMON WEBB,
     JORGE LUIS GALVEZ VALLEJO, PENG XU, SOOHAENG YOO,
     FEDERICO ZAHARIEV

  ADDITIONAL CODE HAS BEEN PROVIDED BY COLLABORATORS IN OTHER GROUPS:
     IOWA STATE UNIVERSITY:
          JOE IVANIC, AARON WEST, LAIMUTIS BYTAUTAS, KLAUS RUEDENBERG
     UNIVERSITY OF TOKYO: KIMIHIKO HIRAO, TAKAHITO NAKAJIMA,
          TAKAO TSUNEDA, MUNEAKI KAMIYA, SUSUMU YANAGISAWA,
          KIYOSHI YAGI, MAHITO CHIBA, SEIKEN TOKURA, NAOAKI KAWAKAMI
     UNIVERSITY OF AARHUS: FRANK JENSEN
     UNIVERSITY OF IOWA: VISVALDAS KAIRYS, HUI LI
     NATIONAL INST. OF STANDARDS AND TECHNOLOGY: WALT STEVENS, DAVID GARMER
     UNIVERSITY OF PISA: BENEDETTA MENNUCCI, JACOPO TOMASI
     UNIVERSITY OF MEMPHIS: HENRY KURTZ, PRAKASHAN KORAMBATH
     UNIVERSITY OF ALBERTA: TOBY ZENG, MARIUSZ KLOBUKOWSKI
     UNIVERSITY OF NEW ENGLAND: MARK SPACKMAN
     MIE UNIVERSITY: HIROAKI UMEDA
     NAT. INST. OF ADVANCED INDUSTRIAL SCIENCE AND TECHNOLOGY: KAZUO KITAURA
     MICHIGAN STATE UNIVERSITY:
          KAROL KOWALSKI, MARTA WLOCH, JEFFREY GOUR, JESSE LUTZ,
          WEI LI, JUN SHEN, J. EMILIANO DEUSTUA, PIOTR PIECUCH
     UNIVERSITY OF MINNESOTA:
          ANDREW SAND, PRACHI SHARMA, YINAN SHU
     UNIVERSITY OF SILESIA: MONIKA MUSIAL, STANISLAW KUCHARSKI
     FACULTES UNIVERSITAIRES NOTRE-DAME DE LA PAIX:
          OLIVIER QUINET, BENOIT CHAMPAGNE
     UNIVERSITY OF CALIFORNIA - SANTA BARBARA: BERNARD KIRTMAN
     INSTITUTE FOR MOLECULAR SCIENCE:
          KAZUYA ISHIMURA, MICHIO KATOUDA, AND SHIGERU NAGASE
     UNIVERSITY OF NOTRE DAME: ANNA POMOGAEVA, DAN CHIPMAN
     KYUSHU UNIVERSITY:
          HARUYUKI NAKANO,
          FENG LONG GU, JACEK KORCHOWIEC, MARCIN MAKOWSKI, AND YURIKO AOKI,
          HIROTOSHI MORI AND EISAKU MIYOSHI
     PENNSYLVANIA STATE UNIVERSITY:
          TZVETELIN IORDANOV, CHET SWALINA, JONATHAN SKONE,
          SHARON HAMMES-SCHIFFER
     WASEDA UNIVERSITY:
          MASATO KOBAYASHI, TOMOKO AKAMA, TSUGUKI TOUMA,
          TAKESHI YOSHIKAWA, YASUHIRO IKABATA, JUNJI SEINO,
          YUYA NAKAJIMA, HIROMI NAKAI
     NANJING UNIVERSITY: SHUHUA LI
     UNIVERSITY OF NEBRASKA:
          PEIFENG SU, DEJUN SI, NANDUN THELLAMUREGE, YALI WANG, HUI LI
     UNIVERSITY OF ZURICH: ROBERTO PEVERATI, KIM BALDRIDGE
     N. COPERNICUS UNIVERSITY AND JACKSON STATE UNIVERSITY:
          MARIA BARYSZ
     UNIVERSITY OF COPENHAGEN: Jimmy Kromann, CASPER STEINMANN
     TOKYO INSTITUTE OF TECHNOLOGY: HIROYA NAKATA
     NAGOYA UNIVERSITY: YOSHIO NISHIMOTO, STEPHAN IRLE
     MOSCOW STATE UNIVERSITY: VLADIMIR MIRONOV
     A.N.NESMEYANOV INSTITUTE OF ORGANOELEMENT COMPOUNDS OF RUSSIAN ACADEMY OF SCIENCES:
          IGOR S. GERASIMOV
     JOHANNES KEPLER UNIVERSITY LINZ:
          CHRISTIAN FRIEDL


 PARALLEL VERSION RUNNING ON        6 PROCESSORS IN        1 NODES.

 EXECUTION OF GAMESS BEGUN Mon May 25 19:10:41 2020

            ECHO OF THE FIRST FEW INPUT CARDS -
 INPUT CARD> $BASIS GBASIS=N21 NGAUSS=3 $END                                                
 INPUT CARD> $CONTRL SCFTYP=UHF MAXIT=60 MULT=2 ICHARG=-1 $END                              
 INPUT CARD> $SYSTEM MEMDDI=1000 MWORDS=30 $END                                             
 INPUT CARD> $SCF DIRSCF=.TRUE. $END                                                        
 INPUT CARD> $STATPT OPTTOL=0.0001 NSTEP=999 $END                                           
 INPUT CARD> $DATA                                                                          
 INPUT CARD>                                                                                
 INPUT CARD>C1                                                                              
 INPUT CARD>C 6.0000000 2.55806 -1.10163 0.29447                                            
 INPUT CARD>C 6.0000000 2.50420 -2.58020 -0.02301                                           
 INPUT CARD>O 8.0000000 3.52611 -0.53063 0.75001                                            
 INPUT CARD>O 8.0000000 1.36790 -0.51784 0.01006                                            
 INPUT CARD>C 6.0000000 1.12092 0.91205 0.24626                                             
 INPUT CARD>C 6.0000000 1.42216 1.29732 1.70340                                             
 INPUT CARD>C 6.0000000 1.92140 1.76709 -0.71804                                            
 INPUT CARD>C 6.0000000 2.45727 1.37689 -1.87481                                            
 INPUT CARD>C 6.0000000 -0.38215 1.07297 -0.09627                                           
 INPUT CARD>C 6.0000000 -1.36938 0.32096 0.82065                                            
 INPUT CARD>C 6.0000000 -2.79864 0.50827 0.37948                                            
 INPUT CARD>C 6.0000000 -3.63700 -0.40126 -0.14832                                          
 INPUT CARD>C 6.0000000 -3.28613 -1.84590 -0.41697                                          
 INPUT CARD>C 6.0000000 -5.05324 -0.02634 -0.52106                                          
 INPUT CARD>H 1.0000000 3.51061 -2.99649 0.02858                                            
 INPUT CARD>H 1.0000000 1.86569 -3.08805 0.70826                                            
 INPUT CARD>H 1.0000000 2.07020 -2.74999 -1.01224                                           
 INPUT CARD>H 1.0000000 2.49523 1.32453 1.89088                                             
 INPUT CARD>H 1.0000000 0.99919 2.28752 1.90765                                             
 INPUT CARD>H 1.0000000 0.96543 0.58498 2.39574                                             
 INPUT CARD>H 1.0000000 2.00655 2.81032 -0.41421                                            
 INPUT CARD>H 1.0000000 2.40017 0.34818 -2.21936                                            
 INPUT CARD>H 1.0000000 2.98870 2.07866 -2.51029                                            
 INPUT CARD>H 1.0000000 -0.61183 2.14628 -0.08585                                           
 INPUT CARD>H 1.0000000 -0.51961 0.73582 -1.12962                                           
 INPUT CARD>H 1.0000000 -1.09515 -0.73704 0.84932                                           
 INPUT CARD>H 1.0000000 -1.27405 0.69846 1.84728                                            
 INPUT CARD>H 1.0000000 -3.18464 1.52201 0.50684                                            
 INPUT CARD>H 1.0000000 -3.93019 -2.51646 0.16845                                           
 INPUT CARD>H 1.0000000 -3.46332 -2.08925 -1.47312                                          
 INPUT CARD>H 1.0000000 -2.24716 -2.09043 -0.18757                                          
 INPUT CARD>H 1.0000000 -5.24089 -0.20235 -1.58918                                          
 INPUT CARD>H 1.0000000 -5.77884 -0.64228 0.02798                                           
 INPUT CARD>H 1.0000000 -5.26913 1.02450 -0.30590                                           
 INPUT CARD> $END                                                                           
   30000000 WORDS OF MEMORY AVAILABLE

     BASIS OPTIONS
     -------------
     GBASIS=N21          IGAUSS=       3      POLAR=NONE    
     NDFUNC=       0     NFFUNC=       0     DIFFSP=       F
     NPFUNC=       0      DIFFS=       F     BASNAM=        


     RUN TITLE
     ---------
                                                                                 

 THE POINT GROUP OF THE MOLECULE IS C1      
 THE ORDER OF THE PRINCIPAL AXIS IS     0

 ATOM      ATOMIC                      COORDINATES (BOHR)
           CHARGE         X                   Y                   Z
 C           6.0     4.8340324602       -2.0817788399        0.5564676116
 C           6.0     4.7322518185       -4.8758709935       -0.0434825950
 O           8.0     6.6633817026       -1.0027453009        1.4173133881
 O           8.0     2.5849561786       -0.9785757055        0.0190106434
 C           6.0     2.1182316542        1.7235245871        0.4653639217
 C           6.0     2.6874927107        2.4515793184        3.2189592475
 C           6.0     3.6309195128        3.3393158956       -1.3568988482
 C           6.0     4.6435669778        2.6019448152       -3.5428771790
 C           6.0    -0.7221587862        2.0276192930       -0.1819239208
 C           6.0    -2.5877529731        0.6065264530        1.5508036318
 C           6.0    -5.2886627383        0.9604910278        0.7171132178
 C           6.0    -6.8729334173       -0.7582714498       -0.2802841585
 C           6.0    -6.2098852600       -3.4882452007       -0.7879590451
 C           6.0    -9.5492389502       -0.0497753825       -0.9846606232
 H           1.0     6.6340909498       -5.6625450249        0.0540083687
 H           1.0     3.5256428780       -5.8355683364        1.3384173281
 H           1.0     3.9121107398       -5.1967275690       -1.9128562338
 H           1.0     4.7153009763        2.5029987625        3.5732450757
 H           1.0     1.8881953097        4.3227859914        3.6049357805
 H           1.0     1.8243981603        1.1054519083        4.5272921378
 H           1.0     3.7918296807        5.3107347378       -0.7827434014
 H           1.0     4.5356636240        0.6579647944       -4.1939822681
 H           1.0     5.6478240595        3.9280978216       -4.7437602497
 H           1.0    -1.1561910511        4.0558810929       -0.1622329760
 H           1.0    -0.9819205205        1.3904981763       -2.1346722703
 H           1.0    -2.0695334155       -1.3928036420        1.6049820759
 H           1.0    -2.4076053947        1.3198980134        3.4908530226
 H           1.0    -6.0180969695        2.8761818506        0.9577887196
 H           1.0    -7.4269821797       -4.7554198591        0.3183243426
 H           1.0    -6.5447258078       -3.9481100198       -2.7837931470
 H           1.0    -4.2465166506       -3.9503398965       -0.3544559035
 H           1.0    -9.9038460318       -0.3823860536       -3.0031147452
 H           1.0   -10.9204241269       -1.2137332074        0.0528745331
 H           1.0    -9.9572118937        1.9360242744       -0.5780671796

          INTERNUCLEAR DISTANCES (ANGS.)
          ------------------------------

                1 C          2 C          3 O          4 O          5 C     

   1 C       0.0000000    1.5132296 *  1.2127153 *  1.3557952 *  2.4743894 *
   2 C       1.5132296 *  0.0000000    2.4171465 *  2.3549098 *  3.7658704  
   3 O       1.2127153 *  2.4171465 *  0.0000000    2.2815696 *  2.8495664 *
   4 O       1.3557952 *  2.3549098 *  2.2815696 *  0.0000000    1.4701615 *
   5 C       2.4743894 *  3.7658704    2.8495664 *  1.4701615 *  0.0000000  
   6 C       3.0050480    4.3802355    2.9456679 *  2.4829721 *  1.5370216 *
   7 C       3.1080648    4.4409068    3.1638240    2.4611780 *  1.5171474 *
   8 C       3.2952990    4.3692021    3.4162452    2.8860810 *  2.5496756 *
   9 C       3.6778251    4.6563971    4.3083894    2.3674158 *  1.5499811 *
  10 C       4.2101559    4.9125465    4.9695088    2.9754568 *  2.6231480 *
  11 C       5.5940361    6.1498583    6.4202078    4.3069047    3.9425546  
  12 C       6.2502280    6.5175010    7.2203794    5.0087622    4.9515936  
  13 C       5.9341926    5.8499848    7.0355093    4.8586102    5.2410163  
  14 C       7.7300211    7.9928189    8.6876449    6.4617876    6.2920273  
  15 H       2.1374151 *  1.0903302 *  2.5692736 *  3.2764699    4.5863589  
  16 H       2.1439363 *  1.0956105 *  3.0494483    2.7094755 *  4.0949880  
  17 H       2.1593029 *  1.0935084 *  3.1860254    2.5535889 *  3.9869151  
  18 H       2.9049483 *  4.3485597    2.4095470 *  2.8640328 *  2.1825771 *
  19 H       4.0643281    5.4485963    3.9582098    3.4068812    2.1603131 *
  20 H       3.1299296    4.2704249    3.2419277    2.6588838 *  2.1797743 *
  21 H       4.0136945    5.4275592    3.8505088    3.4153371    2.1963584 *
  22 H       2.9062380 *  3.6619919    3.2950275    2.6049732 *  2.8343803 *
  23 H       4.2622029    5.3034214    4.2103159    3.9649677    3.5281934  
  24 H       4.5543128    5.6615550    4.9987055    3.3205519    2.1531473 *
  25 H       3.8569817    4.6221209    4.6373219    2.5363809 *  2.1483579 *
  26 H       3.7130483    4.1368489    4.6269333    2.6113256 *  2.8273920 *
  27 H       4.5096131    5.3406712    5.0750566    3.4401545    2.8887310 *
  28 H       6.3172139    7.0336170    7.0218679    5.0133221    4.3563517  
  29 H       6.6419134    6.4375534    7.7380968    5.6647442    6.1052803  
  30 H       6.3526990    6.1607748    7.4982488    5.2924322    5.7427629  
  31 H       4.9295261    4.7793699    6.0533197    3.9472466    4.5328862  
  32 H       8.0734418    8.2518773    9.0796402    6.8068501    6.7144139  
  33 H       8.3537968    8.5068728    9.3335892    7.1478458    7.0760353  
  34 H       8.1330054    8.5731294    8.9938658    6.8212030    6.4148472  

                6 C          7 C          8 C          9 C         10 C     

   1 C       3.0050480    3.1080648    3.2952990    3.6778251    4.2101559  
   2 C       4.3802355    4.4409068    4.3692021    4.6563971    4.9125465  
   3 O       2.9456679 *  3.1638240    3.4162452    4.3083894    4.9695088  
   4 O       2.4829721 *  2.4611780 *  2.8860810 *  2.3674158 *  2.9754568 *
   5 C       1.5370216 *  1.5171474 *  2.5496756 *  1.5499811 *  2.6231480 *
   6 C       0.0000000    2.5166041 *  3.7257712    2.5582571 *  3.0862958  
   7 C       2.5166041 *  0.0000000    1.3332402 *  2.4849030 *  3.9099990  
   8 C       3.7257712    1.3332402 *  0.0000000    3.3642054    4.7983063  
   9 C       2.5582571 *  2.4849030 *  3.3642054    0.0000000    1.5430115 *
  10 C       3.0862958    3.9099990    4.7983063    1.5430115 *  0.0000000  
  11 C       4.4933859    5.0067909    5.7845410    2.5267861 *  1.5074814 *
  12 C       5.6488177    5.9935076    6.5789598    3.5735293    2.5695535 *
  13 C       6.0451465    6.3452903    6.7452440    4.1298608    3.1465721  
  14 C       6.9736005    7.2042207    7.7594751    4.8174693    3.9359405  
  15 H       5.0599852    5.0768814    4.8845544    5.6329098    5.9537511  
  16 H       4.5186826    5.0606146    5.1921004    4.7973056    4.7010274  
  17 H       4.9168460    4.5290956    4.2337913    4.6333621    4.9619482  
  18 H       1.0896643 *  2.7076934 *  3.7662453    3.5059041    4.1337338  
  19 H       1.0959552 *  2.8311776 *  4.1547861    2.7200969 *  3.2648202  
  20 H       1.0933276 *  3.4650958    4.5924182    2.8747556 *  2.8287723 *
  21 H       2.6673869 *  1.0899046 *  2.0955244 *  2.9707505 *  4.3724931  
  22 H       4.1527601    2.1204924 *  1.0863790 *  3.5740924    4.8427171  
  23 H       4.5628635    2.1091148 *  1.0856951 *  4.2663257    5.7599941  
  24 H       2.8388843 *  2.6383145 *  3.6347921    1.0976593 *  2.1742625 *
  25 H       3.4801947    2.6816871 *  3.1349790    1.0956174 *  2.1674342 *
  26 H       3.3473755    4.2221864    4.9506840    2.1630177 *  1.0933380 *
  27 H       2.7656614 *  4.2348244    5.3138470    2.1709744 *  1.0979814 *
  28 H       4.7649604    5.2566187    6.1257216    2.9016080 *  2.1991286 *
  29 H       6.7489732    7.3058723    7.7545297    5.0539759    3.8773786  
  30 H       6.7399592    6.6660868    6.8723262    4.6248200    3.9312947  
  31 H       5.3400868    5.7042748    6.0828241    3.6733769    2.7571375 *
  32 H       7.5819739    7.4790358    7.8636665    5.2404748    4.5901769  
  33 H       7.6435255    8.1027962    8.6908668    5.6640784    4.5825205  
  34 H       6.9917865    7.2405125    7.8919525    4.8917142    4.1197249  

               11 C         12 C         13 C         14 C         15 H     

   1 C       5.5940361    6.2502280    5.9341926    7.7300211    2.1374151 *
   2 C       6.1498583    6.5175010    5.8499848    7.9928189    1.0903302 *
   3 O       6.4202078    7.2203794    7.0355093    8.6876449    2.5692736 *
   4 O       4.3069047    5.0087622    4.8586102    6.4617876    3.2764699  
   5 C       3.9425546    4.9515936    5.2410163    6.2920273    4.5863589  
   6 C       4.4933859    5.6488177    6.0451465    6.9736005    5.0599852  
   7 C       5.0067909    5.9935076    6.3452903    7.2042207    5.0768814  
   8 C       5.7845410    6.5789598    6.7452440    7.7594751    4.8845544  
   9 C       2.5267861 *  3.5735293    4.1298608    4.8174693    5.6329098  
  10 C       1.5074814 *  2.5695535 *  3.1465721    3.9359405    5.9537511  
  11 C       0.0000000    1.3448662 *  2.5326065 *  2.4859608 *  7.2258639  
  12 C       1.3448662 *  0.0000000    1.5107175 *  1.5116997 *  7.6062370  
  13 C       2.5326065 *  1.5107175 *  0.0000000    2.5385648 *  6.9078250  
  14 C       2.4859608 *  1.5116997 *  2.5385648 *  0.0000000    9.0809373  
  15 H       7.2258639    7.6062370    6.9078250    9.0809373    0.0000000  
  16 H       5.8989481    6.1832166    5.4175943    7.6653042    1.7821644 *
  17 H       6.0215235    6.2317752    5.4646131    7.6421806    1.7941152 *
  18 H       5.5655790    6.6888663    6.9858372    8.0387626    4.8135612  
  19 H       4.4636921    5.7402795    6.3916341    6.9198619    6.1448268  
  20 H       4.2707624    5.3504460    5.6476790    6.7160869    4.9908231  
  21 H       5.3869499    6.4988153    7.0493158    7.6091190    6.0147570  
  22 H       5.8143980    6.4263745    6.3558323    7.6536141    4.1800872  
  23 H       6.6565907    7.4584721    7.6914011    8.5475646    5.6987190  
  24 H       2.7715964 *  3.9554413    4.8165363    4.9634472    6.5920929  
  25 H       2.7428342 *  3.4603498    3.8505559    4.6373521    5.6137544  
  26 H       2.1618105 *  2.7511880 *  2.7628706 *  4.2484718    5.1953589  
  27 H       2.1248491 *  3.2825807    3.9558895    4.5184783    6.3129467  
  28 H       1.0921929 *  2.0815455 *  3.4937863    2.6354567 *  8.0914737  
  29 H       3.2363453    2.1587901 *  1.0987177 *  2.8173326 *  7.4575798  
  30 H       3.2589932    2.1528052 *  1.0982114 *  2.7730600 *  7.1912368  
  31 H       2.7164163 *  2.1878051 *  1.0917316 *  3.4993954    5.8326307  
  32 H       3.2163936    2.1652034 *  2.8100569 *  1.0986685 *  9.3280822  
  33 H       3.2138621    2.1625566 *  2.8036199 *  1.0987822 *  9.5831199  
  34 H       2.6152552 *  2.1728947 *  3.4905332    1.0941513 *  9.6625086  

               16 H         17 H         18 H         19 H         20 H     

   1 C       2.1439363 *  2.1593029 *  2.9049483 *  4.0643281    3.1299296  
   2 C       1.0956105 *  1.0935084 *  4.3485597    5.4485963    4.2704249  
   3 O       3.0494483    3.1860254    2.4095470 *  3.9582098    3.2419277  
   4 O       2.7094755 *  2.5535889 *  2.8640328 *  3.4068812    2.6588838 *
   5 C       4.0949880    3.9869151    2.1825771 *  2.1603131 *  2.1797743 *
   6 C       4.5186826    4.9168460    1.0896643 *  1.0959552 *  1.0933276 *
   7 C       5.0606146    4.5290956    2.7076934 *  2.8311776 *  3.4650958  
   8 C       5.1921004    4.2337913    3.7662453    4.1547861    4.5924182  
   9 C       4.7973056    4.6333621    3.5059041    2.7200969 *  2.8747556 *
  10 C       4.7010274    4.9619482    4.1337338    3.2648202    2.8287723 *
  11 C       5.8989481    6.0215235    5.5655790    4.4636921    4.2707624  
  12 C       6.1832166    6.2317752    6.6888663    5.7402795    5.3504460  
  13 C       5.4175943    5.4646131    6.9858372    6.3916341    5.6476790  
  14 C       7.6653042    7.6421806    8.0387626    6.9198619    6.7160869  
  15 H       1.7821644 *  1.7941152 *  4.8135612    6.1448268    4.9908231  
  16 H       0.0000000    1.7652844 *  4.6114827    5.5754920    4.1411600  
  17 H       1.7652844 *  0.0000000    5.0210028    5.9202472    4.8945755  
  18 H       4.6114827    5.0210028    0.0000000    1.7792601 *  1.7725986 *
  19 H       5.5754920    5.9202472    1.7792601 *  0.0000000    1.7714441 *
  20 H       4.1411600    4.8945755    1.7725986 *  1.7714441 *  0.0000000  
  21 H       6.0058762    5.5927398    2.7856453 *  2.5844009 *  3.7325444  
  22 H       4.5458007    3.3413584    4.2256797    4.7703245    4.8387706  
  23 H       6.1899199    5.1384489    4.4924962    4.8497388    5.5130601  
  24 H       5.8452482    5.6590585    3.7731361    2.5669781 *  3.3292185  
  25 H       4.8671800    4.3441645    4.3080460    3.7335687    3.8283495  
  26 H       3.7833477    4.1876979    4.2691623    3.8280916    2.8957109 *
  27 H       5.0490585    5.5904088    3.8211695    2.7742344 *  2.3084533 *
  28 H       6.8409836    6.9405282    5.8494007    4.4780250    4.6550026  
  29 H       5.8489602    6.1199057    7.6815357    7.0994245    6.2086106  
  30 H       5.8441738    5.5918540    7.6468757    7.1063153    6.4601401  
  31 H       4.3258863    4.4446257    6.2025937    5.8391079    4.9144729  
  32 H       8.0068080    7.7637212    8.6191492    7.5740261    7.4174041  
  33 H       8.0550239    8.1934076    8.7062605    7.6196180    7.2524225  
  34 H       8.2974240    8.2832032    8.0747227    6.7665988    6.8089482  

               21 H         22 H         23 H         24 H         25 H     

   1 C       4.0136945    2.9062380 *  4.2622029    4.5543128    3.8569817  
   2 C       5.4275592    3.6619919    5.3034214    5.6615550    4.6221209  
   3 O       3.8505088    3.2950275    4.2103159    4.9987055    4.6373219  
   4 O       3.4153371    2.6049732 *  3.9649677    3.3205519    2.5363809 *
   5 C       2.1963584 *  2.8343803 *  3.5281934    2.1531473 *  2.1483579 *
   6 C       2.6673869 *  4.1527601    4.5628635    2.8388843 *  3.4801947  
   7 C       1.0899046 *  2.1204924 *  2.1091148 *  2.6383145 *  2.6816871 *
   8 C       2.0955244 *  1.0863790 *  1.0856951 *  3.6347921    3.1349790  
   9 C       2.9707505 *  3.5740924    4.2663257    1.0976593 *  1.0956174 *
  10 C       4.3724931    4.8427171    5.7599941    2.1742625 *  2.1674342 *
  11 C       5.3869499    5.8143980    6.6565907    2.7715964 *  2.7428342 *
  12 C       6.4988153    6.4263745    7.4584721    3.9554413    3.4603498  
  13 C       7.0493158    6.3558323    7.6914011    4.8165363    3.8505559  
  14 C       7.6091190    7.6536141    8.5475646    4.9634472    4.6373521  
  15 H       6.0147570    4.1800872    5.6987190    6.5920929    5.6137544  
  16 H       6.0058762    4.5458007    6.1899199    5.8452482    4.8671800  
  17 H       5.5927398    3.3413584    5.1384489    5.6590585    4.3441645  
  18 H       2.7856453 *  4.2256797    4.4924962    3.7731361    4.3080460  
  19 H       2.5844009 *  4.7703245    4.8497388    2.5669781 *  3.7335687  
  20 H       3.7325444    4.8387706    5.5130601    3.3292185    3.8283495  
  21 H       0.0000000    3.0782522    2.4276524 *  2.7211548 *  3.3461689  
  22 H       3.0782522    0.0000000    1.8508292 *  4.1057487    3.1405275  
  23 H       2.4276524 *  1.8508292 *  0.0000000    4.3412323    4.0022129  
  24 H       2.7211548 *  4.1057487    4.3412323    0.0000000    1.7570879 *
  25 H       3.3461689    3.1405275    4.0022129    1.7570879 *  0.0000000  
  26 H       4.8786078    4.7761660    5.9910748    3.0694748    2.5331337 *
  27 H       4.5096148    5.4918257    6.2501525    2.5043382 *  3.0712390  
  28 H       5.4273870    6.3245669    6.8936971    2.7129957 *  3.2246676  
  29 H       7.9974346    7.3471938    8.7270737    5.7286408    4.8881865  
  30 H       7.4193365    6.3936261    7.7508553    5.2910517    4.0944403  
  31 H       6.4932861    5.6278473    7.0845303    4.5425062    3.4437736  
  32 H       7.9361276    7.6867424    8.5893889    5.4040966    4.8354776  
  33 H       8.5280875    8.5397747    9.5244993    5.8725647    5.5586597  
  34 H       7.4924231    7.9332780    8.6117562    4.7955454    4.8290569  

               26 H         27 H         28 H         29 H         30 H     

   1 C       3.7130483    4.5096131    6.3172139    6.6419134    6.3526990  
   2 C       4.1368489    5.3406712    7.0336170    6.4375534    6.1607748  
   3 O       4.6269333    5.0750566    7.0218679    7.7380968    7.4982488  
   4 O       2.6113256 *  3.4401545    5.0133221    5.6647442    5.2924322  
   5 C       2.8273920 *  2.8887310 *  4.3563517    6.1052803    5.7427629  
   6 C       3.3473755    2.7656614 *  4.7649604    6.7489732    6.7399592  
   7 C       4.2221864    4.2348244    5.2566187    7.3058723    6.6660868  
   8 C       4.9506840    5.3138470    6.1257216    7.7545297    6.8723262  
   9 C       2.1630177 *  2.1709744 *  2.9016080 *  5.0539759    4.6248200  
  10 C       1.0933380 *  1.0979814 *  2.1991286 *  3.8773786    3.9312947  
  11 C       2.1618105 *  2.1248491 *  1.0921929 *  3.2363453    3.2589932  
  12 C       2.7511880 *  3.2825807    2.0815455 *  2.1587901 *  2.1528052 *
  13 C       2.7628706 *  3.9558895    3.4937863    1.0987177 *  1.0982114 *
  14 C       4.2484718    4.5184783    2.6354567 *  2.8173326 *  2.7730600 *
  15 H       5.1953589    6.3129467    8.0914737    7.4575798    7.1912368  
  16 H       3.7833477    5.0490585    6.8409836    5.8489602    5.8441738  
  17 H       4.1876979    5.5904088    6.9405282    6.1199057    5.5918540  
  18 H       4.2691623    3.8211695    5.8494007    7.6815357    7.6468757  
  19 H       3.8280916    2.7742344 *  4.4780250    7.0994245    7.1063153  
  20 H       2.8957109 *  2.3084533 *  4.6550026    6.2086106    6.4601401  
  21 H       4.8786078    4.5096148    5.4273870    7.9974346    7.4193365  
  22 H       4.7761660    5.4918257    6.3245669    7.3471938    6.3936261  
  23 H       5.9910748    6.2501525    6.8936971    8.7270737    7.7508553  
  24 H       3.0694748    2.5043382 *  2.7129957 *  5.7286408    5.2910517  
  25 H       2.5331337 *  3.0712390    3.2246676    4.8881865    4.0944403  
  26 H       0.0000000    1.7574384 *  3.0962183    3.4157534    3.5819588  
  27 H       1.7574384 *  0.0000000    2.4749481 *  4.4954711    4.8568803  
  28 H       3.0962183    2.4749481 *  0.0000000    4.1206301    4.1278448  
  29 H       3.4157534    4.4954711    4.1206301    0.0000000    1.7593260 *
  30 H       3.5819588    4.8568803    4.1278448    1.7593260 *  0.0000000  
  31 H       2.0576522 *  3.5868461    3.7961555    1.7722420 *  1.7696568 *
  32 H       4.8393528    5.3250855    3.4051257    3.1878367    2.5949213 *
  33 H       4.7561046    5.0398977    3.4122327    2.6362453 *  3.1158717  
  34 H       4.6754321    4.5500715    2.2919775 *  3.8152544    3.7840179  

               31 H         32 H         33 H         34 H     

   1 C       4.9295261    8.0734418    8.3537968    8.1330054  
   2 C       4.7793699    8.2518773    8.5068728    8.5731294  
   3 O       6.0533197    9.0796402    9.3335892    8.9938658  
   4 O       3.9472466    6.8068501    7.1478458    6.8212030  
   5 C       4.5328862    6.7144139    7.0760353    6.4148472  
   6 C       5.3400868    7.5819739    7.6435255    6.9917865  
   7 C       5.7042748    7.4790358    8.1027962    7.2405125  
   8 C       6.0828241    7.8636665    8.6908668    7.8919525  
   9 C       3.6733769    5.2404748    5.6640784    4.8917142  
  10 C       2.7571375 *  4.5901769    4.5825205    4.1197249  
  11 C       2.7164163 *  3.2163936    3.2138621    2.6152552 *
  12 C       2.1878051 *  2.1652034 *  2.1625566 *  2.1728947 *
  13 C       1.0917316 *  2.8100569 *  2.8036199 *  3.4905332  
  14 C       3.4993954    1.0986685 *  1.0987822 *  1.0941513 *
  15 H       5.8326307    9.3280822    9.5831199    9.6625086  
  16 H       4.3258863    8.0068080    8.0550239    8.2974240  
  17 H       4.4446257    7.7637212    8.1934076    8.2832032  
  18 H       6.2025937    8.6191492    8.7062605    8.0747227  
  19 H       5.8391079    7.5740261    7.6196180    6.7665988  
  20 H       4.9144729    7.4174041    7.2524225    6.8089482  
  21 H       6.4932861    7.9361276    8.5280875    7.4924231  
  22 H       5.6278473    7.6867424    8.5397747    7.9332780  
  23 H       7.0845303    8.5893889    9.5244993    8.6117562  
  24 H       4.5425062    5.4040966    5.8725647    4.7955454  
  25 H       3.4437736    4.8354776    5.5586597    4.8290569  
  26 H       2.0576522 *  4.8393528    4.7561046    4.6754321  
  27 H       3.5868461    5.3250855    5.0398977    4.5500715  
  28 H       3.7961555    3.4051257    3.4122327    2.2919775 *
  29 H       1.7722420 *  3.1878367    2.6362453 *  3.8152544  
  30 H       1.7696568 *  2.5949213 *  3.1158717    3.7840179  
  31 H       0.0000000    3.8068065    3.8231353    4.3415543  
  32 H       3.8068065    0.0000000    1.7601520 *  1.7756030 *
  33 H       3.8231353    1.7601520 *  0.0000000    1.7746650 *
  34 H       4.3415543    1.7756030 *  1.7746650 *  0.0000000  

  * ... LESS THAN  3.000


     ATOMIC BASIS SET
     ----------------
 THE CONTRACTED PRIMITIVE FUNCTIONS HAVE BEEN UNNORMALIZED
 THE CONTRACTED BASIS FUNCTIONS ARE NOW NORMALIZED TO UNITY

  SHELL TYPE  PRIMITIVE        EXPONENT          CONTRACTION COEFFICIENT(S)

 C         

      1   S       1           172.2560000    0.061766907377
      1   S       2            25.9109000    0.358794042852
      1   S       3             5.5333500    0.700713083689

      2   L       4             3.6649800   -0.395895162119    0.236459946619
      2   L       5             0.7705450    1.215834355681    0.860618805716

      3   L       6             0.1958570    1.000000000000    1.000000000000

 C         

      4   S       7           172.2560000    0.061766907377
      4   S       8            25.9109000    0.358794042852
      4   S       9             5.5333500    0.700713083689

      5   L      10             3.6649800   -0.395895162119    0.236459946619
      5   L      11             0.7705450    1.215834355681    0.860618805716

      6   L      12             0.1958570    1.000000000000    1.000000000000

 O         

      7   S      13           322.0370000    0.059239393389
      7   S      14            48.4308000    0.351499960776
      7   S      15            10.4206000    0.707657921031

      8   L      16             7.4029400   -0.404453583190    0.244586106967
      8   L      17             1.5762000    1.221561761397    0.853955373466

      9   L      18             0.3736840    1.000000000000    1.000000000000

 O         

     10   S      19           322.0370000    0.059239393389
     10   S      20            48.4308000    0.351499960776
     10   S      21            10.4206000    0.707657921031

     11   L      22             7.4029400   -0.404453583190    0.244586106967
     11   L      23             1.5762000    1.221561761397    0.853955373466

     12   L      24             0.3736840    1.000000000000    1.000000000000

 C         

     13   S      25           172.2560000    0.061766907377
     13   S      26            25.9109000    0.358794042852
     13   S      27             5.5333500    0.700713083689

     14   L      28             3.6649800   -0.395895162119    0.236459946619
     14   L      29             0.7705450    1.215834355681    0.860618805716

     15   L      30             0.1958570    1.000000000000    1.000000000000

 C         

     16   S      31           172.2560000    0.061766907377
     16   S      32            25.9109000    0.358794042852
     16   S      33             5.5333500    0.700713083689

     17   L      34             3.6649800   -0.395895162119    0.236459946619
     17   L      35             0.7705450    1.215834355681    0.860618805716

     18   L      36             0.1958570    1.000000000000    1.000000000000

 C         

     19   S      37           172.2560000    0.061766907377
     19   S      38            25.9109000    0.358794042852
     19   S      39             5.5333500    0.700713083689

     20   L      40             3.6649800   -0.395895162119    0.236459946619
     20   L      41             0.7705450    1.215834355681    0.860618805716

     21   L      42             0.1958570    1.000000000000    1.000000000000

 C         

     22   S      43           172.2560000    0.061766907377
     22   S      44            25.9109000    0.358794042852
     22   S      45             5.5333500    0.700713083689

     23   L      46             3.6649800   -0.395895162119    0.236459946619
     23   L      47             0.7705450    1.215834355681    0.860618805716

     24   L      48             0.1958570    1.000000000000    1.000000000000

 C         

     25   S      49           172.2560000    0.061766907377
     25   S      50            25.9109000    0.358794042852
     25   S      51             5.5333500    0.700713083689

     26   L      52             3.6649800   -0.395895162119    0.236459946619
     26   L      53             0.7705450    1.215834355681    0.860618805716

     27   L      54             0.1958570    1.000000000000    1.000000000000

 C         

     28   S      55           172.2560000    0.061766907377
     28   S      56            25.9109000    0.358794042852
     28   S      57             5.5333500    0.700713083689

     29   L      58             3.6649800   -0.395895162119    0.236459946619
     29   L      59             0.7705450    1.215834355681    0.860618805716

     30   L      60             0.1958570    1.000000000000    1.000000000000

 C         

     31   S      61           172.2560000    0.061766907377
     31   S      62            25.9109000    0.358794042852
     31   S      63             5.5333500    0.700713083689

     32   L      64             3.6649800   -0.395895162119    0.236459946619
     32   L      65             0.7705450    1.215834355681    0.860618805716

     33   L      66             0.1958570    1.000000000000    1.000000000000

 C         

     34   S      67           172.2560000    0.061766907377
     34   S      68            25.9109000    0.358794042852
     34   S      69             5.5333500    0.700713083689

     35   L      70             3.6649800   -0.395895162119    0.236459946619
     35   L      71             0.7705450    1.215834355681    0.860618805716

     36   L      72             0.1958570    1.000000000000    1.000000000000

 C         

     37   S      73           172.2560000    0.061766907377
     37   S      74            25.9109000    0.358794042852
     37   S      75             5.5333500    0.700713083689

     38   L      76             3.6649800   -0.395895162119    0.236459946619
     38   L      77             0.7705450    1.215834355681    0.860618805716

     39   L      78             0.1958570    1.000000000000    1.000000000000

 C         

     40   S      79           172.2560000    0.061766907377
     40   S      80            25.9109000    0.358794042852
     40   S      81             5.5333500    0.700713083689

     41   L      82             3.6649800   -0.395895162119    0.236459946619
     41   L      83             0.7705450    1.215834355681    0.860618805716

     42   L      84             0.1958570    1.000000000000    1.000000000000

 H         

     43   S      85             5.4471780    0.156284978695
     43   S      86             0.8245472    0.904690876670

     44   S      87             0.1831916    1.000000000000

 H         

     45   S      88             5.4471780    0.156284978695
     45   S      89             0.8245472    0.904690876670

     46   S      90             0.1831916    1.000000000000

 H         

     47   S      91             5.4471780    0.156284978695
     47   S      92             0.8245472    0.904690876670

     48   S      93             0.1831916    1.000000000000

 H         

     49   S      94             5.4471780    0.156284978695
     49   S      95             0.8245472    0.904690876670

     50   S      96             0.1831916    1.000000000000

 H         

     51   S      97             5.4471780    0.156284978695
     51   S      98             0.8245472    0.904690876670

     52   S      99             0.1831916    1.000000000000

 H         

     53   S     100             5.4471780    0.156284978695
     53   S     101             0.8245472    0.904690876670

     54   S     102             0.1831916    1.000000000000

 H         

     55   S     103             5.4471780    0.156284978695
     55   S     104             0.8245472    0.904690876670

     56   S     105             0.1831916    1.000000000000

 H         

     57   S     106             5.4471780    0.156284978695
     57   S     107             0.8245472    0.904690876670

     58   S     108             0.1831916    1.000000000000

 H         

     59   S     109             5.4471780    0.156284978695
     59   S     110             0.8245472    0.904690876670

     60   S     111             0.1831916    1.000000000000

 H         

     61   S     112             5.4471780    0.156284978695
     61   S     113             0.8245472    0.904690876670

     62   S     114             0.1831916    1.000000000000

 H         

     63   S     115             5.4471780    0.156284978695
     63   S     116             0.8245472    0.904690876670

     64   S     117             0.1831916    1.000000000000

 H         

     65   S     118             5.4471780    0.156284978695
     65   S     119             0.8245472    0.904690876670

     66   S     120             0.1831916    1.000000000000

 H         

     67   S     121             5.4471780    0.156284978695
     67   S     122             0.8245472    0.904690876670

     68   S     123             0.1831916    1.000000000000

 H         

     69   S     124             5.4471780    0.156284978695
     69   S     125             0.8245472    0.904690876670

     70   S     126             0.1831916    1.000000000000

 H         

     71   S     127             5.4471780    0.156284978695
     71   S     128             0.8245472    0.904690876670

     72   S     129             0.1831916    1.000000000000

 H         

     73   S     130             5.4471780    0.156284978695
     73   S     131             0.8245472    0.904690876670

     74   S     132             0.1831916    1.000000000000

 H         

     75   S     133             5.4471780    0.156284978695
     75   S     134             0.8245472    0.904690876670

     76   S     135             0.1831916    1.000000000000

 H         

     77   S     136             5.4471780    0.156284978695
     77   S     137             0.8245472    0.904690876670

     78   S     138             0.1831916    1.000000000000

 H         

     79   S     139             5.4471780    0.156284978695
     79   S     140             0.8245472    0.904690876670

     80   S     141             0.1831916    1.000000000000

 H         

     81   S     142             5.4471780    0.156284978695
     81   S     143             0.8245472    0.904690876670

     82   S     144             0.1831916    1.000000000000

 TOTAL NUMBER OF BASIS SET SHELLS             =   82
 NUMBER OF CARTESIAN GAUSSIAN BASIS FUNCTIONS =  166
 NUMBER OF ELECTRONS                          =  109
 CHARGE OF MOLECULE                           =   -1
 SPIN MULTIPLICITY                            =    2
 NUMBER OF OCCUPIED ORBITALS (ALPHA)          =   55
 NUMBER OF OCCUPIED ORBITALS (BETA )          =   54
 TOTAL NUMBER OF ATOMS                        =   34
 THE NUCLEAR REPULSION ENERGY IS      912.8377646726

     $CONTRL OPTIONS
     ---------------
 SCFTYP=UHF          RUNTYP=ENERGY       EXETYP=RUN     
 MPLEVL=       0     CITYP =NONE         CCTYP =NONE         VBTYP =NONE    
 DFTTYP=NONE         TDDFT =NONE    
 MULT  =       2     ICHARG=      -1     NZVAR =       0     COORD =UNIQUE  
 PP    =NONE         RELWFN=NONE         LOCAL =NONE         NUMGRD=       F
 ISPHER=      -1     NOSYM =       0     MAXIT =      60     UNITS =ANGS    
 PLTORB=       F     MOLPLT=       F     AIMPAC=       F     FRIEND=        
 NPRINT=       7     IREST =       0     GEOM  =INPUT   
 NORMF =       0     NORMP =       0     ITOL  =      20     ICUT  =       9
 INTTYP=BEST         GRDTYP=BEST         QMTTOL= 1.0E-06

     $SYSTEM OPTIONS
     ---------------
  REPLICATED MEMORY=    30000000 WORDS (ON EVERY NODE).
 DISTRIBUTED MEMDDI=        1000 MILLION WORDS IN AGGREGATE,
 MEMDDI DISTRIBUTED OVER   6 PROCESSORS IS   166666666 WORDS/PROCESSOR.
 TOTAL MEMORY REQUESTED ON EACH PROCESSOR=   196666666 WORDS.
 TIMLIM=      525600.00 MINUTES, OR     365.0 DAYS.
 PARALL= T  BALTYP=  DLB     KDIAG=    0  COREFL= F
 MXSEQ2=     300 MXSEQ3=     150  mem10=         0

          ----------------
          PROPERTIES INPUT
          ----------------

     MOMENTS            FIELD           POTENTIAL          DENSITY
 IEMOM =       1   IEFLD =       0   IEPOT =       0   IEDEN =       0
 WHERE =COMASS     WHERE =NUCLEI     WHERE =NUCLEI     WHERE =NUCLEI  
 OUTPUT=BOTH       OUTPUT=BOTH       OUTPUT=BOTH       OUTPUT=BOTH    
 IEMINT=       0   IEFINT=       0                     IEDINT=       0
                                                       MORB  =       0
          EXTRAPOLATION IN EFFECT
          SOSCF IN EFFECT
          DIIS or SOSCF will be reset if energy rises
 ORBITAL PRINTING OPTION: NPREO=     1   166     2     1

     -------------------------------
     INTEGRAL TRANSFORMATION OPTIONS
     -------------------------------
     NWORD  =            0
     CUTOFF = 1.0E-09     MPTRAN =       0
     DIRTRF =       T     AOINTS =DUP     

          ----------------------
          INTEGRAL INPUT OPTIONS
          ----------------------
 NOPK  =       1 NORDER=       0 SCHWRZ=       T

     ------------------------------------------
     THE POINT GROUP IS C1 , NAXIS= 0, ORDER= 1
     ------------------------------------------

     DIMENSIONS OF THE SYMMETRY SUBSPACES ARE
 A   =  166

 ..... DONE SETTING UP THE RUN .....
 CPU     0: STEP CPU TIME=     0.02 TOTAL CPU TIME=          0.0 (      0.0 MIN)
 TOTAL WALL CLOCK TIME=          0.0 SECONDS, CPU UTILIZATION IS    50.00%

          ********************
          1 ELECTRON INTEGRALS
          ********************
 ...... END OF ONE-ELECTRON INTEGRALS ......
 CPU     0: STEP CPU TIME=     0.02 TOTAL CPU TIME=          0.0 (      0.0 MIN)
 TOTAL WALL CLOCK TIME=          0.1 SECONDS, CPU UTILIZATION IS    57.14%

          -------------
          GUESS OPTIONS
          -------------
          GUESS =HUCKEL            NORB  =       0          NORDER=       0
          MIX   =       F          PRTMO =       F          PUNMO =       F
          TOLZ  = 1.0E-08          TOLE  = 1.0E-05
          SYMDEN=       F          PURIFY=       F

 INITIAL GUESS ORBITALS GENERATED BY HUCKEL   ROUTINE.
 HUCKEL GUESS REQUIRES    257058 WORDS.

 SYMMETRIES FOR INITIAL GUESS ORBITALS FOLLOW.  ALPHA SET(S).
    55 ORBITALS ARE OCCUPIED (   14 CORE ORBITALS).
    15=A       16=A       17=A       18=A       19=A       20=A       21=A   
    22=A       23=A       24=A       25=A       26=A       27=A       28=A   
    29=A       30=A       31=A       32=A       33=A       34=A       35=A   
    36=A       37=A       38=A       39=A       40=A       41=A       42=A   
    43=A       44=A       45=A       46=A       47=A       48=A       49=A   
    50=A       51=A       52=A       53=A       54=A       55=A       56=A   
    57=A       58=A       59=A       60=A       61=A       62=A       63=A   
    64=A       65=A   

 SYMMETRIES FOR INITIAL GUESS ORBITALS FOLLOW.   BETA SET(S).
    54 ORBITALS ARE OCCUPIED (   14 CORE ORBITALS).
    15=A       16=A       17=A       18=A       19=A       20=A       21=A   
    22=A       23=A       24=A       25=A       26=A       27=A       28=A   
    29=A       30=A       31=A       32=A       33=A       34=A       35=A   
    36=A       37=A       38=A       39=A       40=A       41=A       42=A   
    43=A       44=A       45=A       46=A       47=A       48=A       49=A   
    50=A       51=A       52=A       53=A       54=A       55=A       56=A   
    57=A       58=A       59=A       60=A       61=A       62=A       63=A   
    64=A   
 ...... END OF INITIAL ORBITAL SELECTION ......
 CPU     0: STEP CPU TIME=     0.07 TOTAL CPU TIME=          0.1 (      0.0 MIN)
 TOTAL WALL CLOCK TIME=          0.2 SECONDS, CPU UTILIZATION IS    57.89%

                    ----------------------
                    AO INTEGRAL TECHNOLOGY
                    ----------------------
     S,P,L SHELL ROTATED AXIS INTEGRALS, REPROGRAMMED BY
        KAZUYA ISHIMURA (IMS) AND JOSE SIERRA (SYNSTAR).
     S,P,D,L SHELL ROTATED AXIS INTEGRALS PROGRAMMED BY
        KAZUYA ISHIMURA (INSTITUTE FOR MOLECULAR SCIENCE).
     S,P,D,F,G SHELL TO TOTAL QUARTET ANGULAR MOMENTUM SUM 5,
        ERIC PROGRAM BY GRAHAM FLETCHER (ELORET AND NASA ADVANCED
        SUPERCOMPUTING DIVISION, AMES RESEARCH CENTER).
     S,P,D,F,G,L SHELL GENERAL RYS QUADRATURE PROGRAMMED BY
        MICHEL DUPUIS (PACIFIC NORTHWEST NATIONAL LABORATORY).

          --------------------
          2 ELECTRON INTEGRALS
          --------------------

 DIRECT SCF METHOD SKIPS INTEGRAL STORAGE ON DISK.
 DIRECT TRANSFORMATION SKIPS AO INTEGRAL STORAGE ON DISK.
  ...... END OF TWO-ELECTRON INTEGRALS .....
 CPU     0: STEP CPU TIME=     0.02 TOTAL CPU TIME=          0.1 (      0.0 MIN)
 TOTAL WALL CLOCK TIME=          0.2 SECONDS, CPU UTILIZATION IS    61.90%

          ---------------------------
                  UHF SCF CALCULATION
          ---------------------------

     NUCLEAR ENERGY =       912.8377646726
     MAXIT = 60     NPUNCH=  2     MULT=  2
     EXTRAP=T  DAMP=F  SHIFT=F  RSTRCT=F  DIIS=F  SOSCF=T
     DENSITY MATRIX CONV=  2.00E-05
     SOSCF WILL OPTIMIZE    6105 ALPHA AND    6048 BETA ROTATION ANGLES.
     SOGTOL= 2.500E-01
     MEMORY REQUIRED FOR UHF/ROHF ITERS=    414449 WORDS.

 DIRECT SCF CALCULATION, SCHWRZ=T   FDIFF=T
 SCHWARZ INEQUALITY OVERHEAD:     12086 INTEGRALS, T=        0.00

                                                                                NONZERO     BLOCKS
 ITER EX      TOTAL ENERGY        E CHANGE  DENSITY CHANGE    ORB. GRAD       INTEGRALS    SKIPPED
   1  0     -610.7986652169  -610.7986652169   0.765178212   0.000000000       37656557    4023727
          ---------------START SECOND ORDER SCF---------------
   2  1     -612.0775308166    -1.2788655996   0.159678318   0.084852272       37510263    4069388
   3  2     -612.1432709818    -0.0657401652   0.095672519   0.065215249       37012048    4154955
   4  3     -612.2034540168    -0.0601830350   0.055725325   0.013187996       35999405    4276309
   5  4     -612.2085899349    -0.0051359181   0.068717082   0.014310708       35757969    4303131
   6  5     -612.2149086382    -0.0063187033   0.157315214   0.012255939       36164687    4262877
   7  6     -612.2106696922     0.0042389460   0.110361449   0.023651660       36599975    4213758
   8  7     -612.2201015550    -0.0094318628   0.020037437   0.004639730       36285609    4251105
   9  8     -612.2211745122    -0.0010729573   0.018810601   0.002408572       34451201    4397165
  10  9     -612.2215573566    -0.0003828443   0.003849665   0.001074302       34565560    4390047
  11 10     -612.2215879405    -0.0000305840   0.002109923   0.000247711       32075955    4556044
  12 11     -612.2215983817    -0.0000104412   0.001794600   0.000222297       30677390    4623624
  13 12     -612.2216019424    -0.0000035607   0.001156226   0.000249529       29193841    4691377
  14 13     -612.2216038809    -0.0000019384   0.002268223   0.000221509       28733407    4715158
  15 14     -612.2216065805    -0.0000026996   0.005567258   0.000215552       29168398    4692972
  16 15     -612.2216122142    -0.0000056337   0.012707644   0.000235413       30084332    4643267
  17 16     -612.2216236031    -0.0000113889   0.021692461   0.000292221       31000166    4592676
  18 17     -612.2216394527    -0.0000158496   0.010873042   0.000354769       31246470    4572911
  19 18     -612.2216534054    -0.0000139527   0.002698039   0.000268021       30816435    4602860
  20 19     -612.2216660286    -0.0000126232   0.000653652   0.000082649       31294101    4581188
  21 20     -612.2216668499    -0.0000008213   0.000891100   0.000036632       27255889    4783866
  22 21     -612.2216672415    -0.0000003916   0.000095342   0.000014542       27791903    4760075
  23 22     -612.2216672731    -0.0000000316   0.000081516   0.000011361       24781037    4906820
  24 23     -612.2216672820    -0.0000000089   0.000048863   0.000002880       23059074    4978207
  25 24     -612.2216672838    -0.0000000019   0.000014768   0.000001684       21463056    5052432
  26 25     -612.2216672848    -0.0000000010   0.000012121   0.000001609       19580759    5134639

          -----------------
          DENSITY CONVERGED
          -----------------
     TIME TO FORM FOCK OPERATORS=      18.1 SECONDS (       0.7 SEC/ITER)
     FOCK TIME ON FIRST ITERATION=       0.6, LAST ITERATION=       0.5
     TIME TO SOLVE SCF EQUATIONS=       0.5 SECONDS (       0.0 SEC/ITER)

 FINAL UHF ENERGY IS     -612.2216672848 AFTER  26 ITERATIONS

          --------------------
          SPIN SZ   =    0.500
          S-SQUARED =    0.791
          --------------------

  ----- ALPHA SET ----- 

          ------------
          EIGENVECTORS
          ------------

                      1          2          3          4          5
                  -20.3266   -20.2936   -11.1853   -11.0790   -11.0754
                     A          A          A          A          A   
    1  C  1  S   -0.000324   0.000256   0.986706   0.000005  -0.000016
    2  C  1  S   -0.000294   0.001492   0.094950  -0.000004   0.000011
    3  C  1  X   -0.001121   0.001852   0.000178   0.000006  -0.000007
    4  C  1  Y    0.000990   0.000488   0.000401  -0.000012   0.000005
    5  C  1  Z   -0.000202   0.000751   0.000082   0.000003   0.000002
    6  C  1  S    0.012124   0.017368  -0.047548  -0.000011  -0.000029
    7  C  1  X   -0.012356   0.021383   0.005019   0.000036   0.000061
    8  C  1  Y    0.008845   0.016000   0.016926   0.000070  -0.000008
    9  C  1  Z   -0.002367   0.010735   0.005625   0.000015   0.000016
   10  C  2  S   -0.000017  -0.000060  -0.001846  -0.000020   0.000019
   11  C  2  S   -0.000370  -0.000434  -0.002638  -0.000009   0.000003
   12  C  2  X    0.000026   0.000323  -0.000053  -0.000002  -0.000002
   13  C  2  Y   -0.000307   0.000092  -0.000636   0.000004   0.000004
   14  C  2  Z   -0.000140   0.000091  -0.000046  -0.000001  -0.000000
   15  C  2  S    0.001780   0.006899   0.020370   0.000063   0.000012
   16  C  2  X    0.003671  -0.007541  -0.000630  -0.000002  -0.000009
   17  C  2  Y    0.000706   0.003906   0.014187   0.000017  -0.000008
   18  C  2  Z    0.001858  -0.001663   0.001980   0.000014  -0.000003
   19  O  3  S    0.000923   0.983818   0.000124   0.000001   0.000001
   20  O  3  S    0.000399   0.100617   0.001347   0.000006   0.000006
   21  O  3  X   -0.000406  -0.003828   0.000160  -0.000001   0.000001
   22  O  3  Y    0.000595  -0.002192   0.000717  -0.000003  -0.000002
   23  O  3  Z   -0.000035  -0.001729   0.000225  -0.000002  -0.000001
   24  O  3  S   -0.000469  -0.058829  -0.003644  -0.000038  -0.000029
   25  O  3  X    0.003037   0.013508   0.005566   0.000011   0.000001
   26  O  3  Y   -0.003220   0.007138  -0.000269   0.000010   0.000013
   27  O  3  Z    0.000412   0.006190   0.001763   0.000012   0.000007
   28  O  4  S    0.983818  -0.000840   0.000077   0.000002   0.000006
   29  O  4  S    0.100990   0.000129   0.001265   0.000014   0.000047
   30  O  4  X    0.002830   0.000075   0.000925  -0.000008   0.000001
   31  O  4  Y    0.001552   0.001116   0.000474   0.000002   0.000010
   32  O  4  Z    0.001427   0.000288   0.000392  -0.000003   0.000008
   33  O  4  S   -0.057290   0.000876   0.001530  -0.000050  -0.000245
   34  O  4  X   -0.007937  -0.000699  -0.003406   0.000058   0.000048
   35  O  4  Y   -0.005742  -0.006355  -0.003589  -0.000041  -0.000136
   36  O  4  Z   -0.004006  -0.001657  -0.001949   0.000001  -0.000051
   37  C  5  S   -0.000922  -0.000123  -0.000784  -0.000541  -0.000444
   38  C  5  S   -0.003973  -0.000197  -0.001025  -0.000180  -0.000097
   39  C  5  X    0.000606   0.000558  -0.000611  -0.000004   0.000046
   40  C  5  Y   -0.000663  -0.000713   0.000124   0.000008   0.000077
   41  C  5  Z    0.000204   0.000112  -0.000324   0.000008  -0.000017
   42  C  5  S    0.020338   0.004949   0.003423   0.000812   0.000014
   43  C  5  X    0.001261  -0.002860   0.003748  -0.000285  -0.000223
   44  C  5  Y   -0.014148  -0.001888  -0.002519   0.000174  -0.000619
   45  C  5  Z   -0.004433  -0.001475   0.001191   0.000102   0.000086
   46  C  6  S    0.000208   0.000107  -0.000073   0.000073   0.000002
   47  C  6  S    0.000975   0.000747   0.000167   0.000065   0.000007
   48  C  6  X    0.000297   0.000237  -0.000090  -0.000073   0.000012
   49  C  6  Y    0.000032  -0.000275   0.000507  -0.000008  -0.000007
   50  C  6  Z    0.000299  -0.000002   0.000303   0.000001   0.000002
   51  C  6  S   -0.002940  -0.001501  -0.002625  -0.000188   0.000003
   52  C  6  X   -0.001876  -0.000918  -0.000319   0.000349   0.000009
   53  C  6  Y    0.004218   0.001808  -0.000385   0.000051   0.000198
   54  C  6  Z    0.000430  -0.000114   0.000512   0.000170  -0.000078
   55  C  7  S    0.000238   0.000065   0.000071  -0.000001   0.000016
   56  C  7  S    0.001096   0.000446   0.000330   0.000005   0.000021
   57  C  7  X    0.000477   0.000195   0.000064  -0.000001  -0.000018
   58  C  7  Y   -0.000165  -0.000233   0.000290   0.000001  -0.000010
   59  C  7  Z   -0.000638  -0.000064  -0.000113  -0.000006  -0.000003
   60  C  7  S   -0.006958  -0.000855  -0.003522  -0.000051   0.000145
   61  C  7  X   -0.001888  -0.000134  -0.001280   0.000114  -0.000080
   62  C  7  Y    0.008001   0.001364   0.000875   0.000022   0.000016
   63  C  7  Z    0.004881   0.000900   0.000643  -0.000086   0.000270
   64  C  8  S   -0.000041   0.000037   0.000003   0.000001   0.000001
   65  C  8  S   -0.000059   0.000377   0.000030   0.000000  -0.000002
   66  C  8  X   -0.000198   0.000049  -0.000024   0.000000  -0.000007
   67  C  8  Y    0.000066  -0.000227   0.000169   0.000000  -0.000006
   68  C  8  Z    0.000508   0.000327  -0.000382  -0.000002   0.000010
   69  C  8  S    0.007263   0.000578   0.000084  -0.000056   0.000159
   70  C  8  X   -0.001475  -0.000331  -0.000520  -0.000013  -0.000023
   71  C  8  Y   -0.000652   0.000714   0.000487  -0.000041   0.000074
   72  C  8  Z    0.002680  -0.000326   0.002782  -0.000023   0.000042
   73  C  9  S    0.000205   0.000121   0.000240   0.000381   0.000145
   74  C  9  S    0.000797   0.000646   0.000270   0.000269   0.000166
   75  C  9  X   -0.000675  -0.000128   0.000226  -0.000027  -0.000007
   76  C  9  Y   -0.000035  -0.000043  -0.000524   0.000048  -0.000043
   77  C  9  Z   -0.000265  -0.000031  -0.000045  -0.000038  -0.000054
   78  C  9  S   -0.005785  -0.004068   0.001097  -0.001438  -0.000851
   79  C  9  X   -0.001744  -0.001763   0.000593  -0.000042   0.000439
   80  C  9  Y    0.004864   0.001060   0.002743  -0.000625   0.000453
   81  C  9  Z    0.001701  -0.000310   0.000462  -0.000542   0.000148
   82  C 10  S   -0.000016  -0.000028  -0.000116  -0.001737  -0.002060
   83  C 10  S    0.000087  -0.000113  -0.000225  -0.000272  -0.000940
   84  C 10  X    0.000346   0.000067   0.000118   0.000547   0.000338
   85  C 10  Y    0.000256   0.000040   0.000100  -0.000109   0.000057
   86  C 10  Z    0.000215  -0.000009   0.000070   0.000182   0.000180
   87  C 10  S    0.001575   0.001051   0.001509  -0.000530   0.002008
   88  C 10  X   -0.000985   0.000113  -0.000044   0.000231  -0.001134
   89  C 10  Y   -0.001316  -0.000041  -0.000796   0.003449   0.000257
   90  C 10  Z   -0.002581  -0.000419  -0.001008   0.000657  -0.000883
   91  C 11  S    0.000041   0.000017   0.000036  -0.004163  -0.009250
   92  C 11  S    0.000245   0.000111   0.000068  -0.004817  -0.002068
   93  C 11  X    0.000062   0.000046  -0.000012   0.001123   0.000776
   94  C 11  Y   -0.000076   0.000019  -0.000043   0.001678   0.000172
   95  C 11  Z   -0.000042  -0.000021  -0.000012   0.000815   0.000330
   96  C 11  S   -0.001490  -0.000318  -0.000682   0.031388   0.002871
   97  C 11  X   -0.001365  -0.000555  -0.000274  -0.010745  -0.001183
   98  C 11  Y    0.001146  -0.000053   0.000649  -0.013752  -0.003133
   99  C 11  Z    0.000375   0.000073   0.000203  -0.007210  -0.001223
  100  C 12  S   -0.000012  -0.000001  -0.000012   0.986816   0.029467
  101  C 12  S   -0.000037   0.000002  -0.000029   0.100024   0.001556
  102  C 12  X    0.000060  -0.000006   0.000018  -0.000141   0.000456
  103  C 12  Y    0.000051   0.000014   0.000018   0.000191  -0.000250
  104  C 12  Z    0.000059   0.000015   0.000018   0.000030   0.000083
  105  C 12  S    0.000853  -0.000082   0.000540  -0.087454   0.011577
  106  C 12  X    0.000437   0.000110   0.000282  -0.003954  -0.015277
  107  C 12  Y   -0.000450  -0.000218  -0.000018  -0.006016   0.006122
  108  C 12  Z   -0.000208  -0.000151   0.000032  -0.003017  -0.003497
  109  C 13  S    0.000008   0.000003   0.000015  -0.009631  -0.031731
  110  C 13  S    0.000041   0.000018   0.000024  -0.002550  -0.005305
  111  C 13  X    0.000022   0.000004   0.000010  -0.000319   0.000925
  112  C 13  Y    0.000023  -0.000002  -0.000002  -0.000366  -0.000471
  113  C 13  Z   -0.000004  -0.000008  -0.000006  -0.000148   0.000150
  114  C 13  S   -0.000312  -0.000157  -0.000172   0.014888   0.009108
  115  C 13  X    0.000096   0.000001  -0.000047   0.000671  -0.002072
  116  C 13  Y   -0.000471  -0.000099  -0.000109   0.009872   0.003041
  117  C 13  Z    0.000026   0.000039   0.000006   0.002579   0.000296
  118  C 14  S    0.000007  -0.000000   0.000019  -0.030233   0.986562
  119  C 14  S    0.000056   0.000004   0.000018  -0.004811   0.101767
  120  C 14  X    0.000024   0.000011   0.000009  -0.000244  -0.000200
  121  C 14  Y    0.000015   0.000002   0.000005  -0.000281  -0.000253
  122  C 14  Z    0.000018   0.000006   0.000006  -0.000160  -0.000105
  123  C 14  S   -0.000035   0.000070   0.000018   0.018096  -0.082761
  124  C 14  X   -0.000057   0.000006  -0.000018   0.010102  -0.004828
  125  C 14  Y   -0.000039   0.000009  -0.000041   0.000488   0.002059
  126  C 14  Z    0.000002   0.000026  -0.000008   0.003535  -0.001119
  127  H 15  S   -0.000795   0.000786  -0.001106  -0.000002   0.000002
  128  H 15  S   -0.000325   0.002539   0.002122  -0.000006  -0.000006
  129  H 16  S    0.000239  -0.000447  -0.001530   0.000001   0.000001
  130  H 16  S   -0.000203  -0.001014   0.002563  -0.000018  -0.000008
  131  H 17  S    0.000327  -0.000956  -0.001517  -0.000003   0.000002
  132  H 17  S    0.001001  -0.001473   0.001500   0.000005  -0.000009
  133  H 18  S    0.000598  -0.000130   0.000079  -0.000016   0.000004
  134  H 18  S    0.000999   0.001306   0.000305  -0.000178  -0.000000
  135  H 19  S   -0.000412  -0.000108   0.000056   0.000064  -0.000000
  136  H 19  S   -0.000966  -0.000741   0.000771  -0.000030  -0.000114
  137  H 20  S    0.000672   0.000469  -0.000242   0.000068  -0.000005
  138  H 20  S    0.000581   0.000173   0.000537  -0.000041   0.000149
  139  H 21  S   -0.000803  -0.000100  -0.000001   0.000017  -0.000010
  140  H 21  S   -0.002562  -0.000602   0.000284  -0.000034  -0.000055
  141  H 22  S   -0.000215   0.000230  -0.000908  -0.000002   0.000006
  142  H 22  S   -0.001299  -0.000039   0.003069  -0.000017   0.000016
  143  H 23  S   -0.000045  -0.000052   0.000126   0.000006  -0.000010
  144  H 23  S    0.000318  -0.000334   0.000867   0.000011  -0.000018
  145  H 24  S   -0.000416   0.000108  -0.000300   0.000015  -0.000047
  146  H 24  S   -0.000759  -0.000160  -0.001315   0.000827   0.000109
  147  H 25  S    0.000771   0.000277   0.000316  -0.000044   0.000124
  148  H 25  S    0.001566   0.000219   0.000303  -0.000105   0.000167
  149  H 26  S   -0.000492  -0.000082  -0.000128   0.000367  -0.000181
  150  H 26  S    0.000054  -0.000110  -0.000556   0.001469   0.000148
  151  H 27  S    0.000376  -0.000027   0.000118  -0.000180  -0.000068
  152  H 27  S    0.001002   0.000090   0.000207  -0.000100   0.000216
  153  H 28  S   -0.000042   0.000027  -0.000060  -0.000863   0.000084
  154  H 28  S   -0.000664  -0.000054  -0.000208   0.001385   0.000192
  155  H 29  S   -0.000011  -0.000002  -0.000001  -0.001041  -0.000482
  156  H 29  S   -0.000064  -0.000017  -0.000024   0.002355  -0.001505
  157  H 30  S    0.000019   0.000014   0.000009  -0.000998  -0.000525
  158  H 30  S   -0.000004   0.000015   0.000009   0.002023  -0.001307
  159  H 31  S    0.000120   0.000012   0.000023  -0.001039  -0.000331
  160  H 31  S   -0.000410  -0.000011   0.000023  -0.001280   0.000955
  161  H 32  S    0.000012   0.000003   0.000001  -0.001089   0.000373
  162  H 32  S   -0.000018  -0.000006  -0.000011   0.001824   0.014416
  163  H 33  S   -0.000007  -0.000008  -0.000003  -0.001097   0.000387
  164  H 33  S    0.000007   0.000004  -0.000006   0.001829   0.014440
  165  H 34  S    0.000015   0.000002   0.000010  -0.000997   0.000239
  166  H 34  S    0.000027  -0.000027   0.000012  -0.002072   0.013745

                      6          7          8          9         10
                  -11.0682   -11.0662   -11.0617   -11.0597   -11.0358
                     A          A          A          A          A   
    1  C  1  S   -0.000016   0.000588   0.001211  -0.000011   0.000089
    2  C  1  S    0.000007  -0.000302  -0.002287   0.000004  -0.000034
    3  C  1  X   -0.000006   0.000509   0.000067   0.000032   0.000091
    4  C  1  Y    0.000009  -0.001417   0.000521  -0.000141  -0.000084
    5  C  1  Z   -0.000002  -0.000116   0.000186   0.000009   0.000057
    6  C  1  S    0.000021  -0.000964   0.022204  -0.000225  -0.000629
    7  C  1  X   -0.000005  -0.001699   0.001148   0.000260   0.000637
    8  C  1  Y    0.000065   0.010385  -0.015725   0.001229  -0.000320
    9  C  1  Z   -0.000008   0.001581  -0.002962   0.000232   0.000180
   10  C  2  S   -0.000251  -0.015697   0.987430   0.001913   0.000241
   11  C  2  S   -0.000042  -0.002730   0.102200   0.000098  -0.000047
   12  C  2  X   -0.000009  -0.000061  -0.000126  -0.000011  -0.000002
   13  C  2  Y    0.000010   0.000236  -0.000041   0.000048   0.000032
   14  C  2  Z   -0.000002   0.000002   0.000119  -0.000001  -0.000006
   15  C  2  S    0.000128   0.009291  -0.084930   0.000792   0.000294
   16  C  2  X    0.000030   0.000850  -0.000365   0.000022  -0.000219
   17  C  2  Y   -0.000020   0.003729  -0.006684   0.000441  -0.000081
   18  C  2  Z    0.000015   0.001130  -0.001910   0.000139  -0.000005
   19  O  3  S    0.000001   0.000065   0.000019   0.000011  -0.000000
   20  O  3  S    0.000005   0.000529  -0.000111   0.000088  -0.000001
   21  O  3  X   -0.000000  -0.000103   0.000237   0.000003   0.000015
   22  O  3  Y    0.000000   0.000192  -0.000011  -0.000002  -0.000035
   23  O  3  Z   -0.000002   0.000029   0.000054   0.000001   0.000010
   24  O  3  S   -0.000027  -0.002806  -0.000443  -0.000522  -0.000048
   25  O  3  X    0.000013   0.001507  -0.000693   0.000148  -0.000104
   26  O  3  Y   -0.000005  -0.001372   0.002014  -0.000036   0.000181
   27  O  3  Z    0.000013   0.000161   0.000269   0.000058  -0.000038
   28  O  4  S    0.000008  -0.000278   0.000012   0.000021   0.000011
   29  O  4  S    0.000038  -0.000955  -0.000261   0.000155   0.000175
   30  O  4  X    0.000042   0.000114  -0.000239   0.000024  -0.000345
   31  O  4  Y    0.000016   0.000670   0.000649   0.000098   0.000043
   32  O  4  Z   -0.000008   0.000209   0.000009  -0.000008   0.000002
   33  O  4  S   -0.000336   0.009816  -0.000503  -0.000854  -0.000062
   34  O  4  X   -0.000086  -0.002531   0.000537   0.000119   0.001574
   35  O  4  Y   -0.000198   0.004749  -0.001462  -0.000700  -0.000179
   36  O  4  Z   -0.000019   0.000108   0.000072  -0.000059  -0.000058
   37  C  5  S   -0.005414   0.988792   0.015334   0.014697   0.002089
   38  C  5  S   -0.000722   0.109681   0.000716   0.000544   0.000353
   39  C  5  X    0.000055  -0.000156  -0.000455   0.000322   0.000773
   40  C  5  Y    0.000092  -0.000286  -0.000026   0.000036   0.000209
   41  C  5  Z   -0.000015   0.000645  -0.000091  -0.000028  -0.000162
   42  C  5  S    0.000993  -0.114431   0.001552   0.003089  -0.004089
   43  C  5  X   -0.000458   0.001434   0.003499  -0.004430  -0.001725
   44  C  5  Y   -0.000550  -0.009316  -0.001638  -0.001490  -0.001628
   45  C  5  Z    0.000090   0.000220  -0.000102  -0.000716   0.000719
   46  C  6  S    0.000068  -0.001320  -0.000413  -0.000319  -0.000594
   47  C  6  S    0.000064  -0.002886  -0.000176  -0.000151  -0.000203
   48  C  6  X    0.000010  -0.000128  -0.000071   0.000207  -0.000081
   49  C  6  Y   -0.000013  -0.000217   0.000210   0.000065   0.000194
   50  C  6  Z    0.000024  -0.001296   0.000143   0.000090  -0.000165
   51  C  6  S   -0.000328   0.027188  -0.000358   0.000363   0.001859
   52  C  6  X    0.000073  -0.003499  -0.000352  -0.000080   0.001014
   53  C  6  Y    0.000256  -0.002947  -0.000451   0.000047  -0.000630
   54  C  6  Z   -0.000043  -0.013695   0.000165  -0.000652   0.000198
   55  C  7  S   -0.000000  -0.000380  -0.000073  -0.000408  -0.000836
   56  C  7  S    0.000006  -0.001972  -0.000011  -0.000601  -0.001253
   57  C  7  X   -0.000002  -0.000208  -0.000047   0.000253   0.000365
   58  C  7  Y   -0.000004   0.000093   0.000128   0.000059   0.000108
   59  C  7  Z   -0.000007   0.000352  -0.000108  -0.000093  -0.000053
   60  C  7  S    0.000064   0.022991  -0.001073   0.002068   0.004395
   61  C  7  X   -0.000034  -0.012093   0.000074  -0.000976  -0.002990
   62  C  7  Y    0.000060  -0.012477   0.000916  -0.000619  -0.001830
   63  C  7  Z    0.000192   0.014503  -0.000254   0.001219   0.001794
   64  C  8  S    0.000001  -0.000532  -0.000142   0.000020  -0.000044
   65  C  8  S   -0.000001  -0.000660  -0.000221   0.000043  -0.000018
   66  C  8  X   -0.000003   0.000434  -0.000033  -0.000021   0.000024
   67  C  8  Y   -0.000006  -0.000104   0.000108  -0.000065  -0.000095
   68  C  8  Z    0.000011  -0.000661   0.000028   0.000012  -0.000064
   69  C  8  S    0.000130   0.003064   0.001071   0.000216   0.000159
   70  C  8  X   -0.000030   0.000257  -0.000056   0.000273   0.000710
   71  C  8  Y    0.000048   0.006063  -0.000859   0.000638   0.001324
   72  C  8  Z    0.000031   0.002231   0.000096  -0.000080   0.000094
   73  C  9  S   -0.000067  -0.001791  -0.000517  -0.003689  -0.004243
   74  C  9  S    0.000020  -0.003195  -0.000346  -0.001780  -0.002908
   75  C  9  X    0.000039   0.000911  -0.000051   0.001500  -0.000505
   76  C  9  Y   -0.000011   0.000083  -0.000052   0.000021  -0.000028
   77  C  9  Z   -0.000043  -0.000111  -0.000034  -0.000087  -0.000149
   78  C  9  S   -0.000625   0.028548   0.002122   0.002616   0.022840
   79  C  9  X   -0.000201   0.014476   0.001151  -0.007874  -0.009635
   80  C  9  Y    0.000344  -0.001575   0.000510   0.001122  -0.006503
   81  C  9  Z   -0.000220   0.005801   0.000637   0.001944   0.009300
   82  C 10  S   -0.001847  -0.001796  -0.000279  -0.002931   0.988106
   83  C 10  S   -0.000873   0.000194  -0.000063  -0.001566   0.105692
   84  C 10  X   -0.000101  -0.000761  -0.000008   0.000129  -0.000280
   85  C 10  Y    0.000174   0.000164   0.000076   0.000530   0.000271
   86  C 10  Z   -0.000079   0.000128   0.000041   0.000113   0.000083
   87  C 10  S    0.005825  -0.006537   0.000009   0.015125  -0.100589
   88  C 10  X   -0.001510   0.001470   0.000009  -0.012281   0.003627
   89  C 10  Y   -0.000455  -0.002782  -0.000604  -0.006431  -0.005269
   90  C 10  Z   -0.000233   0.001642  -0.000247  -0.002839   0.005636
   91  C 11  S   -0.012801  -0.015020  -0.002176   0.987048   0.002405
   92  C 11  S   -0.001954  -0.002527  -0.000254   0.098879  -0.001441
   93  C 11  X    0.000338  -0.000507  -0.000037   0.000621  -0.000315
   94  C 11  Y    0.000757  -0.000266  -0.000036  -0.000483   0.000391
   95  C 11  Z    0.000323   0.000039   0.000005  -0.000249  -0.000145
   96  C 11  S    0.002687   0.003870   0.000080  -0.083811   0.019006
   97  C 11  X   -0.006648   0.006087   0.000290  -0.001632   0.019795
   98  C 11  Y    0.000710   0.002062   0.000403   0.014244  -0.002055
   99  C 11  Z   -0.002160   0.000875   0.000096   0.003942   0.005534
  100  C 12  S    0.010147   0.000512   0.000018   0.003951   0.001919
  101  C 12  S   -0.000379   0.000022  -0.000002  -0.003871  -0.000078
  102  C 12  X   -0.000489   0.000209   0.000023  -0.002183  -0.000634
  103  C 12  Y    0.000709  -0.000132   0.000003  -0.001287  -0.000430
  104  C 12  Z    0.000025  -0.000042   0.000002  -0.001002  -0.000280
  105  C 12  S    0.013116   0.002323   0.000303   0.029255   0.001204
  106  C 12  X    0.007208  -0.000941   0.000028   0.020525   0.000076
  107  C 12  Y   -0.018279   0.002806   0.000165   0.008801   0.006508
  108  C 12  Z   -0.002458   0.001225   0.000106   0.008787   0.001928
  109  C 13  S    0.986952   0.005133   0.000303   0.012566   0.001596
  110  C 13  S    0.102045   0.000332   0.000012   0.001017  -0.000501
  111  C 13  X   -0.000252  -0.000019  -0.000008  -0.000058  -0.000288
  112  C 13  Y   -0.000355   0.000069   0.000003  -0.000922   0.000101
  113  C 13  Z   -0.000182   0.000052  -0.000004  -0.000295   0.000138
  114  C 13  S   -0.085618   0.001393   0.000073  -0.003673   0.005311
  115  C 13  X    0.001757  -0.000069   0.000019  -0.003171   0.000307
  116  C 13  Y   -0.005510   0.000840   0.000027  -0.000765   0.001704
  117  C 13  Z   -0.000730  -0.000145   0.000011  -0.000998  -0.000354
  118  C 14  S    0.030807   0.000457  -0.000022   0.009287   0.001905
  119  C 14  S    0.001078   0.000080   0.000004  -0.000380  -0.000549
  120  C 14  X   -0.000294  -0.000133  -0.000005  -0.000289  -0.000392
  121  C 14  Y    0.000911   0.000002   0.000004  -0.000123  -0.000044
  122  C 14  Z    0.000152  -0.000058  -0.000001  -0.000151  -0.000175
  123  C 14  S    0.005515  -0.001230  -0.000063   0.006938   0.000658
  124  C 14  X    0.003188  -0.000272  -0.000017   0.003107   0.001259
  125  C 14  Y   -0.001836  -0.000239  -0.000041  -0.002462  -0.000681
  126  C 14  Z    0.000512  -0.000284  -0.000028   0.000577   0.000340
  127  H 15  S   -0.000009  -0.000498   0.000341  -0.000039   0.000016
  128  H 15  S   -0.000036  -0.000505   0.014501  -0.000007  -0.000024
  129  H 16  S    0.000009  -0.000338   0.000411  -0.000062   0.000053
  130  H 16  S   -0.000047  -0.000350   0.014430   0.000056  -0.000312
  131  H 17  S    0.000019  -0.000254   0.000283  -0.000025  -0.000027
  132  H 17  S   -0.000052  -0.000240   0.014249   0.000025  -0.000076
  133  H 18  S    0.000020  -0.001236  -0.000026  -0.000033  -0.000277
  134  H 18  S    0.000009  -0.000414   0.000365   0.000302  -0.000558
  135  H 19  S    0.000001  -0.001522   0.000009  -0.000030   0.000344
  136  H 19  S   -0.000052  -0.000307   0.000381  -0.000015  -0.000546
  137  H 20  S   -0.000002  -0.001628  -0.000022  -0.000083   0.000184
  138  H 20  S    0.000273   0.000261  -0.000317   0.000390  -0.001536
  139  H 21  S   -0.000007  -0.000767  -0.000070  -0.000166  -0.000255
  140  H 21  S   -0.000063   0.002311  -0.000087  -0.000001   0.000303
  141  H 22  S    0.000001   0.000426   0.000094   0.000101   0.000148
  142  H 22  S    0.000010   0.002971  -0.001143   0.000197   0.000663
  143  H 23  S   -0.000006  -0.000776   0.000019  -0.000080  -0.000166
  144  H 23  S   -0.000014  -0.000129   0.000128  -0.000249  -0.000391
  145  H 24  S   -0.000042  -0.001499  -0.000198  -0.000575  -0.001300
  146  H 24  S    0.000031   0.000055  -0.000146  -0.001998   0.000420
  147  H 25  S    0.000113  -0.001287  -0.000006  -0.000766  -0.001210
  148  H 25  S   -0.000198   0.000852   0.000165   0.001413   0.001206
  149  H 26  S   -0.000002  -0.000160   0.000010  -0.001436   0.000830
  150  H 26  S   -0.002499  -0.000524  -0.000458  -0.002660   0.015404
  151  H 27  S   -0.000297   0.000769   0.000062  -0.000691   0.001383
  152  H 27  S   -0.000170  -0.001297   0.000172   0.002467   0.015583
  153  H 28  S   -0.000507  -0.000364  -0.000041  -0.001452  -0.000606
  154  H 28  S   -0.000527  -0.000352  -0.000142   0.009314   0.002364
  155  H 29  S    0.000510  -0.000033  -0.000003  -0.000014  -0.000193
  156  H 29  S    0.014377   0.000136   0.000002  -0.000035   0.000382
  157  H 30  S    0.000550  -0.000117  -0.000005   0.000032  -0.000311
  158  H 30  S    0.014507  -0.000018   0.000012   0.000058  -0.000421
  159  H 31  S    0.000072  -0.000050   0.000011   0.000280  -0.000061
  160  H 31  S    0.015091   0.000003  -0.000030   0.002097  -0.002216
  161  H 32  S   -0.000474   0.000009  -0.000001  -0.000363  -0.000077
  162  H 32  S   -0.000682   0.000030  -0.000005   0.000047   0.000161
  163  H 33  S   -0.000520   0.000073   0.000003  -0.000414  -0.000086
  164  H 33  S   -0.000488  -0.000033  -0.000006  -0.000045   0.000043
  165  H 34  S   -0.000358  -0.000003   0.000003  -0.000108  -0.000284
  166  H 34  S    0.001561   0.000482   0.000044   0.000096   0.000980

                     11         12         13         14         15
                  -11.0085   -11.0009   -10.8791   -10.8719    -1.2928
                     A          A          A          A          A   
    1  C  1  S   -0.000279   0.000141   0.000044   0.000014  -0.129202
    2  C  1  S   -0.000015  -0.000016   0.000221   0.000111   0.148706
    3  C  1  X   -0.000390   0.000185   0.000026   0.000012   0.027114
    4  C  1  Y   -0.000198  -0.000553  -0.000393  -0.000428   0.075966
    5  C  1  Z   -0.000074  -0.000415   0.000109   0.000085   0.027709
    6  C  1  S    0.001474  -0.000878  -0.001054  -0.000321   0.127380
    7  C  1  X   -0.000444  -0.000658   0.000743   0.000853  -0.025773
    8  C  1  Y    0.004042   0.003741   0.001966   0.003141  -0.075671
    9  C  1  Z    0.000376   0.001800   0.000301   0.000442  -0.022114
   10  C  2  S    0.000399   0.000340   0.000051   0.000049  -0.019923
   11  C  2  S   -0.000291  -0.000368  -0.000238  -0.000340   0.022350
   12  C  2  X    0.000004  -0.000061   0.000006   0.000070   0.000588
   13  C  2  Y    0.000070   0.000100   0.000059   0.000167   0.022679
   14  C  2  Z   -0.000016   0.000134  -0.000042  -0.000049   0.005037
   15  C  2  S    0.002541   0.003207   0.001798   0.002776  -0.002594
   16  C  2  X    0.000161   0.000530  -0.000148  -0.000481   0.005037
   17  C  2  Y    0.001071   0.001567   0.000832   0.000850  -0.021110
   18  C  2  Z    0.000492  -0.000357   0.000404   0.000446  -0.002016
   19  O  3  S    0.000033   0.000050   0.000033   0.000043  -0.144855
   20  O  3  S    0.000263   0.000463   0.000285   0.000380   0.132321
   21  O  3  X   -0.000012  -0.000035  -0.000104  -0.000102  -0.077041
   22  O  3  Y    0.000011   0.000211  -0.000032   0.000031  -0.042011
   23  O  3  Z   -0.000009   0.000064   0.000059  -0.000015  -0.033883
   24  O  3  S   -0.001548  -0.001739  -0.001161  -0.001732   0.463455
   25  O  3  X    0.000605   0.000699   0.000590   0.000726  -0.093139
   26  O  3  Y   -0.000259  -0.001043  -0.000080  -0.000198  -0.037138
   27  O  3  Z    0.000216  -0.000331  -0.000031   0.000281  -0.037363
   28  O  4  S    0.000051   0.000076   0.000073   0.000023  -0.147240
   29  O  4  S    0.000103   0.000383   0.000367   0.000170   0.130742
   30  O  4  X    0.000752   0.000004  -0.000090   0.000046   0.052838
   31  O  4  Y   -0.000361  -0.000104  -0.000104   0.000059   0.003598
   32  O  4  Z    0.000182  -0.000035   0.000079  -0.000051   0.021475
   33  O  4  S   -0.002093  -0.002935  -0.003054  -0.000633   0.469118
   34  O  4  X   -0.002254  -0.000236  -0.000036  -0.000367   0.073907
   35  O  4  Y    0.000473  -0.000966  -0.001617  -0.000594   0.030421
   36  O  4  Z   -0.000718  -0.001148  -0.000112   0.000407   0.036436
   37  C  5  S    0.000931   0.000587  -0.000056   0.000483  -0.033554
   38  C  5  S   -0.001509  -0.001210  -0.000371  -0.000443   0.036737
   39  C  5  X   -0.000432   0.000220  -0.000292  -0.000144   0.008319
   40  C  5  Y   -0.000045   0.000324   0.000539  -0.000135  -0.034935
   41  C  5  Z   -0.000024   0.000286   0.000015   0.000818  -0.003830
   42  C  5  S    0.016373   0.014424   0.009974   0.001521   0.041646
   43  C  5  X   -0.014497   0.001797   0.010439  -0.001101  -0.001490
   44  C  5  Y    0.000068  -0.001664  -0.001551   0.000732   0.027196
   45  C  5  Z   -0.002415   0.011541  -0.008342  -0.002637   0.003926
   46  C  6  S   -0.026154   0.987183   0.000805   0.000162  -0.007765
   47  C  6  S   -0.004242   0.102028  -0.000911  -0.000461   0.005489
   48  C  6  X    0.000987  -0.000216  -0.000124   0.000007  -0.001074
   49  C  6  Y   -0.000058   0.000025  -0.000363  -0.000230  -0.003528
   50  C  6  Z    0.000604  -0.000154   0.000607   0.000066  -0.006365
   51  C  6  S    0.005057  -0.080160   0.002909   0.002320   0.011850
   52  C  6  X   -0.002217   0.000910  -0.002190   0.000332   0.007996
   53  C  6  Y    0.000247   0.001692   0.002382   0.000826  -0.018878
   54  C  6  Z   -0.001247   0.004329  -0.002730  -0.001639  -0.000258
   55  C  7  S   -0.001826  -0.001030   0.986708   0.021631  -0.006340
   56  C  7  S   -0.001993  -0.000917   0.100257  -0.001596   0.004463
   57  C  7  X    0.000661   0.000323  -0.000987  -0.001024  -0.002902
   58  C  7  Y    0.000338  -0.000112  -0.001015   0.000857  -0.005447
[...]
            141  H 22  S      0.47151     0.47232
            142  H 22  S      0.46150     0.50397
            143  H 23  S      0.47176     0.47202
            144  H 23  S      0.45813     0.49990
            145  H 24  S      0.46957     0.48129
            146  H 24  S      0.35372     0.44779
            147  H 25  S      0.46567     0.47663
            148  H 25  S      0.31056     0.43037
            149  H 26  S      0.46913     0.47872
            150  H 26  S      0.31817     0.43693
            151  H 27  S      0.46762     0.48075
            152  H 27  S      0.33840     0.44331
            153  H 28  S      0.47460     0.47782
            154  H 28  S      0.33739     0.44548
            155  H 29  S      0.46621     0.47119
            156  H 29  S      0.35416     0.45188
            157  H 30  S      0.46512     0.46987
            158  H 30  S      0.34257     0.44627
            159  H 31  S      0.46629     0.46736
            160  H 31  S      0.30356     0.42992
            161  H 32  S      0.46580     0.47046
            162  H 32  S      0.34495     0.44854
            163  H 33  S      0.46666     0.47160
            164  H 33  S      0.35219     0.45175
            165  H 34  S      0.46864     0.47123
            166  H 34  S      0.33600     0.44355

          ----- MULLIKEN ATOMIC OVERLAP POPULATIONS -----
          (OFF-DIAGONAL ELEMENTS NEED TO BE MULTIPLIED BY 2)

             1           2           3           4           5

    1    4.3271209
    2    0.2168119   5.5564126
    3    0.5116870  -0.0841255   8.2298975
    4    0.2180737  -0.0883035  -0.0528557   8.6116360
    5   -0.0544992   0.0025125   0.0004029   0.1518477   5.2953455
    6   -0.0070534  -0.0002326  -0.0032861  -0.0346410   0.2543769
    7   -0.0047685  -0.0001998   0.0005130  -0.0414471   0.3422069
    8    0.0040859  -0.0000895  -0.0014568   0.0003842  -0.0848036
    9    0.0035586  -0.0000963   0.0000358  -0.0549141   0.2464960
   10   -0.0000939   0.0000008  -0.0000008   0.0010532  -0.0522117
   11    0.0000020   0.0000000   0.0000000   0.0000508   0.0031450
   12   -0.0000000   0.0000000  -0.0000000  -0.0000007  -0.0000336
   13    0.0000001  -0.0000002  -0.0000000   0.0000014  -0.0000012
   14    0.0000000  -0.0000000  -0.0000000  -0.0000000   0.0000002
   15   -0.0446157   0.3512819   0.0041274   0.0022818  -0.0000645
   16   -0.0384473   0.3599801   0.0007426   0.0018609  -0.0000622
   17   -0.0330381   0.3560809   0.0011889   0.0035716  -0.0000191
   18    0.0003598   0.0001611   0.0108661  -0.0011829  -0.0335573
   19    0.0003215   0.0000052   0.0001075   0.0014966  -0.0400921
   20    0.0004444  -0.0000720  -0.0003461   0.0001336  -0.0494014
   21    0.0002143   0.0000028  -0.0000209   0.0013035  -0.0635747
   22    0.0000827  -0.0001245  -0.0005096   0.0034041  -0.0067281
   23   -0.0000341   0.0000002  -0.0000010   0.0000726   0.0037053
   24   -0.0000389   0.0000014   0.0000013   0.0016838  -0.0442514
   25   -0.0000527  -0.0000110   0.0000008   0.0014369  -0.0424787
   26   -0.0000395   0.0000249   0.0000034   0.0084631  -0.0035484
   27    0.0000009   0.0000000   0.0000000   0.0000352  -0.0010779
   28   -0.0000000   0.0000000  -0.0000000  -0.0000002  -0.0000430
   29    0.0000000   0.0000000   0.0000000  -0.0000000   0.0000001
   30   -0.0000000  -0.0000000  -0.0000000   0.0000000  -0.0000005
   31   -0.0000010   0.0000026  -0.0000000  -0.0000459   0.0000011
   32   -0.0000000  -0.0000000   0.0000000   0.0000000  -0.0000000
   33    0.0000000   0.0000000  -0.0000000  -0.0000000   0.0000000
   34    0.0000000   0.0000000   0.0000000   0.0000000   0.0000000

             6           7           8           9          10

    6    5.4833635
    7   -0.0984386   5.6505831
    8    0.0026477   0.2829816   5.5813754
    9   -0.1125494  -0.1244932   0.0027033   5.6006187
   10    0.0006171   0.0073178  -0.0001474   0.1385703   5.5928337
   11   -0.0001460  -0.0000830  -0.0000008  -0.0773815   0.2577015
   12   -0.0000012  -0.0000013   0.0000001   0.0007604  -0.0702384
   13    0.0000000   0.0000001  -0.0000000   0.0002194  -0.0068115
   14    0.0000000  -0.0000000   0.0000000  -0.0000536   0.0021576
   15    0.0000015   0.0000141  -0.0000076   0.0000009  -0.0000001
   16    0.0000071  -0.0000033   0.0000032  -0.0000066   0.0000034
   17    0.0000037  -0.0000131   0.0000340  -0.0000061  -0.0000013
   18    0.3671910   0.0022432  -0.0001123   0.0037210  -0.0000757
   19    0.3584327   0.0008453  -0.0000618  -0.0012510   0.0002213
   20    0.3464561   0.0053245  -0.0000761   0.0045898  -0.0024755
   21   -0.0011580   0.3980165  -0.0413974   0.0021412  -0.0001041
   22    0.0001244  -0.0594396   0.3998368   0.0000220  -0.0000008
   23   -0.0000596  -0.0516091   0.3960811  -0.0000443   0.0000005
   24    0.0027418   0.0041806   0.0000982   0.3762945  -0.0513850
   25    0.0036624  -0.0049282   0.0041616   0.3903250  -0.0520961
   26    0.0005135   0.0001038   0.0000016  -0.0408952   0.3820513
   27    0.0007520  -0.0000548  -0.0000014  -0.0439978   0.3815809
   28    0.0000023  -0.0000005   0.0000000   0.0005804  -0.0386010
   29   -0.0000000  -0.0000000   0.0000000  -0.0000106   0.0001736
   30    0.0000000   0.0000000  -0.0000000   0.0000200   0.0002090
   31    0.0000001  -0.0000003   0.0000000   0.0000526   0.0003275
   32    0.0000000   0.0000000  -0.0000000   0.0000078  -0.0000403
   33   -0.0000000  -0.0000000   0.0000000  -0.0000011  -0.0000458
   34   -0.0000000  -0.0000000   0.0000000  -0.0000028   0.0000859

            11          12          13          14          15

   11    5.2365622
   12    0.5630163   5.3711053
   13   -0.0529458   0.2769432   5.3248511
   14   -0.0740204   0.2892289  -0.0828954   5.3142942
   15    0.0000000  -0.0000000   0.0000000   0.0000000   0.5156480
   16   -0.0000000  -0.0000000  -0.0000000  -0.0000000  -0.0213642
   17   -0.0000000   0.0000000  -0.0000000   0.0000000  -0.0188029
   18    0.0000008   0.0000000  -0.0000000  -0.0000000  -0.0000005
   19   -0.0000192   0.0000002   0.0000000  -0.0000000  -0.0000001
   20    0.0001090  -0.0000007  -0.0000000  -0.0000000   0.0000026
   21    0.0000009   0.0000000  -0.0000000   0.0000000  -0.0000001
   22    0.0000000   0.0000000  -0.0000000   0.0000000  -0.0000038
   23   -0.0000000  -0.0000000   0.0000000  -0.0000000   0.0000000
   24    0.0002632   0.0002017  -0.0000040  -0.0000014  -0.0000000
   25   -0.0006806   0.0007705   0.0000981  -0.0000099   0.0000001
   26   -0.0466156   0.0001573  -0.0010796   0.0000556   0.0000004
   27   -0.0524359   0.0017100   0.0001345  -0.0000575  -0.0000000
   28    0.4044035  -0.0572760   0.0025075  -0.0031515  -0.0000000
   29    0.0002325  -0.0556550   0.3731718   0.0002266   0.0000000
   30    0.0005009  -0.0541780   0.3773337  -0.0004170  -0.0000000
   31   -0.0016214  -0.0392439   0.3820985   0.0024862  -0.0000000
   32    0.0007809  -0.0535044   0.0004290   0.3733428  -0.0000000
   33    0.0003665  -0.0549681   0.0006468   0.3732496   0.0000000
   34    0.0013353  -0.0463479   0.0027287   0.3837323   0.0000000

            16          17          18          19          20

   16    0.5076487
   17   -0.0215034   0.4759465
   18   -0.0000078  -0.0000017   0.4549812
   19   -0.0000003  -0.0000000  -0.0210364   0.5679515
   20    0.0000040   0.0000003  -0.0257126  -0.0296199   0.6080446
   21    0.0000000   0.0000001   0.0009000   0.0007493   0.0000222
   22    0.0000024   0.0003409   0.0000068  -0.0000016   0.0000015
   23   -0.0000000  -0.0000004  -0.0000067  -0.0000013   0.0000006
   24   -0.0000000   0.0000000  -0.0000580   0.0011250   0.0000071
   25    0.0000000   0.0000062  -0.0000373  -0.0000137  -0.0000855
   26    0.0000417   0.0000018  -0.0000197   0.0000150   0.0006893
   27   -0.0000002   0.0000000   0.0000151   0.0003884  -0.0003702
   28    0.0000000  -0.0000000  -0.0000000   0.0000006   0.0000014
   29   -0.0000000  -0.0000000   0.0000000  -0.0000000   0.0000000
   30   -0.0000000  -0.0000000  -0.0000000   0.0000000  -0.0000000
   31    0.0000019   0.0000019   0.0000000  -0.0000000  -0.0000008
   32    0.0000000  -0.0000000  -0.0000000   0.0000000  -0.0000000
   33   -0.0000000   0.0000000   0.0000000  -0.0000000   0.0000000
   34   -0.0000000  -0.0000000   0.0000000  -0.0000000   0.0000000

            21          22          23          24          25

   21    0.6251597
   22    0.0037610   0.6283620
   23   -0.0044768  -0.0365728   0.6228646
   24    0.0006306   0.0000195  -0.0000067   0.5504524
   25    0.0002818   0.0004301  -0.0000265  -0.0216982   0.4950171
   26   -0.0000049  -0.0000010   0.0000000   0.0033153  -0.0010456
   27    0.0000010  -0.0000000   0.0000000  -0.0017080   0.0030315
   28   -0.0000001  -0.0000000   0.0000000   0.0014287   0.0001454
   29    0.0000000   0.0000000  -0.0000000   0.0000000   0.0000017
   30   -0.0000000  -0.0000000   0.0000000   0.0000001  -0.0000241
   31    0.0000000   0.0000000   0.0000000  -0.0000014   0.0000483
   32   -0.0000000  -0.0000000   0.0000000  -0.0000001  -0.0000022
   33    0.0000000  -0.0000000  -0.0000000   0.0000000   0.0000003
   34    0.0000000   0.0000000  -0.0000000   0.0000006  -0.0000001

            26          27          28          29          30

   26    0.5061022
   27   -0.0265741   0.5463458
   28    0.0022834  -0.0016871   0.4989449
   29   -0.0000152   0.0000140  -0.0000599   0.5592536
   30   -0.0000126  -0.0000072  -0.0000569  -0.0349900   0.5404047
   31    0.0033190  -0.0000177   0.0000621  -0.0239800  -0.0232459
   32   -0.0000004  -0.0000010   0.0001187  -0.0004548   0.0026427
   33    0.0000014   0.0000052   0.0001132   0.0024991  -0.0004804
   34    0.0000017  -0.0000032   0.0022701  -0.0000350  -0.0000154

            31          32          33          34

   31    0.4697102
   32   -0.0000304   0.5477167
   33   -0.0000184  -0.0360611   0.5585929
   34   -0.0000479  -0.0241993  -0.0250566   0.5101891

          TOTAL MULLIKEN AND LOWDIN ATOMIC POPULATIONS
       ATOM         MULL.POP.    CHARGE          LOW.POP.     CHARGE
    1 C             5.100081    0.899919         5.637615    0.362385
    2 C             6.670024   -0.670024         6.313839   -0.313839
    3 O             8.616972   -0.616972         8.322239   -0.322239
    4 O             8.735400   -0.735400         8.328903   -0.328903
    5 C             5.823592    0.176408         5.801473    0.198527
    6 C             6.563328   -0.563328         6.271324   -0.271324
    7 C             6.308850   -0.308850         6.392247   -0.392247
    8 C             6.546240   -0.546240         6.472162   -0.472162
    9 C             6.315014   -0.315014         6.152129   -0.152129
   10 C             6.490576   -0.490576         6.178880   -0.178880
   11 C             6.162521   -0.162521         6.097024   -0.097024
   12 C             6.072445   -0.072445         6.070650   -0.070650
   13 C             6.597426   -0.597426         6.248876   -0.248876
   14 C             6.578167   -0.578167         6.243378   -0.243378
   15 H             0.788499    0.211501         0.903854    0.096146
   16 H             0.788901    0.211099         0.898272    0.101728
   17 H             0.763791    0.236209         0.886261    0.113739
   18 H             0.758637    0.241363         0.893186    0.106814
   19 H             0.839562    0.160438         0.928629    0.071371
   20 H             0.857670    0.142330         0.946922    0.053078
   21 H             0.922448    0.077552         0.971202    0.028798
   22 H             0.933012    0.066988         0.976293    0.023707
   23 H             0.929886    0.070114         0.971922    0.028078
   24 H             0.823293    0.176707         0.929079    0.070921
   25 H             0.776227    0.223773         0.907008    0.092992
   26 H             0.787294    0.212706         0.915657    0.084343
   27 H             0.806021    0.193979         0.924060    0.075940
   28 H             0.811986    0.188014         0.923299    0.076701
   29 H             0.820373    0.179627         0.923067    0.076933
   30 H             0.807683    0.192317         0.916132    0.083868
   31 H             0.769857    0.230143         0.897284    0.102716
   32 H             0.810745    0.189255         0.919006    0.080994
   33 H             0.818844    0.181156         0.923342    0.076658
   34 H             0.804635    0.195365         0.914785    0.085215

          -------------------------------
          BOND ORDER AND VALENCE ANALYSIS     BOND ORDER THRESHOLD=0.050
          -------------------------------

                   BOND                       BOND                       BOND
  ATOM PAIR DIST  ORDER      ATOM PAIR DIST  ORDER      ATOM PAIR DIST  ORDER
    1   2  1.513  0.871        1   3  1.213  1.757        1   4  1.356  0.918
    2  15  1.090  0.918        2  16  1.096  0.919        2  17  1.094  0.911
    3   4  2.282  0.090        4   5  1.470  0.649        5   6  1.537  0.899
    5   7  1.517  0.935        5   9  1.550  0.867        6  18  1.090  0.911
    6  19  1.096  0.934        6  20  1.093  0.933        7   8  1.333  1.366
    7  21  1.090  0.954        8  22  1.086  0.962        8  23  1.086  0.964
    9  10  1.543  0.849        9  24  1.098  0.933        9  25  1.096  0.921
   10  11  1.507  0.942       10  26  1.093  0.916       10  27  1.098  0.919
   11  12  1.345  1.815       11  28  1.092  0.946       12  13  1.511  0.939
   12  14  1.512  0.947       13  29  1.099  0.924       13  30  1.098  0.922
   13  31  1.092  0.921       14  32  1.099  0.921       14  33  1.099  0.923
   14  34  1.094  0.938

                       TOTAL       BONDED        FREE
      ATOM            VALENCE     VALENCE     VALENCE
    1 C                 3.529       3.529       0.000
    2 C                 3.629       3.629       0.000
    3 O                 1.917       1.917       0.000
    4 O                 1.728       1.728       0.000
    5 C                 3.283       3.279       0.004
    6 C                 3.653       3.652       0.000
    7 C                 3.431       3.250       0.181
    8 C                 3.619       3.303       0.316
    9 C                 3.539       3.537       0.002
   10 C                 3.576       3.575       0.001
   11 C                 3.711       3.676       0.034
   12 C                 3.644       3.608       0.035
   13 C                 3.671       3.670       0.001
   14 C                 3.684       3.683       0.001
   15 H                 0.915       0.915       0.000
   16 H                 0.913       0.913       0.000
   17 H                 0.908       0.908       0.000
   18 H                 0.923       0.923       0.000
   19 H                 0.931       0.931       0.000
   20 H                 0.932       0.932       0.000
   21 H                 0.955       0.952       0.003
   22 H                 0.961       0.956       0.005
   23 H                 0.959       0.953       0.005
   24 H                 0.929       0.929       0.000
   25 H                 0.913       0.913       0.000
   26 H                 0.920       0.920       0.000
   27 H                 0.913       0.912       0.000
   28 H                 0.930       0.930       0.000
   29 H                 0.918       0.918       0.000
   30 H                 0.916       0.916       0.000
   31 H                 0.912       0.912       0.000
   32 H                 0.916       0.916       0.000
   33 H                 0.918       0.918       0.000
   34 H                 0.924       0.924       0.000

          -----------------------------------------
          ATOMIC SPIN DENSITY AT THE NUCLEUS (A.U.)
          -----------------------------------------
                            SPIN DENS    ALPHA DENS     BETA DENS
    1  C            6.0    -0.0001861      46.96923      46.96942
    2  C            6.0     0.0001714      47.00601      47.00584
    3  O            8.0    -0.0011942     116.91962     116.92081
    4  O            8.0     0.0132467     116.80116     116.78791
    5  C            6.0    -0.0374063      47.07991      47.11732
    6  C            6.0     0.0226480      47.02801      47.00536
    7  C            6.0     0.0876351      46.97710      46.88946
    8  C            6.0     0.1135823      46.95543      46.84185
    9  C            6.0     0.0461544      47.09976      47.05361
   10  C            6.0     0.0222393      47.05771      47.03547
   11  C            6.0    -0.0452411      46.99072      47.03597
   12  C            6.0     0.0510026      47.03161      46.98061
   13  C            6.0    -0.0118697      46.98627      46.99814
   14  C            6.0    -0.0119189      46.98780      46.99972
   15  H            1.0     0.0000753       0.18300       0.18292
   16  H            1.0     0.0000567       0.18096       0.18090
   17  H            1.0     0.0000340       0.18018       0.18015
   18  H            1.0    -0.0003477       0.18177       0.18212
   19  H            1.0    -0.0005690       0.18391       0.18448
   20  H            1.0     0.0000762       0.18662       0.18654
   21  H            1.0    -0.0129637       0.17829       0.19125
   22  H            1.0    -0.0159122       0.17687       0.19278
   23  H            1.0    -0.0160349       0.17682       0.19286
   24  H            1.0     0.0002262       0.18488       0.18465
   25  H            1.0    -0.0008062       0.18277       0.18358
   26  H            1.0    -0.0008343       0.18431       0.18515
   27  H            1.0    -0.0027137       0.18291       0.18562
   28  H            1.0     0.0049485       0.18812       0.18317
   29  H            1.0     0.0035908       0.18471       0.18112
   30  H            1.0     0.0033006       0.18411       0.18081
   31  H            1.0     0.0005820       0.18303       0.18245
   32  H            1.0     0.0035096       0.18442       0.18091
   33  H            1.0     0.0033939       0.18475       0.18135
   34  H            1.0     0.0005764       0.18402       0.18344

          ---------------------
          ELECTROSTATIC MOMENTS
          ---------------------

 POINT   1           X           Y           Z (BOHR)    CHARGE
                 0.099731   -0.026309    0.070384       -1.00 (A.U.)
         DX          DY          DZ         /D/  (DEBYE)
    -9.270004   -5.958273    3.792400   11.654025
 ...... END OF PROPERTY EVALUATION ......
 CPU     0: STEP CPU TIME=     0.09 TOTAL CPU TIME=         19.2 (      0.3 MIN)
 TOTAL WALL CLOCK TIME=         35.6 SECONDS, CPU UTILIZATION IS    53.84%
               580000  WORDS OF DYNAMIC MEMORY USED
 EXECUTION OF GAMESS TERMINATED NORMALLY Mon May 25 19:11:16 2020
 DDI: 263640 bytes (0.3 MB / 0 MWords) used by master data server.
Note: The following floating-point exceptions are signalling: IEEE_DENORMALNote: The following floating-point exceptions are signalling: IEEE_DENORMALNote: The following floating-point exceptions are signalling: IEEE_DENORMALNote: The following floating-point exceptions are signalling: IEEE_DENORMAL
Note: The following floating-point exceptions are signalling: IEEE_DENORMAL
 ----------------------------------------
 CPU timing information for all processes
 ========================================
 0: 18.791 + 0.405 = 19.197
 1: 18.353 + 0.153 = 18.507
 2: 18.55 + 0.195 = 18.250
 3: 18.376 + 0.190 = 18.567
 4: 18.43 + 0.160 = 18.203
 5: 18.216 + 0.223 = 18.440
 ----------------------------------------




Note: The following floating-point exceptions are signalling: IEEE_DENORMAL
 ddikick.x: exited gracefully.
unset echo
----- accounting info -----
Files used on the master node pietdev were:
-rwxr-xr-x 1 piet piet     1474 mei 25 19:10 /home/piet/scr/linalyl_acetate_fukui_acid.F05*
-rw-r--r-- 1 piet piet 68812800 mei 25 19:11 /home/piet/scr/linalyl_acetate_fukui_acid.F10
ls: No match.
ls: No match.
ls: No match.
ma 25 mei 2020 19:11:19 CEST
0.119u 0.022s 0:38.80 0.3%	0+0k 0+8io 0pf+0w
