----- GAMESS execution script 'rungms' -----
This job is running on host pietdev
under operating system Linux at ma 25 mei 2020 19:10:41 CEST
Available scratch disk space (Kbyte units) at beginning of the job is
Filesystem     1K-blocks     Used Available Use% Mounted on
/dev/sda2      244568380 31071484 201003840  14% /
GAMESS temporary binary files will be written to /home/piet/scr
GAMESS supplementary output files will be written to /home/piet/gamess/scr
Copying input file linalyl_acetate_fukui_neu.inp to your run's scratch directory...
cp linalyl_acetate_fukui_neu.inp /home/piet/scr/linalyl_acetate_fukui_neu.F05
unset echo
 
Assuming a single but multicore node.
 
/home/piet/gamess/ddikick.x /home/piet/gamess/gamess.03.x linalyl_acetate_fukui_neu -ddi 1 6 pietdev:cpus=6 -scr /home/piet/scr

 Distributed Data Interface kickoff program.
 Initiating 6 compute processes on 1 nodes to run the following command:
 /home/piet/gamess/gamess.03.x linalyl_acetate_fukui_neu 

          ******************************************************
          *         GAMESS VERSION = 30 SEP 2019 (R2)          *
          *             FROM IOWA STATE UNIVERSITY             *
          * M.W.SCHMIDT, K.K.BALDRIDGE, J.A.BOATZ, S.T.ELBERT, *
          *   M.S.GORDON, J.H.JENSEN, S.KOSEKI, N.MATSUNAGA,   *
          *          K.A.NGUYEN, S.J.SU, T.L.WINDUS,           *
          *       TOGETHER WITH M.DUPUIS, J.A.MONTGOMERY       *
          *         J.COMPUT.CHEM.  14, 1347-1363(1993)        *
          **************** 64 BIT LINUX VERSION ****************

  SINCE 1993, STUDENTS AND POSTDOCS WORKING AT IOWA STATE UNIVERSITY
  AND ALSO IN THEIR VARIOUS JOBS AFTER LEAVING ISU HAVE MADE IMPORTANT
  CONTRIBUTIONS TO THE CODE:
     IVANA ADAMOVIC, CHRISTINE AIKENS, YURI ALEXEEV, POOJA ARORA,
     ANDREY ASADCHEV, ROB BELL, PRADIPTA BANDYOPADHYAY, JONATHAN BENTZ,
     COLLEEN BERTONI, BRETT BODE, KURT BRORSEN, CALEB CARLIN, GALINA CHABAN,
     WEI CHEN, CHEOL HO CHOI, PAUL DAY, ALBERT DEFUSCO, NUWAN DESILVA,
     TIM DUDLEY, DMITRI FEDOROV, ALEX FINDLATER, GRAHAM FLETCHER, 
     MARK FREITAG, KURT GLAESEMANN, EMILIE B GUIDEZ, ANASTASIA GUNINA, 
     DAN KEMP, SAROM SOK LEANG, GRANT MERRILL,
     NORIYUKI MINEZAWA, JONATHAN MULLIN,
     TAKESHI NAGATA, SEAN NEDD, HEATHER NETZLOFF, BOSILJKA NJEGIC, RYAN OLSON,
     MIKE PAK, BUU PHAM, DAVID POOLE,
     SPENCER PRUITT, LUKE ROSKOP, TOSAPORN SATTASATHUCHANA,
     JIM SHOEMAKER, LYUDMILA SLIPCHENKO,
     TONY SMITH, JIE SONG, TETSUYA TAKETSUGU, SIMON WEBB,
     JORGE LUIS GALVEZ VALLEJO, PENG XU, SOOHAENG YOO,
     FEDERICO ZAHARIEV

  ADDITIONAL CODE HAS BEEN PROVIDED BY COLLABORATORS IN OTHER GROUPS:
     IOWA STATE UNIVERSITY:
          JOE IVANIC, AARON WEST, LAIMUTIS BYTAUTAS, KLAUS RUEDENBERG
     UNIVERSITY OF TOKYO: KIMIHIKO HIRAO, TAKAHITO NAKAJIMA,
          TAKAO TSUNEDA, MUNEAKI KAMIYA, SUSUMU YANAGISAWA,
          KIYOSHI YAGI, MAHITO CHIBA, SEIKEN TOKURA, NAOAKI KAWAKAMI
     UNIVERSITY OF AARHUS: FRANK JENSEN
     UNIVERSITY OF IOWA: VISVALDAS KAIRYS, HUI LI
     NATIONAL INST. OF STANDARDS AND TECHNOLOGY: WALT STEVENS, DAVID GARMER
     UNIVERSITY OF PISA: BENEDETTA MENNUCCI, JACOPO TOMASI
     UNIVERSITY OF MEMPHIS: HENRY KURTZ, PRAKASHAN KORAMBATH
     UNIVERSITY OF ALBERTA: TOBY ZENG, MARIUSZ KLOBUKOWSKI
     UNIVERSITY OF NEW ENGLAND: MARK SPACKMAN
     MIE UNIVERSITY: HIROAKI UMEDA
     NAT. INST. OF ADVANCED INDUSTRIAL SCIENCE AND TECHNOLOGY: KAZUO KITAURA
     MICHIGAN STATE UNIVERSITY:
          KAROL KOWALSKI, MARTA WLOCH, JEFFREY GOUR, JESSE LUTZ,
          WEI LI, JUN SHEN, J. EMILIANO DEUSTUA, PIOTR PIECUCH
     UNIVERSITY OF MINNESOTA:
          ANDREW SAND, PRACHI SHARMA, YINAN SHU
     UNIVERSITY OF SILESIA: MONIKA MUSIAL, STANISLAW KUCHARSKI
     FACULTES UNIVERSITAIRES NOTRE-DAME DE LA PAIX:
          OLIVIER QUINET, BENOIT CHAMPAGNE
     UNIVERSITY OF CALIFORNIA - SANTA BARBARA: BERNARD KIRTMAN
     INSTITUTE FOR MOLECULAR SCIENCE:
          KAZUYA ISHIMURA, MICHIO KATOUDA, AND SHIGERU NAGASE
     UNIVERSITY OF NOTRE DAME: ANNA POMOGAEVA, DAN CHIPMAN
     KYUSHU UNIVERSITY:
          HARUYUKI NAKANO,
          FENG LONG GU, JACEK KORCHOWIEC, MARCIN MAKOWSKI, AND YURIKO AOKI,
          HIROTOSHI MORI AND EISAKU MIYOSHI
     PENNSYLVANIA STATE UNIVERSITY:
          TZVETELIN IORDANOV, CHET SWALINA, JONATHAN SKONE,
          SHARON HAMMES-SCHIFFER
     WASEDA UNIVERSITY:
          MASATO KOBAYASHI, TOMOKO AKAMA, TSUGUKI TOUMA,
          TAKESHI YOSHIKAWA, YASUHIRO IKABATA, JUNJI SEINO,
          YUYA NAKAJIMA, HIROMI NAKAI
     NANJING UNIVERSITY: SHUHUA LI
     UNIVERSITY OF NEBRASKA:
          PEIFENG SU, DEJUN SI, NANDUN THELLAMUREGE, YALI WANG, HUI LI
     UNIVERSITY OF ZURICH: ROBERTO PEVERATI, KIM BALDRIDGE
     N. COPERNICUS UNIVERSITY AND JACKSON STATE UNIVERSITY:
          MARIA BARYSZ
     UNIVERSITY OF COPENHAGEN: Jimmy Kromann, CASPER STEINMANN
     TOKYO INSTITUTE OF TECHNOLOGY: HIROYA NAKATA
     NAGOYA UNIVERSITY: YOSHIO NISHIMOTO, STEPHAN IRLE
     MOSCOW STATE UNIVERSITY: VLADIMIR MIRONOV
     A.N.NESMEYANOV INSTITUTE OF ORGANOELEMENT COMPOUNDS OF RUSSIAN ACADEMY OF SCIENCES:
          IGOR S. GERASIMOV
     JOHANNES KEPLER UNIVERSITY LINZ:
          CHRISTIAN FRIEDL


 PARALLEL VERSION RUNNING ON        6 PROCESSORS IN        1 NODES.

 EXECUTION OF GAMESS BEGUN Mon May 25 19:10:41 2020

            ECHO OF THE FIRST FEW INPUT CARDS -
 INPUT CARD> $BASIS GBASIS=N21 NGAUSS=3 $END                                                
 INPUT CARD> $CONTRL SCFTYP=RHF MAXIT=60 MULT=1 ICHARG=0 $END                               
 INPUT CARD> $SYSTEM MEMDDI=1000 MWORDS=30 $END                                             
 INPUT CARD> $SCF DIRSCF=.TRUE. $END                                                        
 INPUT CARD> $DATA                                                                          
 INPUT CARD>                                                                                
 INPUT CARD>C1                                                                              
 INPUT CARD>C 6.0000000 2.55806 -1.10163 0.29447                                            
 INPUT CARD>C 6.0000000 2.50420 -2.58020 -0.02301                                           
 INPUT CARD>O 8.0000000 3.52611 -0.53063 0.75001                                            
 INPUT CARD>O 8.0000000 1.36790 -0.51784 0.01006                                            
 INPUT CARD>C 6.0000000 1.12092 0.91205 0.24626                                             
 INPUT CARD>C 6.0000000 1.42216 1.29732 1.70340                                             
 INPUT CARD>C 6.0000000 1.92140 1.76709 -0.71804                                            
 INPUT CARD>C 6.0000000 2.45727 1.37689 -1.87481                                            
 INPUT CARD>C 6.0000000 -0.38215 1.07297 -0.09627                                           
 INPUT CARD>C 6.0000000 -1.36938 0.32096 0.82065                                            
 INPUT CARD>C 6.0000000 -2.79864 0.50827 0.37948                                            
 INPUT CARD>C 6.0000000 -3.63700 -0.40126 -0.14832                                          
 INPUT CARD>C 6.0000000 -3.28613 -1.84590 -0.41697                                          
 INPUT CARD>C 6.0000000 -5.05324 -0.02634 -0.52106                                          
 INPUT CARD>H 1.0000000 3.51061 -2.99649 0.02858                                            
 INPUT CARD>H 1.0000000 1.86569 -3.08805 0.70826                                            
 INPUT CARD>H 1.0000000 2.07020 -2.74999 -1.01224                                           
 INPUT CARD>H 1.0000000 2.49523 1.32453 1.89088                                             
 INPUT CARD>H 1.0000000 0.99919 2.28752 1.90765                                             
 INPUT CARD>H 1.0000000 0.96543 0.58498 2.39574                                             
 INPUT CARD>H 1.0000000 2.00655 2.81032 -0.41421                                            
 INPUT CARD>H 1.0000000 2.40017 0.34818 -2.21936                                            
 INPUT CARD>H 1.0000000 2.98870 2.07866 -2.51029                                            
 INPUT CARD>H 1.0000000 -0.61183 2.14628 -0.08585                                           
 INPUT CARD>H 1.0000000 -0.51961 0.73582 -1.12962                                           
 INPUT CARD>H 1.0000000 -1.09515 -0.73704 0.84932                                           
 INPUT CARD>H 1.0000000 -1.27405 0.69846 1.84728                                            
 INPUT CARD>H 1.0000000 -3.18464 1.52201 0.50684                                            
 INPUT CARD>H 1.0000000 -3.93019 -2.51646 0.16845                                           
 INPUT CARD>H 1.0000000 -3.46332 -2.08925 -1.47312                                          
 INPUT CARD>H 1.0000000 -2.24716 -2.09043 -0.18757                                          
 INPUT CARD>H 1.0000000 -5.24089 -0.20235 -1.58918                                          
 INPUT CARD>H 1.0000000 -5.77884 -0.64228 0.02798                                           
 INPUT CARD>H 1.0000000 -5.26913 1.02450 -0.30590                                           
 INPUT CARD> $END                                                                           
   30000000 WORDS OF MEMORY AVAILABLE

     BASIS OPTIONS
     -------------
     GBASIS=N21          IGAUSS=       3      POLAR=NONE    
     NDFUNC=       0     NFFUNC=       0     DIFFSP=       F
     NPFUNC=       0      DIFFS=       F     BASNAM=        


     RUN TITLE
     ---------
                                                                                 

 THE POINT GROUP OF THE MOLECULE IS C1      
 THE ORDER OF THE PRINCIPAL AXIS IS     0

 ATOM      ATOMIC                      COORDINATES (BOHR)
           CHARGE         X                   Y                   Z
 C           6.0     4.8340324602       -2.0817788399        0.5564676116
 C           6.0     4.7322518185       -4.8758709935       -0.0434825950
 O           8.0     6.6633817026       -1.0027453009        1.4173133881
 O           8.0     2.5849561786       -0.9785757055        0.0190106434
 C           6.0     2.1182316542        1.7235245871        0.4653639217
 C           6.0     2.6874927107        2.4515793184        3.2189592475
 C           6.0     3.6309195128        3.3393158956       -1.3568988482
 C           6.0     4.6435669778        2.6019448152       -3.5428771790
 C           6.0    -0.7221587862        2.0276192930       -0.1819239208
 C           6.0    -2.5877529731        0.6065264530        1.5508036318
 C           6.0    -5.2886627383        0.9604910278        0.7171132178
 C           6.0    -6.8729334173       -0.7582714498       -0.2802841585
 C           6.0    -6.2098852600       -3.4882452007       -0.7879590451
 C           6.0    -9.5492389502       -0.0497753825       -0.9846606232
 H           1.0     6.6340909498       -5.6625450249        0.0540083687
 H           1.0     3.5256428780       -5.8355683364        1.3384173281
 H           1.0     3.9121107398       -5.1967275690       -1.9128562338
 H           1.0     4.7153009763        2.5029987625        3.5732450757
 H           1.0     1.8881953097        4.3227859914        3.6049357805
 H           1.0     1.8243981603        1.1054519083        4.5272921378
 H           1.0     3.7918296807        5.3107347378       -0.7827434014
 H           1.0     4.5356636240        0.6579647944       -4.1939822681
 H           1.0     5.6478240595        3.9280978216       -4.7437602497
 H           1.0    -1.1561910511        4.0558810929       -0.1622329760
 H           1.0    -0.9819205205        1.3904981763       -2.1346722703
 H           1.0    -2.0695334155       -1.3928036420        1.6049820759
 H           1.0    -2.4076053947        1.3198980134        3.4908530226
 H           1.0    -6.0180969695        2.8761818506        0.9577887196
 H           1.0    -7.4269821797       -4.7554198591        0.3183243426
 H           1.0    -6.5447258078       -3.9481100198       -2.7837931470
 H           1.0    -4.2465166506       -3.9503398965       -0.3544559035
 H           1.0    -9.9038460318       -0.3823860536       -3.0031147452
 H           1.0   -10.9204241269       -1.2137332074        0.0528745331
 H           1.0    -9.9572118937        1.9360242744       -0.5780671796

          INTERNUCLEAR DISTANCES (ANGS.)
          ------------------------------

                1 C          2 C          3 O          4 O          5 C     

   1 C       0.0000000    1.5132296 *  1.2127153 *  1.3557952 *  2.4743894 *
   2 C       1.5132296 *  0.0000000    2.4171465 *  2.3549098 *  3.7658704  
   3 O       1.2127153 *  2.4171465 *  0.0000000    2.2815696 *  2.8495664 *
   4 O       1.3557952 *  2.3549098 *  2.2815696 *  0.0000000    1.4701615 *
   5 C       2.4743894 *  3.7658704    2.8495664 *  1.4701615 *  0.0000000  
   6 C       3.0050480    4.3802355    2.9456679 *  2.4829721 *  1.5370216 *
   7 C       3.1080648    4.4409068    3.1638240    2.4611780 *  1.5171474 *
   8 C       3.2952990    4.3692021    3.4162452    2.8860810 *  2.5496756 *
   9 C       3.6778251    4.6563971    4.3083894    2.3674158 *  1.5499811 *
  10 C       4.2101559    4.9125465    4.9695088    2.9754568 *  2.6231480 *
  11 C       5.5940361    6.1498583    6.4202078    4.3069047    3.9425546  
  12 C       6.2502280    6.5175010    7.2203794    5.0087622    4.9515936  
  13 C       5.9341926    5.8499848    7.0355093    4.8586102    5.2410163  
  14 C       7.7300211    7.9928189    8.6876449    6.4617876    6.2920273  
  15 H       2.1374151 *  1.0903302 *  2.5692736 *  3.2764699    4.5863589  
  16 H       2.1439363 *  1.0956105 *  3.0494483    2.7094755 *  4.0949880  
  17 H       2.1593029 *  1.0935084 *  3.1860254    2.5535889 *  3.9869151  
  18 H       2.9049483 *  4.3485597    2.4095470 *  2.8640328 *  2.1825771 *
  19 H       4.0643281    5.4485963    3.9582098    3.4068812    2.1603131 *
  20 H       3.1299296    4.2704249    3.2419277    2.6588838 *  2.1797743 *
  21 H       4.0136945    5.4275592    3.8505088    3.4153371    2.1963584 *
  22 H       2.9062380 *  3.6619919    3.2950275    2.6049732 *  2.8343803 *
  23 H       4.2622029    5.3034214    4.2103159    3.9649677    3.5281934  
  24 H       4.5543128    5.6615550    4.9987055    3.3205519    2.1531473 *
  25 H       3.8569817    4.6221209    4.6373219    2.5363809 *  2.1483579 *
  26 H       3.7130483    4.1368489    4.6269333    2.6113256 *  2.8273920 *
  27 H       4.5096131    5.3406712    5.0750566    3.4401545    2.8887310 *
  28 H       6.3172139    7.0336170    7.0218679    5.0133221    4.3563517  
  29 H       6.6419134    6.4375534    7.7380968    5.6647442    6.1052803  
  30 H       6.3526990    6.1607748    7.4982488    5.2924322    5.7427629  
  31 H       4.9295261    4.7793699    6.0533197    3.9472466    4.5328862  
  32 H       8.0734418    8.2518773    9.0796402    6.8068501    6.7144139  
  33 H       8.3537968    8.5068728    9.3335892    7.1478458    7.0760353  
  34 H       8.1330054    8.5731294    8.9938658    6.8212030    6.4148472  

                6 C          7 C          8 C          9 C         10 C     

   1 C       3.0050480    3.1080648    3.2952990    3.6778251    4.2101559  
   2 C       4.3802355    4.4409068    4.3692021    4.6563971    4.9125465  
   3 O       2.9456679 *  3.1638240    3.4162452    4.3083894    4.9695088  
   4 O       2.4829721 *  2.4611780 *  2.8860810 *  2.3674158 *  2.9754568 *
   5 C       1.5370216 *  1.5171474 *  2.5496756 *  1.5499811 *  2.6231480 *
   6 C       0.0000000    2.5166041 *  3.7257712    2.5582571 *  3.0862958  
   7 C       2.5166041 *  0.0000000    1.3332402 *  2.4849030 *  3.9099990  
   8 C       3.7257712    1.3332402 *  0.0000000    3.3642054    4.7983063  
   9 C       2.5582571 *  2.4849030 *  3.3642054    0.0000000    1.5430115 *
  10 C       3.0862958    3.9099990    4.7983063    1.5430115 *  0.0000000  
  11 C       4.4933859    5.0067909    5.7845410    2.5267861 *  1.5074814 *
  12 C       5.6488177    5.9935076    6.5789598    3.5735293    2.5695535 *
  13 C       6.0451465    6.3452903    6.7452440    4.1298608    3.1465721  
  14 C       6.9736005    7.2042207    7.7594751    4.8174693    3.9359405  
  15 H       5.0599852    5.0768814    4.8845544    5.6329098    5.9537511  
  16 H       4.5186826    5.0606146    5.1921004    4.7973056    4.7010274  
  17 H       4.9168460    4.5290956    4.2337913    4.6333621    4.9619482  
  18 H       1.0896643 *  2.7076934 *  3.7662453    3.5059041    4.1337338  
  19 H       1.0959552 *  2.8311776 *  4.1547861    2.7200969 *  3.2648202  
  20 H       1.0933276 *  3.4650958    4.5924182    2.8747556 *  2.8287723 *
  21 H       2.6673869 *  1.0899046 *  2.0955244 *  2.9707505 *  4.3724931  
  22 H       4.1527601    2.1204924 *  1.0863790 *  3.5740924    4.8427171  
  23 H       4.5628635    2.1091148 *  1.0856951 *  4.2663257    5.7599941  
  24 H       2.8388843 *  2.6383145 *  3.6347921    1.0976593 *  2.1742625 *
  25 H       3.4801947    2.6816871 *  3.1349790    1.0956174 *  2.1674342 *
  26 H       3.3473755    4.2221864    4.9506840    2.1630177 *  1.0933380 *
  27 H       2.7656614 *  4.2348244    5.3138470    2.1709744 *  1.0979814 *
  28 H       4.7649604    5.2566187    6.1257216    2.9016080 *  2.1991286 *
  29 H       6.7489732    7.3058723    7.7545297    5.0539759    3.8773786  
  30 H       6.7399592    6.6660868    6.8723262    4.6248200    3.9312947  
  31 H       5.3400868    5.7042748    6.0828241    3.6733769    2.7571375 *
  32 H       7.5819739    7.4790358    7.8636665    5.2404748    4.5901769  
  33 H       7.6435255    8.1027962    8.6908668    5.6640784    4.5825205  
  34 H       6.9917865    7.2405125    7.8919525    4.8917142    4.1197249  

               11 C         12 C         13 C         14 C         15 H     

   1 C       5.5940361    6.2502280    5.9341926    7.7300211    2.1374151 *
   2 C       6.1498583    6.5175010    5.8499848    7.9928189    1.0903302 *
   3 O       6.4202078    7.2203794    7.0355093    8.6876449    2.5692736 *
   4 O       4.3069047    5.0087622    4.8586102    6.4617876    3.2764699  
   5 C       3.9425546    4.9515936    5.2410163    6.2920273    4.5863589  
   6 C       4.4933859    5.6488177    6.0451465    6.9736005    5.0599852  
   7 C       5.0067909    5.9935076    6.3452903    7.2042207    5.0768814  
   8 C       5.7845410    6.5789598    6.7452440    7.7594751    4.8845544  
   9 C       2.5267861 *  3.5735293    4.1298608    4.8174693    5.6329098  
  10 C       1.5074814 *  2.5695535 *  3.1465721    3.9359405    5.9537511  
  11 C       0.0000000    1.3448662 *  2.5326065 *  2.4859608 *  7.2258639  
  12 C       1.3448662 *  0.0000000    1.5107175 *  1.5116997 *  7.6062370  
  13 C       2.5326065 *  1.5107175 *  0.0000000    2.5385648 *  6.9078250  
  14 C       2.4859608 *  1.5116997 *  2.5385648 *  0.0000000    9.0809373  
  15 H       7.2258639    7.6062370    6.9078250    9.0809373    0.0000000  
  16 H       5.8989481    6.1832166    5.4175943    7.6653042    1.7821644 *
  17 H       6.0215235    6.2317752    5.4646131    7.6421806    1.7941152 *
  18 H       5.5655790    6.6888663    6.9858372    8.0387626    4.8135612  
  19 H       4.4636921    5.7402795    6.3916341    6.9198619    6.1448268  
  20 H       4.2707624    5.3504460    5.6476790    6.7160869    4.9908231  
  21 H       5.3869499    6.4988153    7.0493158    7.6091190    6.0147570  
  22 H       5.8143980    6.4263745    6.3558323    7.6536141    4.1800872  
  23 H       6.6565907    7.4584721    7.6914011    8.5475646    5.6987190  
  24 H       2.7715964 *  3.9554413    4.8165363    4.9634472    6.5920929  
  25 H       2.7428342 *  3.4603498    3.8505559    4.6373521    5.6137544  
  26 H       2.1618105 *  2.7511880 *  2.7628706 *  4.2484718    5.1953589  
  27 H       2.1248491 *  3.2825807    3.9558895    4.5184783    6.3129467  
  28 H       1.0921929 *  2.0815455 *  3.4937863    2.6354567 *  8.0914737  
  29 H       3.2363453    2.1587901 *  1.0987177 *  2.8173326 *  7.4575798  
  30 H       3.2589932    2.1528052 *  1.0982114 *  2.7730600 *  7.1912368  
  31 H       2.7164163 *  2.1878051 *  1.0917316 *  3.4993954    5.8326307  
  32 H       3.2163936    2.1652034 *  2.8100569 *  1.0986685 *  9.3280822  
  33 H       3.2138621    2.1625566 *  2.8036199 *  1.0987822 *  9.5831199  
  34 H       2.6152552 *  2.1728947 *  3.4905332    1.0941513 *  9.6625086  

               16 H         17 H         18 H         19 H         20 H     

   1 C       2.1439363 *  2.1593029 *  2.9049483 *  4.0643281    3.1299296  
   2 C       1.0956105 *  1.0935084 *  4.3485597    5.4485963    4.2704249  
   3 O       3.0494483    3.1860254    2.4095470 *  3.9582098    3.2419277  
   4 O       2.7094755 *  2.5535889 *  2.8640328 *  3.4068812    2.6588838 *
   5 C       4.0949880    3.9869151    2.1825771 *  2.1603131 *  2.1797743 *
   6 C       4.5186826    4.9168460    1.0896643 *  1.0959552 *  1.0933276 *
   7 C       5.0606146    4.5290956    2.7076934 *  2.8311776 *  3.4650958  
   8 C       5.1921004    4.2337913    3.7662453    4.1547861    4.5924182  
   9 C       4.7973056    4.6333621    3.5059041    2.7200969 *  2.8747556 *
  10 C       4.7010274    4.9619482    4.1337338    3.2648202    2.8287723 *
  11 C       5.8989481    6.0215235    5.5655790    4.4636921    4.2707624  
  12 C       6.1832166    6.2317752    6.6888663    5.7402795    5.3504460  
  13 C       5.4175943    5.4646131    6.9858372    6.3916341    5.6476790  
  14 C       7.6653042    7.6421806    8.0387626    6.9198619    6.7160869  
  15 H       1.7821644 *  1.7941152 *  4.8135612    6.1448268    4.9908231  
  16 H       0.0000000    1.7652844 *  4.6114827    5.5754920    4.1411600  
  17 H       1.7652844 *  0.0000000    5.0210028    5.9202472    4.8945755  
  18 H       4.6114827    5.0210028    0.0000000    1.7792601 *  1.7725986 *
  19 H       5.5754920    5.9202472    1.7792601 *  0.0000000    1.7714441 *
  20 H       4.1411600    4.8945755    1.7725986 *  1.7714441 *  0.0000000  
  21 H       6.0058762    5.5927398    2.7856453 *  2.5844009 *  3.7325444  
  22 H       4.5458007    3.3413584    4.2256797    4.7703245    4.8387706  
  23 H       6.1899199    5.1384489    4.4924962    4.8497388    5.5130601  
  24 H       5.8452482    5.6590585    3.7731361    2.5669781 *  3.3292185  
  25 H       4.8671800    4.3441645    4.3080460    3.7335687    3.8283495  
  26 H       3.7833477    4.1876979    4.2691623    3.8280916    2.8957109 *
  27 H       5.0490585    5.5904088    3.8211695    2.7742344 *  2.3084533 *
  28 H       6.8409836    6.9405282    5.8494007    4.4780250    4.6550026  
  29 H       5.8489602    6.1199057    7.6815357    7.0994245    6.2086106  
  30 H       5.8441738    5.5918540    7.6468757    7.1063153    6.4601401  
  31 H       4.3258863    4.4446257    6.2025937    5.8391079    4.9144729  
  32 H       8.0068080    7.7637212    8.6191492    7.5740261    7.4174041  
  33 H       8.0550239    8.1934076    8.7062605    7.6196180    7.2524225  
  34 H       8.2974240    8.2832032    8.0747227    6.7665988    6.8089482  

               21 H         22 H         23 H         24 H         25 H     

   1 C       4.0136945    2.9062380 *  4.2622029    4.5543128    3.8569817  
   2 C       5.4275592    3.6619919    5.3034214    5.6615550    4.6221209  
   3 O       3.8505088    3.2950275    4.2103159    4.9987055    4.6373219  
   4 O       3.4153371    2.6049732 *  3.9649677    3.3205519    2.5363809 *
   5 C       2.1963584 *  2.8343803 *  3.5281934    2.1531473 *  2.1483579 *
   6 C       2.6673869 *  4.1527601    4.5628635    2.8388843 *  3.4801947  
   7 C       1.0899046 *  2.1204924 *  2.1091148 *  2.6383145 *  2.6816871 *
   8 C       2.0955244 *  1.0863790 *  1.0856951 *  3.6347921    3.1349790  
   9 C       2.9707505 *  3.5740924    4.2663257    1.0976593 *  1.0956174 *
  10 C       4.3724931    4.8427171    5.7599941    2.1742625 *  2.1674342 *
  11 C       5.3869499    5.8143980    6.6565907    2.7715964 *  2.7428342 *
  12 C       6.4988153    6.4263745    7.4584721    3.9554413    3.4603498  
  13 C       7.0493158    6.3558323    7.6914011    4.8165363    3.8505559  
  14 C       7.6091190    7.6536141    8.5475646    4.9634472    4.6373521  
  15 H       6.0147570    4.1800872    5.6987190    6.5920929    5.6137544  
  16 H       6.0058762    4.5458007    6.1899199    5.8452482    4.8671800  
  17 H       5.5927398    3.3413584    5.1384489    5.6590585    4.3441645  
  18 H       2.7856453 *  4.2256797    4.4924962    3.7731361    4.3080460  
  19 H       2.5844009 *  4.7703245    4.8497388    2.5669781 *  3.7335687  
  20 H       3.7325444    4.8387706    5.5130601    3.3292185    3.8283495  
  21 H       0.0000000    3.0782522    2.4276524 *  2.7211548 *  3.3461689  
  22 H       3.0782522    0.0000000    1.8508292 *  4.1057487    3.1405275  
  23 H       2.4276524 *  1.8508292 *  0.0000000    4.3412323    4.0022129  
  24 H       2.7211548 *  4.1057487    4.3412323    0.0000000    1.7570879 *
  25 H       3.3461689    3.1405275    4.0022129    1.7570879 *  0.0000000  
  26 H       4.8786078    4.7761660    5.9910748    3.0694748    2.5331337 *
  27 H       4.5096148    5.4918257    6.2501525    2.5043382 *  3.0712390  
  28 H       5.4273870    6.3245669    6.8936971    2.7129957 *  3.2246676  
  29 H       7.9974346    7.3471938    8.7270737    5.7286408    4.8881865  
  30 H       7.4193365    6.3936261    7.7508553    5.2910517    4.0944403  
  31 H       6.4932861    5.6278473    7.0845303    4.5425062    3.4437736  
  32 H       7.9361276    7.6867424    8.5893889    5.4040966    4.8354776  
  33 H       8.5280875    8.5397747    9.5244993    5.8725647    5.5586597  
  34 H       7.4924231    7.9332780    8.6117562    4.7955454    4.8290569  

               26 H         27 H         28 H         29 H         30 H     

   1 C       3.7130483    4.5096131    6.3172139    6.6419134    6.3526990  
   2 C       4.1368489    5.3406712    7.0336170    6.4375534    6.1607748  
   3 O       4.6269333    5.0750566    7.0218679    7.7380968    7.4982488  
   4 O       2.6113256 *  3.4401545    5.0133221    5.6647442    5.2924322  
   5 C       2.8273920 *  2.8887310 *  4.3563517    6.1052803    5.7427629  
   6 C       3.3473755    2.7656614 *  4.7649604    6.7489732    6.7399592  
   7 C       4.2221864    4.2348244    5.2566187    7.3058723    6.6660868  
   8 C       4.9506840    5.3138470    6.1257216    7.7545297    6.8723262  
   9 C       2.1630177 *  2.1709744 *  2.9016080 *  5.0539759    4.6248200  
  10 C       1.0933380 *  1.0979814 *  2.1991286 *  3.8773786    3.9312947  
  11 C       2.1618105 *  2.1248491 *  1.0921929 *  3.2363453    3.2589932  
  12 C       2.7511880 *  3.2825807    2.0815455 *  2.1587901 *  2.1528052 *
  13 C       2.7628706 *  3.9558895    3.4937863    1.0987177 *  1.0982114 *
  14 C       4.2484718    4.5184783    2.6354567 *  2.8173326 *  2.7730600 *
  15 H       5.1953589    6.3129467    8.0914737    7.4575798    7.1912368  
  16 H       3.7833477    5.0490585    6.8409836    5.8489602    5.8441738  
  17 H       4.1876979    5.5904088    6.9405282    6.1199057    5.5918540  
  18 H       4.2691623    3.8211695    5.8494007    7.6815357    7.6468757  
  19 H       3.8280916    2.7742344 *  4.4780250    7.0994245    7.1063153  
  20 H       2.8957109 *  2.3084533 *  4.6550026    6.2086106    6.4601401  
  21 H       4.8786078    4.5096148    5.4273870    7.9974346    7.4193365  
  22 H       4.7761660    5.4918257    6.3245669    7.3471938    6.3936261  
  23 H       5.9910748    6.2501525    6.8936971    8.7270737    7.7508553  
  24 H       3.0694748    2.5043382 *  2.7129957 *  5.7286408    5.2910517  
  25 H       2.5331337 *  3.0712390    3.2246676    4.8881865    4.0944403  
  26 H       0.0000000    1.7574384 *  3.0962183    3.4157534    3.5819588  
  27 H       1.7574384 *  0.0000000    2.4749481 *  4.4954711    4.8568803  
  28 H       3.0962183    2.4749481 *  0.0000000    4.1206301    4.1278448  
  29 H       3.4157534    4.4954711    4.1206301    0.0000000    1.7593260 *
  30 H       3.5819588    4.8568803    4.1278448    1.7593260 *  0.0000000  
  31 H       2.0576522 *  3.5868461    3.7961555    1.7722420 *  1.7696568 *
  32 H       4.8393528    5.3250855    3.4051257    3.1878367    2.5949213 *
  33 H       4.7561046    5.0398977    3.4122327    2.6362453 *  3.1158717  
  34 H       4.6754321    4.5500715    2.2919775 *  3.8152544    3.7840179  

               31 H         32 H         33 H         34 H     

   1 C       4.9295261    8.0734418    8.3537968    8.1330054  
   2 C       4.7793699    8.2518773    8.5068728    8.5731294  
   3 O       6.0533197    9.0796402    9.3335892    8.9938658  
   4 O       3.9472466    6.8068501    7.1478458    6.8212030  
   5 C       4.5328862    6.7144139    7.0760353    6.4148472  
   6 C       5.3400868    7.5819739    7.6435255    6.9917865  
   7 C       5.7042748    7.4790358    8.1027962    7.2405125  
   8 C       6.0828241    7.8636665    8.6908668    7.8919525  
   9 C       3.6733769    5.2404748    5.6640784    4.8917142  
  10 C       2.7571375 *  4.5901769    4.5825205    4.1197249  
  11 C       2.7164163 *  3.2163936    3.2138621    2.6152552 *
  12 C       2.1878051 *  2.1652034 *  2.1625566 *  2.1728947 *
  13 C       1.0917316 *  2.8100569 *  2.8036199 *  3.4905332  
  14 C       3.4993954    1.0986685 *  1.0987822 *  1.0941513 *
  15 H       5.8326307    9.3280822    9.5831199    9.6625086  
  16 H       4.3258863    8.0068080    8.0550239    8.2974240  
  17 H       4.4446257    7.7637212    8.1934076    8.2832032  
  18 H       6.2025937    8.6191492    8.7062605    8.0747227  
  19 H       5.8391079    7.5740261    7.6196180    6.7665988  
  20 H       4.9144729    7.4174041    7.2524225    6.8089482  
  21 H       6.4932861    7.9361276    8.5280875    7.4924231  
  22 H       5.6278473    7.6867424    8.5397747    7.9332780  
  23 H       7.0845303    8.5893889    9.5244993    8.6117562  
  24 H       4.5425062    5.4040966    5.8725647    4.7955454  
  25 H       3.4437736    4.8354776    5.5586597    4.8290569  
  26 H       2.0576522 *  4.8393528    4.7561046    4.6754321  
  27 H       3.5868461    5.3250855    5.0398977    4.5500715  
  28 H       3.7961555    3.4051257    3.4122327    2.2919775 *
  29 H       1.7722420 *  3.1878367    2.6362453 *  3.8152544  
  30 H       1.7696568 *  2.5949213 *  3.1158717    3.7840179  
  31 H       0.0000000    3.8068065    3.8231353    4.3415543  
  32 H       3.8068065    0.0000000    1.7601520 *  1.7756030 *
  33 H       3.8231353    1.7601520 *  0.0000000    1.7746650 *
  34 H       4.3415543    1.7756030 *  1.7746650 *  0.0000000  

  * ... LESS THAN  3.000


     ATOMIC BASIS SET
     ----------------
 THE CONTRACTED PRIMITIVE FUNCTIONS HAVE BEEN UNNORMALIZED
 THE CONTRACTED BASIS FUNCTIONS ARE NOW NORMALIZED TO UNITY

  SHELL TYPE  PRIMITIVE        EXPONENT          CONTRACTION COEFFICIENT(S)

 C         

      1   S       1           172.2560000    0.061766907377
      1   S       2            25.9109000    0.358794042852
      1   S       3             5.5333500    0.700713083689

      2   L       4             3.6649800   -0.395895162119    0.236459946619
      2   L       5             0.7705450    1.215834355681    0.860618805716

      3   L       6             0.1958570    1.000000000000    1.000000000000

 C         

      4   S       7           172.2560000    0.061766907377
      4   S       8            25.9109000    0.358794042852
      4   S       9             5.5333500    0.700713083689

      5   L      10             3.6649800   -0.395895162119    0.236459946619
      5   L      11             0.7705450    1.215834355681    0.860618805716

      6   L      12             0.1958570    1.000000000000    1.000000000000

 O         

      7   S      13           322.0370000    0.059239393389
      7   S      14            48.4308000    0.351499960776
      7   S      15            10.4206000    0.707657921031

      8   L      16             7.4029400   -0.404453583190    0.244586106967
      8   L      17             1.5762000    1.221561761397    0.853955373466

      9   L      18             0.3736840    1.000000000000    1.000000000000

 O         

     10   S      19           322.0370000    0.059239393389
     10   S      20            48.4308000    0.351499960776
     10   S      21            10.4206000    0.707657921031

     11   L      22             7.4029400   -0.404453583190    0.244586106967
     11   L      23             1.5762000    1.221561761397    0.853955373466

     12   L      24             0.3736840    1.000000000000    1.000000000000

 C         

     13   S      25           172.2560000    0.061766907377
     13   S      26            25.9109000    0.358794042852
     13   S      27             5.5333500    0.700713083689

     14   L      28             3.6649800   -0.395895162119    0.236459946619
     14   L      29             0.7705450    1.215834355681    0.860618805716

     15   L      30             0.1958570    1.000000000000    1.000000000000

 C         

     16   S      31           172.2560000    0.061766907377
     16   S      32            25.9109000    0.358794042852
     16   S      33             5.5333500    0.700713083689

     17   L      34             3.6649800   -0.395895162119    0.236459946619
     17   L      35             0.7705450    1.215834355681    0.860618805716

     18   L      36             0.1958570    1.000000000000    1.000000000000

 C         

     19   S      37           172.2560000    0.061766907377
     19   S      38            25.9109000    0.358794042852
     19   S      39             5.5333500    0.700713083689

     20   L      40             3.6649800   -0.395895162119    0.236459946619
     20   L      41             0.7705450    1.215834355681    0.860618805716

     21   L      42             0.1958570    1.000000000000    1.000000000000

 C         

     22   S      43           172.2560000    0.061766907377
     22   S      44            25.9109000    0.358794042852
     22   S      45             5.5333500    0.700713083689

     23   L      46             3.6649800   -0.395895162119    0.236459946619
     23   L      47             0.7705450    1.215834355681    0.860618805716

     24   L      48             0.1958570    1.000000000000    1.000000000000

 C         

     25   S      49           172.2560000    0.061766907377
     25   S      50            25.9109000    0.358794042852
     25   S      51             5.5333500    0.700713083689

     26   L      52             3.6649800   -0.395895162119    0.236459946619
     26   L      53             0.7705450    1.215834355681    0.860618805716

     27   L      54             0.1958570    1.000000000000    1.000000000000

 C         

     28   S      55           172.2560000    0.061766907377
     28   S      56            25.9109000    0.358794042852
     28   S      57             5.5333500    0.700713083689

     29   L      58             3.6649800   -0.395895162119    0.236459946619
     29   L      59             0.7705450    1.215834355681    0.860618805716

     30   L      60             0.1958570    1.000000000000    1.000000000000

 C         

     31   S      61           172.2560000    0.061766907377
     31   S      62            25.9109000    0.358794042852
     31   S      63             5.5333500    0.700713083689

     32   L      64             3.6649800   -0.395895162119    0.236459946619
     32   L      65             0.7705450    1.215834355681    0.860618805716

     33   L      66             0.1958570    1.000000000000    1.000000000000

 C         

     34   S      67           172.2560000    0.061766907377
     34   S      68            25.9109000    0.358794042852
     34   S      69             5.5333500    0.700713083689

     35   L      70             3.6649800   -0.395895162119    0.236459946619
     35   L      71             0.7705450    1.215834355681    0.860618805716

     36   L      72             0.1958570    1.000000000000    1.000000000000

 C         

     37   S      73           172.2560000    0.061766907377
     37   S      74            25.9109000    0.358794042852
     37   S      75             5.5333500    0.700713083689

     38   L      76             3.6649800   -0.395895162119    0.236459946619
     38   L      77             0.7705450    1.215834355681    0.860618805716

     39   L      78             0.1958570    1.000000000000    1.000000000000

 C         

     40   S      79           172.2560000    0.061766907377
     40   S      80            25.9109000    0.358794042852
     40   S      81             5.5333500    0.700713083689

     41   L      82             3.6649800   -0.395895162119    0.236459946619
     41   L      83             0.7705450    1.215834355681    0.860618805716

     42   L      84             0.1958570    1.000000000000    1.000000000000

 H         

     43   S      85             5.4471780    0.156284978695
     43   S      86             0.8245472    0.904690876670

     44   S      87             0.1831916    1.000000000000

 H         

     45   S      88             5.4471780    0.156284978695
     45   S      89             0.8245472    0.904690876670

     46   S      90             0.1831916    1.000000000000

 H         

     47   S      91             5.4471780    0.156284978695
     47   S      92             0.8245472    0.904690876670

     48   S      93             0.1831916    1.000000000000

 H         

     49   S      94             5.4471780    0.156284978695
     49   S      95             0.8245472    0.904690876670

     50   S      96             0.1831916    1.000000000000

 H         

     51   S      97             5.4471780    0.156284978695
     51   S      98             0.8245472    0.904690876670

     52   S      99             0.1831916    1.000000000000

 H         

     53   S     100             5.4471780    0.156284978695
     53   S     101             0.8245472    0.904690876670

     54   S     102             0.1831916    1.000000000000

 H         

     55   S     103             5.4471780    0.156284978695
     55   S     104             0.8245472    0.904690876670

     56   S     105             0.1831916    1.000000000000

 H         

     57   S     106             5.4471780    0.156284978695
     57   S     107             0.8245472    0.904690876670

     58   S     108             0.1831916    1.000000000000

 H         

     59   S     109             5.4471780    0.156284978695
     59   S     110             0.8245472    0.904690876670

     60   S     111             0.1831916    1.000000000000

 H         

     61   S     112             5.4471780    0.156284978695
     61   S     113             0.8245472    0.904690876670

     62   S     114             0.1831916    1.000000000000

 H         

     63   S     115             5.4471780    0.156284978695
     63   S     116             0.8245472    0.904690876670

     64   S     117             0.1831916    1.000000000000

 H         

     65   S     118             5.4471780    0.156284978695
     65   S     119             0.8245472    0.904690876670

     66   S     120             0.1831916    1.000000000000

 H         

     67   S     121             5.4471780    0.156284978695
     67   S     122             0.8245472    0.904690876670

     68   S     123             0.1831916    1.000000000000

 H         

     69   S     124             5.4471780    0.156284978695
     69   S     125             0.8245472    0.904690876670

     70   S     126             0.1831916    1.000000000000

 H         

     71   S     127             5.4471780    0.156284978695
     71   S     128             0.8245472    0.904690876670

     72   S     129             0.1831916    1.000000000000

 H         

     73   S     130             5.4471780    0.156284978695
     73   S     131             0.8245472    0.904690876670

     74   S     132             0.1831916    1.000000000000

 H         

     75   S     133             5.4471780    0.156284978695
     75   S     134             0.8245472    0.904690876670

     76   S     135             0.1831916    1.000000000000

 H         

     77   S     136             5.4471780    0.156284978695
     77   S     137             0.8245472    0.904690876670

     78   S     138             0.1831916    1.000000000000

 H         

     79   S     139             5.4471780    0.156284978695
     79   S     140             0.8245472    0.904690876670

     80   S     141             0.1831916    1.000000000000

 H         

     81   S     142             5.4471780    0.156284978695
     81   S     143             0.8245472    0.904690876670

     82   S     144             0.1831916    1.000000000000

 TOTAL NUMBER OF BASIS SET SHELLS             =   82
 NUMBER OF CARTESIAN GAUSSIAN BASIS FUNCTIONS =  166
 NUMBER OF ELECTRONS                          =  108
 CHARGE OF MOLECULE                           =    0
 SPIN MULTIPLICITY                            =    1
 NUMBER OF OCCUPIED ORBITALS (ALPHA)          =   54
 NUMBER OF OCCUPIED ORBITALS (BETA )          =   54
 TOTAL NUMBER OF ATOMS                        =   34
 THE NUCLEAR REPULSION ENERGY IS      912.8377646726

     $CONTRL OPTIONS
     ---------------
 SCFTYP=RHF          RUNTYP=ENERGY       EXETYP=RUN     
 MPLEVL=       0     CITYP =NONE         CCTYP =NONE         VBTYP =NONE    
 DFTTYP=NONE         TDDFT =NONE    
 MULT  =       1     ICHARG=       0     NZVAR =       0     COORD =UNIQUE  
 PP    =NONE         RELWFN=NONE         LOCAL =NONE         NUMGRD=       F
 ISPHER=      -1     NOSYM =       0     MAXIT =      60     UNITS =ANGS    
 PLTORB=       F     MOLPLT=       F     AIMPAC=       F     FRIEND=        
 NPRINT=       7     IREST =       0     GEOM  =INPUT   
 NORMF =       0     NORMP =       0     ITOL  =      20     ICUT  =       9
 INTTYP=BEST         GRDTYP=BEST         QMTTOL= 1.0E-06

     $SYSTEM OPTIONS
     ---------------
  REPLICATED MEMORY=    30000000 WORDS (ON EVERY NODE).
 DISTRIBUTED MEMDDI=        1000 MILLION WORDS IN AGGREGATE,
 MEMDDI DISTRIBUTED OVER   6 PROCESSORS IS   166666666 WORDS/PROCESSOR.
 TOTAL MEMORY REQUESTED ON EACH PROCESSOR=   196666666 WORDS.
 TIMLIM=      525600.00 MINUTES, OR     365.0 DAYS.
 PARALL= T  BALTYP=  DLB     KDIAG=    0  COREFL= F
 MXSEQ2=     300 MXSEQ3=     150  mem10=         0

          ----------------
          PROPERTIES INPUT
          ----------------

     MOMENTS            FIELD           POTENTIAL          DENSITY
 IEMOM =       1   IEFLD =       0   IEPOT =       0   IEDEN =       0
 WHERE =COMASS     WHERE =NUCLEI     WHERE =NUCLEI     WHERE =NUCLEI  
 OUTPUT=BOTH       OUTPUT=BOTH       OUTPUT=BOTH       OUTPUT=BOTH    
 IEMINT=       0   IEFINT=       0                     IEDINT=       0
                                                       MORB  =       0
          EXTRAPOLATION IN EFFECT
          SOSCF IN EFFECT
 ORBITAL PRINTING OPTION: NPREO=     1   166     2     1

     -------------------------------
     INTEGRAL TRANSFORMATION OPTIONS
     -------------------------------
     NWORD  =            0
     CUTOFF = 1.0E-09     MPTRAN =       0
     DIRTRF =       T     AOINTS =DUP     

          ----------------------
          INTEGRAL INPUT OPTIONS
          ----------------------
 NOPK  =       1 NORDER=       0 SCHWRZ=       T

     ------------------------------------------
     THE POINT GROUP IS C1 , NAXIS= 0, ORDER= 1
     ------------------------------------------

     DIMENSIONS OF THE SYMMETRY SUBSPACES ARE
 A   =  166

 ..... DONE SETTING UP THE RUN .....
 CPU     0: STEP CPU TIME=     0.03 TOTAL CPU TIME=          0.0 (      0.0 MIN)
 TOTAL WALL CLOCK TIME=          0.0 SECONDS, CPU UTILIZATION IS    75.00%

          ********************
          1 ELECTRON INTEGRALS
          ********************
 ...... END OF ONE-ELECTRON INTEGRALS ......
 CPU     0: STEP CPU TIME=     0.02 TOTAL CPU TIME=          0.0 (      0.0 MIN)
 TOTAL WALL CLOCK TIME=          0.1 SECONDS, CPU UTILIZATION IS    71.43%

          -------------
          GUESS OPTIONS
          -------------
          GUESS =HUCKEL            NORB  =       0          NORDER=       0
          MIX   =       F          PRTMO =       F          PUNMO =       F
          TOLZ  = 1.0E-08          TOLE  = 1.0E-05
          SYMDEN=       F          PURIFY=       F

 INITIAL GUESS ORBITALS GENERATED BY HUCKEL   ROUTINE.
 HUCKEL GUESS REQUIRES    257058 WORDS.

 SYMMETRIES FOR INITIAL GUESS ORBITALS FOLLOW.   BOTH SET(S).
    54 ORBITALS ARE OCCUPIED (   14 CORE ORBITALS).
    15=A       16=A       17=A       18=A       19=A       20=A       21=A   
    22=A       23=A       24=A       25=A       26=A       27=A       28=A   
    29=A       30=A       31=A       32=A       33=A       34=A       35=A   
    36=A       37=A       38=A       39=A       40=A       41=A       42=A   
    43=A       44=A       45=A       46=A       47=A       48=A       49=A   
    50=A       51=A       52=A       53=A       54=A       55=A       56=A   
    57=A       58=A       59=A       60=A       61=A       62=A       63=A   
    64=A   
 ...... END OF INITIAL ORBITAL SELECTION ......
 CPU     0: STEP CPU TIME=     0.05 TOTAL CPU TIME=          0.1 (      0.0 MIN)
 TOTAL WALL CLOCK TIME=          0.2 SECONDS, CPU UTILIZATION IS    58.82%

                    ----------------------
                    AO INTEGRAL TECHNOLOGY
                    ----------------------
     S,P,L SHELL ROTATED AXIS INTEGRALS, REPROGRAMMED BY
        KAZUYA ISHIMURA (IMS) AND JOSE SIERRA (SYNSTAR).
     S,P,D,L SHELL ROTATED AXIS INTEGRALS PROGRAMMED BY
        KAZUYA ISHIMURA (INSTITUTE FOR MOLECULAR SCIENCE).
     S,P,D,F,G SHELL TO TOTAL QUARTET ANGULAR MOMENTUM SUM 5,
        ERIC PROGRAM BY GRAHAM FLETCHER (ELORET AND NASA ADVANCED
        SUPERCOMPUTING DIVISION, AMES RESEARCH CENTER).
     S,P,D,F,G,L SHELL GENERAL RYS QUADRATURE PROGRAMMED BY
        MICHEL DUPUIS (PACIFIC NORTHWEST NATIONAL LABORATORY).

          --------------------
          2 ELECTRON INTEGRALS
          --------------------

 DIRECT SCF METHOD SKIPS INTEGRAL STORAGE ON DISK.
 DIRECT TRANSFORMATION SKIPS AO INTEGRAL STORAGE ON DISK.
  ...... END OF TWO-ELECTRON INTEGRALS .....
 CPU     0: STEP CPU TIME=     0.03 TOTAL CPU TIME=          0.1 (      0.0 MIN)
 TOTAL WALL CLOCK TIME=          0.2 SECONDS, CPU UTILIZATION IS    59.09%

          --------------------------
                 RHF SCF CALCULATION
          --------------------------

     NUCLEAR ENERGY =       912.8377646726
     MAXIT =   60     NPUNCH=    2
     EXTRAP=T  DAMP=F  SHIFT=F  RSTRCT=F  DIIS=F  DEM=F  SOSCF=T
     DENSITY MATRIX CONV=  2.00E-05
     SOSCF WILL OPTIMIZE    6048 ORBITAL ROTATIONS, SOGTOL=   0.250
     MEMORY REQUIRED FOR RHF ITERS=    270570 WORDS.

 DIRECT SCF CALCULATION, SCHWRZ=T   FDIFF=T,  DIRTHR=  0.00E+00 NITDIR=10
 SCHWARZ INEQUALITY OVERHEAD:     12086 INTEGRALS, T=        0.00

                                                                                   NONZERO     BLOCKS
 ITER EX DEM     TOTAL ENERGY        E CHANGE  DENSITY CHANGE     ORB. GRAD      INTEGRALS    SKIPPED
   1  0  0     -610.9469427714  -610.9469427714   0.774256717   0.000000000       37789968    3972500
          ---------------START SECOND ORDER SCF---------------
   2  1  0     -612.2201785173    -1.2732357459   0.131883128   0.094635573       37663834    4025854
   3  2  0     -612.2793683060    -0.0591897887   0.083153740   0.084042478       37126512    4134813
   4  3  0     -612.3484680187    -0.0690997127   0.036473491   0.006460684       36145296    4255148
   5  4  0     -612.3499488012    -0.0014807825   0.005413104   0.002133044       35121668    4341011
   6  5  0     -612.3501309788    -0.0001821776   0.001453835   0.000868200       33355839    4447360
   7  6  0     -612.3501495943    -0.0000186155   0.000608040   0.000176460       30880641    4598573
   8  7  0     -612.3501514815    -0.0000018872   0.000204264   0.000129784       28837449    4697471
   9  8  0     -612.3501517369    -0.0000002554   0.000064031   0.000023946       26841213    4814759
  10  9  0     -612.3501517618    -0.0000000249   0.000025580   0.000011613       24683075    4909620
  11 10  0     -612.3501517670    -0.0000000051   0.000006493   0.000002202       23010846    4986777
  12 11  0     -612.3501517670    -0.0000000001   0.000002508   0.000001040       19835665    5117480

          -----------------
          DENSITY CONVERGED
          -----------------
     TIME TO FORM FOCK OPERATORS=       6.7 SECONDS (       0.6 SEC/ITER)
     FOCK TIME ON FIRST ITERATION=       0.6, LAST ITERATION=       0.4
     TIME TO SOLVE SCF EQUATIONS=       0.2 SECONDS (       0.0 SEC/ITER)

 FINAL RHF ENERGY IS     -612.3501517670 AFTER  12 ITERATIONS

          ------------
          EIGENVECTORS
          ------------

                      1          2          3          4          5
                  -20.4923   -20.4436   -11.3310   -11.2555   -11.1820
                     A          A          A          A          A   
    1  C  1  S   -0.000323   0.000257   0.986700   0.001006   0.000909
    2  C  1  S   -0.000290   0.001495   0.094957  -0.000300  -0.002308
    3  C  1  X   -0.001118   0.001853   0.000092   0.000508   0.000053
    4  C  1  Y    0.000987   0.000486   0.000692  -0.001417   0.000605
    5  C  1  Z   -0.000201   0.000752   0.000061  -0.000109   0.000170
    6  C  1  S    0.012090   0.017370  -0.047419  -0.000673   0.022112
    7  C  1  X   -0.012302   0.021357   0.005038  -0.001653   0.001038
    8  C  1  Y    0.008882   0.016050   0.016663   0.010168  -0.015967
    9  C  1  Z   -0.002354   0.010724   0.005601   0.001548  -0.002995
   10  C  2  S   -0.000017  -0.000061  -0.001570  -0.001141   0.974734
   11  C  2  S   -0.000366  -0.000436  -0.002610  -0.001229   0.100941
   12  C  2  X    0.000022   0.000322  -0.000051  -0.000060  -0.000144
   13  C  2  Y   -0.000300   0.000095  -0.000628   0.000235   0.000131
   14  C  2  Z   -0.000139   0.000091  -0.000043   0.000003   0.000105
   15  C  2  S    0.001809   0.006932   0.020225   0.008064  -0.084183
   16  C  2  X    0.003674  -0.007529  -0.000650   0.000824  -0.000331
   17  C  2  Y    0.000713   0.003915   0.014097   0.003647  -0.006863
   18  C  2  Z    0.001863  -0.001653   0.001953   0.001104  -0.001945
   19  O  3  S    0.000696   0.983821   0.000123   0.000065   0.000012
   20  O  3  S    0.000386   0.100611   0.001344   0.000526  -0.000164
   21  O  3  X   -0.000405  -0.003887   0.000165  -0.000098   0.000251
   22  O  3  Y    0.000595  -0.002095   0.000706   0.000189  -0.000006
   23  O  3  Z   -0.000035  -0.001780   0.000228   0.000031   0.000044
   24  O  3  S   -0.000501  -0.058836  -0.003618  -0.002820  -0.000214
   25  O  3  X    0.003041   0.013538   0.005555   0.001493  -0.000796
   26  O  3  Y   -0.003217   0.007091  -0.000236  -0.001331   0.002007
   27  O  3  Z    0.000420   0.006210   0.001762   0.000164   0.000267
   28  O  4  S    0.983822  -0.000611   0.000080  -0.000279   0.000004
   29  O  4  S    0.100985   0.000158   0.001286  -0.000959  -0.000309
   30  O  4  X    0.002858   0.000076   0.000931   0.000101  -0.000224
   31  O  4  Y    0.001709   0.001117   0.000471   0.000681   0.000652
   32  O  4  Z    0.001379   0.000288   0.000395   0.000223  -0.000005
   33  O  4  S   -0.057306   0.000834   0.001497   0.009766  -0.000142
   34  O  4  X   -0.007931  -0.000714  -0.003454  -0.002459   0.000575
   35  O  4  Y   -0.005852  -0.006357  -0.003552   0.004745  -0.001267
   36  O  4  Z   -0.003984  -0.001658  -0.001958   0.000032   0.000074
   37  C  5  S   -0.000924  -0.000123  -0.001187   0.988992   0.000773
   38  C  5  S   -0.003976  -0.000197  -0.001089   0.109881  -0.000808
   39  C  5  X    0.000611   0.000557  -0.000631   0.000276  -0.000402
   40  C  5  Y   -0.000674  -0.000715   0.000133   0.000109  -0.000115
   41  C  5  Z    0.000205   0.000112  -0.000330   0.000140  -0.000102
   42  C  5  S    0.020399   0.004953   0.003486  -0.114420   0.001517
   43  C  5  X    0.001273  -0.002855   0.003866   0.001069   0.001720
   44  C  5  Y   -0.014183  -0.001888  -0.002522  -0.009699  -0.001272
   45  C  5  Z   -0.004480  -0.001478   0.001227   0.000761   0.001286
   46  C  6  S    0.000208   0.000108  -0.000092  -0.001037  -0.000274
   47  C  6  S    0.000974   0.000749   0.000163  -0.002860   0.000036
   48  C  6  X    0.000297   0.000237  -0.000092  -0.000130  -0.000047
   49  C  6  Y    0.000032  -0.000275   0.000515  -0.000220   0.000269
   50  C  6  Z    0.000298  -0.000001   0.000308  -0.001293   0.000063
   51  C  6  S   -0.002924  -0.001509  -0.002669   0.026998  -0.001231
   52  C  6  X   -0.001883  -0.000923  -0.000327  -0.003375   0.000056
   53  C  6  Y    0.004223   0.001810  -0.000407  -0.002803  -0.000775
   54  C  6  Z    0.000425  -0.000114   0.000533  -0.013667   0.000793
   55  C  7  S    0.000239   0.000065   0.000071  -0.000476  -0.158502
   56  C  7  S    0.001099   0.000447   0.000329  -0.001967  -0.015945
   57  C  7  X    0.000483   0.000195   0.000062  -0.000206   0.000093
   58  C  7  Y   -0.000163  -0.000233   0.000298   0.000092   0.000285
   59  C  7  Z   -0.000641  -0.000065  -0.000115   0.000356  -0.000103
   60  C  7  S   -0.007000  -0.000857  -0.003566   0.023250   0.011243
   61  C  7  X   -0.001888  -0.000132  -0.001281  -0.012143   0.000104
   62  C  7  Y    0.008024   0.001366   0.000874  -0.012539  -0.000774
   63  C  7  Z    0.004893   0.000898   0.000615   0.014583  -0.001462
   64  C  8  S   -0.000040   0.000038  -0.000006  -0.001190  -0.001806
   65  C  8  S   -0.000058   0.000378   0.000025  -0.000754   0.000298
   66  C  8  X   -0.000199   0.000049  -0.000025   0.000448  -0.000185
   67  C  8  Y    0.000067  -0.000228   0.000174  -0.000088   0.000157
   68  C  8  Z    0.000508   0.000328  -0.000388  -0.000677   0.000328
   69  C  8  S    0.007279   0.000577   0.000079   0.003148  -0.003593
   70  C  8  X   -0.001483  -0.000330  -0.000522   0.000197   0.001275
   71  C  8  Y   -0.000653   0.000716   0.000473   0.005974  -0.000861
   72  C  8  Z    0.002691  -0.000331   0.002800   0.002288  -0.002225
   73  C  9  S    0.000205   0.000121   0.000262  -0.001367   0.000791
   74  C  9  S    0.000795   0.000646   0.000268  -0.003198   0.000140
   75  C  9  X   -0.000676  -0.000129   0.000228   0.000930   0.000172
   76  C  9  Y   -0.000033  -0.000043  -0.000529   0.000081   0.000090
   77  C  9  Z   -0.000266  -0.000031  -0.000045  -0.000107  -0.000166
   78  C  9  S   -0.005785  -0.004066   0.001157   0.028602   0.000984
   79  C  9  X   -0.001753  -0.001761   0.000626   0.014463  -0.000493
   80  C  9  Y    0.004864   0.001060   0.002759  -0.001480  -0.000409
   81  C  9  Z    0.001716  -0.000309   0.000469   0.005727   0.001073
   82  C 10  S   -0.000016  -0.000028  -0.000108  -0.000490   0.000686
   83  C 10  S    0.000088  -0.000113  -0.000225   0.000332   0.000229
   84  C 10  X    0.000346   0.000067   0.000118  -0.000720   0.000003
   85  C 10  Y    0.000256   0.000040   0.000101   0.000170   0.000059
   86  C 10  Z    0.000215  -0.000009   0.000070   0.000132   0.000025
   87  C 10  S    0.001569   0.001051   0.001511  -0.006345  -0.000998
   88  C 10  X   -0.000989   0.000113  -0.000041   0.001112  -0.000509
   89  C 10  Y   -0.001327  -0.000042  -0.000803  -0.002814  -0.000745
   90  C 10  Z   -0.002577  -0.000418  -0.001014   0.001511   0.000165
   91  C 11  S    0.000041   0.000017   0.000029  -0.001199   0.000403
   92  C 11  S    0.000245   0.000111   0.000066  -0.001125   0.000112
   93  C 11  X    0.000062   0.000046  -0.000013  -0.000502   0.000016
   94  C 11  Y   -0.000076   0.000019  -0.000044  -0.000280  -0.000027
   95  C 11  Z   -0.000042  -0.000021  -0.000011   0.000037  -0.000003
   96  C 11  S   -0.001493  -0.000318  -0.000682   0.002555  -0.000401
   97  C 11  X   -0.001362  -0.000554  -0.000266   0.005987   0.000122
   98  C 11  Y    0.001150  -0.000053   0.000655   0.002290   0.000402
   99  C 11  Z    0.000376   0.000073   0.000204   0.000891   0.000075
  100  C 12  S   -0.000012  -0.000001  -0.000011  -0.000110  -0.003769
  101  C 12  S   -0.000037   0.000002  -0.000029  -0.000092  -0.000393
  102  C 12  X    0.000060  -0.000006   0.000019   0.000179   0.000003
  103  C 12  Y    0.000051   0.000014   0.000017  -0.000149   0.000005
  104  C 12  Z    0.000059   0.000015   0.000018  -0.000057   0.000003
  105  C 12  S    0.000856  -0.000082   0.000545   0.002695   0.000599
  106  C 12  X    0.000439   0.000110   0.000282  -0.000661   0.000165
  107  C 12  Y   -0.000447  -0.000217  -0.000014   0.002962   0.000120
  108  C 12  Z   -0.000206  -0.000150   0.000034   0.001367   0.000104
  109  C 13  S    0.000008   0.000003   0.000012  -0.000157  -0.000072
  110  C 13  S    0.000041   0.000018   0.000024  -0.000212  -0.000013
  111  C 13  X    0.000022   0.000004   0.000010  -0.000019  -0.000008
  112  C 13  Y    0.000022  -0.000002  -0.000002   0.000058  -0.000004
  113  C 13  Z   -0.000004  -0.000008  -0.000006   0.000050  -0.000003
  114  C 13  S   -0.000314  -0.000157  -0.000171   0.001764  -0.000028
  115  C 13  X    0.000094   0.000001  -0.000048  -0.000113   0.000001
  116  C 13  Y   -0.000470  -0.000099  -0.000109   0.000827  -0.000031
  117  C 13  Z    0.000026   0.000039   0.000006  -0.000167  -0.000014
  118  C 14  S    0.000007  -0.000000   0.000013  -0.000037   0.000007
  119  C 14  S    0.000056   0.000004   0.000018   0.000023   0.000004
  120  C 14  X    0.000024   0.000011   0.000009  -0.000132   0.000000
  121  C 14  Y    0.000015   0.000002   0.000005  -0.000004   0.000005
  122  C 14  Z    0.000018   0.000006   0.000006  -0.000059  -0.000001
  123  C 14  S   -0.000035   0.000070   0.000016  -0.001112  -0.000033
  124  C 14  X   -0.000057   0.000006  -0.000018  -0.000244  -0.000025
  125  C 14  Y   -0.000040   0.000009  -0.000041  -0.000261  -0.000049
  126  C 14  Z    0.000002   0.000026  -0.000009  -0.000281  -0.000016
  127  H 15  S   -0.000795   0.000785  -0.001098  -0.000493   0.000366
  128  H 15  S   -0.000336   0.002532   0.002113  -0.000281   0.014277
  129  H 16  S    0.000238  -0.000448  -0.001523  -0.000337   0.000444
  130  H 16  S   -0.000200  -0.001014   0.002542  -0.000140   0.014222
  131  H 17  S    0.000327  -0.000955  -0.001514  -0.000253   0.000292
  132  H 17  S    0.001003  -0.001472   0.001483  -0.000033   0.014060
  133  H 18  S    0.000599  -0.000131   0.000080  -0.001250   0.000067
  134  H 18  S    0.000998   0.001315   0.000315  -0.000434   0.000094
  135  H 19  S   -0.000413  -0.000108   0.000059  -0.001526   0.000080
  136  H 19  S   -0.000970  -0.000742   0.000785  -0.000324   0.000743
  137  H 20  S    0.000672   0.000470  -0.000245  -0.001599   0.000004
  138  H 20  S    0.000582   0.000173   0.000528   0.000303  -0.000543
  139  H 21  S   -0.000805  -0.000100   0.000002  -0.000772   0.000180
  140  H 21  S   -0.002565  -0.000602   0.000297   0.002327  -0.001636
  141  H 22  S   -0.000217   0.000232  -0.000914   0.000413   0.000365
  142  H 22  S   -0.001295  -0.000042   0.003076   0.002914  -0.000983
  143  H 23  S   -0.000045  -0.000053   0.000128  -0.000765   0.000120
  144  H 23  S    0.000322  -0.000336   0.000877  -0.000075  -0.000333
  145  H 24  S   -0.000417   0.000108  -0.000305  -0.001523   0.000045
  146  H 24  S   -0.000758  -0.000160  -0.001325   0.000009   0.000057
  147  H 25  S    0.000772   0.000277   0.000316  -0.001316   0.000147
  148  H 25  S    0.001569   0.000219   0.000305   0.000859   0.000168
  149  H 26  S   -0.000490  -0.000082  -0.000129  -0.000162   0.000091
  150  H 26  S    0.000042  -0.000111  -0.000559  -0.000505  -0.000406
  151  H 27  S    0.000377  -0.000027   0.000119   0.000765   0.000074
  152  H 27  S    0.001002   0.000090   0.000210  -0.001191   0.000209
  153  H 28  S   -0.000042   0.000027  -0.000061  -0.000382  -0.000015
  154  H 28  S   -0.000665  -0.000054  -0.000209  -0.000235  -0.000108
  155  H 29  S   -0.000011  -0.000002  -0.000001  -0.000033   0.000004
  156  H 29  S   -0.000064  -0.000017  -0.000024   0.000056  -0.000007
  157  H 30  S    0.000019   0.000014   0.000009  -0.000118   0.000003
  158  H 30  S   -0.000004   0.000015   0.000009  -0.000100  -0.000011
  159  H 31  S    0.000119   0.000012   0.000023  -0.000042   0.000015
  160  H 31  S   -0.000405  -0.000011   0.000023  -0.000064  -0.000006
  161  H 32  S    0.000012   0.000003   0.000001   0.000005   0.000001
  162  H 32  S   -0.000018  -0.000006  -0.000011   0.000026  -0.000009
  163  H 33  S   -0.000007  -0.000008  -0.000003   0.000071   0.000001
  164  H 33  S    0.000007   0.000004  -0.000006  -0.000039  -0.000018
  165  H 34  S    0.000015   0.000002   0.000010  -0.000001   0.000005
  166  H 34  S    0.000027  -0.000027   0.000012   0.000462   0.000035

                      6          7          8          9         10
                  -11.1819   -11.1819   -11.1705   -11.1698   -11.1656
                     A          A          A          A          A   
    1  C  1  S    0.000000   0.000198  -0.000298   0.000045   0.000074
    2  C  1  S   -0.000009  -0.000149  -0.000010   0.000096  -0.000033
    3  C  1  X    0.000004   0.000044  -0.000394   0.000040   0.000078
    4  C  1  Y   -0.000002  -0.000296  -0.000230  -0.000402  -0.000081
    5  C  1  Z   -0.000001   0.000140  -0.000071   0.000092   0.000057
    6  C  1  S    0.000005   0.002502   0.001514  -0.000340  -0.000581
    7  C  1  X    0.000009   0.000978  -0.000419   0.000839   0.000623
    8  C  1  Y    0.000043  -0.000661   0.004247   0.002757  -0.000295
    9  C  1  Z    0.000011  -0.000190   0.000392   0.000384   0.000172
   10  C  2  S   -0.000871   0.158569   0.002181   0.001469   0.000402
   11  C  2  S   -0.000091   0.016184  -0.000132  -0.000159  -0.000032
   12  C  2  X   -0.000002  -0.000018   0.000010   0.000069  -0.000001
   13  C  2  Y    0.000003   0.000085   0.000080   0.000159   0.000032
   14  C  2  Z    0.000000  -0.000026  -0.000020  -0.000048  -0.000007
   15  C  2  S    0.000095  -0.011905   0.002583   0.002393   0.000288
   16  C  2  X    0.000004  -0.000216   0.000131  -0.000482  -0.000220
   17  C  2  Y    0.000004  -0.000300   0.001123   0.000730  -0.000082
   18  C  2  Z    0.000006   0.000090   0.000521   0.000403   0.000002
   19  O  3  S   -0.000000   0.000035   0.000036   0.000039   0.000000
   20  O  3  S   -0.000001   0.000263   0.000291   0.000348   0.000001
   21  O  3  X    0.000002  -0.000066  -0.000022  -0.000097   0.000014
   22  O  3  Y   -0.000002  -0.000035   0.000016   0.000030  -0.000036
   23  O  3  Z   -0.000004   0.000068  -0.000008  -0.000017   0.000010
   24  O  3  S   -0.000010  -0.001212  -0.001668  -0.001568  -0.000061
   25  O  3  X   -0.000003   0.000463   0.000664   0.000661  -0.000095
   26  O  3  Y    0.000009   0.000263  -0.000284  -0.000176   0.000180
   27  O  3  Z    0.000014   0.000020   0.000230   0.000266  -0.000035
   28  O  4  S   -0.000000   0.000077   0.000050   0.000016   0.000012
   29  O  4  S    0.000004   0.000345   0.000096   0.000140   0.000173
   30  O  4  X   -0.000002  -0.000140   0.000767  -0.000007  -0.000328
   31  O  4  Y    0.000004   0.000021  -0.000368   0.000085   0.000028
   32  O  4  Z   -0.000005   0.000067   0.000179  -0.000064   0.000008
   33  O  4  S    0.000036  -0.003163  -0.002109  -0.000334  -0.000099
   34  O  4  X    0.000048   0.000101  -0.002362  -0.000214   0.001515
   35  O  4  Y    0.000011  -0.001954   0.000481  -0.000540  -0.000148
   36  O  4  Z   -0.000000  -0.000030  -0.000679   0.000459  -0.000077
   37  C  5  S    0.000068   0.000128   0.000496   0.001109   0.000705
   38  C  5  S   -0.000103  -0.000627  -0.001508  -0.000234   0.000221
   39  C  5  X    0.000002  -0.000321  -0.000486  -0.000108   0.000748
   40  C  5  Y   -0.000006   0.000548  -0.000043  -0.000156   0.000214
   41  C  5  Z    0.000008  -0.000012   0.000052   0.000819  -0.000168
   42  C  5  S    0.000480   0.010820   0.016530  -0.000150  -0.003805
   43  C  5  X   -0.000628   0.011131  -0.014123  -0.000343  -0.001758
   44  C  5  Y    0.000197  -0.001610   0.000238   0.000858  -0.001586
   45  C  5  Z    0.000357  -0.008638  -0.002709  -0.002174   0.000645
   46  C  6  S    0.000371  -0.005138  -0.019197  -0.001639  -0.004422
   47  C  6  S    0.000120  -0.001480  -0.003586  -0.000518  -0.000635
   48  C  6  X   -0.000067  -0.000145   0.000979  -0.000066  -0.000063
   49  C  6  Y    0.000002  -0.000327  -0.000087  -0.000219   0.000186
   50  C  6  Z   -0.000016   0.000616   0.000619   0.000017  -0.000146
   51  C  6  S   -0.000280   0.003146   0.004754   0.002153   0.002203
   52  C  6  X    0.000405  -0.002195  -0.002293   0.000592   0.000931
   53  C  6  Y   -0.000010   0.002235   0.000334   0.000750  -0.000590
   54  C  6  Z    0.000236  -0.002598  -0.001416  -0.001511   0.000176
   55  C  7  S   -0.028803   0.973784   0.017510  -0.002542   0.006317
   56  C  7  S   -0.002899   0.098183  -0.000323  -0.003954  -0.000546
   57  C  7  X    0.000022  -0.000837   0.000563  -0.000992   0.000358
   58  C  7  Y    0.000031  -0.000981   0.000386   0.000831   0.000106
   59  C  7  Z   -0.000004  -0.000092   0.000012   0.002326  -0.000043
   60  C  7  S    0.002276  -0.078239   0.006912   0.025145   0.003924
   61  C  7  X    0.000087   0.000882   0.000335   0.006705  -0.002913
   62  C  7  Y   -0.000327   0.011719  -0.002667  -0.004251  -0.001791
   63  C  7  Z   -0.000260   0.006221  -0.001235  -0.013784   0.001732
   64  C  8  S   -0.000014   0.000405   0.074225   0.984022   0.001592
   65  C  8  S    0.000122  -0.004109   0.007771   0.096194   0.000125
   66  C  8  X   -0.000026   0.000885  -0.000191  -0.000063   0.000024
   67  C  8  Y    0.000009  -0.000284  -0.000288   0.000098  -0.000100
   68  C  8  Z    0.000051  -0.001779   0.000026   0.000272  -0.000077
   69  C  8  S   -0.000915   0.029201  -0.007891  -0.070395   0.000153
   70  C  8  X    0.000233  -0.008267   0.002069   0.003272   0.000689
   71  C  8  Y   -0.000023  -0.000587   0.001205  -0.002837   0.001314
   72  C  8  Z   -0.000443   0.014157  -0.002608  -0.007719   0.000123
   73  C  9  S    0.002793  -0.018472   0.984212  -0.074107   0.018971
   74  C  9  S    0.000590  -0.003841   0.104504  -0.007238  -0.000329
   75  C  9  X    0.000018  -0.001449   0.000420  -0.000085  -0.000588
   76  C  9  Y    0.000072  -0.000879  -0.000087  -0.000067  -0.000033
   77  C  9  Z   -0.000063   0.000819   0.000285  -0.000125  -0.000129
   78  C  9  S   -0.001847   0.005444  -0.092701   0.003816   0.020484
   79  C  9  X   -0.000250   0.008768  -0.002371  -0.000664  -0.009153
   80  C  9  Y   -0.000761   0.005812   0.003651   0.000262  -0.006453
   81  C  9  Z   -0.000481  -0.003130  -0.004766   0.001231   0.009054
   82  C 10  S   -0.004611  -0.006642  -0.021691   0.000069   0.986181
   83  C 10  S   -0.000571  -0.001897  -0.004546   0.000052   0.105471
   84  C 10  X    0.000560   0.000004   0.000464  -0.000060  -0.000022
   85  C 10  Y   -0.000111   0.000096   0.000144   0.000067   0.000365
   86  C 10  Z    0.000186   0.000092  -0.000033   0.000008  -0.000051
   87  C 10  S   -0.000336   0.006839   0.021269  -0.000912  -0.100821
   88  C 10  X    0.000127   0.002800   0.010077  -0.000426   0.004482
   89  C 10  Y    0.003473   0.000973   0.006204  -0.000954  -0.004798
   90  C 10  Z    0.000687  -0.002661  -0.007440   0.000273   0.005678
   91  C 11  S   -0.004478  -0.003488  -0.029292   0.003267  -0.055247
   92  C 11  S   -0.004863  -0.000924  -0.004261   0.000478  -0.007248
   93  C 11  X    0.001133  -0.000263  -0.000738   0.000072  -0.000391
   94  C 11  Y    0.001671  -0.000029  -0.000130  -0.000020   0.000407
   95  C 11  Z    0.000816   0.000047   0.000022  -0.000043  -0.000136
   96  C 11  S    0.031579   0.001762   0.006063  -0.000765   0.023929
   97  C 11  X   -0.010909   0.000392  -0.000020   0.000000   0.019959
   98  C 11  Y   -0.013921  -0.000064  -0.001481   0.000493  -0.002885
   99  C 11  Z   -0.007308   0.000050   0.000271   0.000280   0.005302
  100  C 12  S    0.986939   0.028578  -0.002389   0.000169   0.004484
  101  C 12  S    0.099758   0.002894   0.000144  -0.000032   0.000482
  102  C 12  X   -0.000057   0.000076   0.000326  -0.000014  -0.000490
  103  C 12  Y    0.000206  -0.000012   0.000012   0.000001  -0.000362
  104  C 12  Z    0.000062  -0.000011  -0.000104   0.000014  -0.000221
  105  C 12  S   -0.087388  -0.002174  -0.002196   0.000541  -0.001169
  106  C 12  X   -0.004407  -0.000540  -0.002689   0.000411  -0.001073
  107  C 12  Y   -0.006028   0.000125  -0.000705   0.000170   0.006125
  108  C 12  Z   -0.003175  -0.000007  -0.000633   0.000071   0.001495
  109  C 13  S   -0.005339  -0.000203  -0.000447   0.000021  -0.011103
  110  C 13  S   -0.002170  -0.000095  -0.000178   0.000014  -0.001774
  111  C 13  X   -0.000303   0.000001   0.000031   0.000006  -0.000297
  112  C 13  Y   -0.000360   0.000020   0.000163  -0.000011   0.000171
  113  C 13  Z   -0.000143  -0.000018  -0.000092  -0.000004   0.000155
  114  C 13  S    0.014760   0.000702   0.001064  -0.000106   0.006555
  115  C 13  X    0.000654   0.000073   0.000629  -0.000109   0.000525
  116  C 13  Y    0.009946   0.000334  -0.000092  -0.000030   0.001810
  117  C 13  Z    0.002600   0.000170   0.000600  -0.000005  -0.000274
  118  C 14  S   -0.005474  -0.000009   0.001257  -0.000051  -0.015875
  119  C 14  S   -0.002283  -0.000007   0.000268  -0.000012  -0.002275
  120  C 14  X   -0.000229  -0.000025  -0.000061   0.000003  -0.000374
  121  C 14  Y   -0.000288  -0.000008  -0.000014   0.000002  -0.000045
  122  C 14  Z   -0.000156   0.000002   0.000060  -0.000001  -0.000167
  123  C 14  S    0.016133   0.000072  -0.001394   0.000111   0.001570
  124  C 14  X    0.010007   0.000155  -0.000266   0.000028   0.001126
  125  C 14  Y    0.000548   0.000049   0.000450  -0.000076  -0.000537
  126  C 14  Z    0.003519  -0.000022  -0.000438   0.000028   0.000312
  127  H 15  S   -0.000001   0.000010  -0.000150  -0.000063   0.000015
  128  H 15  S   -0.000018   0.002299  -0.000004   0.000098  -0.000020
  129  H 16  S    0.000004  -0.000063  -0.000114  -0.000188   0.000053
  130  H 16  S   -0.000028   0.002217  -0.000159  -0.000280  -0.000315
  131  H 17  S   -0.000002  -0.000007  -0.000041   0.000061  -0.000026
  132  H 17  S   -0.000008   0.002315  -0.000014  -0.000485  -0.000073
  133  H 18  S   -0.000003  -0.000457  -0.000144  -0.000109  -0.000279
  134  H 18  S   -0.000219   0.001662   0.001606  -0.000627  -0.000561
  135  H 19  S    0.000070  -0.000287  -0.000646  -0.000275   0.000325
  136  H 19  S    0.000036  -0.002234  -0.001050  -0.000095  -0.000639
  137  H 20  S    0.000067  -0.000008   0.000055   0.000027   0.000188
  138  H 20  S   -0.000073   0.001307  -0.001999   0.000797  -0.001629
  139  H 21  S    0.000061  -0.001469   0.000044  -0.000911  -0.000252
  140  H 21  S   -0.000311   0.009275  -0.000305   0.001225   0.000361
  141  H 22  S    0.000049  -0.001690   0.000483  -0.001340   0.000143
  142  H 22  S    0.000022  -0.001451   0.000967   0.012000   0.000663
  143  H 23  S    0.000021  -0.000532  -0.000287  -0.001259  -0.000172
  144  H 23  S   -0.000070   0.002735  -0.000121   0.012241  -0.000365
  145  H 24  S    0.000059  -0.001386   0.001033   0.000014  -0.001241
  146  H 24  S    0.000903  -0.001432   0.014564  -0.000879   0.000896
  147  H 25  S   -0.000011  -0.000835   0.001136  -0.000080  -0.001137
  148  H 25  S   -0.000071  -0.000243   0.014484   0.000221   0.001480
  149  H 26  S    0.000374  -0.000486  -0.001384  -0.000010   0.000893
  150  H 26  S    0.001439  -0.000335   0.000746  -0.000390   0.015550
  151  H 27  S   -0.000187  -0.000140  -0.001298   0.000154   0.001414
  152  H 27  S   -0.000140  -0.000094   0.000630  -0.000132   0.015395
  153  H 28  S   -0.000858  -0.000150   0.000114  -0.000025  -0.000514
  154  H 28  S    0.001398  -0.000064  -0.001158  -0.000078   0.001799
  155  H 29  S   -0.001050  -0.000042  -0.000036  -0.000003  -0.000196
  156  H 29  S    0.002382   0.000024  -0.000281  -0.000015   0.000232
  157  H 30  S   -0.001007  -0.000045  -0.000017   0.000008  -0.000317
  158  H 30  S    0.002058   0.000121   0.000262  -0.000009  -0.000576
  159  H 31  S   -0.001057  -0.000020   0.000064   0.000006  -0.000074
  160  H 31  S   -0.001196  -0.000159  -0.001001   0.000105  -0.002576
  161  H 32  S   -0.001081  -0.000025   0.000025   0.000000  -0.000058
  162  H 32  S    0.002166   0.000042  -0.000086  -0.000004  -0.000072
  163  H 33  S   -0.001090  -0.000005   0.000112  -0.000011  -0.000061
  164  H 33  S    0.002172   0.000091   0.000246  -0.000015  -0.000183
  165  H 34  S   -0.001000  -0.000017  -0.000038   0.000003  -0.000279
  166  H 34  S   -0.001745  -0.000000   0.000170   0.000023   0.000721

                     11         12         13         14         15
                  -11.1643   -11.1616   -11.1611   -11.1600    -1.4513
                     A          A          A          A          A   
    1  C  1  S   -0.000019  -0.000001  -0.000012   0.000163  -0.123872
    2  C  1  S    0.000010  -0.000003   0.000012  -0.000017   0.142452
    3  C  1  X    0.000017   0.000001  -0.000004   0.000192   0.013103
    4  C  1  Y   -0.000133  -0.000003  -0.000007  -0.000563   0.076199
    5  C  1  Z    0.000014  -0.000004   0.000002  -0.000415   0.021361
    6  C  1  S   -0.000238   0.000037  -0.000041  -0.000888   0.118964
    7  C  1  X    0.000304  -0.000048   0.000075  -0.000641  -0.021509
    8  C  1  Y    0.001219   0.000111   0.000147   0.003762  -0.069259
    9  C  1  Z    0.000230  -0.000006   0.000033   0.001808  -0.022068
   10  C  2  S    0.000211   0.000086   0.000066   0.001079  -0.017562
   11  C  2  S   -0.000076  -0.000011  -0.000015  -0.000297   0.019794
   12  C  2  X   -0.000009  -0.000006  -0.000008  -0.000060  -0.000009
   13  C  2  Y    0.000048   0.000006   0.000014   0.000102   0.020926
   14  C  2  Z   -0.000003  -0.000001  -0.000001   0.000134   0.004233
   15  C  2  S    0.000916   0.000115   0.000173   0.003178  -0.005038
   16  C  2  X    0.000000   0.000033   0.000009   0.000523   0.002197
   17  C  2  Y    0.000430   0.000007   0.000023   0.001579  -0.019622
   18  C  2  Z    0.000147   0.000018   0.000020  -0.000355  -0.002133
   19  O  3  S    0.000011   0.000001   0.000002   0.000050  -0.130126
   20  O  3  S    0.000087   0.000004   0.000016   0.000466   0.118597
   21  O  3  X    0.000004  -0.000001   0.000001  -0.000035  -0.071708
   22  O  3  Y   -0.000007   0.000003  -0.000002   0.000209  -0.035593
   23  O  3  Z    0.000001  -0.000001  -0.000002   0.000063  -0.031937
   24  O  3  S   -0.000529  -0.000023  -0.000088  -0.001754   0.415847
   25  O  3  X    0.000140   0.000019   0.000022   0.000704  -0.088090
   26  O  3  Y   -0.000014  -0.000019   0.000005  -0.001040  -0.029191
   27  O  3  Z    0.000060   0.000007   0.000017  -0.000328  -0.036126
   28  O  4  S    0.000026   0.000002   0.000011   0.000077  -0.161513
   29  O  4  S    0.000176  -0.000001   0.000074   0.000382   0.143829
   30  O  4  X    0.000026   0.000034   0.000021  -0.000004   0.056576
   31  O  4  Y    0.000076   0.000010   0.000027  -0.000104   0.007690
   32  O  4  Z   -0.000005  -0.000010   0.000002  -0.000041   0.021452
   33  O  4  S   -0.001032  -0.000090  -0.000440  -0.002949   0.515621
   34  O  4  X    0.000167  -0.000110   0.000023  -0.000216   0.079945
   35  O  4  Y   -0.000740  -0.000060  -0.000271  -0.000982   0.036024
   36  O  4  Z   -0.000076   0.000014  -0.000059  -0.001125   0.036171
   37  C  5  S    0.000948   0.000060   0.000162   0.000299  -0.040559
   38  C  5  S   -0.001014  -0.000071  -0.000170  -0.001183   0.043515
   39  C  5  X    0.000345   0.000016   0.000112   0.000226   0.010654
   40  C  5  Y    0.000041   0.000026   0.000124   0.000333  -0.039881
   41  C  5  Z   -0.000046   0.000002  -0.000028   0.000289  -0.005881
   42  C  5  S    0.005007   0.000383   0.000439   0.014217   0.060003
   43  C  5  X   -0.004987  -0.000257  -0.000835   0.001950  -0.000012
   44  C  5  Y   -0.001355  -0.000105  -0.001007  -0.001755   0.030049
   45  C  5  Z   -0.000886   0.000028   0.000082   0.011444   0.001965
   46  C  6  S   -0.006070   0.001568  -0.000066   0.987292  -0.008847
   47  C  6  S   -0.000777   0.000190   0.000009   0.102048   0.006768
   48  C  6  X    0.000236   0.000001   0.000031  -0.000171  -0.001137
   49  C  6  Y    0.000077  -0.000007  -0.000005   0.000007  -0.004140
   50  C  6  Z    0.000123   0.000013   0.000016  -0.000485  -0.007643
   51  C  6  S    0.000688  -0.000268  -0.000035  -0.080000   0.012620
   52  C  6  X   -0.000064   0.000040   0.000050   0.000855   0.008254
   53  C  6  Y    0.000030   0.000073   0.000293   0.001695  -0.018654
   54  C  6  Z   -0.000514  -0.000038  -0.000175   0.004462   0.000881
   55  C  7  S    0.004119   0.000130   0.000251   0.005252  -0.009016
   56  C  7  S   -0.000243  -0.000007  -0.000035  -0.000307   0.007693
   57  C  7  X    0.000298   0.000011   0.000013   0.000326  -0.004127
   58  C  7  Y    0.000072   0.000003  -0.000003  -0.000121  -0.007754
   59  C  7  Z   -0.000103  -0.000005  -0.000014  -0.001191   0.004732
   60  C  7  S    0.001813   0.000060   0.000468  -0.001069   0.014860
   61  C  7  X   -0.000957  -0.000036  -0.000268  -0.003575   0.013217
   62  C  7  Y   -0.000585  -0.000014  -0.000078   0.001251  -0.012709
   63  C  7  Z    0.001081   0.000063   0.000510   0.006932  -0.016959
   64  C  8  S   -0.000964   0.000039  -0.000053   0.002920  -0.003204
   65  C  8  S   -0.000040   0.000001  -0.000007  -0.000201   0.002637
   66  C  8  X   -0.000029   0.000003  -0.000007   0.000105  -0.001231
   67  C  8  Y   -0.000080  -0.000002  -0.000016  -0.000069  -0.000342
   68  C  8  Z    0.000008   0.000000   0.000011   0.000125   0.001922
   69  C  8  S    0.000229   0.000028   0.000242   0.005971  -0.010863
   70  C  8  X    0.000348  -0.000009   0.000003  -0.001744   0.001630
   71  C  8  Y    0.000664   0.000023   0.000188   0.001533  -0.006509
   72  C  8  Z   -0.000132   0.000011   0.000056   0.002905  -0.004237
   73  C  9  S    0.030130   0.001092   0.001412   0.018875  -0.008082
   74  C  9  S    0.001698   0.000027   0.000110   0.000451   0.005490
   75  C  9  X    0.001473   0.000046   0.000118  -0.000611   0.007444
   76  C  9  Y    0.000019   0.000017  -0.000041  -0.000220  -0.001447
   77  C  9  Z   -0.000072  -0.000004  -0.000078  -0.000977   0.001777
   78  C  9  S    0.000400   0.000027  -0.000339   0.001528   0.016445
   79  C  9  X   -0.008751  -0.000409  -0.000552   0.001462   0.001100
   80  C  9  Y    0.000843  -0.000000   0.000502   0.001902  -0.024002
   81  C  9  Z    0.002202  -0.000236   0.000379   0.002807  -0.004858
   82  C 10  S    0.052987  -0.000330   0.022177   0.004320  -0.001565
   83  C 10  S    0.004436  -0.000138   0.001298   0.000515   0.003000
   84  C 10  X    0.000159  -0.000281   0.000201  -0.000123   0.000905
   85  C 10  Y    0.000541   0.000107   0.000202  -0.000183  -0.000592
   86  C 10  Z    0.000105  -0.000168   0.000098  -0.000041  -0.001060
   87  C 10  S    0.009690   0.003436   0.003715  -0.001049  -0.009512
   88  C 10  X   -0.011555  -0.000535  -0.002607  -0.000308   0.000897
   89  C 10  Y   -0.006444  -0.000519  -0.000745  -0.000175   0.007484
   90  C 10  Z   -0.002715   0.000344  -0.000930  -0.000078   0.007693
   91  C 11  S    0.983618   0.000465   0.056010   0.005202  -0.000305
[...]
             91  C 11  S      1.98799     1.97692
             92  C 11  S      0.38927     0.41783
             93  C 11  X      0.56299     0.54441
             94  C 11  Y      0.56740     0.53914
             95  C 11  Z      0.44883     0.44046
             96  C 11  S      0.89171     0.54397
             97  C 11  X      0.32056     0.50952
             98  C 11  Y      0.46114     0.54699
             99  C 11  Z      0.55632     0.60815
            100  C 12  S      1.98834     1.97679
            101  C 12  S      0.38756     0.41180
            102  C 12  X      0.56332     0.54439
            103  C 12  Y      0.57148     0.55326
            104  C 12  Z      0.43612     0.42463
            105  C 12  S      0.88070     0.52965
            106  C 12  X      0.34638     0.51374
            107  C 12  Y      0.35925     0.51491
            108  C 12  Z      0.52306     0.56597
            109  C 13  S      1.98840     1.97630
            110  C 13  S      0.35287     0.41206
            111  C 13  X      0.54898     0.51830
            112  C 13  Y      0.53464     0.51273
            113  C 13  Z      0.54022     0.50627
            114  C 13  S      1.13965     0.57397
            115  C 13  X      0.56266     0.60038
            116  C 13  Y      0.37822     0.54505
            117  C 13  Z      0.55930     0.60800
            118  C 14  S      1.98832     1.97634
            119  C 14  S      0.35397     0.41367
            120  C 14  X      0.53489     0.51299
            121  C 14  Y      0.54502     0.51378
            122  C 14  Z      0.54057     0.50689
            123  C 14  S      1.12983     0.57538
            124  C 14  X      0.38214     0.54281
            125  C 14  Y      0.55725     0.59876
            126  C 14  Z      0.55354     0.60552
            127  H 15  S      0.46285     0.46229
            128  H 15  S      0.29284     0.42232
            129  H 16  S      0.45747     0.45664
            130  H 16  S      0.29793     0.42181
            131  H 17  S      0.45984     0.45838
            132  H 17  S      0.29756     0.42308
            133  H 18  S      0.46195     0.46337
            134  H 18  S      0.27765     0.41931
            135  H 19  S      0.46627     0.46739
            136  H 19  S      0.33838     0.44218
            137  H 20  S      0.46627     0.46810
            138  H 20  S      0.31896     0.43567
            139  H 21  S      0.46961     0.47024
            140  H 21  S      0.30151     0.42952
            141  H 22  S      0.47004     0.46406
            142  H 22  S      0.31697     0.43934
            143  H 23  S      0.47064     0.46457
            144  H 23  S      0.31293     0.43516
            145  H 24  S      0.46780     0.47798
            146  H 24  S      0.33157     0.43953
            147  H 25  S      0.46474     0.47531
            148  H 25  S      0.29674     0.42501
            149  H 26  S      0.46712     0.47627
            150  H 26  S      0.29946     0.42852
            151  H 27  S      0.46616     0.47838
            152  H 27  S      0.31696     0.43398
            153  H 28  S      0.47185     0.47503
            154  H 28  S      0.32392     0.44014
            155  H 29  S      0.46250     0.46605
            156  H 29  S      0.32928     0.43978
            157  H 30  S      0.46288     0.46662
            158  H 30  S      0.32842     0.43920
            159  H 31  S      0.46832     0.46953
            160  H 31  S      0.31433     0.43458
            161  H 32  S      0.46352     0.46698
            162  H 32  S      0.33097     0.44111
            163  H 33  S      0.46335     0.46687
            164  H 33  S      0.33079     0.44101
            165  H 34  S      0.46731     0.46925
            166  H 34  S      0.32529     0.43850

          ----- MULLIKEN ATOMIC OVERLAP POPULATIONS -----
          (OFF-DIAGONAL ELEMENTS NEED TO BE MULTIPLIED BY 2)

             1           2           3           4           5

    1    4.4020183
    2    0.2127405   5.5410187
    3    0.5112755  -0.0809171   8.2150277
    4    0.1865188  -0.0834240  -0.0538640   8.5891786
    5   -0.0545146   0.0029221   0.0014280   0.1827746   5.3907391
    6   -0.0072869  -0.0003260  -0.0041565  -0.0383801   0.2338667
    7   -0.0018195  -0.0001140   0.0009212  -0.0479064   0.2554763
    8    0.0005211  -0.0001792  -0.0010355   0.0014202  -0.0792462
    9    0.0036852  -0.0000465   0.0000465  -0.0426406   0.2543013
   10   -0.0001198  -0.0000026  -0.0000011  -0.0005895  -0.0564960
   11    0.0000018   0.0000001   0.0000000   0.0000545   0.0036581
   12   -0.0000000   0.0000000  -0.0000000  -0.0000006  -0.0000329
   13    0.0000000  -0.0000002   0.0000000   0.0000012  -0.0000010
   14    0.0000000  -0.0000000  -0.0000000  -0.0000000   0.0000002
   15   -0.0457139   0.3588218   0.0032563   0.0020695  -0.0000839
   16   -0.0386299   0.3627541   0.0007055   0.0018465  -0.0000564
   17   -0.0356241   0.3568332   0.0012354   0.0033654  -0.0000559
   18    0.0004034   0.0001663   0.0115045  -0.0008818  -0.0379456
   19    0.0003158   0.0000048   0.0001069   0.0014001  -0.0428941
   20    0.0001185  -0.0000464  -0.0002619   0.0006273  -0.0433442
   21    0.0001543   0.0000027  -0.0000045   0.0011016  -0.0406232
   22   -0.0004645  -0.0000468  -0.0004146   0.0044341  -0.0027079
   23   -0.0000015  -0.0000003  -0.0000040   0.0000777   0.0023993
   24   -0.0000387   0.0000011   0.0000013   0.0016248  -0.0524597
   25   -0.0000732  -0.0000113   0.0000008   0.0018520  -0.0467017
   26   -0.0000246   0.0000170   0.0000030   0.0076165  -0.0031374
   27   -0.0000008  -0.0000000  -0.0000000   0.0000182  -0.0010744
   28   -0.0000000   0.0000000  -0.0000000  -0.0000002  -0.0000456
   29    0.0000000  -0.0000000  -0.0000000  -0.0000000   0.0000001
   30   -0.0000000  -0.0000000  -0.0000000  -0.0000000  -0.0000006
   31   -0.0000006   0.0000027  -0.0000000  -0.0000420   0.0000002
   32   -0.0000000  -0.0000000   0.0000000   0.0000000  -0.0000000
   33    0.0000000  -0.0000000  -0.0000000  -0.0000000   0.0000000
   34    0.0000000   0.0000000   0.0000000   0.0000000   0.0000000

             6           7           8           9          10

    6    5.4583858
    7   -0.0906187   5.3298059
    8    0.0021340   0.5463207   5.1778206
    9   -0.0781499  -0.1018468   0.0001451   5.4733187
   10   -0.0031069   0.0041278   0.0000021   0.2354653   5.4605084
   11   -0.0000916  -0.0000648  -0.0000016  -0.0847059   0.2775862
   12   -0.0000012  -0.0000002  -0.0000000   0.0005764  -0.0712928
   13    0.0000000   0.0000000  -0.0000000   0.0002211  -0.0064471
   14    0.0000000  -0.0000000  -0.0000000  -0.0000426   0.0022049
   15    0.0000047   0.0000066   0.0000031   0.0000003  -0.0000000
   16   -0.0000036  -0.0000003   0.0000019  -0.0000023   0.0000016
   17    0.0000053  -0.0000174   0.0000172  -0.0000094  -0.0000002
   18    0.3695345  -0.0022318   0.0001066   0.0028314   0.0000342
   19    0.3582951   0.0013073  -0.0000623  -0.0011071   0.0000929
   20    0.3775327   0.0039846  -0.0000350  -0.0016398   0.0002070
   21   -0.0001956   0.3876785  -0.0359646   0.0019265  -0.0000668
   22    0.0001104  -0.0531557   0.3959334   0.0000719  -0.0000028
   23   -0.0000364  -0.0494295   0.3923373  -0.0000570   0.0000004
   24    0.0019110   0.0013510   0.0004771   0.3778664  -0.0457802
   25    0.0036111  -0.0018778   0.0019519   0.3826152  -0.0422011
   26    0.0004272   0.0001395   0.0000006  -0.0441083   0.3836431
   27    0.0004029  -0.0000769  -0.0000008  -0.0481757   0.3849822
   28    0.0000018   0.0000008   0.0000000   0.0002052  -0.0405479
   29   -0.0000000  -0.0000000  -0.0000000  -0.0000119   0.0001024
   30    0.0000000   0.0000000   0.0000000   0.0000229   0.0001934
   31    0.0000000  -0.0000003   0.0000000   0.0000646  -0.0004862
   32    0.0000000   0.0000000   0.0000000   0.0000066  -0.0000427
   33   -0.0000000  -0.0000000  -0.0000000  -0.0000010  -0.0000577
   34   -0.0000000   0.0000000  -0.0000000  -0.0000028   0.0000974

            11          12          13          14          15

   11    5.2268910
   12    0.5777417   5.3463387
   13   -0.0567154   0.2694794   5.3375420
   14   -0.0726216   0.2776125  -0.0789971   5.3239993
   15    0.0000000  -0.0000000   0.0000000   0.0000000   0.4729096
   16   -0.0000000  -0.0000000   0.0000000   0.0000000  -0.0177856
   17   -0.0000000   0.0000000  -0.0000000   0.0000000  -0.0178025
   18    0.0000004   0.0000000   0.0000000  -0.0000000  -0.0000012
   19   -0.0000138   0.0000002  -0.0000000  -0.0000000  -0.0000000
   20    0.0000360  -0.0000001  -0.0000000  -0.0000000   0.0000013
   21    0.0000007   0.0000000  -0.0000000   0.0000000  -0.0000001
   22    0.0000000   0.0000000  -0.0000000   0.0000000  -0.0000001
   23   -0.0000000  -0.0000000  -0.0000000  -0.0000000  -0.0000000
   24    0.0008278   0.0002042  -0.0000038  -0.0000017  -0.0000000
   25   -0.0002481   0.0007655   0.0001164  -0.0000129   0.0000000
   26   -0.0425339   0.0007027  -0.0002869   0.0000560   0.0000003
   27   -0.0494671   0.0012692   0.0001370  -0.0000481  -0.0000000
   28    0.4045450  -0.0506986   0.0023629  -0.0027546  -0.0000000
   29    0.0003363  -0.0519921   0.3757174   0.0000233  -0.0000000
   30    0.0006395  -0.0518683   0.3768277  -0.0004502  -0.0000000
   31   -0.0018455  -0.0417295   0.3817449   0.0025090  -0.0000000
   32    0.0007056  -0.0516196   0.0001510   0.3745914   0.0000000
   33    0.0003985  -0.0521372   0.0004551   0.3751241  -0.0000000
   34    0.0010990  -0.0471172   0.0026377   0.3843372  -0.0000000

            16          17          18          19          20

   16    0.4658942
   17   -0.0193640   0.4685429
   18   -0.0000072  -0.0000018   0.4373237
   19   -0.0000003  -0.0000000  -0.0199595   0.5281206
   20    0.0000100  -0.0000001  -0.0217149  -0.0232264   0.4925269
   21   -0.0000000   0.0000000   0.0005023   0.0009004  -0.0000191
   22   -0.0000007   0.0002587   0.0000070  -0.0000031   0.0000006
   23   -0.0000000  -0.0000001  -0.0000035  -0.0000011   0.0000003
   24   -0.0000000   0.0000000  -0.0000543   0.0012013   0.0000975
   25    0.0000002   0.0000054  -0.0000387  -0.0000223  -0.0000649
   26    0.0000410   0.0000016  -0.0000206   0.0000135   0.0004504
   27   -0.0000001   0.0000000   0.0000433   0.0001792  -0.0000163
   28    0.0000000  -0.0000000  -0.0000000   0.0000002   0.0000010
   29   -0.0000000  -0.0000000   0.0000000  -0.0000000   0.0000000
   30   -0.0000000  -0.0000000  -0.0000000   0.0000000  -0.0000000
   31    0.0000017   0.0000018   0.0000000  -0.0000000  -0.0000008
   32   -0.0000000   0.0000000  -0.0000000   0.0000000  -0.0000000
   33    0.0000000   0.0000000   0.0000000  -0.0000000   0.0000000
   34   -0.0000000  -0.0000000   0.0000000  -0.0000000   0.0000000

            21          22          23          24          25

   21    0.4553071
   22    0.0020771   0.4604717
   23   -0.0020321  -0.0198993   0.4602284
   24    0.0001857   0.0000074  -0.0000027   0.5310662
   25    0.0001856   0.0003293  -0.0000003  -0.0219020   0.4810444
   26   -0.0000033  -0.0000006  -0.0000000   0.0030970  -0.0008839
   27    0.0000011   0.0000000   0.0000000  -0.0015484   0.0028436
   28   -0.0000001  -0.0000000   0.0000000   0.0012518   0.0001768
   29    0.0000000   0.0000000  -0.0000000   0.0000000   0.0000013
   30   -0.0000000  -0.0000000   0.0000000   0.0000001  -0.0000238
   31    0.0000000   0.0000000   0.0000000  -0.0000024   0.0000476
   32   -0.0000000  -0.0000000   0.0000000  -0.0000001  -0.0000018
   33    0.0000000   0.0000000  -0.0000000   0.0000000   0.0000003
   34    0.0000000   0.0000000  -0.0000000   0.0000008  -0.0000003

            26          27          28          29          30

   26    0.4798972
   27   -0.0237674   0.5186996
   28    0.0020397  -0.0013009   0.4782175
   29   -0.0000393   0.0000142  -0.0000559   0.5199511
   30   -0.0000367  -0.0000071  -0.0000536  -0.0307820   0.5186118
   31    0.0032727   0.0000079   0.0000570  -0.0232018  -0.0236154
   32   -0.0000003  -0.0000010   0.0001092  -0.0003165   0.0022130
   33    0.0000010   0.0000049   0.0000951   0.0020683  -0.0003536
   34    0.0000012  -0.0000032   0.0021562  -0.0000333  -0.0000155

            31          32          33          34

   31    0.4859579
   32   -0.0000306   0.5235383
   33   -0.0000176  -0.0317525   0.5235427
   34   -0.0000474  -0.0230617  -0.0232278   0.4957787

          TOTAL MULLIKEN AND LOWDIN ATOMIC POPULATIONS
       ATOM         MULL.POP.    CHARGE          LOW.POP.     CHARGE
    1 C             5.133440    0.866560         5.646640    0.353360
    2 C             6.670171   -0.670171         6.312333   -0.312333
    3 O             8.604853   -0.604853         8.312281   -0.312281
    4 O             8.718252   -0.718252         8.320508   -0.320508
    5 C             5.866145    0.133855         5.833131    0.166869
    6 C             6.583870   -0.583870         6.271440   -0.271440
    7 C             6.181960   -0.181960         6.107399   -0.107399
    8 C             6.402667   -0.402667         6.194462   -0.194462
    9 C             6.330823   -0.330823         6.143910   -0.143910
   10 C             6.482008   -0.482008         6.163132   -0.163132
   11 C             6.186213   -0.186213         6.127385   -0.127385
   12 C             6.056200   -0.056200         6.035130   -0.035130
   13 C             6.604942   -0.604942         6.253071   -0.253071
   14 C             6.585529   -0.585529         6.246141   -0.246141
   15 H             0.755686    0.244314         0.884608    0.115392
   16 H             0.755406    0.244594         0.878446    0.121554
   17 H             0.757391    0.242609         0.881463    0.118537
   18 H             0.739597    0.260403         0.882679    0.117321
   19 H             0.804648    0.195352         0.909566    0.090434
   20 H             0.785224    0.214776         0.903764    0.096236
   21 H             0.771114    0.228886         0.899754    0.100246
   22 H             0.787005    0.212995         0.903405    0.096595
   23 H             0.783575    0.216425         0.899730    0.100270
   24 H             0.799379    0.200621         0.917511    0.082489
   25 H             0.761483    0.238517         0.900320    0.099680
   26 H             0.766578    0.233422         0.904782    0.095218
   27 H             0.783115    0.216885         0.912353    0.087647
   28 H             0.795763    0.204237         0.915176    0.084824
   29 H             0.791782    0.208218         0.905831    0.094169
   30 H             0.791301    0.208699         0.905814    0.094186
   31 H             0.782648    0.217352         0.904102    0.095898
   32 H             0.794488    0.205512         0.908096    0.091904
   33 H             0.794143    0.205857         0.907881    0.092119
   34 H             0.792599    0.207401         0.907759    0.092241

          -------------------------------
          BOND ORDER AND VALENCE ANALYSIS     BOND ORDER THRESHOLD=0.050
          -------------------------------

                   BOND                       BOND                       BOND
  ATOM PAIR DIST  ORDER      ATOM PAIR DIST  ORDER      ATOM PAIR DIST  ORDER
    1   2  1.513  0.870        1   3  1.213  1.773        1   4  1.356  0.869
    2  15  1.090  0.906        2  16  1.096  0.906        2  17  1.094  0.906
    3   4  2.282  0.083        4   5  1.470  0.720        5   6  1.537  0.893
    5   7  1.517  0.894        5   9  1.550  0.878        6  18  1.090  0.901
    6  19  1.096  0.919        6  20  1.093  0.924        7   8  1.333  1.906
    7  21  1.090  0.927        8  22  1.086  0.940        8  23  1.086  0.940
    9  10  1.543  0.892        9  24  1.098  0.920        9  25  1.096  0.912
   10  11  1.507  0.943       10  26  1.093  0.910       10  27  1.098  0.913
   11  12  1.345  1.860       11  28  1.092  0.942       12  13  1.511  0.938
   12  14  1.512  0.943       13  29  1.099  0.916       13  30  1.098  0.917
   13  31  1.092  0.924       14  32  1.099  0.917       14  33  1.099  0.917
   14  34  1.094  0.933

                       TOTAL       BONDED        FREE
      ATOM            VALENCE     VALENCE     VALENCE
    1 C                 3.494       3.494      -0.000
    2 C                 3.598       3.598       0.000
    3 O                 1.927       1.927      -0.000
    4 O                 1.736       1.736      -0.000
    5 C                 3.312       3.312      -0.000
    6 C                 3.610       3.610      -0.000
    7 C                 3.656       3.656      -0.000
    8 C                 3.774       3.774       0.000
    9 C                 3.546       3.546       0.000
   10 C                 3.596       3.596       0.000
   11 C                 3.710       3.710       0.000
   12 C                 3.650       3.650      -0.000
   13 C                 3.659       3.659      -0.000
   14 C                 3.664       3.664      -0.000
   15 H                 0.903       0.903       0.000
   16 H                 0.902       0.902       0.000
   17 H                 0.905       0.905      -0.000
   18 H                 0.911       0.911      -0.000
   19 H                 0.920       0.920       0.000
   20 H                 0.917       0.917      -0.000
   21 H                 0.916       0.916       0.000
   22 H                 0.930       0.930      -0.000
   23 H                 0.924       0.924       0.000
   24 H                 0.915       0.915       0.000
   25 H                 0.905       0.905       0.000
   26 H                 0.912       0.912      -0.000
   27 H                 0.904       0.904       0.000
   28 H                 0.926       0.926      -0.000
   29 H                 0.911       0.911       0.000
   30 H                 0.911       0.911       0.000
   31 H                 0.916       0.916      -0.000
   32 H                 0.912       0.912       0.000
   33 H                 0.912       0.912      -0.000
   34 H                 0.920       0.920       0.000

          ---------------------
          ELECTROSTATIC MOMENTS
          ---------------------

 POINT   1           X           Y           Z (BOHR)    CHARGE
                 0.099731   -0.026309    0.070384       -0.00 (A.U.)
         DX          DY          DZ         /D/  (DEBYE)
    -1.960128   -0.533004   -0.650774    2.133003
 ...... END OF PROPERTY EVALUATION ......
 CPU     0: STEP CPU TIME=     0.06 TOTAL CPU TIME=          7.2 (      0.1 MIN)
 TOTAL WALL CLOCK TIME=         18.7 SECONDS, CPU UTILIZATION IS    38.38%
               580000  WORDS OF DYNAMIC MEMORY USED
 EXECUTION OF GAMESS TERMINATED NORMALLY Mon May 25 19:11:00 2020
 DDI: 263640 bytes (0.3 MB / 0 MWords) used by master data server.
Note: The following floating-point exceptions are signalling: IEEE_DENORMALNote: The following floating-point exceptions are signalling: IEEE_DENORMAL

Note: The following floating-point exceptions are signalling: IEEE_DENORMAL
Note: The following floating-point exceptions are signalling: IEEE_DENORMAL
Note: The following floating-point exceptions are signalling: IEEE_DENORMAL

 ----------------------------------------
 CPU timing information for all processes
 ========================================
 0: 6.983 + 0.193 = 7.177
 1: 7.42 + 0.77 = 7.120
 2: 7.78 + 0.63 = 7.141
 3: 6.392 + 0.72 = 6.464
 4: 6.860 + 0.40 = 6.900
 5: 6.976 + 0.89 = 7.65
 ----------------------------------------
Note: The following floating-point exceptions are signalling: IEEE_DENORMAL
 ddikick.x: exited gracefully.
unset echo
----- accounting info -----
Files used on the master node pietdev were:
-rwxr-xr-x 1 piet piet     1435 mei 25 19:10 /home/piet/scr/linalyl_acetate_fukui_neu.F05*
-rw-r--r-- 1 piet piet 49152000 mei 25 19:11 /home/piet/scr/linalyl_acetate_fukui_neu.F10
ls: No match.
ls: No match.
ls: No match.
ma 25 mei 2020 19:11:03 CEST
0.142u 0.035s 0:22.00 0.7%	0+0k 0+8io 0pf+0w
