----- GAMESS execution script 'rungms' -----
This job is running on host pietdev
under operating system Linux at ma 25 mei 2020 18:35:46 CEST
Available scratch disk space (Kbyte units) at beginning of the job is
Filesystem     1K-blocks     Used Available Use% Mounted on
/dev/sda2      244568380 31071356 201003968  14% /
GAMESS temporary binary files will be written to /home/piet/scr
GAMESS supplementary output files will be written to /home/piet/gamess/scr
Copying input file cineole_fukui_acid.inp to your run's scratch directory...
cp cineole_fukui_acid.inp /home/piet/scr/cineole_fukui_acid.F05
unset echo
 
Assuming a single but multicore node.
 
/home/piet/gamess/ddikick.x /home/piet/gamess/gamess.03.x cineole_fukui_acid -ddi 1 6 pietdev:cpus=6 -scr /home/piet/scr

 Distributed Data Interface kickoff program.
 Initiating 6 compute processes on 1 nodes to run the following command:
 /home/piet/gamess/gamess.03.x cineole_fukui_acid 

          ******************************************************
          *         GAMESS VERSION = 30 SEP 2019 (R2)          *
          *             FROM IOWA STATE UNIVERSITY             *
          * M.W.SCHMIDT, K.K.BALDRIDGE, J.A.BOATZ, S.T.ELBERT, *
          *   M.S.GORDON, J.H.JENSEN, S.KOSEKI, N.MATSUNAGA,   *
          *          K.A.NGUYEN, S.J.SU, T.L.WINDUS,           *
          *       TOGETHER WITH M.DUPUIS, J.A.MONTGOMERY       *
          *         J.COMPUT.CHEM.  14, 1347-1363(1993)        *
          **************** 64 BIT LINUX VERSION ****************

  SINCE 1993, STUDENTS AND POSTDOCS WORKING AT IOWA STATE UNIVERSITY
  AND ALSO IN THEIR VARIOUS JOBS AFTER LEAVING ISU HAVE MADE IMPORTANT
  CONTRIBUTIONS TO THE CODE:
     IVANA ADAMOVIC, CHRISTINE AIKENS, YURI ALEXEEV, POOJA ARORA,
     ANDREY ASADCHEV, ROB BELL, PRADIPTA BANDYOPADHYAY, JONATHAN BENTZ,
     COLLEEN BERTONI, BRETT BODE, KURT BRORSEN, CALEB CARLIN, GALINA CHABAN,
     WEI CHEN, CHEOL HO CHOI, PAUL DAY, ALBERT DEFUSCO, NUWAN DESILVA,
     TIM DUDLEY, DMITRI FEDOROV, ALEX FINDLATER, GRAHAM FLETCHER, 
     MARK FREITAG, KURT GLAESEMANN, EMILIE B GUIDEZ, ANASTASIA GUNINA, 
     DAN KEMP, SAROM SOK LEANG, GRANT MERRILL,
     NORIYUKI MINEZAWA, JONATHAN MULLIN,
     TAKESHI NAGATA, SEAN NEDD, HEATHER NETZLOFF, BOSILJKA NJEGIC, RYAN OLSON,
     MIKE PAK, BUU PHAM, DAVID POOLE,
     SPENCER PRUITT, LUKE ROSKOP, TOSAPORN SATTASATHUCHANA,
     JIM SHOEMAKER, LYUDMILA SLIPCHENKO,
     TONY SMITH, JIE SONG, TETSUYA TAKETSUGU, SIMON WEBB,
     JORGE LUIS GALVEZ VALLEJO, PENG XU, SOOHAENG YOO,
     FEDERICO ZAHARIEV

  ADDITIONAL CODE HAS BEEN PROVIDED BY COLLABORATORS IN OTHER GROUPS:
     IOWA STATE UNIVERSITY:
          JOE IVANIC, AARON WEST, LAIMUTIS BYTAUTAS, KLAUS RUEDENBERG
     UNIVERSITY OF TOKYO: KIMIHIKO HIRAO, TAKAHITO NAKAJIMA,
          TAKAO TSUNEDA, MUNEAKI KAMIYA, SUSUMU YANAGISAWA,
          KIYOSHI YAGI, MAHITO CHIBA, SEIKEN TOKURA, NAOAKI KAWAKAMI
     UNIVERSITY OF AARHUS: FRANK JENSEN
     UNIVERSITY OF IOWA: VISVALDAS KAIRYS, HUI LI
     NATIONAL INST. OF STANDARDS AND TECHNOLOGY: WALT STEVENS, DAVID GARMER
     UNIVERSITY OF PISA: BENEDETTA MENNUCCI, JACOPO TOMASI
     UNIVERSITY OF MEMPHIS: HENRY KURTZ, PRAKASHAN KORAMBATH
     UNIVERSITY OF ALBERTA: TOBY ZENG, MARIUSZ KLOBUKOWSKI
     UNIVERSITY OF NEW ENGLAND: MARK SPACKMAN
     MIE UNIVERSITY: HIROAKI UMEDA
     NAT. INST. OF ADVANCED INDUSTRIAL SCIENCE AND TECHNOLOGY: KAZUO KITAURA
     MICHIGAN STATE UNIVERSITY:
          KAROL KOWALSKI, MARTA WLOCH, JEFFREY GOUR, JESSE LUTZ,
          WEI LI, JUN SHEN, J. EMILIANO DEUSTUA, PIOTR PIECUCH
     UNIVERSITY OF MINNESOTA:
          ANDREW SAND, PRACHI SHARMA, YINAN SHU
     UNIVERSITY OF SILESIA: MONIKA MUSIAL, STANISLAW KUCHARSKI
     FACULTES UNIVERSITAIRES NOTRE-DAME DE LA PAIX:
          OLIVIER QUINET, BENOIT CHAMPAGNE
     UNIVERSITY OF CALIFORNIA - SANTA BARBARA: BERNARD KIRTMAN
     INSTITUTE FOR MOLECULAR SCIENCE:
          KAZUYA ISHIMURA, MICHIO KATOUDA, AND SHIGERU NAGASE
     UNIVERSITY OF NOTRE DAME: ANNA POMOGAEVA, DAN CHIPMAN
     KYUSHU UNIVERSITY:
          HARUYUKI NAKANO,
          FENG LONG GU, JACEK KORCHOWIEC, MARCIN MAKOWSKI, AND YURIKO AOKI,
          HIROTOSHI MORI AND EISAKU MIYOSHI
     PENNSYLVANIA STATE UNIVERSITY:
          TZVETELIN IORDANOV, CHET SWALINA, JONATHAN SKONE,
          SHARON HAMMES-SCHIFFER
     WASEDA UNIVERSITY:
          MASATO KOBAYASHI, TOMOKO AKAMA, TSUGUKI TOUMA,
          TAKESHI YOSHIKAWA, YASUHIRO IKABATA, JUNJI SEINO,
          YUYA NAKAJIMA, HIROMI NAKAI
     NANJING UNIVERSITY: SHUHUA LI
     UNIVERSITY OF NEBRASKA:
          PEIFENG SU, DEJUN SI, NANDUN THELLAMUREGE, YALI WANG, HUI LI
     UNIVERSITY OF ZURICH: ROBERTO PEVERATI, KIM BALDRIDGE
     N. COPERNICUS UNIVERSITY AND JACKSON STATE UNIVERSITY:
          MARIA BARYSZ
     UNIVERSITY OF COPENHAGEN: Jimmy Kromann, CASPER STEINMANN
     TOKYO INSTITUTE OF TECHNOLOGY: HIROYA NAKATA
     NAGOYA UNIVERSITY: YOSHIO NISHIMOTO, STEPHAN IRLE
     MOSCOW STATE UNIVERSITY: VLADIMIR MIRONOV
     A.N.NESMEYANOV INSTITUTE OF ORGANOELEMENT COMPOUNDS OF RUSSIAN ACADEMY OF SCIENCES:
          IGOR S. GERASIMOV
     JOHANNES KEPLER UNIVERSITY LINZ:
          CHRISTIAN FRIEDL


 PARALLEL VERSION RUNNING ON        6 PROCESSORS IN        1 NODES.

 EXECUTION OF GAMESS BEGUN Mon May 25 18:35:46 2020

            ECHO OF THE FIRST FEW INPUT CARDS -
 INPUT CARD> $BASIS GBASIS=N21 NGAUSS=3 $END                                                
 INPUT CARD> $CONTRL SCFTYP=UHF MAXIT=60 MULT=2 ICHARG=-1 $END                              
 INPUT CARD> $SYSTEM MEMDDI=1000 MWORDS=30 $END                                             
 INPUT CARD> $SCF DIRSCF=.TRUE. $END                                                        
 INPUT CARD> $STATPT OPTTOL=0.0001 NSTEP=999 $END                                           
 INPUT CARD> $DATA                                                                          
 INPUT CARD>                                                                                
 INPUT CARD>C1                                                                              
 INPUT CARD>C 6.0000000 1.23847 0.34827 -0.00278                                            
 INPUT CARD>C 6.0000000 -0.84077 -1.15458 0.00984                                           
 INPUT CARD>C 6.0000000 2.37564 1.36285 -0.01032                                            
 INPUT CARD>C 6.0000000 -2.00974 0.75872 -1.25381                                           
 INPUT CARD>C 6.0000000 -2.01081 0.77722 1.24371                                            
 INPUT CARD>C 6.0000000 1.25000 -0.53088 1.26564                                            
 INPUT CARD>C 6.0000000 1.24653 -0.54728 -1.25960                                           
 INPUT CARD>C 6.0000000 0.01552 -1.47640 1.25383                                            
 INPUT CARD>C 6.0000000 0.01487 -1.49607 -1.22930                                           
 INPUT CARD>C 6.0000000 -1.21402 0.35428 -0.00168                                           
 INPUT CARD>O 8.0000000 0.01949 1.12875 -0.00620                                            
 INPUT CARD>H 1.0000000 -1.76180 -1.75004 0.01487                                           
 INPUT CARD>H 1.0000000 2.18614 -1.10044 1.30927                                            
 INPUT CARD>H 1.0000000 1.23337 0.12781 2.14125                                             
 INPUT CARD>H 1.0000000 1.22400 0.10005 -2.14353                                            
 INPUT CARD>H 1.0000000 2.18409 -1.11473 -1.30046                                           
 INPUT CARD>H 1.0000000 2.31648 2.00631 0.87328                                             
 INPUT CARD>H 1.0000000 3.34628 0.85484 -0.00907                                            
 INPUT CARD>H 1.0000000 2.31369 1.99721 -0.90030                                            
 INPUT CARD>H 1.0000000 -0.56785 -1.37532 2.17383                                           
 INPUT CARD>H 1.0000000 0.32739 -2.52620 1.20267                                            
 INPUT CARD>H 1.0000000 0.33020 -2.54374 -1.15929                                           
 INPUT CARD>H 1.0000000 -0.56958 -1.41358 -2.15047                                          
 INPUT CARD>H 1.0000000 -1.44699 0.57144 -2.17135                                           
 INPUT CARD>H 1.0000000 -2.96118 0.21607 -1.31132                                           
 INPUT CARD>H 1.0000000 -2.22780 1.83067 -1.21390                                           
 INPUT CARD>H 1.0000000 -2.23858 1.84615 1.18265                                            
 INPUT CARD>H 1.0000000 -2.95715 0.22738 1.31496                                            
 INPUT CARD>H 1.0000000 -1.44368 0.61369 2.16314                                            
 INPUT CARD> $END                                                                           
   30000000 WORDS OF MEMORY AVAILABLE

     BASIS OPTIONS
     -------------
     GBASIS=N21          IGAUSS=       3      POLAR=NONE    
     NDFUNC=       0     NFFUNC=       0     DIFFSP=       F
     NPFUNC=       0      DIFFS=       F     BASNAM=        


     RUN TITLE
     ---------
                                                                                 

 THE POINT GROUP OF THE MOLECULE IS C1      
 THE ORDER OF THE PRINCIPAL AXIS IS     0

 ATOM      ATOMIC                      COORDINATES (BOHR)
           CHARGE         X                   Y                   Z
 C           6.0     2.3403689440        0.6581348697       -0.0052534382
 C           6.0    -1.5888249187       -2.1818398309        0.0185949037
 C           6.0     4.4893086455        2.5754130624       -0.0195019722
 C           6.0    -3.7978579066        1.4337729014       -2.3693573407
 C           6.0    -3.7998799134        1.4687328322        2.3502711082
 C           6.0     2.3621574847       -1.0032177324        2.3917127991
 C           6.0     2.3556001355       -1.0342092386       -2.3802988541
 C           6.0     0.0293285473       -2.7899914483        2.3693951352
 C           6.0     0.0281002254       -2.8271623585       -2.3230401567
 C           6.0    -2.2941651436        0.6694921229       -0.0031747397
 O           8.0     0.0368307595        2.1330282086       -0.0117163011
 H           1.0    -3.3293192452       -3.3070960676        0.0281002254
 H           1.0     4.1312055708       -2.0795300659        2.4741615439
 H           1.0     2.3307313415        0.2415258785        4.0463757712
 H           1.0     2.3130246090        0.1890670851       -4.0506843465
 H           1.0     4.1273316325       -2.1065342503       -2.4575130580
 H           1.0     4.3775124560        3.7913761464        1.6502599106
 H           1.0     6.3235522782        1.6154133633       -0.0171398147
 H           1.0     4.3722401205        3.7741796399       -1.7013203067
 H           1.0    -1.0730809021       -2.5989779454        4.1079430439
 H           1.0     0.6186773911       -4.7738257902        2.2727167537
 H           1.0     0.6239875211       -4.8069715840       -2.1907404403
 H           1.0    -1.0763501281       -2.6712788617       -4.0637990448
 H           1.0    -2.7344146070        1.0798650184       -4.1032565234
 H           1.0    -5.5958188003        0.4083130942       -2.4780354822
 H           1.0    -4.2099315554        3.4594646739       -2.2939383765
 H           1.0    -4.2303028016        3.4887176322        2.2348844394
 H           1.0    -5.5882032046        0.4296858951        2.4849140848
 H           1.0    -2.7281596140        1.1597059414        4.0877418731

          INTERNUCLEAR DISTANCES (ANGS.)
          ------------------------------

                1 C          2 C          3 C          4 C          5 C     

   1 C       0.0000000    2.5655324 *  1.5240030 *  3.5049128    3.5065020  
   2 C       2.5655324 *  0.0000000    4.0845016    2.5737170 *  2.5735734 *
   3 C       1.5240030 *  4.0845016    0.0000000    4.5981299    4.5996193  
   4 C       3.5049128    2.5737170 *  4.5981299    0.0000000    2.4975887 *
   5 C       3.5065020    2.5735734 *  4.5996193    2.4975887 *  0.0000000  
   6 C       1.5433493 *  2.5174103 *  2.5458501 *  4.3170130    3.5134724  
   7 C       1.5432664 *  2.5173622 *  2.5464066 *  3.5084133    4.3163787  
   8 C       2.5306315 *  1.5441217 *  3.9025097    3.9224607    3.0306631  
   9 C       2.5304423 *  1.5440865 *  3.9028926    3.0304660    3.9226274  
  10 C       2.4524976 *  1.5543831 *  3.7286656    1.5377163 *  1.5377740 *
  11 O       1.4474367 *  2.4400616 *  2.3677548 *  2.4106487 *  2.4099723 *
  12 H       3.6612616    1.0967653 *  5.1777532    2.8222154 *  2.8211871 *
  13 H       2.1721681 *  3.2944853    2.8008973 *  5.2565449    4.5982926  
  14 H       2.1553406 *  3.2387481    2.7311825 *  4.7373244    3.4281212  
  15 H       2.1551411 *  3.2364137    2.7334088 *  3.4179705    4.7324359  
  16 H       2.1722200 *  3.2967032    2.7999206 *  4.5934955    5.2582756  
  17 H       2.1630264 *  4.5502727    1.0946642 *  4.9796759    4.5136814  
  18 H       2.1678366 *  4.6442991    1.0955445 *  5.4995970    5.5021719  
  19 H       2.1634794 *  4.5511266    1.0946757 *  4.5111943    4.9785997  
  20 H       3.3122780    2.1922737 *  4.5751743    4.2874106    2.7533044 *
  21 H       3.2474227    2.1607366 *  4.5597569    4.7209289    4.0474001  
  22 H       3.2444093    2.1605095 *  4.5569071    4.0485177    4.7205415  
  23 H       3.3144732    2.1926159 *  4.5785507    2.7562560 *  4.2891965  
  24 H       3.4589299    2.8467943 *  4.4619369    1.0925388 *  3.4674015  
  25 H       4.4007742    2.8496112 *  5.6115375    1.0968202 *  2.7832123 *
  26 H       3.9597158    3.5118527    4.7811212    1.0946323 *  2.6826644 *
  27 H       3.9672113    3.5119420    4.7903844    2.6779113 *  1.0946318 *
  28 H       4.3993500    2.8446820 *  5.6110880    2.7889939 *  1.0967953 *
  29 H       3.4576850    2.8507859 *  4.4578441    3.4665552    1.0925795 *

                6 C          7 C          8 C          9 C         10 C     

   1 C       1.5433493 *  1.5432664 *  2.5306315 *  2.5304423 *  2.4524976 *
   2 C       2.5174103 *  2.5173622 *  1.5441217 *  1.5440865 *  1.5543831 *
   3 C       2.5458501 *  2.5464066 *  3.9025097    3.9028926    3.7286656  
   4 C       4.3170130    3.5084133    3.9224607    3.0304660    1.5377163 *
   5 C       3.5134724    4.3163787    3.0306631    3.9226274    1.5377740 *
   6 C       0.0000000    2.5252956 *  1.5550204 *  2.9465002 *  2.9087803 *
   7 C       2.5252956 *  0.0000000    2.9488947 *  1.5550263 *  2.9067988 *
   8 C       1.5550204 *  2.9488947 *  0.0000000    2.4832080 *  2.5376097 *
   9 C       2.9465002 *  1.5550263 *  2.4832080 *  0.0000000    2.5379158 *
  10 C       2.9087803 *  2.9067988 *  2.5376097 *  2.5379158 *  0.0000000  
  11 O       2.4261293 *  2.4260493 *  2.8938725 *  2.8958030 *  1.4564928 *
  12 H       3.4816255    3.4815162    2.1837507 *  2.1838077 *  2.1745113 *
  13 H       1.0966587 *  2.7906892 *  2.2036358 *  3.3638184    3.9237594  
  14 H       1.0958293 *  3.4672324    2.2009458 *  3.9347599    3.2608520  
  15 H       3.4671586    1.0958449 *  3.9354382    2.2012294 *  3.2551645  
  16 H       2.7925390 *  1.0966712 *  3.3701481    2.2036332 *  3.9232603  
  17 H       2.7800466 *  3.4949667    4.1914799    4.6888076    3.9948953  
  18 H       2.8177110 *  2.8175727 *  4.2571773    4.2560582    4.5876956  
  19 H       3.4948493    2.7825090 *  4.6891180    4.1947371    3.9939297  
  20 H       2.2005605 *  3.9706507    1.0940465 *  3.4547702    2.8534007 *
  21 H       2.1991990 *  3.2899417    1.0963395 *  2.6595704 *  3.4818915  
  22 H       3.2829747    2.1989942 *  2.6573269 *  1.0963334 *  3.4818381  
  23 H       3.9698663    2.2005410 *  3.4547861    1.0940478 *  2.8562091 *
  24 H       4.5057480    3.0557933    4.2502285    2.7016829 *  2.1929207 *
  25 H       4.9932649    4.2767045    4.2784567    3.4343885    2.1878819 *
  26 H       4.8805870    4.2104280    4.6966890    4.0121073    2.1626268 *
  27 H       4.2222446    4.8825284    4.0156409    4.6974434    2.1628770 *
  28 H       4.2752195    4.9899281    3.4268601    4.2750955    2.1881834 *
  29 H       3.0612838    4.5055777    2.7063971 *  4.2528937    2.1923692 *

               11 O         12 H         13 H         14 H         15 H     

   1 C       1.4474367 *  3.6612616    2.1721681 *  2.1553406 *  2.1551411 *
   2 C       2.4400616 *  1.0967653 *  3.2944853    3.2387481    3.2364137  
   3 C       2.3677548 *  5.1777532    2.8008973 *  2.7311825 *  2.7334088 *
   4 C       2.4106487 *  2.8222154 *  5.2565449    4.7373244    3.4179705  
   5 C       2.4099723 *  2.8211871 *  4.5982926    3.4281212    4.7324359  
   6 C       2.4261293 *  3.4816255    1.0966587 *  1.0958293 *  3.4671586  
   7 C       2.4260493 *  3.4815162    2.7906892 *  3.4672324    1.0958449 *
   8 C       2.8938725 *  2.1837507 *  2.2036358 *  2.2009458 *  3.9354382  
   9 C       2.8958030 *  2.1838077 *  3.3638184    3.9347599    2.2012294 *
  10 C       1.4564928 *  2.1745113 *  3.9237594    3.2608520    3.2551645  
  11 O       0.0000000    3.3853907    3.3755180    2.6621283 *  2.6603097 *
  12 H       3.3853907    0.0000000    4.2051970    4.1253916    4.1226842  
  13 H       3.3755180    4.2051970    0.0000000    1.7631107 *  3.7800420  
  14 H       2.6621283 *  4.1253916    1.7631107 *  0.0000000    4.2848802  
  15 H       2.6603097 *  4.1226842    3.7800420    4.2848802    0.0000000  
  16 H       3.3754710    4.2075836    2.6097699 *  3.7806272    1.7630174 *
  17 H       2.6114670 *  5.6106507    3.1398999    2.5118992 *  3.7320882  
  18 H       3.3380483    5.7339737    2.6281296 *  3.1011026    3.1031758  
  19 H       2.6109368 *  5.6115094    3.8070860    3.7299831    2.5163985 *
  20 H       3.3716266    2.4954038 *  2.8995662 *  2.3462427 *  4.9017385  
  21 H       3.8619721    2.5254718 *  2.3450174 *  2.9572794 *  4.3472006  
  22 H       3.8617794    2.5268707 *  3.4090199    4.3412509    2.9592621 *
  23 H       3.3776233    2.4946525 *  4.4341685    4.9036081    2.3469242 *
  24 H       2.6737675 *  3.2043615    5.3018423    5.0970242    2.7124104 *
  25 H       3.3794551    2.6576081 *  5.9241534    5.4334408    4.2686960  
  26 H       2.6460430 *  3.8142517    5.8686164    5.1123831    3.9716723  
  27 H       2.6508314 *  3.8109857    5.3175720    3.9907447    5.1089920  
  28 H       3.3791001    2.6512800 *  5.3119272    4.2723679    5.4276497  
  29 H       2.6668688 *  3.2099040    4.1040138    2.7208740 *  5.0919298  

               16 H         17 H         18 H         19 H         20 H     

   1 C       2.1722200 *  2.1630264 *  2.1678366 *  2.1634794 *  3.3122780  
   2 C       3.2967032    4.5502727    4.6442991    4.5511266    2.1922737 *
   3 C       2.7999206 *  1.0946642 *  1.0955445 *  1.0946757 *  4.5751743  
   4 C       4.5934955    4.9796759    5.4995970    4.5111943    4.2874106  
   5 C       5.2582756    4.5136814    5.5021719    4.9785997    2.7533044 *
   6 C       2.7925390 *  2.7800466 *  2.8177110 *  3.4948493    2.2005605 *
   7 C       1.0966712 *  3.4949667    2.8175727 *  2.7825090 *  3.9706507  
   8 C       3.3701481    4.1914799    4.2571773    4.6891180    1.0940465 *
   9 C       2.2036332 *  4.6888076    4.2560582    4.1947371    3.4547702  
  10 C       3.9232603    3.9948953    4.5876956    3.9939297    2.8534007 *
  11 O       3.3754710    2.6114670 *  3.3380483    2.6109368 *  3.3716266  
  12 H       4.2075836    5.6106507    5.7339737    5.6115094    2.4954038 *
  13 H       2.6097699 *  3.1398999    2.6281296 *  3.8070860    2.8995662 *
  14 H       3.7806272    2.5118992 *  3.1011026    3.7299831    2.3462427 *
  15 H       1.7630174 *  3.7320882    3.1031758    2.5163985 *  4.9017385  
  16 H       0.0000000    3.8057277    2.6263244 *  3.1402380    4.4397941  
  17 H       3.8057277    0.0000000    1.7790202 *  1.7736055 *  4.6310054  
  18 H       2.6263244 *  1.7790202 *  0.0000000    1.7791971 *  5.0059045  
  19 H       3.1402380    1.7736055 *  1.7791971 *  0.0000000    5.3969905  
  20 H       4.4397941    4.6310054    5.0059045    5.3969905    0.0000000  
  21 H       3.4212925    4.9607080    4.6918485    5.3692745    1.7518936 *
  22 H       2.3449748 *  5.3646625    4.6872263    4.9620092    3.6443639  
  23 H       2.8973310 *  5.4007457    5.0065240    4.6378507    4.3244696  
  24 H       4.0971161    5.0489930    5.2660429    4.2179500    4.8418334  
  25 H       5.3145978    5.9859111    6.4720888    5.5826204    4.5173910  
  26 H       5.3054356    5.0037636    5.7856916    4.5553498    4.9508101  
  27 H       5.8730448    4.5683621    5.7959946    5.0084590    3.7618673  
  28 H       5.9223331    5.5830858    6.4714752    5.9851006    3.0025089  
  29 H       5.3051556    4.2121173    5.2650134    5.0414900    2.1733277 *

               21 H         22 H         23 H         24 H         25 H     

   1 C       3.2474227    3.2444093    3.3144732    3.4589299    4.4007742  
   2 C       2.1607366 *  2.1605095 *  2.1926159 *  2.8467943 *  2.8496112 *
   3 C       4.5597569    4.5569071    4.5785507    4.4619369    5.6115375  
   4 C       4.7209289    4.0485177    2.7562560 *  1.0925388 *  1.0968202 *
   5 C       4.0474001    4.7205415    4.2891965    3.4674015    2.7832123 *
   6 C       2.1991990 *  3.2829747    3.9698663    4.5057480    4.9932649  
   7 C       3.2899417    2.1989942 *  2.2005410 *  3.0557933    4.2767045  
   8 C       1.0963395 *  2.6573269 *  3.4547861    4.2502285    4.2784567  
   9 C       2.6595704 *  1.0963334 *  1.0940478 *  2.7016829 *  3.4343885  
  10 C       3.4818915    3.4818381    2.8562091 *  2.1929207 *  2.1878819 *
  11 O       3.8619721    3.8617794    3.3776233    2.6737675 *  3.3794551  
  12 H       2.5254718 *  2.5268707 *  2.4946525 *  3.2043615    2.6576081 *
  13 H       2.3450174 *  3.4090199    4.4341685    5.3018423    5.9241534  
  14 H       2.9572794 *  4.3412509    4.9036081    5.0970242    5.4334408  
  15 H       4.3472006    2.9592621 *  2.3469242 *  2.7124104 *  4.2686960  
  16 H       3.4212925    2.3449748 *  2.8973310 *  4.0971161    5.3145978  
  17 H       4.9607080    5.3646625    5.4007457    5.0489930    5.9859111  
  18 H       4.6918485    4.6872263    5.0065240    5.2660429    6.4720888  
  19 H       5.3692745    4.9620092    4.6378507    4.2179500    5.5826204  
  20 H       1.7518936 *  3.6443639    4.3244696    4.8418334    4.5173910  
  21 H       0.0000000    2.3620268 *  3.6450002    4.9120066    4.9653684  
  22 H       2.3620268 *  0.0000000    1.7519428 *  3.7265287    4.2980050  
  23 H       3.6450002    1.7519428 *  0.0000000    2.1703891 *  3.0132511  
  24 H       4.9120066    3.7265287    2.1703891 *  0.0000000    1.7772762 *
  25 H       4.9653684    4.2980050    3.0132511    1.7772762 *  0.0000000  
  26 H       5.5992073    5.0677223    3.7619164    1.7640961 *  1.7760265 *
  27 H       5.0697187    5.5995043    4.9518774    3.6743457    3.0658111  
  28 H       4.2875418    4.9606138    4.5169066    3.8148811    2.6263074 *
  29 H       3.7306971    4.9147284    4.8457307    4.3346972    3.8121884  

               26 H         27 H         28 H         29 H     

   1 C       3.9597158    3.9672113    4.3993500    3.4576850  
   2 C       3.5118527    3.5119420    2.8446820 *  2.8507859 *
   3 C       4.7811212    4.7903844    5.6110880    4.4578441  
   4 C       1.0946323 *  2.6779113 *  2.7889939 *  3.4665552  
   5 C       2.6826644 *  1.0946318 *  1.0967953 *  1.0925795 *
   6 C       4.8805870    4.2222446    4.2752195    3.0612838  
   7 C       4.2104280    4.8825284    4.9899281    4.5055777  
   8 C       4.6966890    4.0156409    3.4268601    2.7063971 *
   9 C       4.0121073    4.6974434    4.2750955    4.2528937  
  10 C       2.1626268 *  2.1628770 *  2.1881834 *  2.1923692 *
  11 O       2.6460430 *  2.6508314 *  3.3791001    2.6668688 *
  12 H       3.8142517    3.8109857    2.6512800 *  3.2099040  
  13 H       5.8686164    5.3175720    5.3119272    4.1040138  
  14 H       5.1123831    3.9907447    4.2723679    2.7208740 *
  15 H       3.9716723    5.1089920    5.4276497    5.0919298  
  16 H       5.3054356    5.8730448    5.9223331    5.3051556  
  17 H       5.0037636    4.5683621    5.5830858    4.2121173  
  18 H       5.7856916    5.7959946    6.4714752    5.2650134  
  19 H       4.5553498    5.0084590    5.9851006    5.0414900  
  20 H       4.9508101    3.7618673    3.0025089    2.1733277 *
  21 H       5.5992073    5.0697187    4.2875418    3.7306971  
  22 H       5.0677223    5.5995043    4.9606138    4.9147284  
  23 H       3.7619164    4.9518774    4.5169066    4.8457307  
  24 H       1.7640961 *  3.6743457    3.8148811    4.3346972  
  25 H       1.7760265 *  3.0658111    2.6263074 *  3.8121884  
  26 H       0.0000000    2.3966242 *  3.0818214    3.6742732  
  27 H       2.3966242 *  0.0000000    1.7760251 *  1.7641384 *
  28 H       3.0818214    1.7760251 *  0.0000000    1.7774240 *
  29 H       3.6742732    1.7641384 *  1.7774240 *  0.0000000  

  * ... LESS THAN  3.000


     ATOMIC BASIS SET
     ----------------
 THE CONTRACTED PRIMITIVE FUNCTIONS HAVE BEEN UNNORMALIZED
 THE CONTRACTED BASIS FUNCTIONS ARE NOW NORMALIZED TO UNITY

  SHELL TYPE  PRIMITIVE        EXPONENT          CONTRACTION COEFFICIENT(S)

 C         

      1   S       1           172.2560000    0.061766907377
      1   S       2            25.9109000    0.358794042852
      1   S       3             5.5333500    0.700713083689

      2   L       4             3.6649800   -0.395895162119    0.236459946619
      2   L       5             0.7705450    1.215834355681    0.860618805716

      3   L       6             0.1958570    1.000000000000    1.000000000000

 C         

      4   S       7           172.2560000    0.061766907377
      4   S       8            25.9109000    0.358794042852
      4   S       9             5.5333500    0.700713083689

      5   L      10             3.6649800   -0.395895162119    0.236459946619
      5   L      11             0.7705450    1.215834355681    0.860618805716

      6   L      12             0.1958570    1.000000000000    1.000000000000

 C         

      7   S      13           172.2560000    0.061766907377
      7   S      14            25.9109000    0.358794042852
      7   S      15             5.5333500    0.700713083689

      8   L      16             3.6649800   -0.395895162119    0.236459946619
      8   L      17             0.7705450    1.215834355681    0.860618805716

      9   L      18             0.1958570    1.000000000000    1.000000000000

 C         

     10   S      19           172.2560000    0.061766907377
     10   S      20            25.9109000    0.358794042852
     10   S      21             5.5333500    0.700713083689

     11   L      22             3.6649800   -0.395895162119    0.236459946619
     11   L      23             0.7705450    1.215834355681    0.860618805716

     12   L      24             0.1958570    1.000000000000    1.000000000000

 C         

     13   S      25           172.2560000    0.061766907377
     13   S      26            25.9109000    0.358794042852
     13   S      27             5.5333500    0.700713083689

     14   L      28             3.6649800   -0.395895162119    0.236459946619
     14   L      29             0.7705450    1.215834355681    0.860618805716

     15   L      30             0.1958570    1.000000000000    1.000000000000

 C         

     16   S      31           172.2560000    0.061766907377
     16   S      32            25.9109000    0.358794042852
     16   S      33             5.5333500    0.700713083689

     17   L      34             3.6649800   -0.395895162119    0.236459946619
     17   L      35             0.7705450    1.215834355681    0.860618805716

     18   L      36             0.1958570    1.000000000000    1.000000000000

 C         

     19   S      37           172.2560000    0.061766907377
     19   S      38            25.9109000    0.358794042852
     19   S      39             5.5333500    0.700713083689

     20   L      40             3.6649800   -0.395895162119    0.236459946619
     20   L      41             0.7705450    1.215834355681    0.860618805716

     21   L      42             0.1958570    1.000000000000    1.000000000000

 C         

     22   S      43           172.2560000    0.061766907377
     22   S      44            25.9109000    0.358794042852
     22   S      45             5.5333500    0.700713083689

     23   L      46             3.6649800   -0.395895162119    0.236459946619
     23   L      47             0.7705450    1.215834355681    0.860618805716

     24   L      48             0.1958570    1.000000000000    1.000000000000

 C         

     25   S      49           172.2560000    0.061766907377
     25   S      50            25.9109000    0.358794042852
     25   S      51             5.5333500    0.700713083689

     26   L      52             3.6649800   -0.395895162119    0.236459946619
     26   L      53             0.7705450    1.215834355681    0.860618805716

     27   L      54             0.1958570    1.000000000000    1.000000000000

 C         

     28   S      55           172.2560000    0.061766907377
     28   S      56            25.9109000    0.358794042852
     28   S      57             5.5333500    0.700713083689

     29   L      58             3.6649800   -0.395895162119    0.236459946619
     29   L      59             0.7705450    1.215834355681    0.860618805716

     30   L      60             0.1958570    1.000000000000    1.000000000000

 O         

     31   S      61           322.0370000    0.059239393389
     31   S      62            48.4308000    0.351499960776
     31   S      63            10.4206000    0.707657921031

     32   L      64             7.4029400   -0.404453583190    0.244586106967
     32   L      65             1.5762000    1.221561761397    0.853955373466

     33   L      66             0.3736840    1.000000000000    1.000000000000

 H         

     34   S      67             5.4471780    0.156284978695
     34   S      68             0.8245472    0.904690876670

     35   S      69             0.1831916    1.000000000000

 H         

     36   S      70             5.4471780    0.156284978695
     36   S      71             0.8245472    0.904690876670

     37   S      72             0.1831916    1.000000000000

 H         

     38   S      73             5.4471780    0.156284978695
     38   S      74             0.8245472    0.904690876670

     39   S      75             0.1831916    1.000000000000

 H         

     40   S      76             5.4471780    0.156284978695
     40   S      77             0.8245472    0.904690876670

     41   S      78             0.1831916    1.000000000000

 H         

     42   S      79             5.4471780    0.156284978695
     42   S      80             0.8245472    0.904690876670

     43   S      81             0.1831916    1.000000000000

 H         

     44   S      82             5.4471780    0.156284978695
     44   S      83             0.8245472    0.904690876670

     45   S      84             0.1831916    1.000000000000

 H         

     46   S      85             5.4471780    0.156284978695
     46   S      86             0.8245472    0.904690876670

     47   S      87             0.1831916    1.000000000000

 H         

     48   S      88             5.4471780    0.156284978695
     48   S      89             0.8245472    0.904690876670

     49   S      90             0.1831916    1.000000000000

 H         

     50   S      91             5.4471780    0.156284978695
     50   S      92             0.8245472    0.904690876670

     51   S      93             0.1831916    1.000000000000

 H         

     52   S      94             5.4471780    0.156284978695
     52   S      95             0.8245472    0.904690876670

     53   S      96             0.1831916    1.000000000000

 H         

     54   S      97             5.4471780    0.156284978695
     54   S      98             0.8245472    0.904690876670

     55   S      99             0.1831916    1.000000000000

 H         

     56   S     100             5.4471780    0.156284978695
     56   S     101             0.8245472    0.904690876670

     57   S     102             0.1831916    1.000000000000

 H         

     58   S     103             5.4471780    0.156284978695
     58   S     104             0.8245472    0.904690876670

     59   S     105             0.1831916    1.000000000000

 H         

     60   S     106             5.4471780    0.156284978695
     60   S     107             0.8245472    0.904690876670

     61   S     108             0.1831916    1.000000000000

 H         

     62   S     109             5.4471780    0.156284978695
     62   S     110             0.8245472    0.904690876670

     63   S     111             0.1831916    1.000000000000

 H         

     64   S     112             5.4471780    0.156284978695
     64   S     113             0.8245472    0.904690876670

     65   S     114             0.1831916    1.000000000000

 H         

     66   S     115             5.4471780    0.156284978695
     66   S     116             0.8245472    0.904690876670

     67   S     117             0.1831916    1.000000000000

 H         

     68   S     118             5.4471780    0.156284978695
     68   S     119             0.8245472    0.904690876670

     69   S     120             0.1831916    1.000000000000

 TOTAL NUMBER OF BASIS SET SHELLS             =   69
 NUMBER OF CARTESIAN GAUSSIAN BASIS FUNCTIONS =  135
 NUMBER OF ELECTRONS                          =   87
 CHARGE OF MOLECULE                           =   -1
 SPIN MULTIPLICITY                            =    2
 NUMBER OF OCCUPIED ORBITALS (ALPHA)          =   44
 NUMBER OF OCCUPIED ORBITALS (BETA )          =   43
 TOTAL NUMBER OF ATOMS                        =   29
 THE NUCLEAR REPULSION ENERGY IS      715.3534161809

     $CONTRL OPTIONS
     ---------------
 SCFTYP=UHF          RUNTYP=ENERGY       EXETYP=RUN     
 MPLEVL=       0     CITYP =NONE         CCTYP =NONE         VBTYP =NONE    
 DFTTYP=NONE         TDDFT =NONE    
 MULT  =       2     ICHARG=      -1     NZVAR =       0     COORD =UNIQUE  
 PP    =NONE         RELWFN=NONE         LOCAL =NONE         NUMGRD=       F
 ISPHER=      -1     NOSYM =       0     MAXIT =      60     UNITS =ANGS    
 PLTORB=       F     MOLPLT=       F     AIMPAC=       F     FRIEND=        
 NPRINT=       7     IREST =       0     GEOM  =INPUT   
 NORMF =       0     NORMP =       0     ITOL  =      20     ICUT  =       9
 INTTYP=BEST         GRDTYP=BEST         QMTTOL= 1.0E-06

     $SYSTEM OPTIONS
     ---------------
  REPLICATED MEMORY=    30000000 WORDS (ON EVERY NODE).
 DISTRIBUTED MEMDDI=        1000 MILLION WORDS IN AGGREGATE,
 MEMDDI DISTRIBUTED OVER   6 PROCESSORS IS   166666666 WORDS/PROCESSOR.
 TOTAL MEMORY REQUESTED ON EACH PROCESSOR=   196666666 WORDS.
 TIMLIM=      525600.00 MINUTES, OR     365.0 DAYS.
 PARALL= T  BALTYP=  DLB     KDIAG=    0  COREFL= F
 MXSEQ2=     300 MXSEQ3=     150  mem10=         0

          ----------------
          PROPERTIES INPUT
          ----------------

     MOMENTS            FIELD           POTENTIAL          DENSITY
 IEMOM =       1   IEFLD =       0   IEPOT =       0   IEDEN =       0
 WHERE =COMASS     WHERE =NUCLEI     WHERE =NUCLEI     WHERE =NUCLEI  
 OUTPUT=BOTH       OUTPUT=BOTH       OUTPUT=BOTH       OUTPUT=BOTH    
 IEMINT=       0   IEFINT=       0                     IEDINT=       0
                                                       MORB  =       0
          EXTRAPOLATION IN EFFECT
          SOSCF IN EFFECT
          DIIS or SOSCF will be reset if energy rises
 ORBITAL PRINTING OPTION: NPREO=     1   135     2     1

     -------------------------------
     INTEGRAL TRANSFORMATION OPTIONS
     -------------------------------
     NWORD  =            0
     CUTOFF = 1.0E-09     MPTRAN =       0
     DIRTRF =       T     AOINTS =DUP     

          ----------------------
          INTEGRAL INPUT OPTIONS
          ----------------------
 NOPK  =       1 NORDER=       0 SCHWRZ=       T

     ------------------------------------------
     THE POINT GROUP IS C1 , NAXIS= 0, ORDER= 1
     ------------------------------------------

     DIMENSIONS OF THE SYMMETRY SUBSPACES ARE
 A   =  135

 ..... DONE SETTING UP THE RUN .....
 CPU     0: STEP CPU TIME=     0.02 TOTAL CPU TIME=          0.0 (      0.0 MIN)
 TOTAL WALL CLOCK TIME=          0.1 SECONDS, CPU UTILIZATION IS    40.00%

          ********************
          1 ELECTRON INTEGRALS
          ********************
 ...... END OF ONE-ELECTRON INTEGRALS ......
 CPU     0: STEP CPU TIME=     0.02 TOTAL CPU TIME=          0.0 (      0.0 MIN)
 TOTAL WALL CLOCK TIME=          0.1 SECONDS, CPU UTILIZATION IS    57.14%

          -------------
          GUESS OPTIONS
          -------------
          GUESS =HUCKEL            NORB  =       0          NORDER=       0
          MIX   =       F          PRTMO =       F          PUNMO =       F
          TOLZ  = 1.0E-08          TOLE  = 1.0E-05
          SYMDEN=       F          PURIFY=       F

 INITIAL GUESS ORBITALS GENERATED BY HUCKEL   ROUTINE.
 HUCKEL GUESS REQUIRES    174540 WORDS.

 SYMMETRIES FOR INITIAL GUESS ORBITALS FOLLOW.  ALPHA SET(S).
    44 ORBITALS ARE OCCUPIED (   11 CORE ORBITALS).
    12=A       13=A       14=A       15=A       16=A       17=A       18=A   
    19=A       20=A       21=A       22=A       23=A       24=A       25=A   
    26=A       27=A       28=A       29=A       30=A       31=A       32=A   
    33=A       34=A       35=A       36=A       37=A       38=A       39=A   
    40=A       41=A       42=A       43=A       44=A       45=A       46=A   
    47=A       48=A       49=A       50=A       51=A       52=A       53=A   
    54=A   

 SYMMETRIES FOR INITIAL GUESS ORBITALS FOLLOW.   BETA SET(S).
    43 ORBITALS ARE OCCUPIED (   11 CORE ORBITALS).
    12=A       13=A       14=A       15=A       16=A       17=A       18=A   
    19=A       20=A       21=A       22=A       23=A       24=A       25=A   
    26=A       27=A       28=A       29=A       30=A       31=A       32=A   
    33=A       34=A       35=A       36=A       37=A       38=A       39=A   
    40=A       41=A       42=A       43=A       44=A       45=A       46=A   
    47=A       48=A       49=A       50=A       51=A       52=A       53=A   
 ...... END OF INITIAL ORBITAL SELECTION ......
 CPU     0: STEP CPU TIME=     0.06 TOTAL CPU TIME=          0.1 (      0.0 MIN)
 TOTAL WALL CLOCK TIME=          0.1 SECONDS, CPU UTILIZATION IS    76.92%

                    ----------------------
                    AO INTEGRAL TECHNOLOGY
                    ----------------------
     S,P,L SHELL ROTATED AXIS INTEGRALS, REPROGRAMMED BY
        KAZUYA ISHIMURA (IMS) AND JOSE SIERRA (SYNSTAR).
     S,P,D,L SHELL ROTATED AXIS INTEGRALS PROGRAMMED BY
        KAZUYA ISHIMURA (INSTITUTE FOR MOLECULAR SCIENCE).
     S,P,D,F,G SHELL TO TOTAL QUARTET ANGULAR MOMENTUM SUM 5,
        ERIC PROGRAM BY GRAHAM FLETCHER (ELORET AND NASA ADVANCED
        SUPERCOMPUTING DIVISION, AMES RESEARCH CENTER).
     S,P,D,F,G,L SHELL GENERAL RYS QUADRATURE PROGRAMMED BY
        MICHEL DUPUIS (PACIFIC NORTHWEST NATIONAL LABORATORY).

          --------------------
          2 ELECTRON INTEGRALS
          --------------------

 DIRECT SCF METHOD SKIPS INTEGRAL STORAGE ON DISK.
 DIRECT TRANSFORMATION SKIPS AO INTEGRAL STORAGE ON DISK.
  ...... END OF TWO-ELECTRON INTEGRALS .....
 CPU     0: STEP CPU TIME=     0.02 TOTAL CPU TIME=          0.1 (      0.0 MIN)
 TOTAL WALL CLOCK TIME=          0.1 SECONDS, CPU UTILIZATION IS    80.00%

          ---------------------------
                  UHF SCF CALCULATION
          ---------------------------

     NUCLEAR ENERGY =       715.3534161809
     MAXIT = 60     NPUNCH=  2     MULT=  2
     EXTRAP=T  DAMP=F  SHIFT=F  RSTRCT=F  DIIS=F  SOSCF=T
     DENSITY MATRIX CONV=  2.00E-05
     SOSCF WILL OPTIMIZE    4004 ALPHA AND    3956 BETA ROTATION ANGLES.
     SOGTOL= 2.500E-01
     MEMORY REQUIRED FOR UHF/ROHF ITERS=    289316 WORDS.

 DIRECT SCF CALCULATION, SCHWRZ=T   FDIFF=T
 SCHWARZ INEQUALITY OVERHEAD:      8960 INTEGRALS, T=        0.00

                                                                                NONZERO     BLOCKS
 ITER EX      TOTAL ENERGY        E CHANGE  DENSITY CHANGE    ORB. GRAD       INTEGRALS    SKIPPED
   1  0     -460.0600111632  -460.0600111632   0.695199713   0.000000000       31026716    1252428
          ---------------START SECOND ORDER SCF---------------
   2  1     -461.0615147201    -1.0015035569   0.388457457   0.066227326       31002173    1251806
   3  2     -461.1662853223    -0.1047706021   0.555967488   0.052061652       30893279    1277578
   4  3     -461.2040627189    -0.0377773966   0.313307705   0.037531883       31023836    1238391
   5  4     -461.2347734714    -0.0307107525   0.193060437   0.037621757       30886872    1280960
   6  5     -461.2519722679    -0.0171987965   0.057668918   0.008124914       30818683    1284144
   7  6     -461.2534042752    -0.0014320073   0.030329563   0.002794182       30012288    1395179
   8  7     -461.2538242252    -0.0004199500   0.063147905   0.001615190       29582763    1434044
   9  8     -461.2541244431    -0.0003002180   0.037712552   0.001029094       29961989    1391144
  10  9     -461.2542328924    -0.0001084492   0.025233348   0.001010227       29666282    1423584
  11 10     -461.2542830114    -0.0000501190   0.004808108   0.000415902       29462003    1446019
  12 11     -461.2542906225    -0.0000076111   0.002468590   0.000131171       28041753    1577544
  13 12     -461.2542919665    -0.0000013440   0.001656512   0.000047540       26589916    1703182
  14 13     -461.2542923221    -0.0000003556   0.000806876   0.000030217       26162741    1732412
  15 14     -461.2542924287    -0.0000001066   0.000291074   0.000023493       25858017    1749254
  16 15     -461.2542924491    -0.0000000204   0.000134028   0.000012904       24834939    1818368
  17 16     -461.2542924522    -0.0000000032   0.000038778   0.000003158       23481322    1913570
  18 17     -461.2542924508     0.0000000014   0.000026767   0.000001303       21292012    2055748
  19 18     -461.2542924517    -0.0000000008   0.000007890   0.000000670       20468503    2099509
  20 19     -461.2542924534    -0.0000000017   0.000003287   0.000000308       19042295    2180047

          -----------------
          DENSITY CONVERGED
          -----------------
     TIME TO FORM FOCK OPERATORS=      11.9 SECONDS (       0.6 SEC/ITER)
     FOCK TIME ON FIRST ITERATION=       0.8, LAST ITERATION=       0.3
     TIME TO SOLVE SCF EQUATIONS=       0.4 SECONDS (       0.0 SEC/ITER)

 FINAL UHF ENERGY IS     -461.2542924534 AFTER  20 ITERATIONS

          --------------------
          SPIN SZ   =    0.500
          S-SQUARED =    0.753
          --------------------

  ----- ALPHA SET ----- 

          ------------
          EIGENVECTORS
          ------------

                      1          2          3          4          5
                  -20.2666   -11.0674   -11.0608   -11.0071   -10.9983
                     A          A          A          A          A   
    1  C  1  S   -0.001124  -0.034291   0.988524   0.000876  -0.000166
    2  C  1  S   -0.005309  -0.005905   0.110724  -0.000954   0.000101
    3  C  1  X   -0.000655   0.001244  -0.000720   0.000007  -0.000057
    4  C  1  Y    0.001269   0.000645  -0.000767  -0.000207  -0.000061
    5  C  1  Z   -0.000008  -0.000004   0.000008   0.000001   0.000318
    6  C  1  S    0.025236   0.008928  -0.116417   0.014688  -0.000321
    7  C  1  X   -0.014920  -0.006703   0.000814   0.008925   0.000359
    8  C  1  Y    0.001609  -0.004053   0.009278   0.010389   0.000457
    9  C  1  Z   -0.000004   0.000050  -0.000079  -0.000077  -0.001701
   10  C  2  S    0.000569  -0.000137  -0.007500  -0.009346  -0.027643
   11  C  2  S    0.003270  -0.001694  -0.005592  -0.001810  -0.003180
   12  C  2  X    0.001337   0.000058  -0.001316  -0.000409  -0.000013
   13  C  2  Y   -0.000216   0.001178  -0.001204  -0.000234  -0.000098
   14  C  2  Z   -0.000001  -0.000011   0.000007   0.000002  -0.001129
   15  C  2  S   -0.013969   0.019788   0.018685   0.002215   0.003214
   16  C  2  X   -0.010194  -0.007797   0.011160   0.002054   0.000259
   17  C  2  Y   -0.007950   0.012372   0.005251   0.000659   0.000466
   18  C  2  Z    0.000079  -0.000103  -0.000034  -0.000001   0.004435
   19  C  3  S    0.000124  -0.000419  -0.001631   0.987426  -0.000296
   20  C  3  S    0.000341  -0.000340  -0.002785   0.102212   0.000007
   21  C  3  X    0.000490  -0.000118  -0.000478  -0.000041   0.000007
   22  C  3  Y    0.000232   0.000009  -0.000785  -0.000251   0.000003
   23  C  3  Z   -0.000002   0.000000   0.000006   0.000003  -0.000032
   24  C  3  S   -0.001289   0.002970   0.023048  -0.081854  -0.000301
   25  C  3  X    0.002112  -0.000481  -0.010120   0.004157   0.000128
   26  C  3  Y   -0.001813  -0.001320  -0.008303   0.003942   0.000098
   27  C  3  Z    0.000013   0.000003   0.000065  -0.000040   0.000497
   28  C  4  S    0.000145  -0.001702  -0.000164   0.000676  -0.658443
   29  C  4  S    0.000376  -0.003111  -0.000211   0.000197  -0.069607
   30  C  4  X   -0.000559   0.000239   0.000095   0.000020   0.000345
   31  C  4  Y    0.000027  -0.000418   0.000067  -0.000009  -0.000119
   32  C  4  Z   -0.000551   0.000956   0.000039  -0.000051  -0.001003
   33  C  4  S   -0.003159   0.026240   0.001705  -0.000673   0.057871
   34  C  4  X   -0.002942   0.008497  -0.000336  -0.000529   0.000630
   35  C  4  Y   -0.000540  -0.003220  -0.001003  -0.000044  -0.000502
   36  C  4  Z    0.000672   0.011649   0.001029  -0.000106   0.005463
   37  C  5  S    0.000144  -0.001705  -0.000168   0.000667   0.735761
   38  C  5  S    0.000375  -0.003114  -0.000214   0.000195   0.077480
   39  C  5  X   -0.000556   0.000243   0.000094   0.000020  -0.000312
   40  C  5  Y    0.000032  -0.000436   0.000065  -0.000008   0.000049
   41  C  5  Z    0.000553  -0.000948  -0.000040   0.000051  -0.000961
   42  C  5  S   -0.003160   0.026257   0.001712  -0.000667  -0.063837
   43  C  5  X   -0.002961   0.008490  -0.000329  -0.000528  -0.000849
   44  C  5  Y   -0.000529  -0.003368  -0.001010  -0.000042   0.000739
   45  C  5  Z   -0.000680  -0.011607  -0.001020   0.000107   0.005465
   46  C  6  S    0.000282  -0.000773  -0.002418  -0.008526   0.004218
   47  C  6  S    0.001028  -0.000011  -0.004212  -0.002194   0.000643
   48  C  6  X    0.000116   0.000641   0.000141  -0.000858  -0.000452
   49  C  6  Y   -0.000577  -0.000527   0.000509  -0.000766   0.000060
   50  C  6  Z    0.000950   0.000314  -0.001133   0.000203  -0.000141
   51  C  6  S   -0.009362  -0.004686   0.034061   0.003520   0.001374
   52  C  6  X    0.004968   0.000370  -0.003691   0.003266   0.001035
   53  C  6  Y   -0.001048   0.001484   0.008743   0.002377   0.000040
   54  C  6  Z    0.001341   0.002196  -0.014701  -0.000980  -0.000270
   55  C  7  S    0.000282  -0.000801  -0.002415  -0.008515  -0.004029
   56  C  7  S    0.001034  -0.000036  -0.004209  -0.002189  -0.000672
   57  C  7  X    0.000111   0.000647   0.000140  -0.000857   0.000407
   58  C  7  Y   -0.000587  -0.000533   0.000525  -0.000769  -0.000059
   59  C  7  Z   -0.000944  -0.000310   0.001123  -0.000190  -0.000097
   60  C  7  S   -0.009388  -0.004599   0.034050   0.003507  -0.000646
   61  C  7  X    0.004976   0.000307  -0.003637   0.003257  -0.001184
   62  C  7  Y   -0.001085   0.001468   0.008903   0.002391  -0.000052
   63  C  7  Z   -0.001351  -0.002207   0.014609   0.000934   0.000007
   64  C  8  S   -0.000098  -0.002157  -0.000546  -0.002662   0.004470
   65  C  8  S   -0.000001  -0.001555   0.000771  -0.000784   0.001270
   66  C  8  X   -0.000310   0.000382  -0.000391  -0.000051   0.000231
   67  C  8  Y    0.000570  -0.000645  -0.000629  -0.000114   0.000044
   68  C  8  Z   -0.000678   0.000285   0.000515   0.000090  -0.000077
   69  C  8  S    0.007685   0.004023  -0.011847   0.001783  -0.004135
   70  C  8  X    0.002145   0.000397   0.000043   0.001545   0.001295
   71  C  8  Y    0.001838   0.001594  -0.004394   0.001147  -0.001284
   72  C  8  Z   -0.001871  -0.000959   0.005291   0.000425   0.002016
   73  C  9  S   -0.000098  -0.002137  -0.000534  -0.002663  -0.005260
   74  C  9  S   -0.000003  -0.001536   0.000778  -0.000787  -0.001286
   75  C  9  X   -0.000309   0.000379  -0.000388  -0.000050  -0.000160
   76  C  9  Y    0.000581  -0.000644  -0.000636  -0.000116  -0.000114
   77  C  9  Z    0.000669  -0.000275  -0.000500  -0.000088  -0.000160
   78  C  9  S    0.007701   0.003953  -0.011848   0.001790   0.002747
   79  C  9  X    0.002121   0.000392   0.000025   0.001535  -0.001141
   80  C  9  Y    0.001890   0.001556  -0.004483   0.001147   0.001095
   81  C  9  Z    0.001842   0.000927  -0.005229  -0.000444   0.001389
   82  C 10  S   -0.001039   0.988238   0.033951   0.000277   0.000091
   83  C 10  S   -0.004511   0.108827   0.002359  -0.000528  -0.000020
   84  C 10  X    0.001068   0.000066  -0.001209   0.000100  -0.000050
   85  C 10  Y    0.000594  -0.000117   0.000649   0.000208   0.000027
   86  C 10  Z   -0.000003   0.000002  -0.000006  -0.000001   0.000051
   87  C 10  S    0.024892  -0.106428  -0.005147   0.002267   0.000322
   88  C 10  X    0.014283   0.006017   0.002905   0.000813  -0.000534
   89  C 10  Y    0.002422   0.001367   0.001731   0.000756   0.000808
   90  C 10  Z   -0.000006  -0.000013  -0.000015  -0.000007   0.015385
   91  O 11  S    0.983849  -0.000266  -0.000382   0.000026  -0.000005
   92  O 11  S    0.100890  -0.001019  -0.001870  -0.000101  -0.000059
   93  O 11  X   -0.000063  -0.000299   0.000317  -0.000652   0.000033
   94  O 11  Y   -0.003847  -0.000596  -0.000488  -0.000216   0.000001
   95  O 11  Z    0.000020   0.000004   0.000002   0.000002  -0.000489
   96  O 11  S   -0.057268   0.010291   0.015100  -0.001231   0.000156
   97  O 11  X    0.000116  -0.006148   0.005749   0.001437  -0.000056
   98  O 11  Y    0.012645  -0.000816  -0.003129   0.000618  -0.000099
   99  O 11  Z   -0.000066   0.000004   0.000015  -0.000003   0.000661
  100  H 12  S   -0.000831  -0.001662  -0.000010   0.000000  -0.000041
  101  H 12  S   -0.003098  -0.000813   0.003933   0.001188  -0.000377
  102  H 13  S   -0.000146   0.000223  -0.001619  -0.000451  -0.000134
  103  H 13  S   -0.000245   0.001210   0.001044  -0.001580  -0.000719
  104  H 14  S    0.000758   0.000023  -0.001950  -0.000326   0.000189
  105  H 14  S    0.000425  -0.000970   0.000092  -0.001316  -0.000522
  106  H 15  S    0.000760   0.000015  -0.001950  -0.000324  -0.000187
  107  H 15  S    0.000438  -0.000981   0.000111  -0.001312   0.000460
  108  H 16  S   -0.000148   0.000221  -0.001620  -0.000451   0.000097
  109  H 16  S   -0.000252   0.001223   0.001034  -0.001575   0.000702
  110  H 17  S    0.000389  -0.000042  -0.001427   0.000333  -0.000059
  111  H 17  S    0.000423   0.000039   0.000015   0.013980  -0.000076
  112  H 18  S   -0.000377  -0.000177  -0.001298   0.000346   0.000012
  113  H 18  S   -0.000083  -0.000291   0.000822   0.014253  -0.000004
  114  H 19  S    0.000390  -0.000043  -0.001427   0.000331   0.000087
  115  H 19  S    0.000428   0.000037   0.000019   0.013970   0.000072
  116  H 20  S   -0.000129   0.000101   0.000419  -0.000142   0.000230
  117  H 20  S    0.000385  -0.001479  -0.000237   0.000190  -0.000465
  118  H 21  S   -0.000254  -0.000334   0.000407  -0.000064   0.000110
  119  H 21  S   -0.000823   0.001524  -0.000427   0.000148  -0.000222
  120  H 22  S   -0.000253  -0.000335   0.000415  -0.000064  -0.000043
  121  H 22  S   -0.000815   0.001507  -0.000438   0.000148   0.000287
  122  H 23  S   -0.000132   0.000108   0.000412  -0.000142  -0.000167
  123  H 23  S    0.000380  -0.001470  -0.000234   0.000188   0.000338
  124  H 24  S    0.000441  -0.001699   0.000035   0.000087  -0.000113
  125  H 24  S    0.001189   0.000157   0.000119   0.000143  -0.008091
  126  H 25  S   -0.000327  -0.001326  -0.000284  -0.000019  -0.000657
  127  H 25  S    0.000094   0.000989  -0.000230  -0.000074  -0.010468
  128  H 26  S    0.000356  -0.001556  -0.000025   0.000065  -0.000600
  129  H 26  S    0.000016  -0.000128   0.000234  -0.000020  -0.010766
  130  H 27  S    0.000356  -0.001552  -0.000025   0.000064   0.000605
  131  H 27  S   -0.000020  -0.000160   0.000220  -0.000023   0.011646
  132  H 28  S   -0.000326  -0.001329  -0.000285  -0.000019   0.000629
  133  H 28  S    0.000096   0.000988  -0.000223  -0.000073   0.011576
  134  H 29  S    0.000441  -0.001702   0.000033   0.000088   0.000103
  135  H 29  S    0.001216   0.000172   0.000131   0.000140   0.009447

                      6          7          8          9         10
                  -10.9981   -10.9977   -10.9881   -10.9875   -10.9873
                     A          A          A          A          A   
    1  C  1  S    0.004568   0.003978   0.000020   0.001543   0.000123
    2  C  1  S   -0.003145  -0.003145  -0.000025  -0.003043  -0.000122
    3  C  1  X    0.001501   0.001255   0.000000   0.000302   0.000026
    4  C  1  Y    0.001672   0.001331  -0.000004  -0.000741   0.000023
    5  C  1  Z    0.000005  -0.000016  -0.000954   0.000028  -0.000664
    6  C  1  S    0.011315   0.012595   0.000217   0.028755   0.000905
    7  C  1  X   -0.011104  -0.011060  -0.000047  -0.004690  -0.000239
    8  C  1  Y   -0.012117  -0.009686  -0.000211  -0.008723  -0.000448
    9  C  1  Z   -0.000014   0.000120  -0.017638   0.000116   0.002549
   10  C  2  S    0.749461   0.644580   0.000067   0.007025   0.000304
   11  C  2  S    0.085252   0.071827  -0.000001   0.001195  -0.000030
   12  C  2  X    0.001126   0.002207   0.000003  -0.000778   0.000014
   13  C  2  Y    0.001756   0.000443   0.000008   0.000206  -0.000001
   14  C  2  Z   -0.000079   0.000024   0.001298  -0.000033   0.000824
   15  C  2  S   -0.088133  -0.077068   0.000070  -0.010500   0.000694
   16  C  2  X   -0.011176  -0.016509   0.000025  -0.002856   0.000197
   17  C  2  Y   -0.010573  -0.006664  -0.000034  -0.002318  -0.000225
   18  C  2  Z    0.000356  -0.000055   0.005023  -0.000387   0.013719
   19  C  3  S    0.007417   0.005127   0.000109   0.010920   0.000592
   20  C  3  S   -0.000151  -0.000085  -0.000005  -0.000406  -0.000047
   21  C  3  X   -0.000154  -0.000095   0.000003   0.000349   0.000007
   22  C  3  Y   -0.000059  -0.000031   0.000012   0.000796   0.000039
   23  C  3  Z   -0.000001   0.000001   0.000644   0.000005  -0.000542
   24  C  3  S    0.007657   0.005941   0.000035   0.002323   0.000285
   25  C  3  X   -0.003082  -0.002193  -0.000007   0.000437  -0.000048
   26  C  3  Y   -0.002705  -0.002431  -0.000021  -0.001618  -0.000171
   27  C  3  Z    0.000049   0.000005  -0.000040  -0.000059   0.002514
   28  C  4  S   -0.493746   0.545712  -0.002791  -0.000783   0.005829
   29  C  4  S   -0.050787   0.054798  -0.000009   0.000042  -0.000515
   30  C  4  X   -0.000311  -0.000087   0.000039   0.000006   0.000266
   31  C  4  Y    0.000585   0.000392  -0.000058  -0.000077   0.000055
   32  C  4  Z    0.000017  -0.000680  -0.000025  -0.000027   0.000055
   33  C  4  S    0.038954  -0.041321  -0.001204  -0.000078   0.006133
   34  C  4  X    0.000959  -0.002754  -0.000712  -0.000463   0.002099
   35  C  4  Y   -0.000845   0.000134   0.000418   0.000410  -0.002258
   36  C  4  Z    0.000604   0.000389  -0.000433   0.000114   0.002127
   37  C  5  S   -0.413728   0.512464   0.002969  -0.000519  -0.004928
   38  C  5  S   -0.042345   0.051287   0.000013   0.000009   0.000526
   39  C  5  X   -0.000356  -0.000071  -0.000045   0.000027  -0.000293
   40  C  5  Y    0.000589   0.000399   0.000064  -0.000076  -0.000030
   41  C  5  Z   -0.000141   0.000717  -0.000024   0.000026   0.000061
   42  C  5  S    0.031970  -0.038384   0.001258   0.000285  -0.005825
   43  C  5  X    0.000921  -0.002706   0.000704  -0.000344  -0.002082
   44  C  5  Y   -0.000749   0.000079  -0.000444   0.000281   0.002213
   45  C  5  Z    0.000048  -0.000644  -0.000465  -0.000256   0.001898
   46  C  6  S   -0.002920  -0.003966  -0.674424   0.686544   0.186525
   47  C  6  S    0.000447   0.000309  -0.073844   0.071993   0.017515
   48  C  6  X    0.000532   0.000420   0.000019  -0.000238  -0.000560
   49  C  6  Y    0.000025   0.000076   0.000014   0.000357  -0.000390
   50  C  6  Z    0.000617   0.000547   0.001478   0.000630  -0.000217
   51  C  6  S   -0.010494  -0.009953   0.071499  -0.065771   0.002290
   52  C  6  X    0.003327   0.004573  -0.005767   0.007006  -0.007876
   53  C  6  Y   -0.000098  -0.000251  -0.002313  -0.000487  -0.006563
   54  C  6  Z    0.004036   0.003977  -0.008892   0.001423  -0.000889
   55  C  7  S   -0.003371  -0.003810   0.685747   0.686237  -0.134842
   56  C  7  S    0.000379   0.000332   0.075010   0.071808  -0.012259
   57  C  7  X    0.000575   0.000401  -0.000020  -0.000271   0.000530
   58  C  7  Y    0.000014   0.000069   0.000009   0.000327   0.000402
   59  C  7  Z   -0.000634  -0.000545   0.001468  -0.000638  -0.000284
   60  C  7  S   -0.010643  -0.009896  -0.072373  -0.064557  -0.005833
   61  C  7  X    0.003213   0.004593   0.005712   0.006490   0.007657
   62  C  7  Y   -0.000171  -0.000280   0.002129  -0.000871   0.006089
   63  C  7  Z   -0.004062  -0.003979  -0.008980  -0.001276  -0.001150
   64  C  8  S    0.004509  -0.008067   0.165532  -0.148634   0.709559
   65  C  8  S   -0.001146  -0.003516   0.020511  -0.017416   0.076892
   66  C  8  X   -0.000660  -0.000175  -0.000529   0.000180   0.000379
   67  C  8  Y    0.000686   0.000266  -0.000274   0.000066   0.000425
   68  C  8  Z   -0.001180  -0.001070  -0.000585  -0.000009  -0.001636
   69  C  8  S    0.022491   0.026183  -0.034555   0.029335  -0.065936
   70  C  8  X   -0.002908  -0.003901  -0.008058   0.006605  -0.002051
   71  C  8  Y    0.004186   0.005504  -0.007016   0.007643  -0.002955
   72  C  8  Z   -0.009279  -0.009829   0.005158  -0.000792   0.008146
   73  C  9  S    0.003846  -0.007799  -0.157536  -0.107846  -0.647979
   74  C  9  S   -0.001312  -0.003453  -0.019693  -0.012962  -0.070640
   75  C  9  X   -0.000680  -0.000167   0.000528   0.000188  -0.000402
   76  C  9  Y    0.000691   0.000290   0.000277   0.000089  -0.000392
   77  C  9  Z    0.001155   0.001073  -0.000590   0.000101  -0.001667
   78  C  9  S    0.022924   0.026026   0.034088   0.025273   0.061880
   79  C  9  X   -0.003056  -0.003839   0.008151   0.006365   0.002614
   80  C  9  Y    0.004513   0.005583   0.007175   0.007389   0.003227
   81  C  9  Z    0.009414   0.009643   0.005002   0.000171   0.008113
   82  C 10  S   -0.001328   0.000556   0.000044   0.000716   0.000173
   83  C 10  S   -0.000947  -0.003087  -0.000028  -0.000372  -0.000099
   84  C 10  X    0.000979   0.000127  -0.000017  -0.000537  -0.000069
   85  C 10  Y   -0.000795  -0.000826   0.000013  -0.000284   0.000045
   86  C 10  Z    0.000009   0.000009   0.000397   0.000058  -0.001775
   87  C 10  S    0.008989   0.034776   0.000071   0.002793   0.000170
   88  C 10  X    0.009744   0.002226   0.000101   0.001819   0.000392
   89  C 10  Y   -0.014912  -0.005658  -0.000063  -0.000940  -0.000141
   90  C 10  Z    0.000993  -0.000346  -0.002406  -0.000287   0.009304
   91  O 11  S    0.000171   0.000205   0.000002   0.000073   0.000008
   92  O 11  S    0.001450   0.001061   0.000009   0.000024   0.000042
   93  O 11  X   -0.000323   0.000473  -0.000003  -0.000201  -0.000012
   94  O 11  Y   -0.000145  -0.000102   0.000003   0.000373   0.000003
   95  O 11  Z   -0.000027   0.000012   0.000255  -0.000011   0.000204
   96  O 11  S   -0.005987  -0.007959  -0.000059  -0.003401  -0.000272
   97  O 11  X    0.000385  -0.000618   0.000015  -0.000641   0.000036
   98  O 11  Y    0.003449   0.003661   0.000028   0.000705   0.000117
   99  O 11  Z    0.000014  -0.000034   0.000404   0.000047  -0.001639
  100  H 12  S    0.000848   0.000117  -0.000012  -0.000015  -0.000077
  101  H 12  S    0.008210   0.004535   0.000002   0.000950   0.000017
  102  H 13  S    0.000388   0.000190  -0.001419   0.000294  -0.001008
  103  H 13  S   -0.000149  -0.000576  -0.010389   0.008577   0.003192
  104  H 14  S    0.000295   0.000657  -0.000853   0.000962  -0.000675
  105  H 14  S    0.000162  -0.000843  -0.007237   0.011918   0.003056
  106  H 15  S    0.000281   0.000665   0.000856   0.000911   0.000652
  107  H 15  S    0.000221  -0.000873   0.007431   0.011964  -0.002154
  108  H 16  S    0.000397   0.000182   0.001412   0.000222   0.000966
  109  H 16  S   -0.000073  -0.000591   0.010548   0.008582  -0.002510
  110  H 17  S   -0.000330  -0.000222  -0.000254  -0.000068  -0.000297
  111  H 17  S    0.000166   0.000289   0.001630   0.000214  -0.001090
  112  H 18  S   -0.000312  -0.000254  -0.000003  -0.000236  -0.000034
  113  H 18  S    0.000037  -0.000068  -0.000013  -0.001591  -0.000063
  114  H 19  S   -0.000321  -0.000225   0.000250  -0.000087   0.000267
  115  H 19  S    0.000175   0.000286  -0.001620   0.000179   0.001151
  116  H 20  S   -0.001108  -0.001276   0.000958  -0.001192   0.000264
  117  H 20  S    0.001102  -0.000455   0.000567  -0.002005   0.007737
  118  H 21  S   -0.001027  -0.001160   0.001590  -0.000800   0.001078
  119  H 21  S   -0.000407   0.000255   0.002121  -0.001499   0.011154
  120  H 22  S   -0.001034  -0.001160  -0.001600  -0.000723  -0.001125
  121  H 22  S   -0.000369   0.000230  -0.002010  -0.000872  -0.010381
  122  H 23  S   -0.001139  -0.001258  -0.000964  -0.001161  -0.000289
  123  H 23  S    0.001164  -0.000504  -0.000434  -0.001560  -0.006631
  124  H 24  S    0.000186   0.000174   0.000202   0.000140  -0.000353
  125  H 24  S   -0.008905   0.008743  -0.000286  -0.000161  -0.000298
  126  H 25  S    0.000029  -0.000248  -0.000068  -0.000020  -0.000608
  127  H 25  S   -0.007453   0.006305   0.000221   0.000021   0.000262
  128  H 26  S   -0.000116  -0.000141   0.000062  -0.000009  -0.000171
  129  H 26  S   -0.005501   0.007849  -0.000191  -0.000228   0.000647
  130  H 27  S   -0.000043  -0.000178  -0.000063  -0.000020   0.000150
  131  H 27  S   -0.004237   0.007326   0.000200  -0.000198  -0.000610
  132  H 28  S    0.000099  -0.000275   0.000061  -0.000056   0.000590
  133  H 28  S   -0.006146   0.005774  -0.000234   0.000042  -0.000298
  134  H 29  S    0.000196   0.000173  -0.000203   0.000119   0.000344
  135  H 29  S   -0.007911   0.008301   0.000284  -0.000160   0.000264

                     11         12         13         14         15
                  -10.9868    -1.1921    -0.9400    -0.9262    -0.8382
                     A          A          A          A          A   
    1  C  1  S    0.001451  -0.073240  -0.052968   0.105779  -0.058765
    2  C  1  S   -0.000589   0.078094   0.052568  -0.091489   0.052313
    3  C  1  X    0.000328  -0.060294   0.029222  -0.021388   0.084600
    4  C  1  Y    0.000996   0.028631  -0.056483  -0.016688   0.022525
    5  C  1  Z    0.000031  -0.000115   0.000340   0.000101  -0.001016
    6  C  1  S    0.001076   0.124583   0.125392  -0.298799   0.167787
    7  C  1  X   -0.002159   0.033253   0.016789   0.008164   0.026673
    8  C  1  Y   -0.003944  -0.000542  -0.012396   0.030515  -0.015605
    9  C  1  Z    0.000018   0.000017   0.000059  -0.000244  -0.000016
   10  C  2  S    0.002840  -0.023603  -0.110393  -0.065625   0.051166
   11  C  2  S   -0.001326   0.017227   0.100360   0.058218  -0.036892
   12  C  2  X    0.000661   0.002486   0.031701  -0.021392  -0.033653
   13  C  2  Y   -0.000278   0.018459  -0.004737   0.029260   0.028962
   14  C  2  Z   -0.000046  -0.000131   0.000014  -0.000209  -0.000915
   15  C  2  S    0.020467   0.065686   0.285729   0.169395  -0.171604
   16  C  2  X    0.006020   0.038398   0.028157   0.038352  -0.021125
   17  C  2  Y   -0.005044   0.021422   0.018899  -0.004703  -0.019325
   18  C  2  Z   -0.000691  -0.000226  -0.000138   0.000105   0.000101
   19  C  3  S    0.005590  -0.016776  -0.026013   0.076280  -0.123819
   20  C  3  S   -0.000734   0.017777   0.030982  -0.077153   0.120261
   21  C  3  X   -0.000026  -0.014810  -0.006016   0.028420  -0.010914
   22  C  3  Y    0.000365  -0.008315  -0.015971   0.025464  -0.018420
   23  C  3  Z    0.000020   0.000069   0.000115  -0.000207   0.000017
   24  C  3  S    0.004412   0.013066   0.046730  -0.190652   0.346171
   25  C  3  X   -0.001291  -0.009488   0.013546   0.002915   0.007460
   26  C  3  Y   -0.002771   0.018072   0.003763   0.002931  -0.006658
   27  C  3  Z   -0.000104  -0.000104  -0.000034  -0.000035   0.000060
   28  C  4  S    0.008316  -0.015875  -0.013284  -0.078678  -0.089469
   29  C  4  S    0.000048   0.017390   0.016656   0.083419   0.088707
   30  C  4  X   -0.000315   0.011514   0.001691   0.017122  -0.002265
   31  C  4  Y    0.000301  -0.002027  -0.009941  -0.010735  -0.000231
   32  C  4  Z   -0.000035   0.012191   0.004037   0.034582   0.020720
   33  C  4  S    0.002650   0.013942   0.020488   0.172897   0.241254
   34  C  4  X    0.000533   0.011241  -0.005944  -0.008521  -0.009967
   35  C  4  Y   -0.000884   0.008534  -0.002537   0.002985   0.002425
   36  C  4  Z    0.001683  -0.012927  -0.006945  -0.007048   0.000521
   37  C  5  S    0.008747  -0.015884  -0.013250  -0.078706  -0.088864
   38  C  5  S   -0.000009   0.017397   0.016630   0.083455   0.088187
   39  C  5  X   -0.000287   0.011529   0.001672   0.017163  -0.002376
   40  C  5  Y    0.000303  -0.002210  -0.009975  -0.011243  -0.000456
   41  C  5  Z    0.000025  -0.012148  -0.003898  -0.034411  -0.020769
   42  C  5  S    0.003218   0.013933   0.020364   0.172948   0.239275
   43  C  5  X    0.000724   0.011235  -0.005961  -0.008448  -0.010036
   44  C  5  Y   -0.001112   0.008756  -0.002535   0.003049   0.002501
   45  C  5  Z   -0.001848   0.012791   0.007010   0.007015  -0.000403
   46  C  6  S    0.123244  -0.019515  -0.077724   0.046127  -0.009449
   47  C  6  S    0.011289   0.019347   0.079442  -0.050027   0.012852
   48  C  6  X   -0.000117  -0.007189  -0.020012  -0.012575   0.030487
   49  C  6  Y    0.000037   0.011420  -0.010559  -0.022538   0.028721
   50  C  6  Z    0.000296  -0.015174  -0.022650   0.024523  -0.012623
   51  C  6  S    0.001606   0.040429   0.176518  -0.078539   0.010117
   52  C  6  X   -0.005474  -0.020804  -0.001951  -0.002071   0.005143
   53  C  6  Y   -0.004349  -0.001818  -0.002351   0.002585  -0.003369
   54  C  6  Z    0.000291   0.003694  -0.001328  -0.019760   0.009710
   55  C  7  S    0.129690  -0.019526  -0.077724   0.046095  -0.011445
   56  C  7  S    0.011743   0.019343   0.079423  -0.049969   0.014720
   57  C  7  X   -0.000174  -0.007146  -0.019921  -0.012654   0.030011
   58  C  7  Y   -0.000010   0.011621  -0.010301  -0.022847   0.028651
   59  C  7  Z   -0.000283   0.015047   0.022867  -0.024190   0.011907
   60  C  7  S    0.002978   0.040525   0.176550  -0.078537   0.015459
   61  C  7  X   -0.006295  -0.020847  -0.001983  -0.001904   0.005141
   62  C  7  Y   -0.005012  -0.001824  -0.002372   0.002785  -0.003390
   63  C  7  Z   -0.000013  -0.003549   0.001411   0.019724  -0.009623
   64  C  8  S    0.650576  -0.010561  -0.093341  -0.011171   0.051523
   65  C  8  S    0.067054   0.012645   0.095090   0.014238  -0.048144
   66  C  8  X   -0.000303   0.001209   0.001805  -0.025905   0.009348
   67  C  8  Y    0.000547   0.006535   0.018576  -0.002553   0.004762
   68  C  8  Z    0.000482  -0.004953  -0.031950  -0.011544   0.017405
   69  C  8  S   -0.052855  -0.007213   0.197753   0.003401  -0.133835
   70  C  8  X    0.001764  -0.007945   0.000110   0.001860  -0.001674
   71  C  8  Y   -0.002979  -0.004825  -0.002442  -0.003193   0.000700
   72  C  8  Z    0.000024   0.005446   0.003582   0.017762  -0.002507
   73  C  9  S    0.721035  -0.010549  -0.093367  -0.011167   0.049581
   74  C  9  S    0.074737   0.012647   0.095123   0.014208  -0.046388
   75  C  9  X   -0.000270   0.001206   0.001815  -0.025858   0.009748
   76  C  9  Y    0.000576   0.006607   0.019112  -0.002403   0.004872
   77  C  9  Z   -0.000320   0.004842   0.031642   0.011614  -0.017778
   78  C  9  S   -0.059721  -0.007314   0.197798   0.003472  -0.128452
   79  C  9  X    0.001437  -0.007870   0.000062   0.001796  -0.001637
   80  C  9  Y   -0.003365  -0.004983  -0.002484  -0.003357   0.001012
   81  C  9  Z   -0.000843  -0.005380  -0.003568  -0.017667   0.002597
   82  C 10  S    0.002901  -0.071050  -0.021779  -0.119791  -0.050239
   83  C 10  S   -0.001628   0.076125   0.026512   0.108444   0.044011
   84  C 10  X   -0.001017   0.059632  -0.019371  -0.031147  -0.084630
   85  C 10  Y    0.001320   0.027917  -0.060759   0.000690   0.026429
   86  C 10  Z    0.000073  -0.000162   0.000405   0.000022  -0.000666
   87  C 10  S    0.001246   0.116646   0.030725   0.319190   0.152898
   88  C 10  X    0.006357  -0.040453  -0.029307  -0.021283  -0.025916
   89  C 10  Y   -0.003565   0.006892  -0.000017  -0.007936  -0.014551
   90  C 10  Z   -0.000395  -0.000027  -0.000018   0.000039   0.000151
   91  O 11  S    0.000104  -0.208647   0.078834   0.010991   0.052773
   92  O 11  S    0.000824   0.187568  -0.070742  -0.010715  -0.042262
   93  O 11  X   -0.000116   0.001744   0.012141  -0.090778   0.003821
   94  O 11  Y   -0.000200  -0.063278  -0.007841  -0.000189   0.012938
   95  O 11  Z   -0.000011   0.000332   0.000067   0.000053  -0.000386
   96  O 11  S   -0.003253   0.670686  -0.278117  -0.035052  -0.213559
   97  O 11  X    0.000944   0.000349   0.005144  -0.053216   0.003405
   98  O 11  Y    0.002108  -0.098106   0.006639  -0.002405   0.026885
   99  O 11  Z    0.000065   0.000501  -0.000008   0.000056  -0.000424
  100  H 12  S   -0.001477   0.008238   0.045784   0.033858  -0.018908
  101  H 12  S   -0.000065   0.008809   0.002840   0.014105  -0.005633
  102  H 13  S   -0.000553   0.006189   0.034719  -0.024081   0.010988
  103  H 13  S    0.001711  -0.000036  -0.001438  -0.001921   0.003489
  104  H 14  S   -0.000718   0.005554   0.031237  -0.022456   0.009306
  105  H 14  S    0.002379  -0.001357  -0.006437   0.005486   0.004478
  106  H 15  S   -0.000796   0.005565   0.031239  -0.022411   0.010369
  107  H 15  S    0.002520  -0.001370  -0.006419   0.005565   0.004632
  108  H 16  S   -0.000666   0.006191   0.034691  -0.024070   0.011954
  109  H 16  S    0.001845  -0.000016  -0.001444  -0.002002   0.003511
  110  H 17  S   -0.000238   0.005012   0.012073  -0.035090   0.065566
  111  H 17  S    0.000527  -0.002278  -0.002356  -0.000334   0.007434
  112  H 18  S   -0.000538   0.006587   0.015774  -0.035766   0.069290
  113  H 18  S   -0.000358   0.004802  -0.000838   0.001239   0.005577
  114  H 19  S   -0.000269   0.005007   0.012059  -0.035072   0.065639
  115  H 19  S    0.000441  -0.002289  -0.002376  -0.000325   0.007576
  116  H 20  S    0.000381   0.003726   0.038574   0.007709  -0.022624
  117  H 20  S    0.011437  -0.002553  -0.006050   0.002794   0.004390
  118  H 21  S   -0.000017   0.003372   0.041172   0.005574  -0.027861
  119  H 21  S    0.007732   0.000696  -0.001694  -0.002492  -0.006149
  120  H 22  S    0.000110   0.003373   0.041214   0.005570  -0.026978
  121  H 22  S    0.008865   0.000690  -0.001679  -0.002455  -0.006076
  122  H 23  S    0.000422   0.003719   0.038560   0.007667  -0.021580
  123  H 23  S    0.012164  -0.002535  -0.006080   0.002836   0.004604
  124  H 24  S   -0.000174   0.004811   0.008489   0.035287   0.042195
  125  H 24  S   -0.000173  -0.005113   0.003342  -0.003789  -0.001326
  126  H 25  S   -0.000146   0.006199   0.008851   0.038411   0.051073
  127  H 25  S   -0.000289   0.002477   0.000810  -0.000866   0.005093
  128  H 26  S   -0.000169   0.005165   0.004856   0.037982   0.051265
  129  H 26  S    0.000493  -0.000433  -0.003913  -0.000024   0.008371
  130  H 27  S   -0.000187   0.005163   0.004869   0.038020   0.051068
  131  H 27  S    0.000548  -0.000409  -0.003814   0.000029   0.008421
  132  H 28  S   -0.000205   0.006197   0.008864   0.038400   0.050710
  133  H 28  S   -0.000262   0.002464   0.000805  -0.000818   0.005067
  134  H 29  S   -0.000200   0.004830   0.008407   0.035301   0.041800
  135  H 29  S   -0.000220  -0.005107   0.003280  -0.003801  -0.001538

                     16         17         18         19         20
                   -0.8364    -0.7789    -0.7641    -0.6707    -0.6617
                     A          A          A          A          A   
    1  C  1  S   -0.000503  -0.000002   0.029977   0.000195   0.064334
    2  C  1  S    0.000457  -0.000007  -0.024192  -0.000179  -0.057772
    3  C  1  X    0.000910  -0.000056   0.035455   0.000146  -0.007536
    4  C  1  Y    0.000835   0.000097   0.100881   0.000951   0.060896
    5  C  1  Z    0.086217   0.024945  -0.000689   0.126245  -0.000721
    6  C  1  S    0.001396   0.000046  -0.097402  -0.000620  -0.224254
    7  C  1  X    0.000309  -0.000049   0.013879   0.000059  -0.014707
    8  C  1  Y   -0.000028  -0.000025   0.045495   0.000408   0.050100
    9  C  1  Z    0.009489  -0.004029  -0.000291   0.047792  -0.000432
   10  C  2  S    0.000415   0.000093  -0.099933   0.000181   0.074085
   11  C  2  S   -0.000305  -0.000085   0.082856  -0.000143  -0.061897
   12  C  2  X   -0.000285   0.000030  -0.014213   0.000180   0.066531
   13  C  2  Y    0.000832  -0.000038  -0.015077  -0.001117  -0.092251
   14  C  2  Z    0.075463  -0.007273   0.000090  -0.106035   0.000970
   15  C  2  S   -0.001335  -0.000279   0.326568  -0.000695  -0.265685
   16  C  2  X   -0.000137   0.000048   0.012664  -0.000028  -0.001706
   17  C  2  Y   -0.000113  -0.000024   0.007839  -0.000458  -0.044436
   18  C  2  Z    0.006047   0.002111  -0.000040  -0.034746   0.000442
   19  C  3  S   -0.001203   0.000160  -0.130222  -0.000074  -0.037017
   20  C  3  S    0.001168  -0.000148   0.120152   0.000062   0.031409
   21  C  3  X   -0.000080  -0.000010   0.015638   0.000104   0.025215
   22  C  3  Y   -0.000069   0.000019   0.027506   0.000342   0.043862
   23  C  3  Z    0.015014   0.004916  -0.000174   0.038100  -0.000409
   24  C  3  S    0.003360  -0.000495   0.402951   0.000269   0.136277
   25  C  3  X    0.000070  -0.000002   0.010870   0.000025   0.002591
   26  C  3  Y   -0.000035   0.000017   0.008769   0.000206   0.020097
   27  C  3  Z    0.001607   0.003421  -0.000032   0.023874  -0.000189
   28  C  4  S    0.030086  -0.145554   0.040597   0.012008  -0.040643
   29  C  4  S   -0.026518   0.135212  -0.037598  -0.011159   0.033575
   30  C  4  X   -0.006383   0.001270   0.007664   0.004932  -0.025589
   31  C  4  Y    0.003814  -0.000426  -0.013357  -0.007621   0.040332
   32  C  4  Z    0.003157  -0.021053   0.002277   0.002986  -0.039731
   33  C  4  S   -0.095788   0.444776  -0.127180  -0.036282   0.155155
   34  C  4  X   -0.005896  -0.007149   0.005212   0.002887  -0.003361
   35  C  4  Y    0.006170   0.001288  -0.005329  -0.009386   0.014743
   36  C  4  Z   -0.004602  -0.003444  -0.001345   0.002051  -0.010631
   37  C  5  S   -0.031697   0.145474   0.040923  -0.012249  -0.040572
   38  C  5  S    0.028113  -0.135134  -0.037905   0.011365   0.033502
   39  C  5  X    0.006321  -0.001268   0.007677  -0.005078  -0.025565
   40  C  5  Y   -0.003758   0.000146  -0.013414   0.007875   0.040901
   41  C  5  Z    0.002826  -0.021077  -0.002124   0.003052   0.039063
   42  C  5  S    0.100127  -0.444551  -0.128160   0.037207   0.154960
   43  C  5  X    0.005725   0.007156   0.005209  -0.002995  -0.003301
   44  C  5  Y   -0.006259  -0.001231  -0.005299   0.009489   0.014924
   45  C  5  Z   -0.004510  -0.003418   0.001352   0.001886   0.010358
   46  C  6  S   -0.110981  -0.034358   0.085660  -0.090894   0.008681
   47  C  6  S    0.102848   0.031091  -0.079113   0.075703  -0.009169
   48  C  6  X   -0.024160  -0.000973  -0.010822   0.059129  -0.028882
   49  C  6  Y   -0.013496  -0.004250  -0.001059   0.057577  -0.057200
   50  C  6  Z    0.012944   0.004779   0.009668   0.009902   0.053259
   51  C  6  S    0.301698   0.106940  -0.247645   0.335655  -0.029569
   52  C  6  X   -0.001886   0.004203  -0.006770   0.013515  -0.006466
   53  C  6  Y    0.005452   0.001067  -0.001813   0.018981  -0.016169
   54  C  6  Z   -0.004700  -0.001579  -0.004708  -0.008458   0.013497
   55  C  7  S    0.110875   0.034242   0.085593   0.090980   0.008134
   56  C  7  S   -0.102697  -0.030986  -0.079056  -0.075776  -0.008735
   57  C  7  X    0.024694   0.000939  -0.010858  -0.059116  -0.028552
   58  C  7  Y    0.014247   0.004328  -0.001261  -0.057996  -0.057714
   59  C  7  Z    0.012821   0.004686  -0.009632   0.010735  -0.052435
   60  C  7  S   -0.301611  -0.106603  -0.247436  -0.335991  -0.027508
   61  C  7  X    0.001942  -0.004202  -0.006729  -0.013540  -0.006376
   62  C  7  Y   -0.005639  -0.001129  -0.001753  -0.019243  -0.016332
   63  C  7  Z   -0.004730  -0.001531   0.004738  -0.008210  -0.013158
   64  C  8  S   -0.105854  -0.019094  -0.015474   0.103438  -0.083804
   65  C  8  S    0.097015   0.018970   0.016509  -0.086970   0.072444
   66  C  8  X    0.023283   0.017106  -0.061118   0.054043   0.024250
   67  C  8  Y    0.020925   0.001239  -0.021236   0.041665  -0.053875
   68  C  8  Z    0.015598   0.004353  -0.031869  -0.019803   0.049832
   69  C  8  S    0.290305   0.047210   0.028534  -0.371784   0.304208
   70  C  8  X    0.001693   0.007627  -0.015216   0.011153   0.009775
   71  C  8  Y    0.007804  -0.005654  -0.012422   0.006975  -0.015176
   72  C  8  Z   -0.004289   0.005112   0.003396   0.005738   0.013983
   73  C  9  S    0.106712   0.019122  -0.015566  -0.103859  -0.083299
   74  C  9  S   -0.097791  -0.018999   0.016587   0.087346   0.072047
   75  C  9  X   -0.023085  -0.016969  -0.061037  -0.053752   0.024572
   76  C  9  Y   -0.020674  -0.001172  -0.020805  -0.042427  -0.054472
   77  C  9  Z    0.015705   0.004358   0.032272  -0.019134  -0.048859
   78  C  9  S   -0.292618  -0.047330   0.028843   0.373307   0.302285
   79  C  9  X   -0.001793  -0.007637  -0.015169  -0.010965   0.009824
   80  C  9  Y   -0.007924   0.005827  -0.012536  -0.006973  -0.015424
   81  C  9  Z   -0.004238   0.004988  -0.003120   0.005915  -0.013772
   82  C 10  S   -0.000455  -0.000011  -0.009147   0.000188   0.076277
   83  C 10  S    0.000398   0.000004   0.010001  -0.000190  -0.067291
   84  C 10  X   -0.000793   0.000028   0.027724  -0.000072  -0.012213
   85  C 10  Y    0.000538  -0.000848  -0.059957   0.000305   0.113162
   86  C 10  Z    0.042979  -0.123658   0.000342  -0.002745  -0.000813
   87  C 10  S    0.001353   0.000072   0.013528  -0.000583  -0.260021
   88  C 10  X   -0.000239  -0.000032  -0.000798   0.000115   0.010281
   89  C 10  Y   -0.000126  -0.000250  -0.007516   0.000199   0.069767
   90  C 10  Z   -0.002061  -0.032450  -0.000007   0.004332  -0.000530
   91  O 11  S    0.000476  -0.000008  -0.008941  -0.000176  -0.048681
   92  O 11  S   -0.000380   0.000002   0.006828   0.000162   0.042239
   93  O 11  X    0.000044   0.000034   0.005326  -0.000002  -0.001850
   94  O 11  Y    0.000311  -0.000185   0.011994   0.000448   0.071853
   95  O 11  Z    0.028875  -0.024079  -0.000099   0.036249  -0.000541
   96  O 11  S   -0.001915   0.000041   0.040210   0.000699   0.207558
   97  O 11  X    0.000049  -0.000000   0.003128   0.000020  -0.002118
   98  O 11  Y    0.000407  -0.000124   0.003189   0.000361   0.054413
   99  O 11  Z    0.025322  -0.016625  -0.000033   0.028826  -0.000412
[...]
             44  C  5  Y      0.52055     0.59253
             45  C  5  Z      0.45974     0.57447
             46  C  6  S      1.98982     1.97658
             47  C  6  S      0.34769     0.43287
             48  C  6  X      0.53146     0.51227
             49  C  6  Y      0.53126     0.51142
             50  C  6  Z      0.52535     0.51200
             51  C  6  S      1.07207     0.57596
             52  C  6  X      0.48180     0.57185
             53  C  6  Y      0.43586     0.55344
             54  C  6  Z      0.42561     0.55604
             55  C  7  S      1.98982     1.97658
             56  C  7  S      0.34769     0.43286
             57  C  7  X      0.53143     0.51219
             58  C  7  Y      0.53119     0.51165
             59  C  7  Z      0.52546     0.51185
             60  C  7  S      1.07210     0.57594
             61  C  7  X      0.48213     0.57187
             62  C  7  Y      0.43358     0.55280
             63  C  7  Z      0.42767     0.55666
             64  C  8  S      1.98974     1.97648
             65  C  8  S      0.34485     0.42644
             66  C  8  X      0.51548     0.49825
             67  C  8  Y      0.53637     0.51677
             68  C  8  Z      0.52879     0.51336
             69  C  8  S      1.05745     0.57289
             70  C  8  X      0.40534     0.54553
             71  C  8  Y      0.50118     0.57812
             72  C  8  Z      0.43932     0.55360
             73  C  9  S      1.98974     1.97648
             74  C  9  S      0.34485     0.42651
             75  C  9  X      0.51550     0.49823
             76  C  9  Y      0.53643     0.51711
             77  C  9  Z      0.52871     0.51307
             78  C  9  S      1.05745     0.57295
             79  C  9  X      0.40569     0.54562
             80  C  9  Y      0.50030     0.57812
             81  C  9  Z      0.43983     0.55357
             82  C 10  S      1.99086     1.97552
             83  C 10  S      0.34214     0.41671
             84  C 10  X      0.44189     0.43803
             85  C 10  Y      0.52238     0.51356
             86  C 10  Z      0.53928     0.52121
             87  C 10  S      0.98188     0.54283
             88  C 10  X      0.23629     0.43195
             89  C 10  Y      0.31282     0.48839
             90  C 10  Z      0.36977     0.51820
             91  O 11  S      1.98694     1.98057
             92  O 11  S      0.40633     0.57541
             93  O 11  X      0.53028     0.52122
             94  O 11  Y      0.69688     0.70350
             95  O 11  Z      0.85415     0.86734
             96  O 11  S      1.54560     1.00780
             97  O 11  X      0.69439     0.73613
             98  O 11  Y      0.93381     0.95024
             99  O 11  Z      1.02819     1.03085
            100  H 12  S      0.46333     0.48290
            101  H 12  S      0.44481     0.50313
            102  H 13  S      0.46108     0.47477
            103  H 13  S      0.45123     0.51370
            104  H 14  S      0.46727     0.48030
            105  H 14  S      0.39790     0.47752
            106  H 15  S      0.46724     0.48026
            107  H 15  S      0.39772     0.47744
            108  H 16  S      0.46111     0.47480
            109  H 16  S      0.45120     0.51365
            110  H 17  S      0.46859     0.47233
            111  H 17  S      0.35762     0.45345
            112  H 18  S      0.46717     0.47110
            113  H 18  S      0.38755     0.47173
            114  H 19  S      0.46859     0.47231
            115  H 19  S      0.35762     0.45346
            116  H 20  S      0.46947     0.48346
            117  H 20  S      0.40312     0.47898
            118  H 21  S      0.46116     0.47756
            119  H 21  S      0.44192     0.50911
            120  H 22  S      0.46110     0.47752
            121  H 22  S      0.44220     0.50932
            122  H 23  S      0.46944     0.48343
            123  H 23  S      0.40352     0.47918
            124  H 24  S      0.46413     0.46792
            125  H 24  S      0.36621     0.46688
            126  H 25  S      0.46638     0.47042
            127  H 25  S      0.40940     0.48187
            128  H 26  S      0.46962     0.47458
            129  H 26  S      0.37337     0.46062
            130  H 27  S      0.46966     0.47465
            131  H 27  S      0.37365     0.46074
            132  H 28  S      0.46638     0.47038
            133  H 28  S      0.40924     0.48182
            134  H 29  S      0.46413     0.46792
            135  H 29  S      0.36609     0.46673

          ----- MULLIKEN ATOMIC OVERLAP POPULATIONS -----
          (OFF-DIAGONAL ELEMENTS NEED TO BE MULTIPLIED BY 2)

             1           2           3           4           5

    1    5.4706363
    2   -0.0688118   5.9563228
    3    0.2922218   0.0000293   5.4269731
    4    0.0030920  -0.0731722  -0.0000146   5.6632922
    5    0.0030961  -0.0730656  -0.0000149  -0.1245807   5.6624271
    6    0.2877724  -0.0672513  -0.0804825  -0.0001635   0.0008360
    7    0.2877009  -0.0673393  -0.0803374   0.0008364  -0.0001624
    8   -0.0553046   0.3535693   0.0039239   0.0040293  -0.0024455
    9   -0.0552804   0.3537918   0.0039221  -0.0024782   0.0040268
   10   -0.0698139   0.2810081   0.0042119   0.2989007   0.2988279
   11    0.2244352  -0.0358102  -0.0505851  -0.0480938  -0.0481346
   12   -0.0020558   0.1368118   0.0000543  -0.0068591  -0.0068311
   13   -0.1017568   0.0011512  -0.0006261   0.0000300  -0.0000706
   14   -0.0740865   0.0030457  -0.0014852   0.0001076  -0.0023786
   15   -0.0741116   0.0030428  -0.0013964  -0.0024356   0.0001091
   16   -0.1016591   0.0011991  -0.0006221  -0.0000726   0.0000300
   17   -0.0486093   0.0000475   0.3595383   0.0000126  -0.0000153
   18   -0.0676564   0.0000796   0.2916868   0.0000044   0.0000044
   19   -0.0485067   0.0000473   0.3597112  -0.0000153   0.0000125
   20   -0.0004836  -0.0761935   0.0000890   0.0002262  -0.0144473
   21   -0.0064652  -0.1159325   0.0001290   0.0000169  -0.0004729
   22   -0.0065723  -0.1161114   0.0001309  -0.0004713   0.0000174
   23   -0.0004772  -0.0762341   0.0000888  -0.0144634   0.0002264
   24   -0.0007303  -0.0059987   0.0001636   0.2519830   0.0052180
   25   -0.0001700  -0.0075375   0.0000067   0.2316519   0.0038075
   26   -0.0001283   0.0037795   0.0000297   0.3291447  -0.0027017
   27   -0.0001258   0.0037647   0.0000292  -0.0027874   0.3292017
   28   -0.0001712  -0.0077138   0.0000067   0.0038652   0.2317406
   29   -0.0007210  -0.0058700   0.0001640   0.0052260   0.2523418

             6           7           8           9          10

    6    5.9021062
    7   -0.1132708   5.9012256
    8    0.3355772   0.0067299   5.8357258
    9    0.0066137   0.3357972  -0.1063857   5.8380760
   10   -0.0086661  -0.0087850  -0.0884069  -0.0881976   5.3668581
   11   -0.0555867  -0.0555069  -0.0021567  -0.0022081   0.2116583
   12    0.0062414   0.0062408  -0.0794536  -0.0796533  -0.0866161
   13    0.0648149  -0.0068633  -0.0967780  -0.0010918   0.0000249
   14    0.2268708   0.0059484  -0.0672152   0.0003184  -0.0000342
   15    0.0059475   0.2271550   0.0003221  -0.0670226  -0.0000400
   16   -0.0069172   0.0653852  -0.0010116  -0.0969345   0.0000244
   17   -0.0066046   0.0040114   0.0000399  -0.0000572  -0.0000020
   18   -0.0107419  -0.0107331   0.0000265   0.0000259  -0.0000723
   19    0.0040150  -0.0065160  -0.0000575   0.0000391  -0.0000020
   20   -0.0670229   0.0006838   0.2201970   0.0041107  -0.0086431
   21   -0.0854515   0.0015579   0.0854132  -0.0242691   0.0017405
   22    0.0015093  -0.0854374  -0.0242456   0.0837876   0.0017393
   23    0.0006831  -0.0672521   0.0041169   0.2193110  -0.0085974
   24    0.0002893  -0.0008876   0.0002981  -0.0076349  -0.0526153
   25    0.0000794   0.0003280   0.0001013  -0.0006234  -0.0712865
   26    0.0000493   0.0001457  -0.0000225   0.0001527  -0.0559963
   27    0.0001440   0.0000488   0.0001520  -0.0000220  -0.0560653
   28    0.0003312   0.0000800  -0.0006589   0.0001036  -0.0712088
   29   -0.0007937   0.0002895  -0.0075572   0.0002942  -0.0526432

            11          12          13          14          15

   11    8.5355346
   12    0.0006627   0.8458246
   13    0.0009070   0.0008943   0.8807605
   14   -0.0018112   0.0006596   0.0443967   0.6767703
   15   -0.0018145   0.0006635   0.0017637   0.0002305   0.6762315
   16    0.0009094   0.0008875   0.0355726   0.0017618   0.0442236
   17    0.0014058   0.0000015   0.0023735   0.0069276   0.0002801
   18    0.0013809   0.0000029   0.0176475   0.0044210   0.0043963
   19    0.0014147   0.0000015   0.0003451   0.0002801   0.0068281
   20   -0.0006272   0.0239330   0.0147484   0.0154139   0.0000514
   21   -0.0002649   0.0360892   0.0460535   0.0133142   0.0004048
   22   -0.0002663   0.0361101   0.0069044   0.0004132   0.0132907
   23   -0.0006198   0.0240205   0.0003317   0.0000513   0.0154183
   24   -0.0011783   0.0060553   0.0000175   0.0000216   0.0107855
   25    0.0015211   0.0185020   0.0000016   0.0000067   0.0002956
   26    0.0005282   0.0006326   0.0000010   0.0000104   0.0003053
   27    0.0005162   0.0006405   0.0000079   0.0002912   0.0000106
   28    0.0015223   0.0187090   0.0000174   0.0002927   0.0000069
   29   -0.0011667   0.0059734   0.0007370   0.0106270   0.0000219

            16          17          18          19          20

   16    0.8803720
   17    0.0003511   0.5490083
   18    0.0176946  -0.0178594   0.6420294
   19    0.0023495  -0.0248171  -0.0179191   0.5488231
   20    0.0003253   0.0000277   0.0000276   0.0000033   0.6833278
   21    0.0066917   0.0000166   0.0001139   0.0000050   0.0428446
   22    0.0461354   0.0000051   0.0001158   0.0000164   0.0026143
   23    0.0148146   0.0000033   0.0000276   0.0000270   0.0002269
   24    0.0007514   0.0000064   0.0000101   0.0000915   0.0000522
   25    0.0000173   0.0000002   0.0000001   0.0000013   0.0001419
   26    0.0000082   0.0000045   0.0000008   0.0000189   0.0000179
   27    0.0000010   0.0000183   0.0000007   0.0000044   0.0005700
   28    0.0000016   0.0000013   0.0000001   0.0000002   0.0059259
   29    0.0000173   0.0000940   0.0000101   0.0000065   0.0244496

            21          22          23          24          25

   21    0.8427371
   22    0.0538031   0.8441674
   23    0.0026093   0.0432329   0.6841165
   24    0.0000637   0.0018819   0.0246935   0.5975320
   25    0.0000543   0.0003923   0.0058195   0.0090004   0.6828321
   26    0.0000034   0.0000191   0.0005692  -0.0110004  -0.0125499
   27    0.0000190   0.0000035   0.0000179   0.0005593   0.0024227
   28    0.0004029   0.0000553   0.0001425   0.0007598   0.0102035
   29    0.0018547   0.0000632   0.0000516   0.0001460   0.0007664

            26          27          28          29

   26    0.5807145
   27    0.0063568   0.5810858
   28    0.0023430  -0.0125570   0.6824081
   29    0.0005529  -0.0110023   0.0090053   0.5972841

          TOTAL MULLIKEN AND LOWDIN ATOMIC POPULATIONS
       ATOM         MULL.POP.    CHARGE          LOW.POP.     CHARGE
    1 C             5.785257    0.214743         5.859764    0.140236
    2 C             6.300649   -0.300649         6.122766   -0.122766
    3 C             6.527546   -0.527546         6.256281   -0.256281
    4 C             6.516812   -0.516812         6.279016   -0.279016
    5 C             6.516602   -0.516602         6.278846   -0.278846
    6 C             6.340928   -0.340928         6.202425   -0.202425
    7 C             6.341073   -0.341073         6.202397   -0.202397
    8 C             6.318523   -0.318523         6.181456   -0.181456
    9 C             6.318512   -0.318512         6.181656   -0.181656
   10 C             5.737302    0.262698         5.846394    0.153606
   11 O             8.676565   -0.676565         8.373059   -0.373059
   12 H             0.908143    0.091857         0.986032    0.013968
   13 H             0.912316    0.087684         0.988467    0.011533
   14 H             0.865170    0.134830         0.957815    0.042185
   15 H             0.864964    0.135036         0.957695    0.042305
   16 H             0.912308    0.087692         0.988451    0.011549
   17 H             0.826210    0.173790         0.925782    0.074218
   18 H             0.854725    0.145275         0.942834    0.057166
   19 H             0.826208    0.173792         0.925767    0.074233
   20 H             0.872591    0.127409         0.962439    0.037561
   21 H             0.903082    0.096918         0.986674    0.013326
   22 H             0.903304    0.096696         0.986844    0.013156
   23 H             0.872956    0.127044         0.962607    0.037393
   24 H             0.830335    0.169665         0.934807    0.065193
   25 H             0.875787    0.124213         0.952286    0.047714
   26 H             0.842989    0.157011         0.935201    0.064799
   27 H             0.843306    0.156694         0.935391    0.064609
   28 H             0.875616    0.124384         0.952201    0.047799
   29 H             0.830222    0.169778         0.934647    0.065353

          -------------------------------
          BOND ORDER AND VALENCE ANALYSIS     BOND ORDER THRESHOLD=0.050
          -------------------------------

                   BOND                       BOND                       BOND
  ATOM PAIR DIST  ORDER      ATOM PAIR DIST  ORDER      ATOM PAIR DIST  ORDER
    1   3  1.524  0.924        1   6  1.543  0.883        1   7  1.543  0.883
    1  11  1.447  0.791        2   8  1.544  0.925        2   9  1.544  0.925
    2  10  1.554  0.869        2  12  1.097  0.849        3  17  1.095  0.935
    3  18  1.096  0.906        3  19  1.095  0.935        4  10  1.538  0.908
    4  24  1.093  0.897        4  25  1.097  0.903        4  26  1.095  0.933
    5  10  1.538  0.908        5  27  1.095  0.933        5  28  1.097  0.903
    5  29  1.093  0.898        6   8  1.555  0.930        6  13  1.097  0.837
    6  14  1.096  0.905        7   9  1.555  0.930        7  15  1.096  0.904
    7  16  1.097  0.837        8  20  1.094  0.902        8  21  1.096  0.846
    9  22  1.096  0.845        9  23  1.094  0.902       10  11  1.456  0.788

                       TOTAL       BONDED        FREE
      ATOM            VALENCE     VALENCE     VALENCE
    1 C                 3.388       3.387       0.000
    2 C                 3.499       3.497       0.001
    3 C                 3.678       3.677       0.001
    4 C                 3.631       3.629       0.001
    5 C                 3.631       3.629       0.001
    6 C                 3.535       3.532       0.002
    7 C                 3.535       3.533       0.002
    8 C                 3.548       3.546       0.003
    9 C                 3.548       3.545       0.003
   10 C                 3.380       3.380       0.000
   11 O                 1.699       1.699       0.000
   12 H                 0.988       0.973       0.015
   13 H                 0.994       0.981       0.013
   14 H                 0.964       0.962       0.002
   15 H                 0.964       0.962       0.002
   16 H                 0.994       0.981       0.013
   17 H                 0.933       0.933       0.000
   18 H                 0.946       0.945       0.001
   19 H                 0.933       0.933       0.000
   20 H                 0.965       0.963       0.003
   21 H                 0.997       0.984       0.013
   22 H                 0.997       0.984       0.013
   23 H                 0.966       0.963       0.003
   24 H                 0.961       0.960       0.002
   25 H                 0.959       0.957       0.001
   26 H                 0.939       0.939       0.000
   27 H                 0.939       0.939       0.000
   28 H                 0.959       0.957       0.001
   29 H                 0.961       0.960       0.002

          -----------------------------------------
          ATOMIC SPIN DENSITY AT THE NUCLEUS (A.U.)
          -----------------------------------------
                            SPIN DENS    ALPHA DENS     BETA DENS
    1  C            6.0     0.0135603      47.12707      47.11351
    2  C            6.0     0.0506136      47.17239      47.12178
    3  C            6.0     0.0078499      47.00877      47.00092
    4  C            6.0     0.0631295      47.06640      47.00327
    5  C            6.0     0.0628915      47.06616      47.00327
    6  C            6.0     0.0771584      47.11867      47.04152
    7  C            6.0     0.0771197      47.11866      47.04154
    8  C            6.0     0.0779110      47.10722      47.02931
    9  C            6.0     0.0783298      47.10757      47.02924
   10  C            6.0     0.0083304      47.09528      47.08695
   11  O            8.0     0.0748907     116.88428     116.80939
   12  H            1.0     0.0033761       0.18464       0.18126
   13  H            1.0    -0.0001128       0.18161       0.18172
   14  H            1.0    -0.0015177       0.18339       0.18490
   15  H            1.0    -0.0015383       0.18336       0.18490
   16  H            1.0    -0.0000850       0.18163       0.18171
   17  H            1.0    -0.0009852       0.18331       0.18430
   18  H            1.0    -0.0006674       0.18289       0.18355
   19  H            1.0    -0.0009822       0.18331       0.18429
   20  H            1.0    -0.0011134       0.18457       0.18569
   21  H            1.0    -0.0006543       0.18165       0.18231
   22  H            1.0    -0.0006704       0.18162       0.18229
   23  H            1.0    -0.0011025       0.18457       0.18567
   24  H            1.0    -0.0021821       0.18103       0.18321
   25  H            1.0    -0.0010460       0.18238       0.18342
   26  H            1.0    -0.0011116       0.18383       0.18495
   27  H            1.0    -0.0011100       0.18386       0.18497
   28  H            1.0    -0.0010582       0.18237       0.18342
   29  H            1.0    -0.0021698       0.18103       0.18320

          ---------------------
          ELECTROSTATIC MOMENTS
          ---------------------

 POINT   1           X           Y           Z (BOHR)    CHARGE
                 0.004677   -0.032316    0.001270       -1.00 (A.U.)
         DX          DY          DZ         /D/  (DEBYE)
    -0.447691    1.640924   -0.011058    1.700935
 ...... END OF PROPERTY EVALUATION ......
 CPU     0: STEP CPU TIME=     0.06 TOTAL CPU TIME=         12.6 (      0.2 MIN)
 TOTAL WALL CLOCK TIME=         21.1 SECONDS, CPU UTILIZATION IS    59.60%
               580000  WORDS OF DYNAMIC MEMORY USED
 EXECUTION OF GAMESS TERMINATED NORMALLY Mon May 25 18:36:07 2020
 DDI: 263640 bytes (0.3 MB / 0 MWords) used by master data server.
Note: The following floating-point exceptions are signalling: IEEE_DENORMALNote: The following floating-point exceptions are signalling:Note: The following floating-point exceptions are signalling:

 ----------------------------------------
 CPU timing information for all processes
 ========================================
 0: 12.435 + 0.172 = 12.607
 1: 11.835 + 0.68 = 11.903
 2: 12.63 + 0.35 = 12.99
 3: 11.705 + 0.47 = 11.753
 4: 11.831 + 0.64 = 11.895
 5: 11.506 + 0.19 = 11.526
 ----------------------------------------
Note: The following floating-point exceptions are signalling: IEEE_DENORMAL
 IEEE_DENORMAL IEEE_DENORMAL
Note: The following floating-point exceptions are signalling: IEEE_DENORMALNote: The following floating-point exceptions are signalling: IEEE_DENORMAL


 ddikick.x: exited gracefully.
unset echo
----- accounting info -----
Files used on the master node pietdev were:
-rwxr-xr-x 1 piet piet     1285 mei 25 18:35 /home/piet/scr/cineole_fukui_acid.F05*
-rw-r--r-- 1 piet piet 68812800 mei 25 18:36 /home/piet/scr/cineole_fukui_acid.F10
ls: No match.
ls: No match.
ls: No match.
ma 25 mei 2020 18:36:10 CEST
0.126u 0.027s 0:24.32 0.5%	0+0k 0+8io 0pf+0w
