----- GAMESS execution script 'rungms' -----
This job is running on host pietdev
under operating system Linux at zo 17 mei 2020 17:32:32 CEST
Available scratch disk space (Kbyte units) at beginning of the job is
Filesystem     1K-blocks     Used Available Use% Mounted on
/dev/sda2      244568380 30400308 201675016  14% /
GAMESS temporary binary files will be written to /home/piet/scr
GAMESS supplementary output files will be written to /home/piet/gamess/scr
Copying input file thryptophan_fukui_neu.inp to your run's scratch directory...
cp thryptophan_fukui_neu.inp /home/piet/scr/thryptophan_fukui_neu.F05
unset echo
 
Assuming a single but multicore node.
 
/home/piet/gamess/ddikick.x /home/piet/gamess/gamess.03.x thryptophan_fukui_neu -ddi 1 6 pietdev:cpus=6 -scr /home/piet/scr

 Distributed Data Interface kickoff program.
 Initiating 6 compute processes on 1 nodes to run the following command:
 /home/piet/gamess/gamess.03.x thryptophan_fukui_neu 

          ******************************************************
          *         GAMESS VERSION = 30 SEP 2019 (R2)          *
          *             FROM IOWA STATE UNIVERSITY             *
          * M.W.SCHMIDT, K.K.BALDRIDGE, J.A.BOATZ, S.T.ELBERT, *
          *   M.S.GORDON, J.H.JENSEN, S.KOSEKI, N.MATSUNAGA,   *
          *          K.A.NGUYEN, S.J.SU, T.L.WINDUS,           *
          *       TOGETHER WITH M.DUPUIS, J.A.MONTGOMERY       *
          *         J.COMPUT.CHEM.  14, 1347-1363(1993)        *
          **************** 64 BIT LINUX VERSION ****************

  SINCE 1993, STUDENTS AND POSTDOCS WORKING AT IOWA STATE UNIVERSITY
  AND ALSO IN THEIR VARIOUS JOBS AFTER LEAVING ISU HAVE MADE IMPORTANT
  CONTRIBUTIONS TO THE CODE:
     IVANA ADAMOVIC, CHRISTINE AIKENS, YURI ALEXEEV, POOJA ARORA,
     ANDREY ASADCHEV, ROB BELL, PRADIPTA BANDYOPADHYAY, JONATHAN BENTZ,
     COLLEEN BERTONI, BRETT BODE, KURT BRORSEN, CALEB CARLIN, GALINA CHABAN,
     WEI CHEN, CHEOL HO CHOI, PAUL DAY, ALBERT DEFUSCO, NUWAN DESILVA,
     TIM DUDLEY, DMITRI FEDOROV, ALEX FINDLATER, GRAHAM FLETCHER, 
     MARK FREITAG, KURT GLAESEMANN, EMILIE B GUIDEZ, ANASTASIA GUNINA, 
     DAN KEMP, SAROM SOK LEANG, GRANT MERRILL,
     NORIYUKI MINEZAWA, JONATHAN MULLIN,
     TAKESHI NAGATA, SEAN NEDD, HEATHER NETZLOFF, BOSILJKA NJEGIC, RYAN OLSON,
     MIKE PAK, BUU PHAM, DAVID POOLE,
     SPENCER PRUITT, LUKE ROSKOP, TOSAPORN SATTASATHUCHANA,
     JIM SHOEMAKER, LYUDMILA SLIPCHENKO,
     TONY SMITH, JIE SONG, TETSUYA TAKETSUGU, SIMON WEBB,
     JORGE LUIS GALVEZ VALLEJO, PENG XU, SOOHAENG YOO,
     FEDERICO ZAHARIEV

  ADDITIONAL CODE HAS BEEN PROVIDED BY COLLABORATORS IN OTHER GROUPS:
     IOWA STATE UNIVERSITY:
          JOE IVANIC, AARON WEST, LAIMUTIS BYTAUTAS, KLAUS RUEDENBERG
     UNIVERSITY OF TOKYO: KIMIHIKO HIRAO, TAKAHITO NAKAJIMA,
          TAKAO TSUNEDA, MUNEAKI KAMIYA, SUSUMU YANAGISAWA,
          KIYOSHI YAGI, MAHITO CHIBA, SEIKEN TOKURA, NAOAKI KAWAKAMI
     UNIVERSITY OF AARHUS: FRANK JENSEN
     UNIVERSITY OF IOWA: VISVALDAS KAIRYS, HUI LI
     NATIONAL INST. OF STANDARDS AND TECHNOLOGY: WALT STEVENS, DAVID GARMER
     UNIVERSITY OF PISA: BENEDETTA MENNUCCI, JACOPO TOMASI
     UNIVERSITY OF MEMPHIS: HENRY KURTZ, PRAKASHAN KORAMBATH
     UNIVERSITY OF ALBERTA: TOBY ZENG, MARIUSZ KLOBUKOWSKI
     UNIVERSITY OF NEW ENGLAND: MARK SPACKMAN
     MIE UNIVERSITY: HIROAKI UMEDA
     NAT. INST. OF ADVANCED INDUSTRIAL SCIENCE AND TECHNOLOGY: KAZUO KITAURA
     MICHIGAN STATE UNIVERSITY:
          KAROL KOWALSKI, MARTA WLOCH, JEFFREY GOUR, JESSE LUTZ,
          WEI LI, JUN SHEN, J. EMILIANO DEUSTUA, PIOTR PIECUCH
     UNIVERSITY OF MINNESOTA:
          ANDREW SAND, PRACHI SHARMA, YINAN SHU
     UNIVERSITY OF SILESIA: MONIKA MUSIAL, STANISLAW KUCHARSKI
     FACULTES UNIVERSITAIRES NOTRE-DAME DE LA PAIX:
          OLIVIER QUINET, BENOIT CHAMPAGNE
     UNIVERSITY OF CALIFORNIA - SANTA BARBARA: BERNARD KIRTMAN
     INSTITUTE FOR MOLECULAR SCIENCE:
          KAZUYA ISHIMURA, MICHIO KATOUDA, AND SHIGERU NAGASE
     UNIVERSITY OF NOTRE DAME: ANNA POMOGAEVA, DAN CHIPMAN
     KYUSHU UNIVERSITY:
          HARUYUKI NAKANO,
          FENG LONG GU, JACEK KORCHOWIEC, MARCIN MAKOWSKI, AND YURIKO AOKI,
          HIROTOSHI MORI AND EISAKU MIYOSHI
     PENNSYLVANIA STATE UNIVERSITY:
          TZVETELIN IORDANOV, CHET SWALINA, JONATHAN SKONE,
          SHARON HAMMES-SCHIFFER
     WASEDA UNIVERSITY:
          MASATO KOBAYASHI, TOMOKO AKAMA, TSUGUKI TOUMA,
          TAKESHI YOSHIKAWA, YASUHIRO IKABATA, JUNJI SEINO,
          YUYA NAKAJIMA, HIROMI NAKAI
     NANJING UNIVERSITY: SHUHUA LI
     UNIVERSITY OF NEBRASKA:
          PEIFENG SU, DEJUN SI, NANDUN THELLAMUREGE, YALI WANG, HUI LI
     UNIVERSITY OF ZURICH: ROBERTO PEVERATI, KIM BALDRIDGE
     N. COPERNICUS UNIVERSITY AND JACKSON STATE UNIVERSITY:
          MARIA BARYSZ
     UNIVERSITY OF COPENHAGEN: Jimmy Kromann, CASPER STEINMANN
     TOKYO INSTITUTE OF TECHNOLOGY: HIROYA NAKATA
     NAGOYA UNIVERSITY: YOSHIO NISHIMOTO, STEPHAN IRLE
     MOSCOW STATE UNIVERSITY: VLADIMIR MIRONOV
     A.N.NESMEYANOV INSTITUTE OF ORGANOELEMENT COMPOUNDS OF RUSSIAN ACADEMY OF SCIENCES:
          IGOR S. GERASIMOV
     JOHANNES KEPLER UNIVERSITY LINZ:
          CHRISTIAN FRIEDL


 PARALLEL VERSION RUNNING ON        6 PROCESSORS IN        1 NODES.

 EXECUTION OF GAMESS BEGUN Sun May 17 17:32:32 2020

            ECHO OF THE FIRST FEW INPUT CARDS -
 INPUT CARD> $BASIS GBASIS=N21 NGAUSS=3 $END                                                
 INPUT CARD> $CONTRL SCFTYP=RHF MAXIT=60 MULT=1 ICHARG=0 $END                               
 INPUT CARD> $SYSTEM MEMDDI=1000 MWORDS=30 $END                                             
 INPUT CARD> $SCF DIRSCF=.TRUE. $END                                                        
 INPUT CARD> $DATA                                                                          
 INPUT CARD>                                                                                
 INPUT CARD>C1                                                                              
 INPUT CARD>C 6.0000000 1.9870159569 0.0536626313 0.4406146753                              
 INPUT CARD>H 1.0000000 2.0516214836 -0.6809932576 1.2499277619                             
 INPUT CARD>C 6.0000000 1.2192081629 -0.5504010215 -0.7653993849                            
 INPUT CARD>C 6.0000000 -0.1959806840 -0.9217415638 -0.4065775510                           
 INPUT CARD>C 6.0000000 -0.6746874231 -2.1731996881 -0.1016978191                           
 INPUT CARD>N 7.0000000 -2.0358785611 -2.0958774280 0.2186783349                            
 INPUT CARD>C 6.0000000 -2.4513170937 -0.7779669865 0.1189171085                            
 INPUT CARD>C 6.0000000 -3.7016774601 -0.1849919583 0.3224227187                            
 INPUT CARD>C 6.0000000 -3.8111785467 1.1888567157 0.1326762089                             
 INPUT CARD>C 6.0000000 -2.6978043935 1.9641947508 -0.2545142617                            
 INPUT CARD>C 6.0000000 -1.4535474713 1.3775832631 -0.4575014809                            
 INPUT CARD>C 6.0000000 -1.3131633260 -0.0069387343 -0.2714636801                           
 INPUT CARD>H 1.0000000 1.2087783133 0.1760736238 -1.5890004622                             
 INPUT CARD>H 1.0000000 1.7531853460 -1.4377502747 -1.1284521678                            
 INPUT CARD>H 1.0000000 -0.1564309423 -3.1183845485 -0.0877566782                           
 INPUT CARD>H 1.0000000 -2.6209571965 -2.8807981818 0.4704074348                            
 INPUT CARD>H 1.0000000 -4.5624499655 -0.7747715193 0.6169918459                            
 INPUT CARD>H 1.0000000 -4.7701273760 1.6719096686 0.2826005369                             
 INPUT CARD>H 1.0000000 -2.8195371227 3.0321248592 -0.3956958476                            
 INPUT CARD>H 1.0000000 -0.6026100967 1.9791963542 -0.7578105601                            
 INPUT CARD>H 1.0000000 3.0021932996 0.3488769405 0.1497106808                              
 INPUT CARD>H 1.0000000 1.4623650969 0.9354263553 0.8236725872                              
 INPUT CARD> $END                                                                           
   30000000 WORDS OF MEMORY AVAILABLE

     BASIS OPTIONS
     -------------
     GBASIS=N21          IGAUSS=       3      POLAR=NONE    
     NDFUNC=       0     NFFUNC=       0     DIFFSP=       F
     NPFUNC=       0      DIFFS=       F     BASNAM=        


     RUN TITLE
     ---------
                                                                                 

 THE POINT GROUP OF THE MOLECULE IS C1      
 THE ORDER OF THE PRINCIPAL AXIS IS     0

 ATOM      ATOMIC                      COORDINATES (BOHR)
           CHARGE         X                   Y                   Z
 C           6.0     3.7549156918        0.1014076689        0.8326410025
 H           1.0     3.8770024345       -1.2868906564        2.3620209744
 C           6.0     2.3039693499       -1.0401071140       -1.4463951086
 C           6.0    -0.3703497916       -1.7418389871       -0.7683201641
 C           6.0    -1.2749743570       -4.1067519271       -0.1921810116
 N           7.0    -3.8472526248       -3.9606340428        0.4132421324
 C           6.0    -4.6323176161       -1.4701444320        0.2247207503
 C           6.0    -6.9951560945       -0.3495841111        0.6092905906
 C           6.0    -7.2020831435        2.2466134313        0.2507216799
 C           6.0    -5.0981110722        3.7117898655       -0.4809622146
 C           6.0    -2.7468064309        2.6032548925       -0.8645524379
 C           6.0    -2.4815188633       -0.0131123065       -0.5129919710
 H           1.0     2.2842597920        0.3327309026       -3.0027754679
 H           1.0     3.3130399096       -2.7169540580       -2.1324653874
 H           1.0    -0.2956116169       -5.8928923210       -0.1658360754
 H           1.0    -4.9528909269       -5.4439191895        0.8889411544
 H           1.0    -8.6217802675       -1.4641058746        1.1659455254
 H           1.0    -9.0142336672        3.1594511499        0.5340375787
 H           1.0    -5.3281525741        5.7298851444       -0.7477567264
 H           1.0    -1.1387679602        3.7401387853       -1.4320543092
 H           1.0     5.6733226984        0.6592818210        0.2829121641
 H           1.0     2.7634693271        1.7676994932        1.5565154934

          INTERNUCLEAR DISTANCES (ANGS.)
          ------------------------------

                1 C          2 H          3 C          4 C          5 C     

   1 C       0.0000000    1.0949342 *  1.5520604 *  2.5366557 *  3.5125039  
   2 H       1.0949342 *  0.0000000    2.1843786 *  2.8024427 *  3.3891492  
   3 C       1.5520604 *  2.1843786 *  0.0000000    1.5064549 *  2.5808556 *
   4 C       2.5366557 *  2.8024427 *  1.5064549 *  0.0000000    1.3741395 *
   5 C       3.5125039    3.3891492    2.5808556 *  1.3741395 *  0.0000000  
   6 N       4.5665587    4.4466874    3.7353040    2.2704106 *  1.4005217 *
   7 C       4.5270186    4.6438179    3.7824010    2.3202065 *  2.2697485 *
   8 C       5.6949239    5.8486521    5.0529196    3.6557012    3.6463018  
   9 C       5.9162954    6.2543596    5.3978095    4.2207908    4.6039039  
  10 C       5.1069442    5.6406925    4.6826470    3.8224172    4.6080785  
  11 C       3.7943188    4.4089978    3.3099165    2.6212520 *  3.6525715  
  12 C       3.3766716    3.7537659    2.6367080 *  1.4502472 *  2.2647645 *
  13 H       2.1771486 *  3.0829307    1.0982681 *  2.1393153 *  3.3583623  
  14 H       2.1773746 *  2.5136500 *  1.0974186 *  2.1416387 *  2.7367273 *
  15 H       3.8646377    3.5504607    2.9910069 *  2.2200116 *  1.0780346 *
  16 H       5.4630911    5.2230054    4.6588453    3.2384435    2.1484799 *
  17 H       6.6040076    6.6449487    5.9488586    4.4872429    4.1936635  
  18 H       6.9500128    7.2806684    6.4737245    5.3032831    5.6307353  
  19 H       5.7160830    6.3422007    5.4113433    4.7451266    5.6375721  
  20 H       3.4423925    4.2605830    3.1173614    2.9502801 *  4.2045299  
  21 H       1.0965225 *  1.7817680 *  2.1966254 *  3.4860070    4.4658178  
  22 H       1.0952165 *  1.7724923 *  2.1890541 *  2.7771746 *  3.8841807  

                6 N          7 C          8 C          9 C         10 C     

   1 C       4.5665587    4.5270186    5.6949239    5.9162954    5.1069442  
   2 H       4.4466874    4.6438179    5.8486521    6.2543596    5.6406925  
   3 C       3.7353040    3.7824010    5.0529196    5.3978095    4.6826470  
   4 C       2.2704106 *  2.3202065 *  3.6557012    4.2207908    3.8224172  
   5 C       1.4005217 *  2.2697485 *  3.6463018    4.6039039    4.6080785  
   6 N       0.0000000    1.3854347 *  2.5371504 *  3.7347777    4.1408022  
   7 C       1.3854347 *  0.0000000    1.3987262 *  2.3911938 *  2.7784272 *
   8 C       2.5371504 *  1.3987262 *  0.0000000    1.3912061 *  2.4412335 *
   9 C       3.7347777    2.3911938 *  1.3912061 *  0.0000000    1.4109102 *
  10 C       4.1408022    2.7784272 *  2.4412335 *  1.4109102 *  0.0000000  
  11 C       3.5862596    2.4442176 *  2.8467546 *  2.4376939 *  1.3905007 *
  12 C       2.2641160 *  1.4290821 *  2.4676717 *  2.7988097 *  2.4089179 *
  13 H       4.3539939    4.1501174    5.2817121    5.4027648    4.4988464  
  14 H       4.0749107    4.4349842    5.7818656    6.2810552    5.6699477  
  15 H       2.1614224 *  3.2843220    4.6197199    5.6531494    5.6849802  
  16 H       1.0108339 *  2.1387431 *  2.9081312 *  4.2535609    4.8995279  
  17 H       2.8788084 *  2.1690944 *  1.0842233 *  2.1575000 *  3.4261293  
  18 H       4.6557945    3.3772132    2.1427213 *  1.0841588 *  2.1606586 *
  19 H       5.2237902    3.8622807    3.4122876    2.1587420 *  1.0840783 *
  20 H       4.4287713    3.4334121    3.9312636    3.4223552    2.1548483 *
  21 H       5.6003347    5.5687971    6.7273121    6.8649758    5.9382340  
  22 H       4.6682469    4.3300468    5.3079115    5.3246564    4.4190340  

               11 C         12 C         13 H         14 H         15 H     

   1 C       3.7943188    3.3766716    2.1771486 *  2.1773746 *  3.8646377  
   2 H       4.4089978    3.7537659    3.0829307    2.5136500 *  3.5504607  
   3 C       3.3099165    2.6367080 *  1.0982681 *  1.0974186 *  2.9910069 *
   4 C       2.6212520 *  1.4502472 *  2.1393153 *  2.1416387 *  2.2200116 *
   5 C       3.6525715    2.2647645 *  3.3583623    2.7367273 *  1.0780346 *
   6 N       3.5862596    2.2641160 *  4.3539939    4.0749107    2.1614224 *
   7 C       2.4442176 *  1.4290821 *  4.1501174    4.4349842    3.2843220  
   8 C       2.8467546 *  2.4676717 *  5.2817121    5.7818656    4.6197199  
   9 C       2.4376939 *  2.7988097 *  5.4027648    6.2810552    5.6531494  
  10 C       1.3905007 *  2.4089179 *  4.4988464    5.6699477    5.6849802  
  11 C       0.0000000    1.4040010 *  3.1323943    4.3196543    4.6939268  
  12 C       1.4040010 *  0.0000000    2.8512429 *  3.4905795    3.3245862  
  13 H       3.1323943    2.8512429 *  0.0000000    1.7643444 *  3.8692356  
  14 H       4.3196543    3.4905795    1.7643444 *  0.0000000    2.7484929 *
  15 H       4.6939268    3.3245862    3.8692356    2.7484929 *  0.0000000  
  16 H       4.5119478    3.2434188    5.3153081    4.8756397    2.5380867 *
  17 H       3.9309594    3.4549651    6.2512066    6.5858458    5.0400591  
  18 H       3.4108769    3.8827979    6.4410969    7.3630607    6.6611019  
  19 H       2.1464519 *  3.3941867    5.0801899    6.4363426    6.7093761  
  20 H       1.0845360 *  2.1647521 *  2.6876116 *  4.1668539    5.1607537  
  21 H       4.6130867    4.3504362    2.5038600 *  2.5270057 *  4.6962964  
  22 H       3.2155024    3.1290467    2.5420295 *  3.0866381    4.4592137  

               16 H         17 H         18 H         19 H         20 H     

   1 C       5.4630911    6.6040076    6.9500128    5.7160830    3.4423925  
   2 H       5.2230054    6.6449487    7.2806684    6.3422007    4.2605830  
   3 C       4.6588453    5.9488586    6.4737245    5.4113433    3.1173614  
   4 C       3.2384435    4.4872429    5.3032831    4.7451266    2.9502801 *
   5 C       2.1484799 *  4.1936635    5.6307353    5.6375721    4.2045299  
   6 N       1.0108339 *  2.8788084 *  4.6557945    5.2237902    4.4287713  
   7 C       2.1387431 *  2.1690944 *  3.3772132    3.8622807    3.4334121  
   8 C       2.9081312 *  1.0842233 *  2.1427213 *  3.4122876    3.9312636  
   9 C       4.2535609    2.1575000 *  1.0841588 *  2.1587420 *  3.4223552  
  10 C       4.8995279    3.4261293    2.1606586 *  1.0840783 *  2.1548483 *
  11 C       4.5119478    3.9309594    3.4108769    2.1464519 *  1.0845360 *
  12 C       3.2434188    3.4549651    3.8827979    3.3941867    2.1647521 *
  13 H       5.3153081    6.2512066    6.4410969    5.0801899    2.6876116 *
  14 H       4.8756397    6.5858458    7.3630607    6.4363426    4.1668539  
  15 H       2.5380867 *  5.0400591    6.6611019    6.7093761    5.1607537  
  16 H       0.0000000    2.8681404 *  5.0379909    5.9793167    5.4038682  
  17 H       2.8681404 *  0.0000000    2.4781437 *  4.3076376    5.0154514  
  18 H       5.0379909    2.4781437 *  0.0000000    2.4728675 *  4.3064000  
  19 H       5.9793167    4.3076376    2.4728675 *  0.0000000    2.4808367 *
  20 H       5.4038682    5.0154514    4.3064000    2.4808367 *  0.0000000  
  21 H       6.4925703    7.6619035    7.8852422    6.4334930    4.0590816  
  22 H       5.6001685    6.2662501    6.2991372    4.9211473    2.8026179 *

               21 H         22 H     

   1 C       1.0965225 *  1.0952165 *
   2 H       1.7817680 *  1.7724923 *
   3 C       2.1966254 *  2.1890541 *
   4 C       3.4860070    2.7771746 *
   5 C       4.4658178    3.8841807  
   6 N       5.6003347    4.6682469  
   7 C       5.5687971    4.3300468  
   8 C       6.7273121    5.3079115  
   9 C       6.8649758    5.3246564  
  10 C       5.9382340    4.4190340  
  11 C       4.6130867    3.2155024  
  12 C       4.3504362    3.1290467  
  13 H       2.5038600 *  2.5420295 *
  14 H       2.5270057 *  3.0866381  
  15 H       4.6962964    4.4592137  
  16 H       6.4925703    5.6001685  
  17 H       7.6619035    6.2662501  
  18 H       7.8852422    6.2991372  
  19 H       6.4334930    4.9211473  
  20 H       4.0590816    2.8026179 *
  21 H       0.0000000    1.7802628 *
  22 H       1.7802628 *  0.0000000  

  * ... LESS THAN  3.000


     ATOMIC BASIS SET
     ----------------
 THE CONTRACTED PRIMITIVE FUNCTIONS HAVE BEEN UNNORMALIZED
 THE CONTRACTED BASIS FUNCTIONS ARE NOW NORMALIZED TO UNITY

  SHELL TYPE  PRIMITIVE        EXPONENT          CONTRACTION COEFFICIENT(S)

 C         

      1   S       1           172.2560000    0.061766907377
      1   S       2            25.9109000    0.358794042852
      1   S       3             5.5333500    0.700713083689

      2   L       4             3.6649800   -0.395895162119    0.236459946619
      2   L       5             0.7705450    1.215834355681    0.860618805716

      3   L       6             0.1958570    1.000000000000    1.000000000000

 H         

      4   S       7             5.4471780    0.156284978695
      4   S       8             0.8245472    0.904690876670

      5   S       9             0.1831916    1.000000000000

 C         

      6   S      10           172.2560000    0.061766907377
      6   S      11            25.9109000    0.358794042852
      6   S      12             5.5333500    0.700713083689

      7   L      13             3.6649800   -0.395895162119    0.236459946619
      7   L      14             0.7705450    1.215834355681    0.860618805716

      8   L      15             0.1958570    1.000000000000    1.000000000000

 C         

      9   S      16           172.2560000    0.061766907377
      9   S      17            25.9109000    0.358794042852
      9   S      18             5.5333500    0.700713083689

     10   L      19             3.6649800   -0.395895162119    0.236459946619
     10   L      20             0.7705450    1.215834355681    0.860618805716

     11   L      21             0.1958570    1.000000000000    1.000000000000

 C         

     12   S      22           172.2560000    0.061766907377
     12   S      23            25.9109000    0.358794042852
     12   S      24             5.5333500    0.700713083689

     13   L      25             3.6649800   -0.395895162119    0.236459946619
     13   L      26             0.7705450    1.215834355681    0.860618805716

     14   L      27             0.1958570    1.000000000000    1.000000000000

 N         

     15   S      28           242.7660000    0.059865700508
     15   S      29            36.4851000    0.352955002994
     15   S      30             7.8144900    0.706513005993

     16   L      31             5.4252200   -0.413300077430    0.237972016222
     16   L      32             1.1491500    1.224417266851    0.858953058551

     17   L      33             0.2832050    1.000000000000    1.000000000000

 C         

     18   S      34           172.2560000    0.061766907377
     18   S      35            25.9109000    0.358794042852
     18   S      36             5.5333500    0.700713083689

     19   L      37             3.6649800   -0.395895162119    0.236459946619
     19   L      38             0.7705450    1.215834355681    0.860618805716

     20   L      39             0.1958570    1.000000000000    1.000000000000

 C         

     21   S      40           172.2560000    0.061766907377
     21   S      41            25.9109000    0.358794042852
     21   S      42             5.5333500    0.700713083689

     22   L      43             3.6649800   -0.395895162119    0.236459946619
     22   L      44             0.7705450    1.215834355681    0.860618805716

     23   L      45             0.1958570    1.000000000000    1.000000000000

 C         

     24   S      46           172.2560000    0.061766907377
     24   S      47            25.9109000    0.358794042852
     24   S      48             5.5333500    0.700713083689

     25   L      49             3.6649800   -0.395895162119    0.236459946619
     25   L      50             0.7705450    1.215834355681    0.860618805716

     26   L      51             0.1958570    1.000000000000    1.000000000000

 C         

     27   S      52           172.2560000    0.061766907377
     27   S      53            25.9109000    0.358794042852
     27   S      54             5.5333500    0.700713083689

     28   L      55             3.6649800   -0.395895162119    0.236459946619
     28   L      56             0.7705450    1.215834355681    0.860618805716

     29   L      57             0.1958570    1.000000000000    1.000000000000

 C         

     30   S      58           172.2560000    0.061766907377
     30   S      59            25.9109000    0.358794042852
     30   S      60             5.5333500    0.700713083689

     31   L      61             3.6649800   -0.395895162119    0.236459946619
     31   L      62             0.7705450    1.215834355681    0.860618805716

     32   L      63             0.1958570    1.000000000000    1.000000000000

 C         

     33   S      64           172.2560000    0.061766907377
     33   S      65            25.9109000    0.358794042852
     33   S      66             5.5333500    0.700713083689

     34   L      67             3.6649800   -0.395895162119    0.236459946619
     34   L      68             0.7705450    1.215834355681    0.860618805716

     35   L      69             0.1958570    1.000000000000    1.000000000000

 H         

     36   S      70             5.4471780    0.156284978695
     36   S      71             0.8245472    0.904690876670

     37   S      72             0.1831916    1.000000000000

 H         

     38   S      73             5.4471780    0.156284978695
     38   S      74             0.8245472    0.904690876670

     39   S      75             0.1831916    1.000000000000

 H         

     40   S      76             5.4471780    0.156284978695
     40   S      77             0.8245472    0.904690876670

     41   S      78             0.1831916    1.000000000000

 H         

     42   S      79             5.4471780    0.156284978695
     42   S      80             0.8245472    0.904690876670

     43   S      81             0.1831916    1.000000000000

 H         

     44   S      82             5.4471780    0.156284978695
     44   S      83             0.8245472    0.904690876670

     45   S      84             0.1831916    1.000000000000

 H         

     46   S      85             5.4471780    0.156284978695
     46   S      86             0.8245472    0.904690876670

     47   S      87             0.1831916    1.000000000000

 H         

     48   S      88             5.4471780    0.156284978695
     48   S      89             0.8245472    0.904690876670

     49   S      90             0.1831916    1.000000000000

 H         

     50   S      91             5.4471780    0.156284978695
     50   S      92             0.8245472    0.904690876670

     51   S      93             0.1831916    1.000000000000

 H         

     52   S      94             5.4471780    0.156284978695
     52   S      95             0.8245472    0.904690876670

     53   S      96             0.1831916    1.000000000000

 H         

     54   S      97             5.4471780    0.156284978695
     54   S      98             0.8245472    0.904690876670

     55   S      99             0.1831916    1.000000000000

 TOTAL NUMBER OF BASIS SET SHELLS             =   55
 NUMBER OF CARTESIAN GAUSSIAN BASIS FUNCTIONS =  121
 NUMBER OF ELECTRONS                          =   78
 CHARGE OF MOLECULE                           =    0
 SPIN MULTIPLICITY                            =    1
 NUMBER OF OCCUPIED ORBITALS (ALPHA)          =   39
 NUMBER OF OCCUPIED ORBITALS (BETA )          =   39
 TOTAL NUMBER OF ATOMS                        =   22
 THE NUCLEAR REPULSION ENERGY IS      568.7015430225

     $CONTRL OPTIONS
     ---------------
 SCFTYP=RHF          RUNTYP=ENERGY       EXETYP=RUN     
 MPLEVL=       0     CITYP =NONE         CCTYP =NONE         VBTYP =NONE    
 DFTTYP=NONE         TDDFT =NONE    
 MULT  =       1     ICHARG=       0     NZVAR =       0     COORD =UNIQUE  
 PP    =NONE         RELWFN=NONE         LOCAL =NONE         NUMGRD=       F
 ISPHER=      -1     NOSYM =       0     MAXIT =      60     UNITS =ANGS    
 PLTORB=       F     MOLPLT=       F     AIMPAC=       F     FRIEND=        
 NPRINT=       7     IREST =       0     GEOM  =INPUT   
 NORMF =       0     NORMP =       0     ITOL  =      20     ICUT  =       9
 INTTYP=BEST         GRDTYP=BEST         QMTTOL= 1.0E-06

     $SYSTEM OPTIONS
     ---------------
  REPLICATED MEMORY=    30000000 WORDS (ON EVERY NODE).
 DISTRIBUTED MEMDDI=        1000 MILLION WORDS IN AGGREGATE,
 MEMDDI DISTRIBUTED OVER   6 PROCESSORS IS   166666666 WORDS/PROCESSOR.
 TOTAL MEMORY REQUESTED ON EACH PROCESSOR=   196666666 WORDS.
 TIMLIM=      525600.00 MINUTES, OR     365.0 DAYS.
 PARALL= T  BALTYP=  DLB     KDIAG=    0  COREFL= F
 MXSEQ2=     300 MXSEQ3=     150  mem10=         0

          ----------------
          PROPERTIES INPUT
          ----------------

     MOMENTS            FIELD           POTENTIAL          DENSITY
 IEMOM =       1   IEFLD =       0   IEPOT =       0   IEDEN =       0
 WHERE =COMASS     WHERE =NUCLEI     WHERE =NUCLEI     WHERE =NUCLEI  
 OUTPUT=BOTH       OUTPUT=BOTH       OUTPUT=BOTH       OUTPUT=BOTH    
 IEMINT=       0   IEFINT=       0                     IEDINT=       0
                                                       MORB  =       0
          EXTRAPOLATION IN EFFECT
          SOSCF IN EFFECT
 ORBITAL PRINTING OPTION: NPREO=     1   121     2     1

     -------------------------------
     INTEGRAL TRANSFORMATION OPTIONS
     -------------------------------
     NWORD  =            0
     CUTOFF = 1.0E-09     MPTRAN =       0
     DIRTRF =       T     AOINTS =DUP     

          ----------------------
          INTEGRAL INPUT OPTIONS
          ----------------------
 NOPK  =       1 NORDER=       0 SCHWRZ=       T

     ------------------------------------------
     THE POINT GROUP IS C1 , NAXIS= 0, ORDER= 1
     ------------------------------------------

     DIMENSIONS OF THE SYMMETRY SUBSPACES ARE
 A   =  121

 ..... DONE SETTING UP THE RUN .....
 CPU     0: STEP CPU TIME=     0.02 TOTAL CPU TIME=          0.0 (      0.0 MIN)
 TOTAL WALL CLOCK TIME=          0.0 SECONDS, CPU UTILIZATION IS    66.67%

          ********************
          1 ELECTRON INTEGRALS
          ********************
 ...... END OF ONE-ELECTRON INTEGRALS ......
 CPU     0: STEP CPU TIME=     0.02 TOTAL CPU TIME=          0.0 (      0.0 MIN)
 TOTAL WALL CLOCK TIME=          0.0 SECONDS, CPU UTILIZATION IS   100.00%

          -------------
          GUESS OPTIONS
          -------------
          GUESS =HUCKEL            NORB  =       0          NORDER=       0
          MIX   =       F          PRTMO =       F          PUNMO =       F
          TOLZ  = 1.0E-08          TOLE  = 1.0E-05
          SYMDEN=       F          PURIFY=       F

 INITIAL GUESS ORBITALS GENERATED BY HUCKEL   ROUTINE.
 HUCKEL GUESS REQUIRES    139953 WORDS.

 SYMMETRIES FOR INITIAL GUESS ORBITALS FOLLOW.   BOTH SET(S).
    39 ORBITALS ARE OCCUPIED (   11 CORE ORBITALS).
    12=A       13=A       14=A       15=A       16=A       17=A       18=A   
    19=A       20=A       21=A       22=A       23=A       24=A       25=A   
    26=A       27=A       28=A       29=A       30=A       31=A       32=A   
    33=A       34=A       35=A       36=A       37=A       38=A       39=A   
    40=A       41=A       42=A       43=A       44=A       45=A       46=A   
    47=A       48=A       49=A   
 ...... END OF INITIAL ORBITAL SELECTION ......
 CPU     0: STEP CPU TIME=     0.03 TOTAL CPU TIME=          0.1 (      0.0 MIN)
 TOTAL WALL CLOCK TIME=          0.1 SECONDS, CPU UTILIZATION IS   100.00%

                    ----------------------
                    AO INTEGRAL TECHNOLOGY
                    ----------------------
     S,P,L SHELL ROTATED AXIS INTEGRALS, REPROGRAMMED BY
        KAZUYA ISHIMURA (IMS) AND JOSE SIERRA (SYNSTAR).
     S,P,D,L SHELL ROTATED AXIS INTEGRALS PROGRAMMED BY
        KAZUYA ISHIMURA (INSTITUTE FOR MOLECULAR SCIENCE).
     S,P,D,F,G SHELL TO TOTAL QUARTET ANGULAR MOMENTUM SUM 5,
        ERIC PROGRAM BY GRAHAM FLETCHER (ELORET AND NASA ADVANCED
        SUPERCOMPUTING DIVISION, AMES RESEARCH CENTER).
     S,P,D,F,G,L SHELL GENERAL RYS QUADRATURE PROGRAMMED BY
        MICHEL DUPUIS (PACIFIC NORTHWEST NATIONAL LABORATORY).

          --------------------
          2 ELECTRON INTEGRALS
          --------------------

 DIRECT SCF METHOD SKIPS INTEGRAL STORAGE ON DISK.
 DIRECT TRANSFORMATION SKIPS AO INTEGRAL STORAGE ON DISK.
  ...... END OF TWO-ELECTRON INTEGRALS .....
 CPU     0: STEP CPU TIME=     0.01 TOTAL CPU TIME=          0.1 (      0.0 MIN)
 TOTAL WALL CLOCK TIME=          0.1 SECONDS, CPU UTILIZATION IS    88.89%

          --------------------------
                 RHF SCF CALCULATION
          --------------------------

     NUCLEAR ENERGY =       568.7015430225
     MAXIT =   60     NPUNCH=    2
     EXTRAP=T  DAMP=F  SHIFT=F  RSTRCT=F  DIIS=F  DEM=F  SOSCF=T
     DENSITY MATRIX CONV=  2.00E-05
     SOSCF WILL OPTIMIZE    3198 ORBITAL ROTATIONS, SOGTOL=   0.250
     MEMORY REQUIRED FOR RHF ITERS=    164409 WORDS.

 DIRECT SCF CALCULATION, SCHWRZ=T   FDIFF=T,  DIRTHR=  0.00E+00 NITDIR=10
 SCHWARZ INEQUALITY OVERHEAD:      6986 INTEGRALS, T=        0.00

                                                                                   NONZERO     BLOCKS
 ITER EX DEM     TOTAL ENERGY        E CHANGE  DENSITY CHANGE     ORB. GRAD      INTEGRALS    SKIPPED
   1  0  0     -436.2289719138  -436.2289719138   0.769219724   0.000000000       17605122     601575
          ---------------START SECOND ORDER SCF---------------
   2  1  0     -437.0471479319    -0.8181760181   0.119807987   0.039740934       17561512     617886
   3  2  0     -437.0817453761    -0.0345974442   0.076854164   0.019931647       17376697     650496
   4  3  0     -437.0918114874    -0.0100661113   0.011698872   0.002737650       17082039     679706
   5  4  0     -437.0920477839    -0.0002362965   0.001740057   0.000914035       16570413     712106
   6  5  0     -437.0920954620    -0.0000476781   0.000663465   0.000278159       15831391     747190
   7  6  0     -437.0920991891    -0.0000037272   0.000463490   0.000184782       15171803     777491
   8  7  0     -437.0921003133    -0.0000011242   0.000274005   0.000061408       14743628     800391
   9  8  0     -437.0921005154    -0.0000002021   0.000086255   0.000020735       14097266     826208
  10  9  0     -437.0921005497    -0.0000000343   0.000042204   0.000012400       13501792     845521
  11 10  0     -437.0921005559    -0.0000000061   0.000012649   0.000002957       12840883     869967
  12 11  0     -437.0921005564    -0.0000000005   0.000004278   0.000000988       11588369     908401

          -----------------
          DENSITY CONVERGED
          -----------------
     TIME TO FORM FOCK OPERATORS=       2.2 SECONDS (       0.2 SEC/ITER)
     FOCK TIME ON FIRST ITERATION=       0.2, LAST ITERATION=       0.2
     TIME TO SOLVE SCF EQUATIONS=       0.1 SECONDS (       0.0 SEC/ITER)

 FINAL RHF ENERGY IS     -437.0921005564 AFTER  12 ITERATIONS

          ------------
          EIGENVECTORS
          ------------

                      1          2          3          4          5
                  -15.5259   -11.2163   -11.2132   -11.1762   -11.1753
                     A          A          A          A          A   
    1  C  1  S    0.000019   0.000211   0.000494  -0.000134   0.000719
    2  C  1  S    0.000155   0.000203   0.000321  -0.000020   0.000184
    3  C  1  X   -0.000067   0.000005  -0.000009   0.000026  -0.000034
    4  C  1  Y   -0.000182  -0.000094  -0.000022   0.000015   0.000043
    5  C  1  Z   -0.000020   0.000049   0.000062   0.000027   0.000017
    6  C  1  S    0.000052  -0.000667  -0.001209  -0.000148  -0.000333
    7  C  1  X    0.000007   0.000282   0.000413   0.000045   0.000066
    8  C  1  Y    0.001269   0.000899   0.000052   0.000053   0.000012
    9  C  1  Z   -0.000549  -0.000394  -0.000097   0.000014  -0.000188
   10  H  2  S    0.000161   0.000167  -0.000040   0.000016   0.000052
   11  H  2  S    0.000597   0.000493   0.000436   0.000009   0.000082
   12  C  3  S    0.000055  -0.001409  -0.002162  -0.001898   0.000611
   13  C  3  S    0.000145  -0.000652  -0.000639  -0.000442  -0.000060
   14  C  3  X    0.000484   0.000396   0.000433  -0.000129  -0.000161
   15  C  3  Y    0.000470   0.000053   0.000406   0.000003   0.000094
   16  C  3  Z   -0.000254  -0.000178  -0.000260   0.000025   0.000070
   17  C  3  S   -0.006097  -0.000983   0.001936   0.002483   0.002577
   18  C  3  X    0.002761   0.000719  -0.001811  -0.001032  -0.000743
   19  C  3  Y   -0.002288  -0.002166   0.001435  -0.000338  -0.001248
   20  C  3  Z    0.000462   0.000875   0.000951   0.000262   0.000062
   21  C  4  S    0.000159  -0.001129  -0.002625  -0.003781  -0.005313
   22  C  4  S    0.000660  -0.000457  -0.003754  -0.000714  -0.000719
   23  C  4  X   -0.000790  -0.000023   0.000229   0.000405  -0.000049
   24  C  4  Y    0.000883  -0.000009   0.002194   0.000055  -0.000052
   25  C  4  Z    0.000032  -0.000024  -0.000391  -0.000113   0.000011
   26  C  4  S   -0.005393  -0.000303   0.031723  -0.004103   0.010026
   27  C  4  X    0.009637   0.000500  -0.009109  -0.001680  -0.007283
   28  C  4  Y    0.009485   0.014001  -0.016914  -0.001775   0.001323
   29  C  4  Z   -0.003714  -0.002195   0.004617   0.000636   0.001696
   30  C  5  S   -0.000368  -0.035178   0.986353   0.001557   0.001096
   31  C  5  S   -0.001224  -0.005202   0.097042  -0.000547  -0.000334
   32  C  5  X   -0.001845   0.000054  -0.001766   0.000238   0.000103
   33  C  5  Y   -0.000193  -0.000788   0.000971  -0.000227  -0.000174
   34  C  5  Z    0.000487   0.000125   0.000280  -0.000026   0.000001
   35  C  5  S    0.027118   0.014516  -0.068765   0.000476  -0.001988
   36  C  5  X   -0.013564  -0.001167  -0.000898  -0.001148   0.000645
   37  C  5  Y    0.014610   0.013339  -0.016221   0.001822  -0.000163
   38  C  5  Z    0.001071  -0.001775   0.002721   0.000011  -0.000163
   39  N  6  S    0.986554   0.000346   0.000158  -0.000022  -0.000016
   40  N  6  S    0.105836   0.002425   0.001155  -0.000403  -0.000219
   41  N  6  X    0.001026   0.000208   0.000768   0.000014  -0.000239
   42  N  6  Y    0.002212   0.000724   0.000323  -0.000051  -0.000184
   43  N  6  Z   -0.000611  -0.000155  -0.000229   0.000001   0.000081
   44  N  6  S   -0.088162  -0.010104  -0.000458   0.005321  -0.000810
   45  N  6  X   -0.006678  -0.001352  -0.001651   0.000744   0.002048
   46  N  6  Y   -0.020252  -0.008603  -0.005687   0.001760   0.000567
   47  N  6  Z    0.004737   0.001596   0.001215  -0.000413  -0.000566
   48  C  7  S   -0.000014   0.986708   0.034625   0.005473   0.001237
   49  C  7  S    0.000744   0.099816   0.002073  -0.003824   0.000455
   50  C  7  X   -0.000190   0.000355  -0.001797   0.001761  -0.000208
   51  C  7  Y   -0.000161   0.000536   0.000762  -0.001011  -0.000545
   52  C  7  Z    0.000069  -0.000182   0.000313  -0.000263   0.000136
   53  C  7  S    0.011392  -0.089557  -0.000110   0.042029  -0.010361
   54  C  7  X    0.021620   0.006172   0.027098  -0.021627   0.001046
   55  C  7  Y   -0.039551  -0.036667  -0.010899   0.022839  -0.008650
   56  C  7  Z    0.000842   0.004240  -0.004797   0.001577   0.001100
   57  C  8  S   -0.000274  -0.006748  -0.002261   0.978575   0.046660
   58  C  8  S   -0.001371  -0.005394  -0.001770   0.099978   0.004152
   59  C  8  X    0.000230  -0.001430   0.000159   0.001221  -0.000043
   60  C  8  Y   -0.001148  -0.000231  -0.000313   0.000980   0.000046
   61  C  8  Z    0.000120   0.000375   0.000006  -0.000442   0.000004
   62  C  8  S    0.025501   0.043611   0.021159  -0.105229   0.006923
   63  C  8  X    0.015332   0.027004   0.012747  -0.026614   0.004882
   64  C  8  Y    0.012900   0.007754  -0.003751  -0.015593   0.003647
   65  C  8  Z   -0.005572  -0.007601  -0.002394   0.008748  -0.001725
   66  C  9  S    0.000109  -0.001417   0.000053  -0.121115  -0.050911
   67  C  9  S    0.000288   0.000123   0.000171  -0.016681  -0.004715
   68  C  9  X   -0.000306  -0.000341   0.000114  -0.000854  -0.000894
   69  C  9  Y    0.000870   0.001183   0.000347   0.001362  -0.000465
   70  C  9  Z   -0.000064  -0.000102  -0.000080  -0.000013   0.000288
   71  C  9  S   -0.015409  -0.018807  -0.003881   0.050676  -0.010209
   72  C  9  X   -0.004429  -0.009477  -0.004950   0.018954  -0.007572
   73  C  9  Y    0.005257   0.005037  -0.000631  -0.020410   0.004021
   74  C  9  Z    0.000204   0.001447   0.001255  -0.001284   0.001154
   75  C 10  S   -0.000129  -0.002202  -0.000885  -0.000125  -0.021796
   76  C 10  S   -0.000721  -0.001538  -0.000574   0.001236  -0.006491
   77  C 10  X   -0.000152   0.000082  -0.000186   0.000776  -0.000846
   78  C 10  Y    0.000434   0.000470   0.000184   0.000387   0.001119
   79  C 10  Z   -0.000033  -0.000092   0.000012  -0.000244   0.000021
   80  C 10  S    0.005513   0.016498   0.003932  -0.021459   0.039772
   81  C 10  X    0.000137   0.001875  -0.001418  -0.001591   0.012761
   82  C 10  Y   -0.005905  -0.010880  -0.002900   0.013479  -0.021434
   83  C 10  Z    0.000907   0.001281   0.000820  -0.001762   0.000378
   84  C 11  S    0.000067  -0.000993  -0.001265  -0.053691   0.982628
   85  C 11  S    0.000101   0.000440  -0.000444  -0.006247   0.100091
   86  C 11  X    0.000331   0.000025   0.000105   0.000072  -0.001297
   87  C 11  Y    0.000599   0.001108   0.000297   0.000220  -0.000727
   88  C 11  Z   -0.000185  -0.000181  -0.000066  -0.000052   0.000433
   89  C 11  S   -0.012450  -0.019831  -0.004744   0.019221  -0.103320
   90  C 11  X    0.001202   0.011705  -0.001106  -0.008296   0.022101
   91  C 11  Y    0.004913   0.006780   0.001784  -0.005627   0.019718
   92  C 11  Z   -0.001067  -0.003890  -0.000062   0.002869  -0.008414
   93  C 12  S   -0.000077  -0.005170  -0.001733  -0.008872  -0.065918
   94  C 12  S   -0.000526  -0.004221  -0.000645  -0.000307  -0.010427
   95  C 12  X    0.001134   0.002081  -0.000041   0.000498   0.000802
   96  C 12  Y   -0.000363  -0.000191   0.000457   0.000230  -0.002213
   97  C 12  Z   -0.000233  -0.000484  -0.000059  -0.000155   0.000161
   98  C 12  S    0.006232   0.035582  -0.009904  -0.012143   0.040489
   99  C 12  X   -0.009402  -0.032330   0.003205   0.008908  -0.017369
  100  C 12  Y    0.014038   0.006930   0.011398  -0.007515   0.030393
  101  C 12  Z    0.000118   0.006682  -0.002481  -0.000930  -0.000649
  102  H 13  S    0.000539   0.000128  -0.000080  -0.000094   0.000098
  103  H 13  S    0.001111   0.000935   0.000288  -0.000034  -0.000209
  104  H 14  S   -0.000371  -0.000269  -0.000086  -0.000127  -0.000214
  105  H 14  S   -0.000007  -0.000286   0.001236  -0.000111  -0.000368
  106  H 15  S    0.000496   0.000802  -0.002467   0.000196   0.000020
  107  H 15  S    0.005030   0.004152   0.008186   0.001019   0.000264
  108  H 16  S   -0.000152  -0.001534  -0.001852   0.000148   0.000448
  109  H 16  S    0.003512  -0.001483  -0.000854   0.000351   0.000346
  110  H 17  S    0.001454   0.000473  -0.000191  -0.002401   0.000203
  111  H 17  S    0.006090   0.007454   0.001988   0.003993   0.002031
  112  H 18  S   -0.000025  -0.000451  -0.000383   0.000494  -0.000400
  113  H 18  S   -0.000415  -0.001214  -0.000849   0.004773  -0.001810
  114  H 19  S    0.000379   0.000377   0.000076  -0.000528   0.000244
  115  H 19  S    0.001823   0.002880   0.000860  -0.002455   0.005144
  116  H 20  S    0.000102  -0.000739   0.000095   0.000446  -0.002399
  117  H 20  S    0.000015  -0.002794   0.000606   0.001799   0.004374
  118  H 21  S   -0.000035  -0.000023   0.000033  -0.000009  -0.000005
  119  H 21  S   -0.000384  -0.000220  -0.000013   0.000074   0.000069
  120  H 22  S   -0.000107  -0.000058   0.000087   0.000017  -0.000091
  121  H 22  S   -0.000344   0.000032   0.000322  -0.000026   0.000314

                      6          7          8          9         10
                  -11.1744   -11.1722   -11.1708   -11.1689   -11.1659
                     A          A          A          A          A   
    1  C  1  S    0.000074   0.002320  -0.004363  -0.017262   0.000444
    2  C  1  S    0.000041   0.000708  -0.002674  -0.004104   0.000113
    3  C  1  X    0.000002  -0.000012  -0.000585   0.001462   0.000021
    4  C  1  Y   -0.000020  -0.000080  -0.000358   0.000607   0.000009
    5  C  1  Z    0.000031   0.000051  -0.000510  -0.000065   0.000013
    6  C  1  S   -0.000231  -0.002149   0.021945   0.007604  -0.000311
    7  C  1  X    0.000107   0.000512  -0.006551  -0.006504   0.000067
    8  C  1  Y    0.000294   0.001182  -0.004704  -0.002937  -0.000042
    9  C  1  Z   -0.000078  -0.000122  -0.009067  -0.000964  -0.000122
   10  H  2  S    0.000051   0.000304  -0.001392  -0.001144   0.000014
   11  H  2  S    0.000138   0.000573   0.000528  -0.000769   0.000090
   12  C  3  S   -0.003609  -0.044912   0.986946   0.018221   0.004012
   13  C  3  S   -0.000595  -0.004979   0.105397   0.001723   0.000311
   14  C  3  X   -0.000046   0.000328   0.000126   0.000342   0.000166
   15  C  3  Y    0.000032   0.000076   0.000133   0.000233  -0.000081
   16  C  3  Z   -0.000008  -0.000160   0.000195   0.000073  -0.000063
   17  C  3  S    0.002310   0.006044  -0.102783   0.001391  -0.000605
   18  C  3  X   -0.000730  -0.000133   0.008491  -0.006498  -0.000167
   19  C  3  Y   -0.000816  -0.003319   0.000842  -0.002848  -0.000160
   20  C  3  Z    0.000379   0.001368  -0.007199  -0.002401   0.000310
   21  C  4  S   -0.003248  -0.068491  -0.021518   0.984601   0.019197
   22  C  4  S   -0.000697  -0.009791  -0.003095   0.100822   0.001521
   23  C  4  X    0.000023   0.000939  -0.001216  -0.000729   0.000135
   24  C  4  Y    0.000112  -0.000743  -0.000265  -0.000065  -0.000439
   25  C  4  Z   -0.000036  -0.000143   0.000447   0.000665   0.000033
   26  C  4  S    0.007156   0.027801   0.014504  -0.094522  -0.004802
   27  C  4  X   -0.005427  -0.016869   0.030235   0.018333   0.001324
   28  C  4  Y    0.001231   0.010178   0.006656   0.001804   0.001851
   29  C  4  Z    0.001160   0.002415  -0.007044  -0.005671  -0.000663
   30  C  5  S    0.000111   0.001279   0.002079   0.002178   0.000790
   31  C  5  S   -0.000040  -0.000556  -0.000377  -0.003645  -0.000385
   32  C  5  X   -0.000104  -0.000347  -0.000540  -0.000551   0.000108
   33  C  5  Y   -0.000090  -0.000571  -0.000050  -0.001490  -0.000072
   34  C  5  Z    0.000043   0.000189   0.000024   0.000309  -0.000014
   35  C  5  S   -0.001397  -0.001142   0.008175   0.032873   0.003147
   36  C  5  X    0.000777   0.001923  -0.003711  -0.000292   0.000010
   37  C  5  Y   -0.001354  -0.000398   0.006552   0.019339   0.001665
   38  C  5  Z   -0.000003  -0.000430  -0.000033  -0.002405  -0.000245
   39  N  6  S   -0.000007   0.000009   0.000012   0.000102  -0.000059
   40  N  6  S   -0.000192  -0.000248  -0.000074   0.000401  -0.000500
   41  N  6  X    0.000171   0.000267  -0.000061  -0.000077   0.000016
   42  N  6  Y   -0.000229  -0.000236  -0.000134   0.000071  -0.000067
   43  N  6  Z   -0.000009  -0.000038   0.000071   0.000028   0.000004
   44  N  6  S   -0.000791  -0.001038  -0.001601  -0.005297   0.003581
   45  N  6  X    0.000103  -0.001547  -0.001429  -0.003841  -0.000646
   46  N  6  Y    0.000359  -0.001703   0.000536  -0.001673   0.001542
   47  N  6  Z   -0.000075   0.000668   0.000155   0.001068  -0.000064
   48  C  7  S    0.002254   0.004494   0.001519   0.001442   0.002028
   49  C  7  S   -0.000092  -0.003114  -0.000748  -0.000841  -0.000963
   50  C  7  X    0.000904  -0.000916  -0.000490  -0.000726   0.000132
   51  C  7  Y   -0.000586  -0.000678  -0.000158  -0.000452  -0.000564
   52  C  7  Z   -0.000122   0.000324   0.000174   0.000232   0.000056
   53  C  7  S   -0.010251   0.031274   0.002016   0.003646   0.011198
   54  C  7  X    0.001438   0.018010   0.002972   0.004872  -0.005115
   55  C  7  Y   -0.007459   0.009973   0.002811   0.003305   0.010185
   56  C  7  Z    0.000816  -0.005916  -0.001137  -0.001651  -0.000367
   57  C  8  S    0.122052   0.015884   0.002819   0.005317   0.005647
   58  C  8  S    0.007840   0.001363   0.000138  -0.000001   0.000926
   59  C  8  X   -0.000219  -0.000545  -0.000067  -0.000218  -0.000104
   60  C  8  Y   -0.001380   0.000251   0.000062   0.000021  -0.000925
   61  C  8  Z    0.000267   0.000090  -0.000003   0.000049   0.000172
   62  C  8  S    0.027939  -0.002194  -0.000137   0.001692  -0.016391
   63  C  8  X    0.009993  -0.000925   0.000156   0.002162  -0.009838
   64  C  8  Y    0.017558  -0.006435  -0.002099  -0.001532  -0.004035
   65  C  8  Z   -0.005119   0.001252   0.000302  -0.000278   0.002953
   66  C  9  S    0.977700   0.028738   0.004427   0.003934   0.028696
   67  C  9  S    0.098100   0.002256   0.000218   0.000272  -0.001404
   68  C  9  X    0.001031  -0.000221  -0.000026  -0.000181  -0.001375
   69  C  9  Y   -0.000487   0.000042   0.000054   0.000129  -0.000334
   70  C  9  Z   -0.000169   0.000050  -0.000011   0.000024   0.000378
   71  C  9  S   -0.088646   0.004824   0.002143  -0.001418   0.034585
   72  C  9  X   -0.021064   0.001870   0.000788  -0.001002   0.022530
   73  C  9  Y    0.008804  -0.002699  -0.000913  -0.001379  -0.000270
   74  C  9  Z    0.003632  -0.000045   0.000016   0.000448  -0.005305
   75  C 10  S   -0.030523  -0.013239  -0.004329  -0.020543   0.986311
   76  C 10  S   -0.007441  -0.001894  -0.000524  -0.002629   0.099201
   77  C 10  X    0.000866  -0.000536  -0.000225  -0.000273   0.000137
   78  C 10  Y    0.001314   0.000526   0.000155   0.000493  -0.001247
   79  C 10  Z   -0.000414   0.000042   0.000052  -0.000017   0.000166
   80  C 10  S    0.039956  -0.000202  -0.001888  -0.000121  -0.090634
   81  C 10  X   -0.007089   0.001359  -0.000050  -0.001947  -0.002519
   82  C 10  Y   -0.022516   0.001999   0.001249  -0.002195   0.023762
   83  C 10  Z    0.005250  -0.000596  -0.000361   0.000835  -0.003160
   84  C 11  S    0.042270   0.065331   0.002049   0.009396   0.023152
   85  C 11  S    0.004993   0.003275  -0.000187   0.000784  -0.002277
   86  C 11  X    0.000757  -0.000067   0.000118   0.000008   0.001579
   87  C 11  Y   -0.000252   0.001625  -0.000165   0.000235  -0.000210
   88  C 11  Z   -0.000140  -0.000227  -0.000102  -0.000023  -0.000342
   89  C 11  S   -0.023068   0.013233   0.007445   0.002165   0.037833
   90  C 11  X    0.008878  -0.000701  -0.002614  -0.005903  -0.021461
   91  C 11  Y    0.009299  -0.011555  -0.004164   0.000059  -0.004790
   92  C 11  Z   -0.003603   0.001864   0.001692   0.001342   0.005867
   93  C 12  S   -0.034443   0.981294   0.043274   0.067934   0.012421
   94  C 12  S   -0.004333   0.100108   0.004246   0.003938   0.001228
   95  C 12  X    0.000707  -0.000275  -0.000738  -0.001359   0.000287
   96  C 12  Y   -0.000529  -0.000885   0.000148   0.000638  -0.000753
   97  C 12  Z   -0.000089   0.000161   0.000175   0.000241   0.000050
   98  C 12  S    0.012304  -0.098303  -0.001610   0.021543  -0.012666
   99  C 12  X   -0.010073   0.003923   0.006451   0.021002   0.006981
  100  C 12  Y    0.011715   0.013366  -0.009992  -0.011701  -0.007314
  101  C 12  Z    0.000592  -0.002669  -0.000409  -0.003100  -0.000496
  102  H 13  S    0.000006   0.000288   0.001455  -0.000721  -0.000081
  103  H 13  S    0.000081   0.000152   0.014290   0.001184   0.000433
  104  H 14  S   -0.000156  -0.000471   0.001406  -0.000408  -0.000037
  105  H 14  S   -0.000147  -0.000954   0.014401   0.000162   0.000247
  106  H 15  S   -0.000138  -0.000146   0.000590  -0.000398  -0.000049
  107  H 15  S   -0.000440   0.000199   0.001937   0.003537   0.000306
  108  H 16  S   -0.000086  -0.000572  -0.000046  -0.000542  -0.000128
  109  H 16  S    0.000332   0.000388   0.000323   0.000238   0.000416
  110  H 17  S   -0.000253  -0.000649  -0.000191  -0.000062  -0.000616
  111  H 17  S    0.005935  -0.000633  -0.000259   0.000513  -0.001738
  112  H 18  S   -0.002336  -0.000123  -0.000032  -0.000030   0.000022
  113  H 18  S    0.006202   0.001163   0.000356   0.000236   0.005442
  114  H 19  S    0.000128  -0.000318  -0.000087   0.000276  -0.002377
  115  H 19  S    0.005097   0.000034  -0.000105   0.001018   0.006013
  116  H 20  S   -0.000656  -0.000714   0.000167   0.000567  -0.000061
  117  H 20  S   -0.001808   0.002317   0.001267   0.001776   0.005206
  118  H 21  S   -0.000013   0.000037  -0.001022  -0.000006   0.000008
  119  H 21  S   -0.000016  -0.000073  -0.000427   0.003150   0.000010
  120  H 22  S    0.000011  -0.000123  -0.001381  -0.000931  -0.000043
  121  H 22  S   -0.000070   0.000336   0.000347  -0.000917   0.000261

                     11         12         13         14         15
                  -11.1539    -1.2854    -1.1275    -1.0785    -1.0110
                     A          A          A          A          A   
    1  C  1  S    0.987345  -0.002247   0.005853  -0.066259  -0.103286
    2  C  1  S    0.101472   0.002880  -0.006113   0.069176   0.101118
    3  C  1  X   -0.000159  -0.001974   0.002845  -0.022587  -0.014605
    4  C  1  Y   -0.000073  -0.000521   0.000996  -0.014293  -0.013168
    5  C  1  Z   -0.000038  -0.001058   0.002350  -0.023507  -0.024945
    6  C  1  S   -0.079415   0.000388  -0.012069   0.144740   0.267916
    7  C  1  X    0.002529   0.004027  -0.000889   0.010530   0.002118
    8  C  1  Y    0.001721  -0.002875  -0.000492   0.006064  -0.000426
    9  C  1  Z    0.002835   0.003211  -0.000738   0.001922  -0.002463
   10  H  2  S    0.000223   0.001061  -0.002561   0.032794   0.052659
   11  H  2  S    0.014400  -0.002314   0.000568   0.000510   0.002090
   12  C  3  S    0.004117  -0.009200   0.011663  -0.113716  -0.103133
   13  C  3  S   -0.000910   0.006750  -0.011344   0.104190   0.096108
   14  C  3  X    0.000521  -0.008767   0.005934  -0.030849   0.022441
   15  C  3  Y    0.000143  -0.004089  -0.002219  -0.004199   0.010428
   16  C  3  Z    0.000019   0.003003  -0.001999   0.022134   0.024240
   17  C  3  S    0.011749   0.044947  -0.025202   0.320976   0.295780
   18  C  3  X    0.007976  -0.011975   0.000507  -0.018966  -0.005336
   19  C  3  Y    0.004913   0.009719  -0.004621  -0.004822  -0.000731
   20  C  3  Z    0.008476   0.000817  -0.000838   0.016192   0.009362
   21  C  4  S    0.016787  -0.051505   0.017841  -0.133091   0.009970
   22  C  4  S   -0.000309   0.054928  -0.020603   0.142097  -0.007191
   23  C  4  X   -0.001292  -0.036459   0.009153   0.002731   0.083298
   24  C  4  Y   -0.000605  -0.022909  -0.029106  -0.005057   0.000335
   25  C  4  Z   -0.000213   0.012474   0.001793   0.004396  -0.013876
   26  C  4  S    0.003862   0.084598  -0.026304   0.276372  -0.037855
   27  C  4  X    0.006037  -0.040983  -0.012230  -0.049340  -0.000701
   28  C  4  Y    0.003071  -0.036970   0.011523   0.003963  -0.009239
   29  C  4  Z   -0.001152   0.015930   0.001164   0.011500   0.000089
   30  C  5  S   -0.000377  -0.087825  -0.032001  -0.058019   0.019084
   31  C  5  S    0.000145   0.102073   0.031962   0.065645  -0.021477
   32  C  5  X    0.000213  -0.066112  -0.034772   0.048875   0.008360
   33  C  5  Y    0.000034   0.037438  -0.009654   0.066377  -0.020276
   34  C  5  Z    0.000126   0.010494   0.009832  -0.021012   0.002038
   35  C  5  S    0.001886   0.071253   0.065610   0.107389  -0.043147
   36  C  5  X   -0.001985   0.027293   0.005427   0.010615   0.006131
   37  C  5  Y    0.001207  -0.047121   0.005352   0.017693  -0.014912
   38  C  5  Z   -0.000525   0.000359  -0.002144  -0.004700   0.002873
   39  N  6  S    0.000027  -0.181731  -0.068480   0.063062  -0.016342
   40  N  6  S    0.000193   0.152085   0.059689  -0.053692   0.013304
   41  N  6  X   -0.000040   0.025211   0.017453   0.049741  -0.038678
   42  N  6  Y   -0.000060   0.040721  -0.022596   0.002650  -0.006290
   43  N  6  Z   -0.000035  -0.012883  -0.001073  -0.012034   0.010362
   44  N  6  S   -0.001601   0.618890   0.236558  -0.224630   0.064007
   45  N  6  X   -0.000224   0.050133   0.021161   0.034861  -0.030658
   46  N  6  Y    0.000179   0.107063   0.000249  -0.013300  -0.001328
   47  N  6  Z    0.000295  -0.028805  -0.005429  -0.006071   0.007284
   48  C  7  S   -0.000140  -0.098495   0.056708   0.039871  -0.023792
   49  C  7  S    0.000174   0.109549  -0.066988  -0.040484   0.026666
   50  C  7  X   -0.000149   0.046199   0.021843   0.056326  -0.091616
   51  C  7  Y    0.000031  -0.061633  -0.086362   0.030641  -0.010590
   52  C  7  Z    0.000027  -0.001947   0.008182  -0.017897   0.023531
   53  C  7  S   -0.003394   0.126894  -0.102642  -0.092025   0.056123
   54  C  7  X   -0.000150  -0.089076  -0.021036  -0.006768  -0.016665
   55  C  7  Y   -0.001878   0.116047  -0.001563  -0.030511   0.010857
   56  C  7  Z    0.000325   0.003552   0.005361   0.006344   0.002169
   57  C  8  S    0.000138  -0.024197   0.090588   0.060332  -0.099198
   58  C  8  S   -0.000089   0.032837  -0.099404  -0.065387   0.106796
   59  C  8  X    0.000051   0.022170  -0.037129  -0.017983   0.008913
   60  C  8  Y   -0.000073  -0.006195  -0.043068  -0.009099   0.022806
   61  C  8  Z   -0.000010  -0.004324   0.015602   0.005767  -0.005706
   62  C  8  S    0.001437  -0.057245  -0.198748  -0.124130   0.230060
   63  C  8  X    0.000887  -0.057765  -0.024498  -0.005538   0.004735
   64  C  8  Y    0.000503  -0.029624  -0.011510   0.019633   0.000074
   65  C  8  Z   -0.000244   0.018040   0.007560  -0.001730  -0.001177
   66  C  9  S   -0.000033  -0.009816   0.101417   0.046898  -0.067553
   67  C  9  S    0.000022   0.010799  -0.113172  -0.051192   0.072835
   68  C  9  X    0.000022   0.007026  -0.051038  -0.011221  -0.009629
   69  C  9  Y    0.000050  -0.009160   0.024754   0.022689  -0.055325
   70  C  9  Z   -0.000011  -0.000242   0.008292  -0.000867   0.010941
   71  C  9  S   -0.000605   0.060840  -0.189340  -0.107161   0.158122
   72  C  9  X   -0.000267   0.017387  -0.008431  -0.000993   0.000580
   73  C  9  Y    0.000212  -0.011538   0.004266   0.010466  -0.008304
   74  C  9  Z   -0.000045  -0.002224   0.001372  -0.001387   0.001115
   75  C 10  S   -0.000747  -0.007337   0.102422   0.018734   0.026747
   76  C 10  S   -0.000001   0.011517  -0.114049  -0.019803  -0.029050
   77  C 10  X   -0.000018   0.001970  -0.007844   0.021028  -0.065416
   78  C 10  Y   -0.000059  -0.008645   0.057603   0.010237   0.001962
   79  C 10  Z   -0.000030   0.000900  -0.007223  -0.006581   0.015313
   80  C 10  S    0.000043  -0.006673  -0.189336  -0.036751  -0.057326
   81  C 10  X   -0.000065   0.003903   0.001622   0.004290  -0.005414
   82  C 10  Y    0.000064   0.023970   0.009568   0.004866  -0.000292
   83  C 10  Z    0.000249  -0.004790  -0.001867  -0.001862   0.001305
   84  C 11  S   -0.000714  -0.014514   0.100383  -0.021406   0.091039
   85  C 11  S   -0.000041   0.014715  -0.110688   0.022277  -0.097293
   86  C 11  X    0.000178  -0.004558   0.047871   0.020018   0.008734
   87  C 11  Y   -0.000179  -0.014734   0.027776  -0.024953   0.028301
   88  C 11  Z    0.000157   0.003387  -0.015745  -0.000740  -0.006241
   89  C 11  S    0.001700   0.080544  -0.206328   0.039671  -0.223661
   90  C 11  X    0.000606  -0.001522   0.020537   0.012528   0.009832
   91  C 11  Y    0.000181  -0.030303   0.013959  -0.004481   0.010827
   92  C 11  Z   -0.000607   0.005330  -0.007246  -0.002143  -0.003947
   93  C 12  S   -0.000825  -0.054306   0.085583  -0.066368   0.081693
   94  C 12  S    0.000088   0.061153  -0.094257   0.071062  -0.087595
   95  C 12  X    0.000282  -0.017190   0.035693   0.056600  -0.001371
   96  C 12  Y    0.000173  -0.036523  -0.038090  -0.023724  -0.030032
   97  C 12  Z   -0.000080   0.009586  -0.002342  -0.009688   0.006321
   98  C 12  S    0.001417   0.071049  -0.163015   0.137594  -0.188823
   99  C 12  X   -0.003212   0.023468  -0.003690  -0.031257   0.012509
  100  C 12  Y   -0.002253  -0.086271   0.005711   0.001669   0.015123
  101  C 12  Z    0.000904   0.007321   0.000203   0.007898  -0.003274
  102  H 13  S   -0.000990   0.001273  -0.005889   0.050298   0.050318
  103  H 13  S    0.001505  -0.006897   0.000276  -0.004083  -0.000139
  104  H 14  S   -0.000986   0.004209  -0.004105   0.050055   0.053355
  105  H 14  S    0.001371  -0.000308   0.000052  -0.003871   0.003157
  106  H 15  S    0.000262   0.021902   0.014062   0.023793  -0.005095
  107  H 15  S    0.000547  -0.026339   0.002627   0.004607  -0.002155
  108  H 16  S    0.000159   0.077209   0.041750  -0.050295   0.022792
  109  H 16  S   -0.000079   0.026515   0.014114  -0.017309   0.007562
  110  H 17  S    0.000054   0.005762  -0.031469  -0.025925   0.052110
  111  H 17  S    0.000245  -0.022582  -0.000396   0.001135   0.009734
  112  H 18  S   -0.000005   0.002683  -0.036402  -0.019395   0.035044
  113  H 18  S   -0.000064  -0.000579   0.003541  -0.000108   0.006017
  114  H 19  S   -0.000008   0.000531  -0.036389  -0.007569  -0.013110
  115  H 19  S   -0.000013  -0.010040   0.003970  -0.001836  -0.002029
  116  H 20  S    0.000197   0.003449  -0.036521   0.012222  -0.045316
  117  H 20  S   -0.001426  -0.001046  -0.001855   0.002880  -0.006755
  118  H 21  S    0.000176   0.000604  -0.002241   0.028209   0.052280
  119  H 21  S    0.013647  -0.000715   0.001180  -0.007361   0.002922
  120  H 22  S    0.000100   0.001802  -0.003474   0.033116   0.051317
  121  H 22  S    0.014644   0.001458  -0.000379  -0.000528   0.000573

                     16         17         18         19         20
                   -0.9904    -0.9657    -0.8573    -0.8376    -0.8035
                     A          A          A          A          A   
    1  C  1  S   -0.037153   0.085462  -0.133357  -0.031993  -0.004713
    2  C  1  S    0.035531  -0.080193   0.119316   0.027733   0.003974
    3  C  1  X   -0.002480   0.001306   0.041579   0.012821  -0.003670
    4  C  1  Y   -0.003404   0.000651   0.029479   0.009368   0.011356
    5  C  1  Z   -0.006881   0.009969   0.058826   0.020858   0.005822
    6  C  1  S    0.100734  -0.245265   0.461504   0.115686   0.020009
    7  C  1  X   -0.000783   0.003395   0.004040  -0.000637  -0.003422
    8  C  1  Y   -0.000686   0.002487   0.003705   0.001665   0.007155
    9  C  1  Z   -0.002113   0.003912   0.011967   0.004078   0.001175
   10  H  2  S    0.019396  -0.044421   0.093754   0.024623   0.000606
   11  H  2  S    0.001746  -0.002868   0.029027   0.010074  -0.000128
   12  C  3  S   -0.028429   0.037807   0.106026   0.034996   0.012763
   13  C  3  S    0.026157  -0.035188  -0.094314  -0.029804  -0.011582
   14  C  3  X    0.015752  -0.044316   0.067892   0.014014  -0.017849
   15  C  3  Y    0.002980  -0.032727   0.038587   0.001459   0.033505
   16  C  3  Z    0.008058  -0.016796   0.071100   0.021085   0.004204
   17  C  3  S    0.088031  -0.112530  -0.372285  -0.128129  -0.045902
   18  C  3  X   -0.002102   0.000636   0.018030   0.005254  -0.009795
   19  C  3  Y   -0.004420  -0.012833   0.007646  -0.005366   0.016688
   20  C  3  Z    0.003065  -0.002339   0.015399   0.005545   0.001466
   21  C  4  S    0.026688  -0.078730   0.033737   0.021987  -0.008456
   22  C  4  S   -0.028178   0.081169  -0.033299  -0.023365   0.007063
   23  C  4  X    0.049803  -0.041122  -0.111286   0.010613  -0.042703
   24  C  4  Y   -0.026093  -0.096986  -0.042968  -0.053973   0.130406
   25  C  4  Z   -0.005947   0.019306   0.047232   0.009164  -0.008203
   26  C  4  S   -0.063139   0.198082  -0.087002  -0.050884   0.035176
   27  C  4  X   -0.007716  -0.005235  -0.046090   0.003907  -0.021119
   28  C  4  Y    0.008629   0.007860  -0.013615   0.004759   0.066284
   29  C  4  Z   -0.000238   0.001290   0.020722   0.000239  -0.003548
   30  C  5  S   -0.040106  -0.114529  -0.037632  -0.086833   0.054502
   31  C  5  S    0.041336   0.124925   0.040289   0.092907  -0.059959
   32  C  5  X   -0.039476   0.034577  -0.028545   0.010955  -0.068796
   33  C  5  Y   -0.042133   0.054520   0.023747  -0.079967  -0.021323
   34  C  5  Z    0.016246  -0.017443   0.007164   0.010197   0.020229
   35  C  5  S    0.097079   0.285021   0.089258   0.258248  -0.157698
   36  C  5  X    0.006377   0.013407   0.001814   0.023118  -0.029156
   37  C  5  Y   -0.004659   0.041683   0.014646  -0.028349   0.001412
   38  C  5  Z    0.000029  -0.011729   0.001885  -0.000165   0.006877
   39  N  6  S   -0.062997   0.042160   0.026998   0.006637  -0.038459
   40  N  6  S    0.057578  -0.036608  -0.026157  -0.004255   0.038500
   41  N  6  X    0.032260   0.098603   0.092981   0.064219  -0.020105
   42  N  6  Y   -0.090694  -0.025511   0.056466  -0.137159  -0.119537
   43  N  6  Z    0.005606  -0.020041  -0.029370   0.005150   0.022545
   44  N  6  S    0.219578  -0.165988  -0.096539  -0.041330   0.133954
   45  N  6  X    0.032507   0.081020   0.088078   0.058376  -0.014707
   46  N  6  Y   -0.073621  -0.025831   0.054807  -0.132396  -0.123521
   47  N  6  Z    0.002710  -0.015257  -0.028841   0.005582   0.021749
   48  C  7  S    0.107772   0.053891  -0.008951   0.039811   0.079487
   49  C  7  S   -0.119260  -0.055296   0.009128  -0.041170  -0.085680
   50  C  7  X    0.003904  -0.020954   0.082486  -0.123883   0.082235
   51  C  7  Y   -0.057682   0.034636   0.026747   0.089398   0.006523
   52  C  7  Z    0.008155  -0.000479  -0.022625   0.016066  -0.020388
   53  C  7  S   -0.235318  -0.149493   0.023444  -0.104992  -0.241185
   54  C  7  X   -0.012953  -0.023477   0.028191  -0.056758   0.050507
   55  C  7  Y   -0.039873  -0.028464   0.014972  -0.013442  -0.053349
   56  C  7  Z    0.009354   0.010170  -0.008953   0.015699  -0.003609
   57  C  8  S    0.067956  -0.046634   0.027712  -0.087294   0.015351
   58  C  8  S   -0.071918   0.049927  -0.028883   0.091396  -0.017890
   59  C  8  X   -0.052641  -0.036445  -0.001438  -0.009488  -0.100054
   60  C  8  Y    0.045885   0.071694   0.033349  -0.017659   0.131601
   61  C  8  Z    0.005339  -0.002660  -0.004623   0.005087   0.003099
   62  C  8  S   -0.172045   0.115214  -0.086597   0.270222  -0.027237
   63  C  8  X   -0.014716  -0.005993  -0.004909   0.007317  -0.022578
   64  C  8  Y    0.010377   0.037726   0.015017   0.019709   0.054795
   65  C  8  Z    0.001847  -0.004538  -0.000907  -0.004827  -0.003223
   66  C  9  S   -0.051863  -0.092341  -0.023102   0.048701  -0.089756
   67  C  9  S    0.055534   0.098248   0.024160  -0.050421   0.092223
   68  C  9  X    0.041714  -0.003082   0.007026  -0.032222  -0.075549
   69  C  9  Y    0.073362  -0.022601   0.024853  -0.128415  -0.028550
   70  C  9  Z   -0.021502   0.004201  -0.005530   0.027963   0.022351
   71  C  9  S    0.117140   0.220575   0.068661  -0.161830   0.280907
   72  C  9  X    0.006579   0.007423   0.006233  -0.010324  -0.026438
   73  C  9  Y    0.010675   0.002722   0.008467  -0.036966  -0.012149
   74  C  9  Z   -0.003278  -0.002257  -0.002694   0.008387   0.008153
   75  C 10  S   -0.126656  -0.009158  -0.009503   0.069111   0.075590
   76  C 10  S    0.134135   0.009839   0.009693  -0.071554  -0.077850
   77  C 10  X    0.011949  -0.078031  -0.039148   0.110149  -0.088183
   78  C 10  Y   -0.020454  -0.005594  -0.002853  -0.023196  -0.040228
   79  C 10  Z    0.000400   0.019327   0.010144  -0.022362   0.027384
   80  C 10  S    0.310907   0.027248   0.028821  -0.205436  -0.240195
   81  C 10  X    0.004722  -0.005296  -0.009211   0.038237  -0.034972
   82  C 10  Y   -0.017948  -0.001014  -0.002859  -0.010500  -0.008837
   83  C 10  Z    0.001714   0.001554   0.002176  -0.007548   0.009628
   84  C 11  S   -0.065591   0.074771   0.032865  -0.083576   0.002590
   85  C 11  S    0.072296  -0.080112  -0.034521   0.088974  -0.002755
   86  C 11  X   -0.061862  -0.003168  -0.017056   0.044051   0.101172
   87  C 11  Y    0.066444   0.027934  -0.005955  -0.031991  -0.134302
   88  C 11  Z    0.004337  -0.003944   0.006028  -0.005071  -0.002752
   89  C 11  S    0.130450  -0.192629  -0.097300   0.231184  -0.012477
   90  C 11  X   -0.000054   0.019808  -0.004338   0.013804   0.040231
   91  C 11  Y    0.019893   0.006063  -0.004484  -0.003693  -0.045855
   92  C 11  Z   -0.003147  -0.006111   0.003894  -0.002089  -0.002013
   93  C 12  S    0.073466   0.041821  -0.020076   0.003904  -0.086522
   94  C 12  S   -0.077760  -0.044804   0.020445  -0.004251   0.088780
   95  C 12  X    0.030329   0.049021  -0.040231   0.001495   0.083456
   96  C 12  Y    0.074083  -0.068803  -0.061433   0.137142   0.046320
   97  C 12  Z   -0.018175  -0.001962   0.022503  -0.020687  -0.027269
   98  C 12  S   -0.171698  -0.084908   0.060315  -0.005094   0.270659
   99  C 12  X   -0.012181  -0.029052  -0.014461  -0.027112   0.005473
  100  C 12  Y    0.041760  -0.022404  -0.031076   0.079111   0.031508
  101  C 12  Z   -0.002504   0.008689   0.011578  -0.004667  -0.006251
  102  H 13  S    0.013846  -0.024895  -0.078236  -0.027857   0.002663
  103  H 13  S    0.001876  -0.004834  -0.025259  -0.006621   0.004969
  104  H 14  S    0.016595  -0.016738  -0.074923  -0.021483  -0.028504
  105  H 14  S    0.001152  -0.002263  -0.024158  -0.006524  -0.016101
  106  H 15  S    0.032028   0.066682   0.013172   0.104730  -0.052755
  107  H 15  S    0.011902   0.024586   0.000736   0.049802  -0.019953
  108  H 16  S    0.064666  -0.046417  -0.074789   0.032876   0.092911
  109  H 16  S    0.021064  -0.017383  -0.030328   0.012652   0.045000
  110  H 17  S   -0.034599   0.026729  -0.028365   0.074552  -0.007089
  111  H 17  S   -0.005657   0.010014  -0.014885   0.040109   0.005026
  112  H 18  S    0.029357   0.055554   0.018289  -0.047305   0.096032
  113  H 18  S    0.006691   0.016311   0.008414  -0.020973   0.049105
  114  H 19  S    0.069228   0.006152   0.006705  -0.064911  -0.073222
  115  H 19  S    0.018084   0.001330   0.003276  -0.028590  -0.036804
  116  H 20  S    0.035592  -0.042971  -0.032627   0.069445   0.000825
  117  H 20  S    0.003724  -0.017129  -0.012621   0.028667  -0.000099
  118  H 21  S    0.019841  -0.048313   0.096729   0.024163   0.002012
  119  H 21  S    0.002965  -0.009739   0.034581   0.009964   0.000051
  120  H 22  S    0.018761  -0.047024   0.092529   0.024402   0.011178
  121  H 22  S    0.001485  -0.006140   0.027274   0.009608   0.005892

                     21         22         23         24         25
                   -0.7516    -0.7182    -0.6577    -0.6498    -0.6159
                     A          A          A          A          A   
    1  C  1  S   -0.024319   0.014498  -0.002721   0.002320   0.000827
    2  C  1  S    0.022195  -0.013045   0.002002  -0.003058  -0.000077
    3  C  1  X   -0.000403   0.004179   0.007284  -0.002346  -0.107210
    4  C  1  Y    0.022098  -0.006341  -0.031567   0.038104   0.116692
    5  C  1  Z    0.054310  -0.049897   0.035857  -0.029482   0.008674
    6  C  1  S    0.099456  -0.063852   0.012452  -0.009117  -0.003653
    7  C  1  X   -0.000526   0.004210   0.003626  -0.005157  -0.079172
    8  C  1  Y    0.011305  -0.003855  -0.023148   0.027193   0.089858
    9  C  1  Z    0.025995  -0.027961   0.021074  -0.022068   0.007446
   10  H  2  S    0.030658  -0.029148   0.032577  -0.032496  -0.052488
   11  H  2  S    0.016034  -0.018770   0.026096  -0.022497  -0.042325
   12  C  3  S    0.058358  -0.038410   0.011344  -0.004688   0.002787
   13  C  3  S   -0.050033   0.030978  -0.009255   0.003276  -0.000638
   14  C  3  X   -0.075415   0.075679  -0.008929   0.014448  -0.136754
   15  C  3  Y    0.006418   0.020841  -0.086965   0.076861   0.152134
   16  C  3  Z    0.057481  -0.056633   0.035468  -0.039772   0.014138
   17  C  3  S   -0.234406   0.169144  -0.038296   0.031197  -0.027126
   18  C  3  X   -0.036645   0.032944  -0.011779   0.000314  -0.096401
   19  C  3  Y    0.009390   0.014697  -0.066402   0.054283   0.132859
   20  C  3  Z    0.030435  -0.031879   0.029856  -0.028825   0.008425
   21  C  4  S   -0.088316   0.059364   0.007360   0.035221  -0.011922
   22  C  4  S    0.090936  -0.059430  -0.011176  -0.036863   0.011130
   23  C  4  X   -0.048529  -0.017578   0.091518  -0.029830   0.067036
   24  C  4  Y    0.011369  -0.008694  -0.111624   0.110389   0.082291
   25  C  4  Z    0.020115  -0.004670   0.002136  -0.018894  -0.016995
   26  C  4  S    0.271171  -0.188214   0.044759  -0.106946   0.054754
   27  C  4  X    0.002210  -0.043195   0.014310  -0.034533   0.053808
   28  C  4  Y   -0.000079  -0.007493  -0.075586   0.056933   0.053555
   29  C  4  Z    0.008104   0.002973   0.012548  -0.007467  -0.012046
   30  C  5  S    0.039680  -0.004136  -0.022446  -0.023350  -0.009383
   31  C  5  S   -0.040234   0.005218   0.025852   0.022118   0.008696
   32  C  5  X    0.050117  -0.131453   0.191818   0.003270  -0.054555
   33  C  5  Y    0.140048   0.030935  -0.037214  -0.187932  -0.046106
   34  C  5  Z   -0.029328   0.023467  -0.037098   0.021654   0.028152
   35  C  5  S   -0.121233  -0.031548   0.083767   0.085544   0.023657
   36  C  5  X   -0.010942  -0.031730   0.104362   0.025698  -0.022783
   37  C  5  Y    0.077775   0.010218  -0.069865  -0.143299  -0.039813
   38  C  5  Z   -0.006190   0.003219  -0.010915   0.010283   0.018386
   39  N  6  S   -0.007449  -0.006707   0.007699   0.021129  -0.006676
   40  N  6  S    0.009111   0.000977  -0.006708  -0.019749   0.001990
   41  N  6  X   -0.117313   0.171559  -0.161698   0.028650   0.076837
   42  N  6  Y    0.045557   0.194551   0.146794  -0.029557   0.083917
   43  N  6  Z    0.022978  -0.071787   0.020618  -0.006793  -0.020430
   44  N  6  S    0.025350   0.054734  -0.040211  -0.076819   0.050142
   45  N  6  X   -0.123999   0.187111  -0.167946   0.035802   0.094364
   46  N  6  Y    0.043752   0.202969   0.143795  -0.023596   0.104107
   47  N  6  Z    0.024509  -0.076553   0.022382  -0.009229  -0.027265
   48  C  7  S    0.027230   0.010711  -0.044668  -0.027354  -0.019381
   49  C  7  S   -0.030381  -0.012476   0.046954   0.027273   0.022902
   50  C  7  X   -0.077764   0.096704   0.006416  -0.027639  -0.116686
   51  C  7  Y   -0.135164  -0.105929  -0.125155   0.038188  -0.040135
   52  C  7  Z    0.040401  -0.008323   0.020052  -0.001986   0.041571
   53  C  7  S   -0.100856  -0.072581   0.138316   0.105886   0.038209
   54  C  7  X   -0.026696   0.034079   0.054637  -0.035558  -0.119963
   55  C  7  Y   -0.050514  -0.049191  -0.062621   0.031308  -0.014716
   56  C  7  Z    0.014899  -0.001664  -0.001719   0.001440   0.037298
   57  C  8  S   -0.044078  -0.017631   0.052626  -0.005274   0.006591
   58  C  8  S    0.042480   0.014978  -0.056035   0.004089  -0.002523
   59  C  8  X   -0.089859  -0.129243   0.031416  -0.019988   0.161825
   60  C  8  Y   -0.070409   0.052571  -0.000997  -0.168279   0.030512
   61  C  8  Z    0.032486   0.021786  -0.006424   0.029987  -0.039636
   62  C  8  S    0.155819   0.070783  -0.148026   0.010339  -0.060994
   63  C  8  X   -0.046600  -0.067423   0.047345  -0.045070   0.102303
   64  C  8  Y   -0.059047   0.029575  -0.013834  -0.103865   0.058731
   65  C  8  Z    0.020340   0.010996  -0.008243   0.026077  -0.030706
   66  C  9  S    0.015959  -0.019506  -0.051163   0.016035  -0.020564
   67  C  9  S   -0.018732   0.019956   0.053004  -0.021469   0.024852
   68  C  9  X   -0.055961  -0.108823  -0.096642  -0.098562   0.109913
   69  C  9  Y   -0.008274  -0.068005   0.096207   0.158342   0.005034
   70  C  9  Z    0.014642   0.036261   0.008097  -0.002185  -0.024884
   71  C  9  S   -0.037843   0.061904   0.180824  -0.022947   0.040125
   72  C  9  X   -0.035320  -0.068388  -0.100994  -0.062205   0.069721
   73  C  9  Y   -0.006037  -0.020790   0.060697   0.092312   0.014168
   74  C  9  Z    0.009479   0.019212   0.014499  -0.000222  -0.017146
   75  C 10  S   -0.020497   0.034138   0.047991  -0.018630   0.011522
   76  C 10  S    0.020265  -0.036906  -0.051376   0.014839  -0.011304
   77  C 10  X    0.052107   0.075849  -0.056545  -0.112055  -0.077055
   78  C 10  Y    0.079496   0.015553  -0.039608   0.201476  -0.070737
   79  C 10  Z   -0.024681  -0.020967   0.020307  -0.005970   0.032004
   80  C 10  S    0.062351  -0.101925  -0.141728   0.088968  -0.033500
   81  C 10  X    0.016248   0.040591  -0.035823  -0.063459  -0.031409
   82  C 10  Y    0.056939   0.003717  -0.057242   0.145800  -0.063481
   83  C 10  Z   -0.013050  -0.010250   0.018111  -0.008519   0.019176
   84  C 11  S   -0.028307  -0.053497  -0.041377   0.027611  -0.005235
   85  C 11  S    0.024629   0.054514   0.046355  -0.031239   0.004895
   86  C 11  X    0.051193   0.057784   0.105395   0.120113   0.093296
   87  C 11  Y    0.113624   0.070415  -0.049759  -0.036629   0.026045
   88  C 11  Z   -0.029298  -0.026228  -0.015850  -0.024297  -0.021695
   89  C 11  S    0.131359   0.179646   0.088326  -0.080520   0.032268
   90  C 11  X    0.023059   0.051017   0.081716   0.073008   0.091845
   91  C 11  Y    0.043806   0.041018   0.023539  -0.014770   0.017827
   92  C 11  Z   -0.010835  -0.020298  -0.022367  -0.016155  -0.019768
   93  C 12  S    0.032291   0.029817   0.018274  -0.048790   0.045111
   94  C 12  S   -0.033855  -0.031565  -0.016590   0.048396  -0.046959
   95  C 12  X    0.167407  -0.012252  -0.050010   0.027630   0.085009
   96  C 12  Y   -0.045267   0.011472   0.112123  -0.013020   0.039006
   97  C 12  Z   -0.030164  -0.002205  -0.001951  -0.008540  -0.017220
   98  C 12  S   -0.116374  -0.084657  -0.083611   0.169211  -0.116692
   99  C 12  X    0.104362  -0.016447  -0.041440   0.018583   0.039668
  100  C 12  Y   -0.050985  -0.003121   0.153294  -0.014505  -0.002688
  101  C 12  Z   -0.015130   0.002205  -0.010509  -0.005375  -0.001091
  102  H 13  S   -0.059256   0.059179  -0.060005   0.054848   0.060662
  103  H 13  S   -0.029188   0.037134  -0.037524   0.041823   0.046832
  104  H 14  S   -0.073993   0.048126   0.027273  -0.021883  -0.130861
  105  H 14  S   -0.038404   0.027881   0.026387  -0.014453  -0.103515
  106  H 15  S   -0.086284  -0.049279   0.101323   0.127275   0.015694
  107  H 15  S   -0.046098  -0.043497   0.057897   0.081539   0.001169
  108  H 16  S    0.029597  -0.161081  -0.018444  -0.017115  -0.077828
  109  H 16  S    0.016137  -0.091151  -0.017325  -0.009832  -0.060004
  110  H 17  S    0.098205   0.058295  -0.067513   0.076389  -0.108234
  111  H 17  S    0.056746   0.035977  -0.039462   0.049328  -0.083807
  112  H 18  S    0.011977   0.055706   0.126053   0.080809  -0.042191
  113  H 18  S    0.007925   0.030591   0.074080   0.063918  -0.038784
  114  H 19  S    0.055873  -0.023856  -0.065193   0.145760  -0.052929
  115  H 19  S    0.028694  -0.010286  -0.032488   0.101423  -0.035562
  116  H 20  S    0.080598   0.096774   0.074701   0.023807   0.069689
  117  H 20  S    0.050984   0.053587   0.033794   0.022484   0.051062
  118  H 21  S    0.012225  -0.001741  -0.005362   0.007745  -0.046915
  119  H 21  S    0.001390   0.002745  -0.004207   0.008215  -0.040458
  120  H 22  S    0.038288  -0.023761  -0.008051   0.012987   0.098913
  121  H 22  S    0.022868  -0.011121  -0.003134   0.010118   0.079612

                     26         27         28         29         30
                   -0.5981    -0.5916    -0.5847    -0.5724    -0.5460
                     A          A          A          A          A   
    1  C  1  S   -0.002496   0.005325  -0.001081   0.003382  -0.001265
    2  C  1  S    0.001296  -0.003216   0.001295  -0.004046   0.001534
    3  C  1  X    0.104725  -0.115091  -0.065232   0.080862  -0.116306
    4  C  1  Y    0.063643  -0.103892   0.118998   0.079443   0.119525
    5  C  1  Z   -0.049565   0.044160  -0.015704  -0.117853  -0.001406
    6  C  1  S    0.013847  -0.030300   0.004253  -0.014735   0.003820
    7  C  1  X    0.079048  -0.086865  -0.051642   0.059409  -0.096425
    8  C  1  Y    0.047831  -0.078577   0.096435   0.062020   0.103442
    9  C  1  Z   -0.045388   0.040875  -0.011955  -0.097484   0.003084
   10  H  2  S   -0.047842   0.061713  -0.064378  -0.096573  -0.062037
   11  H  2  S   -0.038375   0.052377  -0.052940  -0.078402  -0.059869
   12  C  3  S    0.009002  -0.013566  -0.001094   0.003193  -0.007839
   13  C  3  S   -0.008976   0.012952   0.001501  -0.004763   0.007394
   14  C  3  X    0.069550  -0.029286  -0.069736   0.095062  -0.030187
   15  C  3  Y    0.031767  -0.055214   0.112848   0.068699   0.033369
   16  C  3  Z   -0.103705   0.119643  -0.015252  -0.055906   0.008031
   17  C  3  S   -0.027225   0.031232   0.000484   0.009430   0.018665
   18  C  3  X    0.044875  -0.009725  -0.053497   0.059618  -0.016612
   19  C  3  Y    0.023499  -0.046092   0.093897   0.053903   0.038719
   20  C  3  Z   -0.079510   0.094361  -0.013976  -0.051703   0.003218
   21  C  4  S   -0.006654   0.005278   0.002725   0.000609  -0.002951
   22  C  4  S    0.007935  -0.003369  -0.004836  -0.001056   0.006190
   23  C  4  X   -0.116268   0.079593   0.033924  -0.081716   0.056553
   24  C  4  Y   -0.066019   0.066683   0.032609  -0.064379  -0.174754
   25  C  4  Z   -0.026266   0.066693  -0.015563   0.105974   0.013314
   26  C  4  S    0.006957  -0.042480   0.009595   0.006648  -0.023047
   27  C  4  X   -0.073869   0.088185   0.020419  -0.077658   0.070529
   28  C  4  Y   -0.037438   0.059752   0.011758  -0.047842  -0.103138
   29  C  4  Z   -0.025994   0.044714  -0.008203   0.095679  -0.001801
   30  C  5  S   -0.002160   0.016467   0.001417  -0.014187  -0.010983
[...]
   10             0.054171   0.144528   0.180050   0.038688   0.024435
   11             0.302118   0.143440   0.219282   0.033729   0.042227
   12             0.132686   0.160084   0.091997   0.122505   0.190520
   13             0.036468   0.050687   0.028110   0.030006   0.002358
   14             0.004721   0.000176   0.055545   0.000155   0.008447
   15             0.000422   0.000260   0.118072   0.000977   0.135930
   16             0.048344   0.002221   0.006386   0.005913   0.008972
   17             0.138423   0.044442   0.010403   0.001222   0.000730
   18             0.003338   0.007677   0.001816   0.000173   0.171442
   19             0.007591   0.043236   0.004071   0.008487   0.000084
   20             0.150498   0.044696   0.036668   0.000031   0.010237
   21             0.072487   0.100643   0.002315   0.070440   0.026232
   22             0.000484   0.000960   0.058493   0.001016   0.101043

                     31         32         33         34         35

                  2.000000   2.000000   2.000000   2.000000   2.000000

    1             0.583322   0.231582   0.413313   0.332696   0.030544
    2             0.035333   0.033881   0.108001   0.200308   0.001335
    3             0.605600   0.058525   0.242945   0.388735   0.072763
    4             0.186206   0.107311   0.083798   0.121800   0.086701
    5             0.010867   0.055547   0.001137   0.066781   0.099410
    6             0.091482   0.035116   0.035417   0.037251   0.251494
    7             0.038971   0.068698   0.030767   0.027533   0.083680
    8             0.049026   0.120101   0.094234   0.036838   0.178909
    9             0.049058   0.221585   0.103595   0.043669   0.281773
   10             0.075606   0.266278   0.156592   0.060359   0.322531
   11             0.034080   0.191430   0.094096   0.071103   0.259573
   12             0.030742   0.103617   0.096808   0.074188   0.178904
   13             0.016418   0.005091   0.066598   0.233908   0.005161
   14             0.013645   0.039600   0.058608   0.079418   0.041305
   15             0.002299   0.002241   0.001864   0.001384   0.002943
   16             0.009314   0.001319   0.011583   0.000299   0.002248
   17             0.012189   0.001927   0.047740   0.023186   0.028980
   18             0.000820   0.148718   0.002127   0.000314   0.010792
   19             0.038822   0.131508   0.084125   0.036260   0.000320
   20             0.018383   0.004442   0.055625   0.030040   0.028714
   21             0.077619   0.040997   0.126489   0.074752   0.015862
   22             0.020197   0.130486   0.084538   0.059179   0.016059

                     36         37         38         39

                  2.000000   2.000000   2.000000   2.000000

    1             0.106729   0.052197   0.001032   0.029718
    2             0.011078   0.004247   0.000053   0.001586
    3             0.189812   0.035738   0.000624   0.007129
    4             0.150795   0.369381   0.016640   0.446883
    5             0.055995   0.120295   0.134873   0.389142
    6             0.114970   0.127537   0.207503   0.193076
    7             0.129685   0.088907   0.406317   0.057240
    8             0.138987   0.370550   0.147185   0.220990
    9             0.175596   0.173208   0.139512   0.263118
   10             0.196389   0.011465   0.559101   0.017272
   11             0.156303   0.264151   0.056194   0.302208
   12             0.205101   0.349746   0.330187   0.051366
   13             0.015317   0.019048   0.000313   0.012797
   14             0.136031   0.002422   0.000086   0.002384
   15             0.006094   0.000000   0.000000   0.000011
   16             0.004346   0.000001   0.000000   0.000001
   17             0.045489   0.000000   0.000000   0.000000
   18             0.018321   0.000001   0.000000   0.000000
   19             0.000046  -0.000000   0.000000  -0.000000
   20             0.044111   0.000006   0.000000   0.000008
   21             0.023293   0.009815   0.000305   0.004893
   22             0.075515   0.001285   0.000076   0.000178

               ----- POPULATIONS IN EACH AO -----
                             MULLIKEN      LOWDIN
              1  C  1  S      1.98824     1.97652
              2  C  1  S      0.35199     0.41613
              3  C  1  X      0.53541     0.50620
              4  C  1  Y      0.54107     0.51055
              5  C  1  Z      0.52668     0.50061
              6  C  1  S      1.11872     0.58554
              7  C  1  X      0.50313     0.58199
              8  C  1  Y      0.53856     0.59916
              9  C  1  Z      0.45868     0.57429
             10  H  2  S      0.46705     0.46973
             11  H  2  S      0.33101     0.44120
             12  C  3  S      1.98950     1.97599
             13  C  3  S      0.34235     0.40472
             14  C  3  X      0.52575     0.50721
             15  C  3  Y      0.54457     0.51615
             16  C  3  Z      0.53355     0.50777
             17  C  3  S      1.17088     0.55650
             18  C  3  X      0.33654     0.52564
             19  C  3  Y      0.54687     0.58159
             20  C  3  Z      0.47117     0.56678
             21  C  4  S      1.98854     1.97607
             22  C  4  S      0.38580     0.40643
             23  C  4  X      0.56999     0.56085
             24  C  4  Y      0.57695     0.55857
             25  C  4  Z      0.46013     0.45220
             26  C  4  S      0.81972     0.51300
             27  C  4  X      0.37421     0.50825
             28  C  4  Y      0.27756     0.49331
             29  C  4  Z      0.60871     0.62594
             30  C  5  S      1.98724     1.97636
             31  C  5  S      0.39919     0.41774
             32  C  5  X      0.49450     0.48226
             33  C  5  Y      0.62142     0.59210
             34  C  5  Z      0.44258     0.43566
             35  C  5  S      0.75203     0.53727
             36  C  5  X      0.19447     0.42441
             37  C  5  Y      0.41303     0.52282
             38  C  5  Z      0.57750     0.61711
             39  N  6  S      1.98869     1.97746
             40  N  6  S      0.34974     0.45924
             41  N  6  X      0.57922     0.56796
             42  N  6  Y      0.57774     0.56331
             43  N  6  Z      0.70589     0.71560
             44  N  6  S      1.41202     0.70051
             45  N  6  X      0.70306     0.67212
             46  N  6  Y      0.70566     0.65646
             47  N  6  Z      0.95758     0.91996
             48  C  7  S      1.98811     1.97583
             49  C  7  S      0.40140     0.41211
             50  C  7  X      0.63120     0.61156
             51  C  7  Y      0.52550     0.50827
             52  C  7  Z      0.44139     0.42702
             53  C  7  S      0.71359     0.48970
             54  C  7  X      0.25973     0.48751
             55  C  7  Y      0.06824     0.41922
             56  C  7  Z      0.54779     0.58670
             57  C  8  S      1.98826     1.97647
             58  C  8  S      0.39350     0.40849
             59  C  8  X      0.57092     0.54453
             60  C  8  Y      0.59993     0.57508
             61  C  8  Z      0.44241     0.43132
             62  C  8  S      0.86361     0.53083
             63  C  8  X      0.36791     0.52298
             64  C  8  Y      0.38096     0.51056
             65  C  8  Z      0.62558     0.63777
             66  C  9  S      1.98813     1.97675
             67  C  9  S      0.39556     0.41227
             68  C  9  X      0.57648     0.54935
             69  C  9  Y      0.59993     0.57465
             70  C  9  Z      0.41772     0.40547
             71  C  9  S      0.88455     0.53660
             72  C  9  X      0.47897     0.53897
             73  C  9  Y      0.30844     0.49675
             74  C  9  Z      0.58230     0.60750
             75  C 10  S      1.98808     1.97665
             76  C 10  S      0.39301     0.41039
             77  C 10  X      0.59636     0.57327
             78  C 10  Y      0.57387     0.54576
             79  C 10  Z      0.43304     0.42198
             80  C 10  S      0.87867     0.53597
             81  C 10  X      0.27614     0.49265
             82  C 10  Y      0.50166     0.54496
             83  C 10  Z      0.60759     0.62895
             84  C 11  S      1.98842     1.97669
             85  C 11  S      0.39671     0.41162
             86  C 11  X      0.58839     0.56162
             87  C 11  Y      0.59318     0.56835
             88  C 11  Z      0.41483     0.40172
             89  C 11  S      0.89391     0.53098
             90  C 11  X      0.44318     0.52832
             91  C 11  Y      0.32280     0.50153
             92  C 11  Z      0.58670     0.60471
             93  C 12  S      1.98861     1.97613
             94  C 12  S      0.39469     0.40855
             95  C 12  X      0.56588     0.55126
             96  C 12  Y      0.60939     0.59597
             97  C 12  Z      0.44609     0.43329
             98  C 12  S      0.79445     0.50002
             99  C 12  X      0.28567     0.49238
            100  C 12  Y      0.43322     0.49419
            101  C 12  Z      0.59606     0.61905
            102  H 13  S      0.46536     0.47687
            103  H 13  S      0.31660     0.43323
            104  H 14  S      0.46687     0.47752
            105  H 14  S      0.32070     0.43451
            106  H 15  S      0.47228     0.46622
            107  H 15  S      0.27206     0.42852
            108  H 16  S      0.43131     0.44171
            109  H 16  S      0.20599     0.33613
            110  H 17  S      0.47046     0.46933
            111  H 17  S      0.29778     0.43073
            112  H 18  S      0.47306     0.47253
            113  H 18  S      0.29315     0.42700
            114  H 19  S      0.47261     0.47246
            115  H 19  S      0.29784     0.42924
            116  H 20  S      0.47213     0.47112
            117  H 20  S      0.29150     0.42767
            118  H 21  S      0.46863     0.47090
            119  H 21  S      0.34136     0.44700
            120  H 22  S      0.46683     0.46891
            121  H 22  S      0.32590     0.43989

          ----- MULLIKEN ATOMIC OVERLAP POPULATIONS -----
          (OFF-DIAGONAL ELEMENTS NEED TO BE MULTIPLIED BY 2)

             1           2           3           4           5

    1    5.3711149
    2    0.3744429   0.5142386
    3    0.2653652  -0.0437143   5.3817982
    4   -0.1058860   0.0003547   0.2308935   5.3000846
    5   -0.0019033   0.0011958  -0.0389064   0.5862309   4.9582783
    6    0.0000019  -0.0000178   0.0019584  -0.0931742   0.2734785
    7    0.0001101  -0.0000024   0.0013650  -0.1081981  -0.1314445
    8    0.0000008   0.0000001  -0.0000561   0.0022723   0.0017955
    9   -0.0000002   0.0000000  -0.0000003   0.0006248  -0.0002457
   10    0.0000012  -0.0000002   0.0000295   0.0007340  -0.0000142
   11   -0.0007282  -0.0000202   0.0008510  -0.0164331   0.0005937
   12   -0.0002300   0.0000675  -0.0455502   0.3886780  -0.1343970
   13   -0.0464206   0.0029716   0.3936630  -0.0528337   0.0014681
   14   -0.0416357  -0.0016853   0.3957797  -0.0513517  -0.0025767
   15   -0.0000839   0.0000339   0.0003916  -0.0244724   0.3863439
   16    0.0000009   0.0000002  -0.0000375   0.0024487  -0.0181016
   17   -0.0000000   0.0000000   0.0000002  -0.0000952   0.0000636
   18    0.0000000  -0.0000000  -0.0000000  -0.0000007   0.0000010
   19    0.0000001   0.0000000   0.0000004  -0.0000317   0.0000008
   20    0.0000571   0.0000000   0.0000870  -0.0009635   0.0000336
   21    0.3708988  -0.0246888  -0.0400783   0.0050092   0.0000159
   22    0.3773774  -0.0251185  -0.0426634  -0.0022742   0.0000411

             6           7           8           9          10

    6    7.3678516
    7    0.2149386   4.9853450
    8   -0.0402635   0.4116400   5.1621959
    9    0.0025392  -0.1081793   0.4936483   5.1504473
   10   -0.0001156  -0.0081864  -0.1066565   0.4687673   5.1628280
   11    0.0042459  -0.0592066  -0.0049570  -0.1059278   0.5080949
   12   -0.0665857   0.4391128  -0.0573980  -0.0072619  -0.1170326
   13   -0.0000347   0.0001675  -0.0000006  -0.0000002  -0.0000150
   14    0.0000266  -0.0000656   0.0000004   0.0000000  -0.0000001
   15   -0.0272350   0.0028179  -0.0000073   0.0000003   0.0000009
   16    0.3448104  -0.0240628   0.0011600   0.0000401   0.0000030
   17   -0.0027778  -0.0439269   0.4009276  -0.0275644   0.0021029
   18   -0.0000138   0.0026117  -0.0335174   0.3964250  -0.0318868
   19   -0.0000003  -0.0000635   0.0023333  -0.0332003   0.3979090
   20   -0.0000300   0.0021819  -0.0000535   0.0019675  -0.0281450
   21   -0.0000000  -0.0000005  -0.0000000   0.0000000  -0.0000000
   22   -0.0000004  -0.0000061  -0.0000010   0.0000000   0.0000060

            11          12          13          14          15

   11    5.1029617
   12    0.4317975   5.3082270
   13    0.0004242  -0.0027686   0.5112465
   14   -0.0000276   0.0027567  -0.0243091   0.5083540
   15   -0.0000483   0.0018309  -0.0000156   0.0007285   0.4045728
   16   -0.0000803   0.0024200   0.0000008  -0.0000006  -0.0005260
   17   -0.0001761   0.0023066   0.0000000  -0.0000000   0.0000006
   18    0.0022276  -0.0000387  -0.0000000  -0.0000000  -0.0000000
   19   -0.0338407   0.0029254   0.0000003  -0.0000000  -0.0000000
   20    0.3976353  -0.0362089   0.0007100  -0.0000019  -0.0000001
   21    0.0000120  -0.0000153  -0.0007609  -0.0011607   0.0000023
   22    0.0007008   0.0014176  -0.0015273   0.0027463   0.0000016

            16          17          18          19          20

   16    0.3284896
   17    0.0007392   0.4381278
   18   -0.0000001  -0.0014554   0.4331200
   19   -0.0000000  -0.0000302  -0.0012296   0.4370016
   20    0.0000007   0.0000018  -0.0000325  -0.0013205   0.4272026
   21   -0.0000000   0.0000000   0.0000000  -0.0000000   0.0000034
   22    0.0000000  -0.0000000  -0.0000000  -0.0000006   0.0005061

            21          22

   21    0.5262941
   22   -0.0255415   0.5070677

          TOTAL MULLIKEN AND LOWDIN ATOMIC POPULATIONS
       ATOM         MULL.POP.    CHARGE          LOW.POP.     CHARGE
    1 C             6.562483   -0.562483         6.250989   -0.250989
    2 H             0.798058    0.201942         0.910934    0.089066
    3 C             6.461176   -0.461176         6.142342   -0.142342
    4 C             6.061616   -0.061616         6.094624   -0.094624
    5 C             5.881951    0.118049         6.005732   -0.005732
    6 N             7.979602   -0.979602         7.232623   -0.232623
    7 C             5.576948    0.423052         5.917928    0.082072
    8 C             6.233063   -0.233063         6.138046   -0.138046
    9 C             6.232080   -0.232080         6.098328   -0.098328
   10 C             6.248424   -0.248424         6.130589   -0.130589
   11 C             6.228099   -0.228099         6.085539   -0.085539
   12 C             6.114053   -0.114053         6.070845   -0.070845
   13 H             0.781966    0.218034         0.910097    0.089903
   14 H             0.787577    0.212423         0.912028    0.087972
   15 H             0.744337    0.255663         0.894744    0.105256
   16 H             0.637305    0.362695         0.777835    0.222165
   17 H             0.768244    0.231756         0.900066    0.099934
   18 H             0.766210    0.233790         0.899524    0.100476
   19 H             0.770454    0.229546         0.901699    0.098301
   20 H             0.763631    0.236369         0.898793    0.101207
   21 H             0.809990    0.190010         0.917896    0.082104
   22 H             0.792732    0.207268         0.908800    0.091200

          -------------------------------
          BOND ORDER AND VALENCE ANALYSIS     BOND ORDER THRESHOLD=0.050
          -------------------------------

                   BOND                       BOND                       BOND
  ATOM PAIR DIST  ORDER      ATOM PAIR DIST  ORDER      ATOM PAIR DIST  ORDER
    1   2  1.095  0.928        1   3  1.552  0.903        1  21  1.097  0.930
    1  22  1.095  0.925        3   4  1.506  0.918        3  13  1.098  0.919
    3  14  1.097  0.927        4   5  1.374  1.655        4   6  2.270  0.055
    4   7  2.320 -0.057        4  12  1.450  1.169        5   6  1.401  0.940
    5  15  1.078  0.925        6   7  1.385  0.811        6  16  1.011  0.851
    7   8  1.399  1.313        7  10  2.778  0.074        7  12  1.429  1.272
    8   9  1.391  1.471        8  11  2.847  0.102        8  17  1.084  0.938
    9  10  1.411  1.339        9  12  2.799  0.078        9  18  1.084  0.939
   10  11  1.391  1.476       10  19  1.084  0.941       11  12  1.404  1.329
   11  20  1.085  0.938

                       TOTAL       BONDED        FREE
      ATOM            VALENCE     VALENCE     VALENCE
    1 C                 3.657       3.657       0.000
    2 H                 0.918       0.918      -0.000
    3 C                 3.615       3.615      -0.000
    4 C                 3.700       3.700      -0.000
    5 C                 3.565       3.565      -0.000
    6 N                 2.746       2.746      -0.000
    7 C                 3.354       3.354      -0.000
    8 C                 3.770       3.770       0.000
    9 C                 3.764       3.764      -0.000
   10 C                 3.757       3.757       0.000
   11 C                 3.799       3.799      -0.000
   12 C                 3.742       3.742       0.000
   13 H                 0.906       0.906       0.000
   14 H                 0.910       0.910       0.000
   15 H                 0.912       0.912       0.000
   16 H                 0.854       0.854       0.000
   17 H                 0.919       0.919       0.000
   18 H                 0.919       0.919       0.000
   19 H                 0.921       0.921       0.000
   20 H                 0.920       0.920       0.000
   21 H                 0.922       0.922      -0.000
   22 H                 0.916       0.916       0.000

          ---------------------
          ELECTROSTATIC MOMENTS
          ---------------------

 POINT   1           X           Y           Z (BOHR)    CHARGE
                -2.497171   -0.396924   -0.159113       -0.00 (A.U.)
         DX          DY          DZ         /D/  (DEBYE)
    -0.175052   -1.890736    0.349949    1.930800
 ...... END OF PROPERTY EVALUATION ......
 CPU     0: STEP CPU TIME=     0.03 TOTAL CPU TIME=          2.4 (      0.0 MIN)
 TOTAL WALL CLOCK TIME=          3.4 SECONDS, CPU UTILIZATION IS    71.13%
               580000  WORDS OF DYNAMIC MEMORY USED
 EXECUTION OF GAMESS TERMINATED NORMALLY Sun May 17 17:32:35 2020
 DDI: 263640 bytes (0.3 MB / 0 MWords) used by master data server.
Note: The following floating-point exceptions are signalling:Note: The following floating-point exceptions are signalling: IEEE_DENORMAL IEEE_DENORMAL
Note: The following floating-point exceptions are signalling: IEEE_DENORMALNote: The following floating-point exceptions are signalling: IEEE_DENORMAL
 ----------------------------------------
 CPU timing information for all processes
 ========================================
 0: 2.311 + 0.87 = 2.399
 1: 2.300 + 0.31 = 2.332
 2: 2.225 + 0.20 = 2.246
 3: 2.255 + 0.32 = 2.287
 4: 2.189 + 0.24 = 2.213
 5: 2.135 + 0.16 = 2.151
 ----------------------------------------
Note: The following floating-point exceptions are signalling: IEEE_DENORMAL



Note: The following floating-point exceptions are signalling: IEEE_DENORMAL
 ddikick.x: exited gracefully.
unset echo
----- accounting info -----
Files used on the master node pietdev were:
-rwxr-xr-x 1 piet piet     1321 mei 17 17:32 /home/piet/scr/thryptophan_fukui_neu.F05*
-rw-r--r-- 1 piet piet 49152000 mei 17 17:32 /home/piet/scr/thryptophan_fukui_neu.F10
ls: No match.
ls: No match.
ls: No match.
zo 17 mei 2020 17:32:38 CEST
0.123u 0.029s 0:06.60 2.1%	0+0k 0+8io 0pf+0w
