----- GAMESS execution script 'rungms' -----
This job is running on host pietdev
under operating system Linux at zo 17 mei 2020 17:31:00 CEST
Available scratch disk space (Kbyte units) at beginning of the job is
Filesystem     1K-blocks     Used Available Use% Mounted on
/dev/sda2      244568380 30400304 201675020  14% /
GAMESS temporary binary files will be written to /home/piet/scr
GAMESS supplementary output files will be written to /home/piet/gamess/scr
Copying input file thryptophan_charge_geodisk.inp to your run's scratch directory...
cp thryptophan_charge_geodisk.inp /home/piet/scr/thryptophan_charge_geodisk.F05
unset echo
 
Assuming a single but multicore node.
 
/home/piet/gamess/ddikick.x /home/piet/gamess/gamess.03.x thryptophan_charge_geodisk -ddi 1 6 pietdev:cpus=6 -scr /home/piet/scr

 Distributed Data Interface kickoff program.
 Initiating 6 compute processes on 1 nodes to run the following command:
 /home/piet/gamess/gamess.03.x thryptophan_charge_geodisk 

          ******************************************************
          *         GAMESS VERSION = 30 SEP 2019 (R2)          *
          *             FROM IOWA STATE UNIVERSITY             *
          * M.W.SCHMIDT, K.K.BALDRIDGE, J.A.BOATZ, S.T.ELBERT, *
          *   M.S.GORDON, J.H.JENSEN, S.KOSEKI, N.MATSUNAGA,   *
          *          K.A.NGUYEN, S.J.SU, T.L.WINDUS,           *
          *       TOGETHER WITH M.DUPUIS, J.A.MONTGOMERY       *
          *         J.COMPUT.CHEM.  14, 1347-1363(1993)        *
          **************** 64 BIT LINUX VERSION ****************

  SINCE 1993, STUDENTS AND POSTDOCS WORKING AT IOWA STATE UNIVERSITY
  AND ALSO IN THEIR VARIOUS JOBS AFTER LEAVING ISU HAVE MADE IMPORTANT
  CONTRIBUTIONS TO THE CODE:
     IVANA ADAMOVIC, CHRISTINE AIKENS, YURI ALEXEEV, POOJA ARORA,
     ANDREY ASADCHEV, ROB BELL, PRADIPTA BANDYOPADHYAY, JONATHAN BENTZ,
     COLLEEN BERTONI, BRETT BODE, KURT BRORSEN, CALEB CARLIN, GALINA CHABAN,
     WEI CHEN, CHEOL HO CHOI, PAUL DAY, ALBERT DEFUSCO, NUWAN DESILVA,
     TIM DUDLEY, DMITRI FEDOROV, ALEX FINDLATER, GRAHAM FLETCHER, 
     MARK FREITAG, KURT GLAESEMANN, EMILIE B GUIDEZ, ANASTASIA GUNINA, 
     DAN KEMP, SAROM SOK LEANG, GRANT MERRILL,
     NORIYUKI MINEZAWA, JONATHAN MULLIN,
     TAKESHI NAGATA, SEAN NEDD, HEATHER NETZLOFF, BOSILJKA NJEGIC, RYAN OLSON,
     MIKE PAK, BUU PHAM, DAVID POOLE,
     SPENCER PRUITT, LUKE ROSKOP, TOSAPORN SATTASATHUCHANA,
     JIM SHOEMAKER, LYUDMILA SLIPCHENKO,
     TONY SMITH, JIE SONG, TETSUYA TAKETSUGU, SIMON WEBB,
     JORGE LUIS GALVEZ VALLEJO, PENG XU, SOOHAENG YOO,
     FEDERICO ZAHARIEV

  ADDITIONAL CODE HAS BEEN PROVIDED BY COLLABORATORS IN OTHER GROUPS:
     IOWA STATE UNIVERSITY:
          JOE IVANIC, AARON WEST, LAIMUTIS BYTAUTAS, KLAUS RUEDENBERG
     UNIVERSITY OF TOKYO: KIMIHIKO HIRAO, TAKAHITO NAKAJIMA,
          TAKAO TSUNEDA, MUNEAKI KAMIYA, SUSUMU YANAGISAWA,
          KIYOSHI YAGI, MAHITO CHIBA, SEIKEN TOKURA, NAOAKI KAWAKAMI
     UNIVERSITY OF AARHUS: FRANK JENSEN
     UNIVERSITY OF IOWA: VISVALDAS KAIRYS, HUI LI
     NATIONAL INST. OF STANDARDS AND TECHNOLOGY: WALT STEVENS, DAVID GARMER
     UNIVERSITY OF PISA: BENEDETTA MENNUCCI, JACOPO TOMASI
     UNIVERSITY OF MEMPHIS: HENRY KURTZ, PRAKASHAN KORAMBATH
     UNIVERSITY OF ALBERTA: TOBY ZENG, MARIUSZ KLOBUKOWSKI
     UNIVERSITY OF NEW ENGLAND: MARK SPACKMAN
     MIE UNIVERSITY: HIROAKI UMEDA
     NAT. INST. OF ADVANCED INDUSTRIAL SCIENCE AND TECHNOLOGY: KAZUO KITAURA
     MICHIGAN STATE UNIVERSITY:
          KAROL KOWALSKI, MARTA WLOCH, JEFFREY GOUR, JESSE LUTZ,
          WEI LI, JUN SHEN, J. EMILIANO DEUSTUA, PIOTR PIECUCH
     UNIVERSITY OF MINNESOTA:
          ANDREW SAND, PRACHI SHARMA, YINAN SHU
     UNIVERSITY OF SILESIA: MONIKA MUSIAL, STANISLAW KUCHARSKI
     FACULTES UNIVERSITAIRES NOTRE-DAME DE LA PAIX:
          OLIVIER QUINET, BENOIT CHAMPAGNE
     UNIVERSITY OF CALIFORNIA - SANTA BARBARA: BERNARD KIRTMAN
     INSTITUTE FOR MOLECULAR SCIENCE:
          KAZUYA ISHIMURA, MICHIO KATOUDA, AND SHIGERU NAGASE
     UNIVERSITY OF NOTRE DAME: ANNA POMOGAEVA, DAN CHIPMAN
     KYUSHU UNIVERSITY:
          HARUYUKI NAKANO,
          FENG LONG GU, JACEK KORCHOWIEC, MARCIN MAKOWSKI, AND YURIKO AOKI,
          HIROTOSHI MORI AND EISAKU MIYOSHI
     PENNSYLVANIA STATE UNIVERSITY:
          TZVETELIN IORDANOV, CHET SWALINA, JONATHAN SKONE,
          SHARON HAMMES-SCHIFFER
     WASEDA UNIVERSITY:
          MASATO KOBAYASHI, TOMOKO AKAMA, TSUGUKI TOUMA,
          TAKESHI YOSHIKAWA, YASUHIRO IKABATA, JUNJI SEINO,
          YUYA NAKAJIMA, HIROMI NAKAI
     NANJING UNIVERSITY: SHUHUA LI
     UNIVERSITY OF NEBRASKA:
          PEIFENG SU, DEJUN SI, NANDUN THELLAMUREGE, YALI WANG, HUI LI
     UNIVERSITY OF ZURICH: ROBERTO PEVERATI, KIM BALDRIDGE
     N. COPERNICUS UNIVERSITY AND JACKSON STATE UNIVERSITY:
          MARIA BARYSZ
     UNIVERSITY OF COPENHAGEN: Jimmy Kromann, CASPER STEINMANN
     TOKYO INSTITUTE OF TECHNOLOGY: HIROYA NAKATA
     NAGOYA UNIVERSITY: YOSHIO NISHIMOTO, STEPHAN IRLE
     MOSCOW STATE UNIVERSITY: VLADIMIR MIRONOV
     A.N.NESMEYANOV INSTITUTE OF ORGANOELEMENT COMPOUNDS OF RUSSIAN ACADEMY OF SCIENCES:
          IGOR S. GERASIMOV
     JOHANNES KEPLER UNIVERSITY LINZ:
          CHRISTIAN FRIEDL


 PARALLEL VERSION RUNNING ON        6 PROCESSORS IN        1 NODES.

 EXECUTION OF GAMESS BEGUN Sun May 17 17:31:01 2020

            ECHO OF THE FIRST FEW INPUT CARDS -
 INPUT CARD> $BASIS GBASIS=N21 NGAUSS=3 $END                                                
 INPUT CARD> $CONTRL SCFTYP=RHF DFTTYP=B3LYP MAXIT=60 MULT=1 ICHARG=0 $END                  
 INPUT CARD> $SYSTEM MEMDDI=1000 MWORDS=30 $END                                             
 INPUT CARD> $SCF DIRSCF=.TRUE. $END                                                        
 INPUT CARD> $ELPOT  IEPOT=1 WHERE=PDC $END                                                 
 INPUT CARD> $PDC PTSEL=GEODESIC CONSTR=CHARGE $END                                         
 INPUT CARD> $DATA                                                                          
 INPUT CARD>                                                                                
 INPUT CARD>C1                                                                              
 INPUT CARD>C 6.0000000 1.9870159569 0.0536626313 0.4406146753                              
 INPUT CARD>H 1.0000000 2.0516214836 -0.6809932576 1.2499277619                             
 INPUT CARD>C 6.0000000 1.2192081629 -0.5504010215 -0.7653993849                            
 INPUT CARD>C 6.0000000 -0.1959806840 -0.9217415638 -0.4065775510                           
 INPUT CARD>C 6.0000000 -0.6746874231 -2.1731996881 -0.1016978191                           
 INPUT CARD>N 7.0000000 -2.0358785611 -2.0958774280 0.2186783349                            
 INPUT CARD>C 6.0000000 -2.4513170937 -0.7779669865 0.1189171085                            
 INPUT CARD>C 6.0000000 -3.7016774601 -0.1849919583 0.3224227187                            
 INPUT CARD>C 6.0000000 -3.8111785467 1.1888567157 0.1326762089                             
 INPUT CARD>C 6.0000000 -2.6978043935 1.9641947508 -0.2545142617                            
 INPUT CARD>C 6.0000000 -1.4535474713 1.3775832631 -0.4575014809                            
 INPUT CARD>C 6.0000000 -1.3131633260 -0.0069387343 -0.2714636801                           
 INPUT CARD>H 1.0000000 1.2087783133 0.1760736238 -1.5890004622                             
 INPUT CARD>H 1.0000000 1.7531853460 -1.4377502747 -1.1284521678                            
 INPUT CARD>H 1.0000000 -0.1564309423 -3.1183845485 -0.0877566782                           
 INPUT CARD>H 1.0000000 -2.6209571965 -2.8807981818 0.4704074348                            
 INPUT CARD>H 1.0000000 -4.5624499655 -0.7747715193 0.6169918459                            
 INPUT CARD>H 1.0000000 -4.7701273760 1.6719096686 0.2826005369                             
 INPUT CARD>H 1.0000000 -2.8195371227 3.0321248592 -0.3956958476                            
 INPUT CARD>H 1.0000000 -0.6026100967 1.9791963542 -0.7578105601                            
 INPUT CARD>H 1.0000000 3.0021932996 0.3488769405 0.1497106808                              
 INPUT CARD>H 1.0000000 1.4623650969 0.9354263553 0.8236725872                              
 INPUT CARD> $END                                                                           
   30000000 WORDS OF MEMORY AVAILABLE

     BASIS OPTIONS
     -------------
     GBASIS=N21          IGAUSS=       3      POLAR=NONE    
     NDFUNC=       0     NFFUNC=       0     DIFFSP=       F
     NPFUNC=       0      DIFFS=       F     BASNAM=        


     RUN TITLE
     ---------
                                                                                 

 THE POINT GROUP OF THE MOLECULE IS C1      
 THE ORDER OF THE PRINCIPAL AXIS IS     0

 ATOM      ATOMIC                      COORDINATES (BOHR)
           CHARGE         X                   Y                   Z
 C           6.0     3.7549156918        0.1014076689        0.8326410025
 H           1.0     3.8770024345       -1.2868906564        2.3620209744
 C           6.0     2.3039693499       -1.0401071140       -1.4463951086
 C           6.0    -0.3703497916       -1.7418389871       -0.7683201641
 C           6.0    -1.2749743570       -4.1067519271       -0.1921810116
 N           7.0    -3.8472526248       -3.9606340428        0.4132421324
 C           6.0    -4.6323176161       -1.4701444320        0.2247207503
 C           6.0    -6.9951560945       -0.3495841111        0.6092905906
 C           6.0    -7.2020831435        2.2466134313        0.2507216799
 C           6.0    -5.0981110722        3.7117898655       -0.4809622146
 C           6.0    -2.7468064309        2.6032548925       -0.8645524379
 C           6.0    -2.4815188633       -0.0131123065       -0.5129919710
 H           1.0     2.2842597920        0.3327309026       -3.0027754679
 H           1.0     3.3130399096       -2.7169540580       -2.1324653874
 H           1.0    -0.2956116169       -5.8928923210       -0.1658360754
 H           1.0    -4.9528909269       -5.4439191895        0.8889411544
 H           1.0    -8.6217802675       -1.4641058746        1.1659455254
 H           1.0    -9.0142336672        3.1594511499        0.5340375787
 H           1.0    -5.3281525741        5.7298851444       -0.7477567264
 H           1.0    -1.1387679602        3.7401387853       -1.4320543092
 H           1.0     5.6733226984        0.6592818210        0.2829121641
 H           1.0     2.7634693271        1.7676994932        1.5565154934

          INTERNUCLEAR DISTANCES (ANGS.)
          ------------------------------

                1 C          2 H          3 C          4 C          5 C     

   1 C       0.0000000    1.0949342 *  1.5520604 *  2.5366557 *  3.5125039  
   2 H       1.0949342 *  0.0000000    2.1843786 *  2.8024427 *  3.3891492  
   3 C       1.5520604 *  2.1843786 *  0.0000000    1.5064549 *  2.5808556 *
   4 C       2.5366557 *  2.8024427 *  1.5064549 *  0.0000000    1.3741395 *
   5 C       3.5125039    3.3891492    2.5808556 *  1.3741395 *  0.0000000  
   6 N       4.5665587    4.4466874    3.7353040    2.2704106 *  1.4005217 *
   7 C       4.5270186    4.6438179    3.7824010    2.3202065 *  2.2697485 *
   8 C       5.6949239    5.8486521    5.0529196    3.6557012    3.6463018  
   9 C       5.9162954    6.2543596    5.3978095    4.2207908    4.6039039  
  10 C       5.1069442    5.6406925    4.6826470    3.8224172    4.6080785  
  11 C       3.7943188    4.4089978    3.3099165    2.6212520 *  3.6525715  
  12 C       3.3766716    3.7537659    2.6367080 *  1.4502472 *  2.2647645 *
  13 H       2.1771486 *  3.0829307    1.0982681 *  2.1393153 *  3.3583623  
  14 H       2.1773746 *  2.5136500 *  1.0974186 *  2.1416387 *  2.7367273 *
  15 H       3.8646377    3.5504607    2.9910069 *  2.2200116 *  1.0780346 *
  16 H       5.4630911    5.2230054    4.6588453    3.2384435    2.1484799 *
  17 H       6.6040076    6.6449487    5.9488586    4.4872429    4.1936635  
  18 H       6.9500128    7.2806684    6.4737245    5.3032831    5.6307353  
  19 H       5.7160830    6.3422007    5.4113433    4.7451266    5.6375721  
  20 H       3.4423925    4.2605830    3.1173614    2.9502801 *  4.2045299  
  21 H       1.0965225 *  1.7817680 *  2.1966254 *  3.4860070    4.4658178  
  22 H       1.0952165 *  1.7724923 *  2.1890541 *  2.7771746 *  3.8841807  

                6 N          7 C          8 C          9 C         10 C     

   1 C       4.5665587    4.5270186    5.6949239    5.9162954    5.1069442  
   2 H       4.4466874    4.6438179    5.8486521    6.2543596    5.6406925  
   3 C       3.7353040    3.7824010    5.0529196    5.3978095    4.6826470  
   4 C       2.2704106 *  2.3202065 *  3.6557012    4.2207908    3.8224172  
   5 C       1.4005217 *  2.2697485 *  3.6463018    4.6039039    4.6080785  
   6 N       0.0000000    1.3854347 *  2.5371504 *  3.7347777    4.1408022  
   7 C       1.3854347 *  0.0000000    1.3987262 *  2.3911938 *  2.7784272 *
   8 C       2.5371504 *  1.3987262 *  0.0000000    1.3912061 *  2.4412335 *
   9 C       3.7347777    2.3911938 *  1.3912061 *  0.0000000    1.4109102 *
  10 C       4.1408022    2.7784272 *  2.4412335 *  1.4109102 *  0.0000000  
  11 C       3.5862596    2.4442176 *  2.8467546 *  2.4376939 *  1.3905007 *
  12 C       2.2641160 *  1.4290821 *  2.4676717 *  2.7988097 *  2.4089179 *
  13 H       4.3539939    4.1501174    5.2817121    5.4027648    4.4988464  
  14 H       4.0749107    4.4349842    5.7818656    6.2810552    5.6699477  
  15 H       2.1614224 *  3.2843220    4.6197199    5.6531494    5.6849802  
  16 H       1.0108339 *  2.1387431 *  2.9081312 *  4.2535609    4.8995279  
  17 H       2.8788084 *  2.1690944 *  1.0842233 *  2.1575000 *  3.4261293  
  18 H       4.6557945    3.3772132    2.1427213 *  1.0841588 *  2.1606586 *
  19 H       5.2237902    3.8622807    3.4122876    2.1587420 *  1.0840783 *
  20 H       4.4287713    3.4334121    3.9312636    3.4223552    2.1548483 *
  21 H       5.6003347    5.5687971    6.7273121    6.8649758    5.9382340  
  22 H       4.6682469    4.3300468    5.3079115    5.3246564    4.4190340  

               11 C         12 C         13 H         14 H         15 H     

   1 C       3.7943188    3.3766716    2.1771486 *  2.1773746 *  3.8646377  
   2 H       4.4089978    3.7537659    3.0829307    2.5136500 *  3.5504607  
   3 C       3.3099165    2.6367080 *  1.0982681 *  1.0974186 *  2.9910069 *
   4 C       2.6212520 *  1.4502472 *  2.1393153 *  2.1416387 *  2.2200116 *
   5 C       3.6525715    2.2647645 *  3.3583623    2.7367273 *  1.0780346 *
   6 N       3.5862596    2.2641160 *  4.3539939    4.0749107    2.1614224 *
   7 C       2.4442176 *  1.4290821 *  4.1501174    4.4349842    3.2843220  
   8 C       2.8467546 *  2.4676717 *  5.2817121    5.7818656    4.6197199  
   9 C       2.4376939 *  2.7988097 *  5.4027648    6.2810552    5.6531494  
  10 C       1.3905007 *  2.4089179 *  4.4988464    5.6699477    5.6849802  
  11 C       0.0000000    1.4040010 *  3.1323943    4.3196543    4.6939268  
  12 C       1.4040010 *  0.0000000    2.8512429 *  3.4905795    3.3245862  
  13 H       3.1323943    2.8512429 *  0.0000000    1.7643444 *  3.8692356  
  14 H       4.3196543    3.4905795    1.7643444 *  0.0000000    2.7484929 *
  15 H       4.6939268    3.3245862    3.8692356    2.7484929 *  0.0000000  
  16 H       4.5119478    3.2434188    5.3153081    4.8756397    2.5380867 *
  17 H       3.9309594    3.4549651    6.2512066    6.5858458    5.0400591  
  18 H       3.4108769    3.8827979    6.4410969    7.3630607    6.6611019  
  19 H       2.1464519 *  3.3941867    5.0801899    6.4363426    6.7093761  
  20 H       1.0845360 *  2.1647521 *  2.6876116 *  4.1668539    5.1607537  
  21 H       4.6130867    4.3504362    2.5038600 *  2.5270057 *  4.6962964  
  22 H       3.2155024    3.1290467    2.5420295 *  3.0866381    4.4592137  

               16 H         17 H         18 H         19 H         20 H     

   1 C       5.4630911    6.6040076    6.9500128    5.7160830    3.4423925  
   2 H       5.2230054    6.6449487    7.2806684    6.3422007    4.2605830  
   3 C       4.6588453    5.9488586    6.4737245    5.4113433    3.1173614  
   4 C       3.2384435    4.4872429    5.3032831    4.7451266    2.9502801 *
   5 C       2.1484799 *  4.1936635    5.6307353    5.6375721    4.2045299  
   6 N       1.0108339 *  2.8788084 *  4.6557945    5.2237902    4.4287713  
   7 C       2.1387431 *  2.1690944 *  3.3772132    3.8622807    3.4334121  
   8 C       2.9081312 *  1.0842233 *  2.1427213 *  3.4122876    3.9312636  
   9 C       4.2535609    2.1575000 *  1.0841588 *  2.1587420 *  3.4223552  
  10 C       4.8995279    3.4261293    2.1606586 *  1.0840783 *  2.1548483 *
  11 C       4.5119478    3.9309594    3.4108769    2.1464519 *  1.0845360 *
  12 C       3.2434188    3.4549651    3.8827979    3.3941867    2.1647521 *
  13 H       5.3153081    6.2512066    6.4410969    5.0801899    2.6876116 *
  14 H       4.8756397    6.5858458    7.3630607    6.4363426    4.1668539  
  15 H       2.5380867 *  5.0400591    6.6611019    6.7093761    5.1607537  
  16 H       0.0000000    2.8681404 *  5.0379909    5.9793167    5.4038682  
  17 H       2.8681404 *  0.0000000    2.4781437 *  4.3076376    5.0154514  
  18 H       5.0379909    2.4781437 *  0.0000000    2.4728675 *  4.3064000  
  19 H       5.9793167    4.3076376    2.4728675 *  0.0000000    2.4808367 *
  20 H       5.4038682    5.0154514    4.3064000    2.4808367 *  0.0000000  
  21 H       6.4925703    7.6619035    7.8852422    6.4334930    4.0590816  
  22 H       5.6001685    6.2662501    6.2991372    4.9211473    2.8026179 *

               21 H         22 H     

   1 C       1.0965225 *  1.0952165 *
   2 H       1.7817680 *  1.7724923 *
   3 C       2.1966254 *  2.1890541 *
   4 C       3.4860070    2.7771746 *
   5 C       4.4658178    3.8841807  
   6 N       5.6003347    4.6682469  
   7 C       5.5687971    4.3300468  
   8 C       6.7273121    5.3079115  
   9 C       6.8649758    5.3246564  
  10 C       5.9382340    4.4190340  
  11 C       4.6130867    3.2155024  
  12 C       4.3504362    3.1290467  
  13 H       2.5038600 *  2.5420295 *
  14 H       2.5270057 *  3.0866381  
  15 H       4.6962964    4.4592137  
  16 H       6.4925703    5.6001685  
  17 H       7.6619035    6.2662501  
  18 H       7.8852422    6.2991372  
  19 H       6.4334930    4.9211473  
  20 H       4.0590816    2.8026179 *
  21 H       0.0000000    1.7802628 *
  22 H       1.7802628 *  0.0000000  

  * ... LESS THAN  3.000


     ATOMIC BASIS SET
     ----------------
 THE CONTRACTED PRIMITIVE FUNCTIONS HAVE BEEN UNNORMALIZED
 THE CONTRACTED BASIS FUNCTIONS ARE NOW NORMALIZED TO UNITY

  SHELL TYPE  PRIMITIVE        EXPONENT          CONTRACTION COEFFICIENT(S)

 C         

      1   S       1           172.2560000    0.061766907377
      1   S       2            25.9109000    0.358794042852
      1   S       3             5.5333500    0.700713083689

      2   L       4             3.6649800   -0.395895162119    0.236459946619
      2   L       5             0.7705450    1.215834355681    0.860618805716

      3   L       6             0.1958570    1.000000000000    1.000000000000

 H         

      4   S       7             5.4471780    0.156284978695
      4   S       8             0.8245472    0.904690876670

      5   S       9             0.1831916    1.000000000000

 C         

      6   S      10           172.2560000    0.061766907377
      6   S      11            25.9109000    0.358794042852
      6   S      12             5.5333500    0.700713083689

      7   L      13             3.6649800   -0.395895162119    0.236459946619
      7   L      14             0.7705450    1.215834355681    0.860618805716

      8   L      15             0.1958570    1.000000000000    1.000000000000

 C         

      9   S      16           172.2560000    0.061766907377
      9   S      17            25.9109000    0.358794042852
      9   S      18             5.5333500    0.700713083689

     10   L      19             3.6649800   -0.395895162119    0.236459946619
     10   L      20             0.7705450    1.215834355681    0.860618805716

     11   L      21             0.1958570    1.000000000000    1.000000000000

 C         

     12   S      22           172.2560000    0.061766907377
     12   S      23            25.9109000    0.358794042852
     12   S      24             5.5333500    0.700713083689

     13   L      25             3.6649800   -0.395895162119    0.236459946619
     13   L      26             0.7705450    1.215834355681    0.860618805716

     14   L      27             0.1958570    1.000000000000    1.000000000000

 N         

     15   S      28           242.7660000    0.059865700508
     15   S      29            36.4851000    0.352955002994
     15   S      30             7.8144900    0.706513005993

     16   L      31             5.4252200   -0.413300077430    0.237972016222
     16   L      32             1.1491500    1.224417266851    0.858953058551

     17   L      33             0.2832050    1.000000000000    1.000000000000

 C         

     18   S      34           172.2560000    0.061766907377
     18   S      35            25.9109000    0.358794042852
     18   S      36             5.5333500    0.700713083689

     19   L      37             3.6649800   -0.395895162119    0.236459946619
     19   L      38             0.7705450    1.215834355681    0.860618805716

     20   L      39             0.1958570    1.000000000000    1.000000000000

 C         

     21   S      40           172.2560000    0.061766907377
     21   S      41            25.9109000    0.358794042852
     21   S      42             5.5333500    0.700713083689

     22   L      43             3.6649800   -0.395895162119    0.236459946619
     22   L      44             0.7705450    1.215834355681    0.860618805716

     23   L      45             0.1958570    1.000000000000    1.000000000000

 C         

     24   S      46           172.2560000    0.061766907377
     24   S      47            25.9109000    0.358794042852
     24   S      48             5.5333500    0.700713083689

     25   L      49             3.6649800   -0.395895162119    0.236459946619
     25   L      50             0.7705450    1.215834355681    0.860618805716

     26   L      51             0.1958570    1.000000000000    1.000000000000

 C         

     27   S      52           172.2560000    0.061766907377
     27   S      53            25.9109000    0.358794042852
     27   S      54             5.5333500    0.700713083689

     28   L      55             3.6649800   -0.395895162119    0.236459946619
     28   L      56             0.7705450    1.215834355681    0.860618805716

     29   L      57             0.1958570    1.000000000000    1.000000000000

 C         

     30   S      58           172.2560000    0.061766907377
     30   S      59            25.9109000    0.358794042852
     30   S      60             5.5333500    0.700713083689

     31   L      61             3.6649800   -0.395895162119    0.236459946619
     31   L      62             0.7705450    1.215834355681    0.860618805716

     32   L      63             0.1958570    1.000000000000    1.000000000000

 C         

     33   S      64           172.2560000    0.061766907377
     33   S      65            25.9109000    0.358794042852
     33   S      66             5.5333500    0.700713083689

     34   L      67             3.6649800   -0.395895162119    0.236459946619
     34   L      68             0.7705450    1.215834355681    0.860618805716

     35   L      69             0.1958570    1.000000000000    1.000000000000

 H         

     36   S      70             5.4471780    0.156284978695
     36   S      71             0.8245472    0.904690876670

     37   S      72             0.1831916    1.000000000000

 H         

     38   S      73             5.4471780    0.156284978695
     38   S      74             0.8245472    0.904690876670

     39   S      75             0.1831916    1.000000000000

 H         

     40   S      76             5.4471780    0.156284978695
     40   S      77             0.8245472    0.904690876670

     41   S      78             0.1831916    1.000000000000

 H         

     42   S      79             5.4471780    0.156284978695
     42   S      80             0.8245472    0.904690876670

     43   S      81             0.1831916    1.000000000000

 H         

     44   S      82             5.4471780    0.156284978695
     44   S      83             0.8245472    0.904690876670

     45   S      84             0.1831916    1.000000000000

 H         

     46   S      85             5.4471780    0.156284978695
     46   S      86             0.8245472    0.904690876670

     47   S      87             0.1831916    1.000000000000

 H         

     48   S      88             5.4471780    0.156284978695
     48   S      89             0.8245472    0.904690876670

     49   S      90             0.1831916    1.000000000000

 H         

     50   S      91             5.4471780    0.156284978695
     50   S      92             0.8245472    0.904690876670

     51   S      93             0.1831916    1.000000000000

 H         

     52   S      94             5.4471780    0.156284978695
     52   S      95             0.8245472    0.904690876670

     53   S      96             0.1831916    1.000000000000

 H         

     54   S      97             5.4471780    0.156284978695
     54   S      98             0.8245472    0.904690876670

     55   S      99             0.1831916    1.000000000000

 TOTAL NUMBER OF BASIS SET SHELLS             =   55
 NUMBER OF CARTESIAN GAUSSIAN BASIS FUNCTIONS =  121
 NUMBER OF ELECTRONS                          =   78
 CHARGE OF MOLECULE                           =    0
 SPIN MULTIPLICITY                            =    1
 NUMBER OF OCCUPIED ORBITALS (ALPHA)          =   39
 NUMBER OF OCCUPIED ORBITALS (BETA )          =   39
 TOTAL NUMBER OF ATOMS                        =   22
 THE NUCLEAR REPULSION ENERGY IS      568.7015430225

 SELECTED MURRAY-HANDY-LAMING RADIAL GRID

 LEGACY BECKE'S FUZZY CELL METHOD

 SELECTED ORIGINAL BECKE'S PARTITION FUNCTION

     LEBEDEV GRID-BASED DFT OPTIONS
     ------------------------------
     DFTTYP=B3LYP   
     NRAD  =      96     NLEB  =     302
     NRAD0 =      24     NLEB0 =     110
     SWOFF =    5.00E-03 (PURE SCF -> DFT)
     SWITCH=    3.00E-04 (COARSE -> TIGHT GRID)
     THRESH=    0.00E+00 GTHRE=    1.00E+00

 GRIMME'S EMPIRICAL DISPERSION CORRECTION= F

     $CONTRL OPTIONS
     ---------------
 SCFTYP=RHF          RUNTYP=ENERGY       EXETYP=RUN     
 MPLEVL=       0     CITYP =NONE         CCTYP =NONE         VBTYP =NONE    
 DFTTYP=B3LYP        TDDFT =NONE    
 MULT  =       1     ICHARG=       0     NZVAR =       0     COORD =UNIQUE  
 PP    =NONE         RELWFN=NONE         LOCAL =NONE         NUMGRD=       F
 ISPHER=      -1     NOSYM =       0     MAXIT =      60     UNITS =ANGS    
 PLTORB=       F     MOLPLT=       F     AIMPAC=       F     FRIEND=        
 NPRINT=       7     IREST =       0     GEOM  =INPUT   
 NORMF =       0     NORMP =       0     ITOL  =      20     ICUT  =       9
 INTTYP=BEST         GRDTYP=BEST         QMTTOL= 1.0E-06

     $SYSTEM OPTIONS
     ---------------
  REPLICATED MEMORY=    30000000 WORDS (ON EVERY NODE).
 DISTRIBUTED MEMDDI=        1000 MILLION WORDS IN AGGREGATE,
 MEMDDI DISTRIBUTED OVER   6 PROCESSORS IS   166666666 WORDS/PROCESSOR.
 TOTAL MEMORY REQUESTED ON EACH PROCESSOR=   196666666 WORDS.
 TIMLIM=      525600.00 MINUTES, OR     365.0 DAYS.
 PARALL= T  BALTYP=  DLB     KDIAG=    0  COREFL= F
 MXSEQ2=     300 MXSEQ3=     150  mem10=         0

     INPUT FOR POTENTIAL-DERIVED CHARGES 
     -----------------------------------
     VDWSCL=    1.40   RMAX=    3.00   DELR=    0.80
     VDWINC=    0.20 PTDENS=    0.28
     LAYER =       4  NFREQ=      30 MAXPDC=   10000
     CONSTR=CHARGE    UNITS=ANGS      PTSEL=GEODESIC
     CENTER=  0.0000  0.0000  0.0000
     DPOLE =  0.0000  0.0000  0.0000
     QPOLE =  0.0000  0.0000  0.0000  0.0000  0.0000  0.0000


          ----------------
          PROPERTIES INPUT
          ----------------

     MOMENTS            FIELD           POTENTIAL          DENSITY
 IEMOM =       1   IEFLD =       0   IEPOT =       1   IEDEN =       0
 WHERE =COMASS     WHERE =NUCLEI     WHERE =PDC        WHERE =NUCLEI  
 OUTPUT=BOTH       OUTPUT=BOTH       OUTPUT=BOTH       OUTPUT=BOTH    
 IEMINT=       0   IEFINT=       0                     IEDINT=       0
                                                       MORB  =       0
          EXTRAPOLATION IN EFFECT
          DIIS IN EFFECT
 ORBITAL PRINTING OPTION: NPREO=     1   121     2     1

     -------------------------------
     INTEGRAL TRANSFORMATION OPTIONS
     -------------------------------
     NWORD  =            0
     CUTOFF = 1.0E-09     MPTRAN =       0
     DIRTRF =       T     AOINTS =DUP     

          ----------------------
          INTEGRAL INPUT OPTIONS
          ----------------------
 NOPK  =       1 NORDER=       0 SCHWRZ=       T

     ------------------------------------------
     THE POINT GROUP IS C1 , NAXIS= 0, ORDER= 1
     ------------------------------------------

     DIMENSIONS OF THE SYMMETRY SUBSPACES ARE
 A   =  121

 ..... DONE SETTING UP THE RUN .....
 CPU     0: STEP CPU TIME=     0.02 TOTAL CPU TIME=          0.0 (      0.0 MIN)
 TOTAL WALL CLOCK TIME=          0.0 SECONDS, CPU UTILIZATION IS    50.00%

          ********************
          1 ELECTRON INTEGRALS
          ********************
 ...... END OF ONE-ELECTRON INTEGRALS ......
 CPU     0: STEP CPU TIME=     0.01 TOTAL CPU TIME=          0.0 (      0.0 MIN)
 TOTAL WALL CLOCK TIME=          0.1 SECONDS, CPU UTILIZATION IS    60.00%

          -------------
          GUESS OPTIONS
          -------------
          GUESS =HUCKEL            NORB  =       0          NORDER=       0
          MIX   =       F          PRTMO =       F          PUNMO =       F
          TOLZ  = 1.0E-08          TOLE  = 1.0E-05
          SYMDEN=       F          PURIFY=       F

 INITIAL GUESS ORBITALS GENERATED BY HUCKEL   ROUTINE.
 HUCKEL GUESS REQUIRES    139953 WORDS.

 SYMMETRIES FOR INITIAL GUESS ORBITALS FOLLOW.   BOTH SET(S).
    39 ORBITALS ARE OCCUPIED (   11 CORE ORBITALS).
    12=A       13=A       14=A       15=A       16=A       17=A       18=A   
    19=A       20=A       21=A       22=A       23=A       24=A       25=A   
    26=A       27=A       28=A       29=A       30=A       31=A       32=A   
    33=A       34=A       35=A       36=A       37=A       38=A       39=A   
    40=A       41=A       42=A       43=A       44=A       45=A       46=A   
    47=A       48=A       49=A   
 ...... END OF INITIAL ORBITAL SELECTION ......
 CPU     0: STEP CPU TIME=     0.03 TOTAL CPU TIME=          0.1 (      0.0 MIN)
 TOTAL WALL CLOCK TIME=          0.1 SECONDS, CPU UTILIZATION IS    75.00%

                    ----------------------
                    AO INTEGRAL TECHNOLOGY
                    ----------------------
     S,P,L SHELL ROTATED AXIS INTEGRALS, REPROGRAMMED BY
        KAZUYA ISHIMURA (IMS) AND JOSE SIERRA (SYNSTAR).
     S,P,D,L SHELL ROTATED AXIS INTEGRALS PROGRAMMED BY
        KAZUYA ISHIMURA (INSTITUTE FOR MOLECULAR SCIENCE).
     S,P,D,F,G SHELL TO TOTAL QUARTET ANGULAR MOMENTUM SUM 5,
        ERIC PROGRAM BY GRAHAM FLETCHER (ELORET AND NASA ADVANCED
        SUPERCOMPUTING DIVISION, AMES RESEARCH CENTER).
     S,P,D,F,G,L SHELL GENERAL RYS QUADRATURE PROGRAMMED BY
        MICHEL DUPUIS (PACIFIC NORTHWEST NATIONAL LABORATORY).

          --------------------
          2 ELECTRON INTEGRALS
          --------------------

 DIRECT SCF METHOD SKIPS INTEGRAL STORAGE ON DISK.
 DIRECT TRANSFORMATION SKIPS AO INTEGRAL STORAGE ON DISK.
  ...... END OF TWO-ELECTRON INTEGRALS .....
 CPU     0: STEP CPU TIME=     0.02 TOTAL CPU TIME=          0.1 (      0.0 MIN)
 TOTAL WALL CLOCK TIME=          0.1 SECONDS, CPU UTILIZATION IS    88.89%

          --------------------------
             R-B3LYP SCF CALCULATION
          --------------------------

     NUCLEAR ENERGY =       568.7015430225
     MAXIT =   60     NPUNCH=    2
     EXTRAP=T  DAMP=F  SHIFT=F  RSTRCT=F  DIIS=T  DEM=F  SOSCF=F
         DENSITY MATRIX CONVERGENCE THRESHOLD=  2.00E-05
     COARSE -> FINE DFT GRID SWITCH THRESHOLD=  3.00E-04 (SWITCH IN $DFT)
                   HF -> DFT SWITCH THRESHOLD=  5.00E-03 (SWOFF IN $DFT)
     MEMORY REQUIRED FOR RHF ITERS=    872899 WORDS.

 DIRECT SCF CALCULATION, SCHWRZ=T   FDIFF=T,  DIRTHR=  0.00E+00 NITDIR=10
 SCHWARZ INEQUALITY OVERHEAD:      6986 INTEGRALS, T=        0.00

 DFT CODE IS SWITCHING FROM THE FINE GRID NRAD= 96,  NLEB=  302
                      TO THE COARSE GRID NRAD0= 24, NLEB0=  110

     EXCHANGE FUNCTIONAL   =B88&HFX   
     CORRELATION FUNCTIONAL=LYP88&VWN5
     DFT THRESHOLD         =.627E-08
     GRID CHANGE THRESHOLD =.300E-03
 FOR AN EULER-MACLAURIN QUADRATURE USING  96 RADIAL POINTS:
 SMALLEST GAUSSIAN PRIMITIVE EXPONENT=        0.1831915800 OF TYPE -S-
 ON ATOM NUMBER   2 HAS RADIAL NORMALIZATION=  1.000000
  LARGEST GAUSSIAN PRIMITIVE EXPONENT=      242.7660000000 OF TYPE -S-
 ON ATOM NUMBER   6 HAS RADIAL NORMALIZATION=  1.000000
 DFT IS SWITCHED OFF, PERFORMING PURE SCF UNTIL SWOFF THRESHOLD IS REACHED.

                                                                                   NONZERO     BLOCKS
 ITER EX DEM     TOTAL ENERGY        E CHANGE  DENSITY CHANGE    DIIS ERROR      INTEGRALS    SKIPPED
          * * *   INITIATING DIIS PROCEDURE   * * *
   1  0  0     -436.2289719138  -436.2289719138   0.769219724   0.493907960       17605122     601575
   2  1  0     -437.0471479319    -0.8181760181   0.128700914   0.076762310       17561512     617886
   3  2  0     -437.0804461787    -0.0332982468   0.062961854   0.032643290       17394311     648199
   4  3  0     -437.0915468847    -0.0111007060   0.021226482   0.006307325       17070962     682601
   5  4  0     -437.0920342108    -0.0004873261   0.003287436   0.002699073       16686950     705974
 CONVERGED TO SWOFF, SO DFT CALCULATION IS NOW SWITCHED ON.
          * * *   INITIATING DIIS PROCEDURE   * * *
   6  5  0     -439.6946094644    -2.6025752536   0.127559129   0.080499569       17611048     598372
   7  6  0     -439.7282915164    -0.0336820520   0.041081202   0.023528391       17488311     635188
   8  7  0     -439.7314337578    -0.0031422414   0.021221146   0.018795341       17232710     663479
   9  8  0     -439.7350251113    -0.0035913535   0.009794185   0.009856769       17031958     682385
  10  9  0     -439.7355186754    -0.0004935641   0.001882338   0.001268804       16462872     721750
  11 10  0     -439.7355278048    -0.0000091294   0.000582928   0.000555907       15495210     764225
  12 11  0     -439.7355295836    -0.0000017788   0.000145709   0.000129236       14733517     798774
 DFT CODE IS SWITCHING BACK TO THE FINE GRID
          * * *   INITIATING DIIS PROCEDURE   * * *
  13 12  0     -439.7361728058    -0.0006432222   0.002515062   0.002243450       17618329     595024
  14 13  0     -439.7361949062    -0.0000221004   0.000775075   0.000366661       16095765     734383
  15 14  0     -439.7361944515     0.0000004547   0.000668236   0.000554029       14857610     792600
  16 15  0     -439.7361958511    -0.0000013996   0.000121450   0.000126251       14536497     808062
  17 16  0     -439.7361959239    -0.0000000728   0.000049724   0.000034984       13692801     841478
  18 17  0     -439.7361959340    -0.0000000101   0.000011418   0.000005781       12754174     874482
  19 18  0     -439.7361959349    -0.0000000009   0.000003115   0.000002622       11428787     914496

          -----------------
          DENSITY CONVERGED
          -----------------
     TIME TO FORM FOCK OPERATORS=      23.5 SECONDS (       1.2 SEC/ITER)
     FOCK TIME ON FIRST ITERATION=       0.2, LAST ITERATION=       2.9
     TIME TO SOLVE SCF EQUATIONS=       0.3 SECONDS (       0.0 SEC/ITER)

 FINAL R-B3LYP ENERGY IS     -439.7361959349 AFTER  19 ITERATIONS
 DFT EXCHANGE + CORRELATION ENERGY =       -52.3915373721
 TOTAL ELECTRON NUMBER             =        78.0001975804

          ------------
          EIGENVECTORS
          ------------

                      1          2          3          4          5
                  -14.2914   -10.1527   -10.1492   -10.1185   -10.1160
                     A          A          A          A          A   
    1  C  1  S    0.000022   0.000285   0.000758  -0.000051  -0.017858
    2  C  1  S    0.000173   0.000233   0.000420   0.000008  -0.004502
    3  C  1  X   -0.000074   0.000007  -0.000030   0.000026  -0.000595
    4  C  1  Y   -0.000201  -0.000106  -0.000039   0.000015  -0.000319
    5  C  1  Z   -0.000022   0.000058   0.000068   0.000034  -0.000359
    6  C  1  S    0.000048  -0.000769  -0.001448  -0.000274   0.025305
    7  C  1  X    0.000013   0.000320   0.000535   0.000090  -0.007031
    8  C  1  Y    0.001406   0.001026   0.000133   0.000108  -0.005201
    9  C  1  Z   -0.000608  -0.000445  -0.000106   0.000016  -0.010099
   10  H  2  S    0.000179   0.000190  -0.000028   0.000031  -0.001490
   11  H  2  S    0.000663   0.000562   0.000514   0.000033   0.000415
   12  C  3  S    0.000060  -0.002027  -0.002855  -0.004357   0.984367
   13  C  3  S    0.000149  -0.000816  -0.000777  -0.000800   0.116262
   14  C  3  X    0.000542   0.000435   0.000486  -0.000148   0.000109
   15  C  3  Y    0.000522   0.000066   0.000468   0.000011   0.000118
   16  C  3  Z   -0.000284  -0.000199  -0.000297   0.000027   0.000157
   17  C  3  S   -0.006709  -0.000820   0.001926   0.003235  -0.115833
   18  C  3  X    0.003030   0.000710  -0.001824  -0.001218   0.009615
   19  C  3  Y   -0.002530  -0.002485   0.001591  -0.000524   0.001219
   20  C  3  Z    0.000523   0.001011   0.001090   0.000355  -0.008070
   21  C  4  S    0.000172  -0.000817  -0.015409  -0.004836  -0.066842
   22  C  4  S    0.000718  -0.000480  -0.005733  -0.000944  -0.008480
   23  C  4  X   -0.000875  -0.000039   0.000353   0.000442  -0.001626
   24  C  4  Y    0.000974   0.000033   0.002841   0.000074  -0.000296
   25  C  4  Z    0.000036  -0.000031  -0.000525  -0.000128   0.000542
   26  C  4  S   -0.005907  -0.000122   0.035768  -0.003513   0.019483
   27  C  4  X    0.010614   0.000173  -0.009636  -0.002624   0.033476
   28  C  4  Y    0.010447   0.015519  -0.018878  -0.001603   0.006504
   29  C  4  Z   -0.004092  -0.002341   0.005035   0.000841  -0.007601
   30  C  5  S   -0.000417  -0.029305   0.985103   0.002214   0.001697
   31  C  5  S   -0.001441  -0.005122   0.107326  -0.000574  -0.000203
   32  C  5  X   -0.001882   0.000003  -0.001828   0.000257  -0.000544
   33  C  5  Y   -0.000209  -0.000887   0.001109  -0.000271   0.000085
   34  C  5  Z    0.000499   0.000155   0.000275  -0.000023  -0.000011
   35  C  5  S    0.029950   0.015777  -0.077547   0.000482   0.007324
   36  C  5  X   -0.015052  -0.001303  -0.001301  -0.001208  -0.004152
   37  C  5  Y    0.016098   0.014920  -0.018102   0.002108   0.006214
   38  C  5  Z    0.001207  -0.001986   0.003103  -0.000020   0.000120
   39  N  6  S    0.985602   0.000565   0.000354  -0.000018   0.000009
   40  N  6  S    0.114920   0.002662   0.001197  -0.000406  -0.000098
   41  N  6  X    0.001066   0.000369   0.000581   0.000020  -0.000086
   42  N  6  Y    0.002316   0.000541   0.000396  -0.000056  -0.000136
   43  N  6  Z   -0.000635  -0.000165  -0.000194   0.000000   0.000082
   44  N  6  S   -0.098433  -0.011873  -0.000861   0.005583  -0.001360
   45  N  6  X   -0.007374  -0.001476  -0.002101   0.000863  -0.001263
   46  N  6  Y   -0.022339  -0.010059  -0.006367   0.001767   0.000788
   47  N  6  Z    0.005225   0.001842   0.001424  -0.000439   0.000064
   48  C  7  S   -0.000020   0.985349   0.028590   0.018566   0.001615
   49  C  7  S    0.000736   0.110321   0.001633  -0.002907  -0.000548
   50  C  7  X   -0.000247   0.000365  -0.002024   0.002308  -0.000440
   51  C  7  Y   -0.000007   0.000705   0.000828  -0.001272  -0.000110
   52  C  7  Z    0.000059  -0.000213   0.000357  -0.000353   0.000159
   53  C  7  S    0.012478  -0.100949   0.000262   0.044171   0.000260
   54  C  7  X    0.023891   0.007523   0.030365  -0.023542   0.001885
   55  C  7  Y   -0.043822  -0.041713  -0.012045   0.023822   0.002416
   56  C  7  Z    0.000949   0.004704  -0.005403   0.001877  -0.000812
   57  C  8  S   -0.000306  -0.019900  -0.003342   0.978663   0.003138
   58  C  8  S   -0.001522  -0.007638  -0.002079   0.110381   0.000270
   59  C  8  X    0.000259  -0.001942   0.000174   0.001216  -0.000025
   60  C  8  Y   -0.001279  -0.000100  -0.000354   0.001089   0.000071
   61  C  8  Z    0.000133   0.000476   0.000008  -0.000458  -0.000015
   62  C  8  S    0.028269   0.050037   0.023594  -0.116135  -0.000549
   63  C  8  X    0.016991   0.030543   0.014186  -0.028404  -0.000006
   64  C  8  Y    0.014279   0.008798  -0.004212  -0.016791  -0.002028
   65  C  8  Z   -0.006173  -0.008601  -0.002657   0.009361   0.000328
   66  C  9  S    0.000120  -0.001454   0.000078  -0.119576  -0.004842
   67  C  9  S    0.000315   0.000153   0.000194  -0.018423  -0.000750
   68  C  9  X   -0.000341  -0.000387   0.000133  -0.001014  -0.000025
   69  C  9  Y    0.000969   0.001313   0.000387   0.001893   0.000051
   70  C  9  Z   -0.000071  -0.000112  -0.000090  -0.000058  -0.000012
   71  C  9  S   -0.017052  -0.021309  -0.004221   0.054673   0.002882
   72  C  9  X   -0.004894  -0.010533  -0.005458   0.020067   0.000954
   73  C  9  Y    0.005825   0.005734  -0.000710  -0.022238  -0.000881
   74  C  9  Z    0.000223   0.001587   0.001386  -0.001262  -0.000018
   75  C 10  S   -0.000143  -0.002462  -0.001083   0.003257  -0.002181
   76  C 10  S   -0.000798  -0.001710  -0.000640   0.001439  -0.000281
   77  C 10  X   -0.000170   0.000092  -0.000220   0.000791  -0.000217
   78  C 10  Y    0.000483   0.000521   0.000202   0.000483   0.000117
   79  C 10  Z   -0.000036  -0.000102   0.000017  -0.000262   0.000060
   80  C 10  S    0.006109   0.018283   0.004191  -0.021042  -0.002124
   81  C 10  X    0.000171   0.002025  -0.001591  -0.001103   0.000087
   82  C 10  Y   -0.006534  -0.012092  -0.003071   0.013118   0.001366
   83  C 10  Z    0.000999   0.001438   0.000890  -0.001820  -0.000441
   84  C 11  S    0.000072  -0.000998  -0.001524  -0.007729   0.006509
   85  C 11  S    0.000103   0.000504  -0.000556  -0.001672   0.000531
   86  C 11  X    0.000367   0.000039   0.000131   0.000026   0.000119
   87  C 11  Y    0.000668   0.001233   0.000315   0.000218  -0.000315
   88  C 11  Z   -0.000205  -0.000205  -0.000075  -0.000039  -0.000096
   89  C 11  S   -0.013724  -0.022529  -0.004713   0.014836   0.006330
   90  C 11  X    0.001352   0.012858  -0.001406  -0.007544  -0.002525
   91  C 11  Y    0.005385   0.007789   0.001691  -0.004666  -0.003653
   92  C 11  Z   -0.001178  -0.004328   0.000022   0.002534   0.001658
   93  C 12  S   -0.000089  -0.015987  -0.002159  -0.014039  -0.019034
   94  C 12  S   -0.000591  -0.006019  -0.000733  -0.001199  -0.002192
   95  C 12  X    0.001251   0.002638  -0.000011   0.000669  -0.000724
   96  C 12  Y   -0.000398  -0.000039   0.000529   0.000108   0.000141
   97  C 12  Z   -0.000257  -0.000642  -0.000078  -0.000177   0.000177
   98  C 12  S    0.006943   0.040147  -0.011335  -0.010363   0.003810
   99  C 12  X   -0.010444  -0.036207   0.003843   0.007873   0.005916
  100  C 12  Y    0.015426   0.008394   0.012128  -0.005916  -0.010921
  101  C 12  Z    0.000156   0.007385  -0.002744  -0.000928  -0.000214
  102  H 13  S    0.000596   0.000140  -0.000063  -0.000098   0.001262
  103  H 13  S    0.001232   0.001049   0.000325  -0.000055   0.015902
  104  H 14  S   -0.000415  -0.000315  -0.000095  -0.000167   0.001240
  105  H 14  S    0.000003  -0.000342   0.001353  -0.000190   0.016153
  106  H 15  S    0.000555   0.000903  -0.003171   0.000219   0.000684
  107  H 15  S    0.005564   0.004745   0.009303   0.001187   0.001907
  108  H 16  S   -0.000372  -0.001731  -0.002059   0.000148   0.000012
  109  H 16  S    0.003957  -0.001697  -0.000963   0.000352   0.000326
  110  H 17  S    0.001614   0.000590  -0.000209  -0.003061  -0.000175
  111  H 17  S    0.006739   0.008320   0.002197   0.004954  -0.000310
  112  H 18  S   -0.000028  -0.000486  -0.000426   0.000553  -0.000007
  113  H 18  S   -0.000453  -0.001310  -0.000938   0.005159   0.000261
  114  H 19  S    0.000419   0.000423   0.000076  -0.000556  -0.000087
  115  H 19  S    0.002021   0.003186   0.000917  -0.002195  -0.000160
  116  H 20  S    0.000112  -0.000799   0.000114   0.000335   0.000191
  117  H 20  S    0.000021  -0.003059   0.000762   0.002047   0.001259
  118  H 21  S   -0.000039  -0.000027   0.000036  -0.000009  -0.001120
  119  H 21  S   -0.000425  -0.000242  -0.000061   0.000076  -0.000800
  120  H 22  S   -0.000118  -0.000064   0.000106   0.000017  -0.001460
  121  H 22  S   -0.000379   0.000030   0.000356  -0.000011   0.000240

                      6          7          8          9         10
                  -10.1147   -10.1133   -10.1131   -10.1119   -10.1079
                     A          A          A          A          A   
    1  C  1  S    0.004391   0.007217   0.000454  -0.024470   0.000907
    2  C  1  S    0.001103   0.001643   0.000122  -0.005363   0.000192
    3  C  1  X   -0.000230  -0.000369  -0.000036   0.001569   0.000027
    4  C  1  Y   -0.000200  -0.000139  -0.000048   0.000633   0.000011
    5  C  1  Z    0.000023   0.000045   0.000030  -0.000083   0.000022
    6  C  1  S   -0.001881  -0.003005  -0.000247   0.010045  -0.000438
    7  C  1  X    0.001049   0.001663   0.000211  -0.007519   0.000065
    8  C  1  Y    0.001250   0.001232   0.000401  -0.003291   0.000017
    9  C  1  Z   -0.000351  -0.000123  -0.000126  -0.001775  -0.000196
   10  H  2  S    0.000347   0.000437   0.000075  -0.001267   0.000030
   11  H  2  S    0.000641   0.000585   0.000183  -0.000784   0.000155
   12  C  3  S    0.007276  -0.013764   0.002722   0.067713   0.003892
   13  C  3  S    0.000796  -0.001740   0.000115   0.007599   0.000279
   14  C  3  X    0.000322  -0.000121  -0.000053   0.000710   0.000184
   15  C  3  Y   -0.000032   0.000076   0.000033   0.000372  -0.000071
   16  C  3  Z   -0.000183  -0.000010  -0.000014  -0.000011  -0.000072
   17  C  3  S   -0.001583   0.003962   0.001563  -0.003904  -0.000080
   18  C  3  X    0.001701   0.000897  -0.000484  -0.006808  -0.000376
   19  C  3  Y   -0.001919  -0.002290  -0.000831  -0.004040  -0.000558
   20  C  3  Z    0.001235   0.001178   0.000422  -0.002856   0.000430
   21  C  4  S   -0.182287  -0.226263  -0.027896   0.939117   0.021168
   22  C  4  S   -0.023328  -0.027248  -0.003636   0.105517   0.001736
   23  C  4  X    0.001163   0.000631   0.000077  -0.000558   0.000167
   24  C  4  Y   -0.000919  -0.000506   0.000131  -0.000280  -0.000509
   25  C  4  Z   -0.000225  -0.000199  -0.000063   0.000691   0.000034
   26  C  4  S    0.034240   0.045016   0.010767  -0.093864  -0.002670
   27  C  4  X   -0.012377  -0.019048  -0.006193   0.016581  -0.000504
   28  C  4  Y    0.009251   0.006590   0.001470   0.004680   0.002838
   29  C  4  Z    0.001600   0.003906   0.001333  -0.005700  -0.000363
   30  C  5  S   -0.001976  -0.001738  -0.000367   0.015092   0.001437
   31  C  5  S   -0.000141  -0.000080   0.000039  -0.002957  -0.000447
   32  C  5  X   -0.000265   0.000062  -0.000137  -0.000893   0.000095
   33  C  5  Y   -0.000175  -0.000050  -0.000063  -0.002103  -0.000140
   34  C  5  Z    0.000110   0.000013   0.000048   0.000473   0.000000
   35  C  5  S   -0.003450  -0.009007  -0.002273   0.034281   0.003188
   36  C  5  X    0.001104   0.001567   0.000767   0.000193   0.000316
   37  C  5  Y   -0.002051  -0.004274  -0.001979   0.020844   0.001708
   38  C  5  Z   -0.000022   0.000124   0.000084  -0.002705  -0.000330
   39  N  6  S    0.000003  -0.000025  -0.000004   0.000104  -0.000064
   40  N  6  S   -0.000147  -0.000374  -0.000186   0.000337  -0.000591
   41  N  6  X    0.000367  -0.000069   0.000237  -0.000041   0.000018
   42  N  6  Y   -0.000110  -0.000314  -0.000249  -0.000013  -0.000131
   43  N  6  Z   -0.000079   0.000051  -0.000022   0.000035   0.000012
   44  N  6  S    0.000194  -0.000748  -0.000896  -0.006167   0.003575
   45  N  6  X   -0.002104   0.001875  -0.000127  -0.004233  -0.000503
   46  N  6  Y   -0.001671  -0.000116   0.000241  -0.002200   0.001686
   47  N  6  Z    0.000798  -0.000381  -0.000001   0.001230  -0.000117
   48  C  7  S    0.012822   0.007137   0.003858   0.005624   0.003146
   49  C  7  S   -0.002253  -0.000363  -0.000087  -0.001326  -0.000969
   50  C  7  X   -0.000962  -0.000668   0.001015  -0.001153   0.000177
   51  C  7  Y   -0.000458  -0.000817  -0.000591  -0.000723  -0.000768
   52  C  7  Z    0.000303   0.000291  -0.000147   0.000378   0.000078
   53  C  7  S    0.035645   0.001993  -0.009504   0.009138   0.009962
   54  C  7  X    0.015114   0.010454   0.002516   0.010724  -0.004435
   55  C  7  Y    0.014667  -0.005697  -0.007345   0.004146   0.009072
   56  C  7  Z   -0.005958  -0.001643   0.000538  -0.003191  -0.000359
   57  C  8  S    0.004101   0.013165   0.117725   0.012166   0.014168
   58  C  8  S    0.000943   0.000629   0.008085   0.000484   0.001281
   59  C  8  X   -0.000448  -0.000353  -0.000225  -0.000380  -0.000182
   60  C  8  Y    0.000335   0.000152  -0.001799   0.000066  -0.001240
   61  C  8  Z    0.000054   0.000060   0.000334   0.000080   0.000240
   62  C  8  S   -0.010980   0.012212   0.030631   0.004164  -0.012420
   63  C  8  X   -0.005102   0.006119   0.011030   0.003681  -0.008491
   64  C  8  Y   -0.009710   0.002317   0.018874  -0.002434  -0.001782
   65  C  8  Z    0.002753  -0.001795  -0.005570  -0.000489   0.002281
   66  C  9  S   -0.033583   0.015322   0.969418   0.022026   0.128035
   67  C  9  S   -0.004758   0.002385   0.107909   0.002328   0.009419
   68  C  9  X    0.000118  -0.000675   0.001332  -0.000283  -0.001789
   69  C  9  Y    0.000349  -0.000450  -0.000344   0.000121  -0.000686
   70  C  9  Z   -0.000081   0.000235  -0.000264   0.000051   0.000532
   71  C  9  S    0.020365  -0.016737  -0.100452  -0.004439   0.025564
   72  C  9  X    0.008828  -0.009886  -0.024383  -0.002680   0.021150
   73  C  9  Y   -0.005653   0.003918   0.008988  -0.001457   0.001467
   74  C  9  Z   -0.001223   0.001710   0.004394   0.000855  -0.005251
   75  C 10  S    0.038709  -0.117066  -0.124152  -0.046461   0.969304
   76  C 10  S    0.006627  -0.017690  -0.018316  -0.006545   0.106716
   77  C 10  X    0.000083  -0.001354   0.001327  -0.000555   0.000135
   78  C 10  Y   -0.000386   0.001559   0.001668   0.000876  -0.000944
   79  C 10  Z    0.000042   0.000072  -0.000579  -0.000010   0.000118
   80  C 10  S   -0.028821   0.049957   0.049190   0.007561  -0.091399
   81  C 10  X   -0.004797   0.013315  -0.008821  -0.000421  -0.002191
   82  C 10  Y    0.016602  -0.022813  -0.024625  -0.005551   0.020855
   83  C 10  Z   -0.001468   0.000479   0.005992   0.001005  -0.002773
   84  C 11  S   -0.432415   0.868230  -0.047956   0.121546   0.121056
   85  C 11  S   -0.052280   0.096533  -0.004356   0.012807   0.008385
   86  C 11  X    0.000583  -0.001413   0.000759  -0.000200   0.002043
   87  C 11  Y    0.002244   0.000324  -0.000075   0.000663  -0.000446
   88  C 11  Z   -0.000492   0.000296  -0.000170  -0.000044  -0.000414
   89  C 11  S    0.072740  -0.097819  -0.017480  -0.007731   0.027525
   90  C 11  X   -0.013326   0.024815   0.009483  -0.003317  -0.019966
   91  C 11  Y   -0.022849   0.013438   0.007802  -0.000167  -0.002074
   92  C 11  Z    0.006709  -0.008118  -0.003508   0.000752   0.005072
   93  C 12  S    0.866133   0.391346   0.012262   0.260308   0.026863
   94  C 12  S    0.100220   0.041057   0.000974   0.025501   0.002419
   95  C 12  X   -0.000487   0.000985   0.000684  -0.001737   0.000493
   96  C 12  Y    0.000451  -0.003010  -0.000312   0.000385  -0.001207
   97  C 12  Z   -0.000001   0.000216  -0.000121   0.000366   0.000070
   98  C 12  S   -0.120362  -0.015635   0.005080   0.005429  -0.010440
   99  C 12  X    0.011214  -0.020353  -0.009877   0.021544   0.004229
  100  C 12  Y   -0.004103   0.039130   0.010986  -0.005830  -0.002596
  101  C 12  Z   -0.001706  -0.001142   0.000673  -0.004086  -0.000564
  102  H 13  S    0.000381   0.000442   0.000048  -0.000610  -0.000070
  103  H 13  S    0.000870  -0.000255   0.000181   0.002321   0.000518
  104  H 14  S   -0.000192  -0.000341  -0.000147  -0.000489  -0.000103
  105  H 14  S    0.000085  -0.000752  -0.000054   0.000943   0.000211
  106  H 15  S   -0.000016   0.000050  -0.000136  -0.000481  -0.000086
  107  H 15  S   -0.000166  -0.000381  -0.000571   0.004108   0.000316
  108  H 16  S   -0.000704   0.000236  -0.000160  -0.000693  -0.000121
  109  H 16  S    0.000146   0.000458   0.000320   0.000432   0.000544
  110  H 17  S   -0.000758   0.000004  -0.000331  -0.000195  -0.000667
  111  H 17  S   -0.002034   0.001751   0.006430   0.000856  -0.000903
  112  H 18  S    0.000318  -0.000569  -0.002951  -0.000182  -0.000359
  113  H 18  S    0.001689  -0.001501   0.006724   0.000289   0.006515
  114  H 19  S   -0.000586   0.000337   0.000397   0.000339  -0.002983
  115  H 19  S   -0.003031   0.004385   0.004353   0.001726   0.008038
  116  H 20  S    0.000799  -0.003196  -0.000473   0.000116  -0.000477
  117  H 20  S   -0.000168   0.004495  -0.002758   0.002822   0.005992
  118  H 21  S   -0.000015   0.000001  -0.000023  -0.000061   0.000006
  119  H 21  S   -0.000567  -0.000635  -0.000103   0.003313   0.000035
  120  H 22  S   -0.000012   0.000033   0.000028  -0.001147  -0.000069
  121  H 22  S    0.000349   0.000688  -0.000098  -0.001002   0.000325

                     11         12         13         14         15
                  -10.1002    -0.9712    -0.8335    -0.7959    -0.7411
                     A          A          A          A          A   
    1  C  1  S    0.985792  -0.001871   0.007031  -0.063874  -0.110241
    2  C  1  S    0.111955   0.002360  -0.007315   0.066039   0.108170
    3  C  1  X   -0.000148  -0.001714   0.003483  -0.022543  -0.015634
    4  C  1  Y   -0.000061  -0.000360   0.001292  -0.014108  -0.014209
    5  C  1  Z    0.000010  -0.000763   0.002768  -0.022581  -0.027243
    6  C  1  S   -0.089169  -0.000522  -0.013766   0.136966   0.280712
    7  C  1  X    0.002645   0.004064  -0.001125   0.009473   0.002276
    8  C  1  Y    0.001809  -0.002958  -0.000494   0.005802   0.000325
    9  C  1  Z    0.002968   0.003017  -0.000707   0.001520  -0.002645
   10  H  2  S   -0.000168   0.000864  -0.003108   0.031080   0.055378
   11  H  2  S    0.016182  -0.002151   0.000516   0.001300   0.002461
   12  C  3  S    0.018985  -0.008128   0.014332  -0.111670  -0.111648
   13  C  3  S    0.000667   0.004529  -0.013646   0.102206   0.105498
   14  C  3  X    0.000475  -0.007959   0.007234  -0.031855   0.022752
   15  C  3  Y    0.000064  -0.003966  -0.002136  -0.004937   0.010955
   16  C  3  Z   -0.000187   0.002740  -0.002464   0.021464   0.025838
   17  C  3  S    0.011013   0.047933  -0.031691   0.309353   0.316548
   18  C  3  X    0.009106  -0.015457   0.001340  -0.020106  -0.005920
   19  C  3  Y    0.005502   0.008919  -0.004692  -0.006269  -0.002550
   20  C  3  Z    0.009302   0.001555  -0.001406   0.015448   0.009125
   21  C  4  S    0.024015  -0.048938   0.023588  -0.135071   0.011341
   22  C  4  S    0.000433   0.051122  -0.025622   0.142702  -0.010606
   23  C  4  X   -0.001493  -0.037953   0.011302  -0.001240   0.093787
   24  C  4  Y   -0.000691  -0.022727  -0.027634  -0.007433   0.005224
   25  C  4  Z   -0.000228   0.012795   0.000956   0.005819  -0.016201
   26  C  4  S    0.003751   0.071576  -0.043188   0.274622  -0.024700
   27  C  4  X    0.007734  -0.045357  -0.007506  -0.049988  -0.010452
   28  C  4  Y    0.003670  -0.038310   0.009490   0.006204  -0.009964
   29  C  4  Z   -0.001494   0.017052   0.000332   0.011523   0.003559
   30  C  5  S   -0.000252  -0.087825  -0.028830  -0.063003   0.023483
   31  C  5  S    0.000125   0.100166   0.028299   0.069828  -0.025952
   32  C  5  X    0.000225  -0.073628  -0.036694   0.043975   0.010811
   33  C  5  Y    0.000019   0.037525  -0.015191   0.069050  -0.027591
   34  C  5  Z    0.000151   0.012278   0.011133  -0.020362   0.002531
   35  C  5  S    0.002644   0.070580   0.061738   0.112982  -0.059520
   36  C  5  X   -0.002342   0.026415   0.003150   0.012755   0.011931
   37  C  5  Y    0.001706  -0.047782   0.005440   0.018631  -0.024330
   38  C  5  Z   -0.000623   0.000669  -0.001606  -0.005464   0.002820
   39  N  6  S    0.000032  -0.185933  -0.067461   0.062085  -0.023293
   40  N  6  S    0.000221   0.159430   0.062191  -0.055505   0.020261
   41  N  6  X   -0.000048   0.025996   0.015437   0.061997  -0.052309
   42  N  6  Y   -0.000069   0.042324  -0.030378   0.009853  -0.018012
   43  N  6  Z   -0.000038  -0.013442   0.000512  -0.015968   0.015382
   44  N  6  S   -0.001900   0.619121   0.224227  -0.215778   0.087515
   45  N  6  X   -0.000320   0.048192   0.018407   0.047035  -0.039110
   46  N  6  Y    0.000200   0.107264  -0.009865  -0.006810  -0.011231
   47  N  6  Z    0.000345  -0.028435  -0.003290  -0.009905   0.010798
   48  C  7  S   -0.000174  -0.098017   0.062699   0.039960  -0.018969
   49  C  7  S    0.000172   0.106563  -0.071443  -0.040043   0.020448
   50  C  7  X   -0.000186   0.049830   0.019544   0.062292  -0.094602
   51  C  7  Y    0.000029  -0.069939  -0.089099   0.029767  -0.016204
   52  C  7  Z    0.000035  -0.001567   0.009171  -0.019165   0.025165
   53  C  7  S   -0.003834   0.125973  -0.108244  -0.096699   0.053481
   54  C  7  X   -0.000103  -0.087217  -0.018166  -0.003732  -0.012634
   55  C  7  Y   -0.002056   0.119144  -0.005908  -0.035213   0.007641
   56  C  7  Z    0.000345   0.002622   0.005357   0.006285   0.001612
   57  C  8  S    0.000214  -0.021561   0.092116   0.062766  -0.092617
   58  C  8  S   -0.000099   0.029015  -0.099224  -0.067652   0.099423
   59  C  8  X    0.000056   0.020469  -0.041221  -0.018766   0.006306
   60  C  8  Y   -0.000082  -0.006551  -0.041436  -0.008303   0.017887
   61  C  8  Z   -0.000012  -0.003865   0.016310   0.005826  -0.004321
   62  C  8  S    0.001638  -0.066289  -0.197936  -0.120879   0.212621
   63  C  8  X    0.001029  -0.059343  -0.024936  -0.002560   0.001868
   64  C  8  Y    0.000524  -0.035656  -0.012898   0.024933  -0.006401
   65  C  8  Z   -0.000275   0.019353   0.007869  -0.003230   0.000527
   66  C  9  S   -0.000062  -0.008165   0.099521   0.048930  -0.063571
   67  C  9  S    0.000019   0.008051  -0.108721  -0.052464   0.068264
   68  C  9  X    0.000024   0.006439  -0.051254  -0.012873  -0.008419
   69  C  9  Y    0.000060  -0.008351   0.026411   0.022654  -0.048797
   70  C  9  Z   -0.000013  -0.000231   0.008077  -0.000464   0.009639
   71  C  9  S   -0.000649   0.064224  -0.180909  -0.112774   0.146207
   72  C  9  X   -0.000294   0.019109  -0.009582  -0.002160  -0.003129
   73  C  9  Y    0.000213  -0.014697   0.003833   0.013551  -0.006752
   74  C  9  Z   -0.000046  -0.002128   0.001716  -0.001597   0.001800
   75  C 10  S   -0.001312  -0.005827   0.099775   0.022689   0.019825
   76  C 10  S   -0.000064   0.009347  -0.108941  -0.024017  -0.021980
   77  C 10  X   -0.000026   0.001598  -0.007997   0.019204  -0.058069
   78  C 10  Y   -0.000062  -0.007864   0.058197   0.012135   0.001047
   79  C 10  Z   -0.000033   0.000865  -0.007297  -0.006449   0.013710
   80  C 10  S    0.000014  -0.010129  -0.181443  -0.039569  -0.036253
   81  C 10  X   -0.000093   0.004265   0.000757   0.006853  -0.003274
   82  C 10  Y    0.000092   0.026385   0.011062   0.003949  -0.004448
   83  C 10  Z    0.000278  -0.005267  -0.001908  -0.002348   0.001349
   84  C 11  S   -0.001384  -0.012338   0.099860  -0.016680   0.080763
   85  C 11  S   -0.000126   0.011052  -0.107702   0.016828  -0.084755
   86  C 11  X    0.000204  -0.004180   0.047092   0.022546   0.004852
   87  C 11  Y   -0.000207  -0.013682   0.031184  -0.023599   0.029450
   88  C 11  Z    0.000176   0.003134  -0.016106  -0.001585  -0.005519
   89  C 11  S    0.002191   0.085312  -0.199358   0.027878  -0.209782
   90  C 11  X    0.000586  -0.002258   0.018744   0.018830   0.009109
   91  C 11  Y    0.000090  -0.036357   0.014672  -0.006397   0.014326
   92  C 11  Z   -0.000631   0.006484  -0.006904  -0.003316  -0.004159
   93  C 12  S   -0.000569  -0.051461   0.090782  -0.066070   0.082919
   94  C 12  S    0.000098   0.056700  -0.098167   0.069883  -0.088539
   95  C 12  X    0.000290  -0.016857   0.038306   0.057364   0.001065
   96  C 12  Y    0.000216  -0.038643  -0.035107  -0.030598  -0.017632
   97  C 12  Z   -0.000082   0.009824  -0.003407  -0.008864   0.003926
   98  C 12  S    0.001871   0.056284  -0.168291   0.134909  -0.195267
   99  C 12  X   -0.003333   0.027628   0.003402  -0.033661   0.010514
  100  C 12  Y   -0.002968  -0.095546   0.003417  -0.003007   0.037092
  101  C 12  Z    0.000995   0.007780  -0.001154   0.009207  -0.006001
  102  H 13  S   -0.001070   0.000640  -0.006879   0.048711   0.054204
  103  H 13  S    0.001998  -0.006981  -0.000058  -0.003552  -0.000295
  104  H 14  S   -0.001064   0.003499  -0.005149   0.048518   0.056882
  105  H 14  S    0.001836  -0.000059  -0.000049  -0.003584   0.002702
  106  H 15  S    0.000307   0.020703   0.013221   0.024990  -0.005942
  107  H 15  S    0.000703  -0.026678   0.003895   0.005295  -0.004394
  108  H 16  S    0.000176   0.081059   0.045683  -0.056352   0.035590
  109  H 16  S   -0.000082   0.029791   0.015580  -0.020819   0.013953
  110  H 17  S    0.000058   0.004602  -0.031705  -0.026705   0.049127
  111  H 17  S    0.000278  -0.023682  -0.001276   0.001885   0.008663
  112  H 18  S   -0.000006   0.002130  -0.034989  -0.019815   0.032513
  113  H 18  S   -0.000066   0.000288   0.002402  -0.000602   0.004363
  114  H 19  S   -0.000007  -0.000069  -0.034778  -0.009024  -0.009370
  115  H 19  S   -0.000017  -0.010597   0.002809  -0.001825  -0.000370
  116  H 20  S    0.000233   0.002657  -0.035508   0.009915  -0.039162
  117  H 20  S   -0.001579   0.000070  -0.002412   0.002442  -0.004217
  118  H 21  S   -0.000200   0.000422  -0.002663   0.026592   0.055122
  119  H 21  S    0.015336  -0.000395   0.001380  -0.007013   0.003222
  120  H 22  S   -0.000304   0.001585  -0.003969   0.031312   0.054099
  121  H 22  S    0.016446   0.001669  -0.001091   0.000095  -0.000509

                     16         17         18         19         20
                   -0.7277    -0.7075    -0.6281    -0.6155    -0.5874
                     A          A          A          A          A   
    1  C  1  S   -0.029984   0.075617  -0.127654  -0.061981  -0.009810
    2  C  1  S    0.028978  -0.072022   0.118733   0.057036   0.008963
    3  C  1  X   -0.002149   0.001607   0.037774   0.021904  -0.002560
    4  C  1  Y   -0.002919   0.000140   0.024430   0.015904   0.014298
    5  C  1  Z   -0.006001   0.010188   0.046483   0.032179   0.009719
    6  C  1  S    0.078608  -0.209766   0.420279   0.209766   0.036027
    7  C  1  X   -0.000362   0.001911   0.005629   0.001093  -0.003084
    8  C  1  Y   -0.000524   0.003127   0.004013   0.002936   0.005244
    9  C  1  Z   -0.001968   0.002761   0.010425   0.006717   0.004280
   10  H  2  S    0.015381  -0.038428   0.086339   0.044669   0.004428
   11  H  2  S    0.001595  -0.000708   0.023487   0.015720  -0.001191
   12  C  3  S   -0.024320   0.036091   0.085276   0.056865   0.019151
   13  C  3  S    0.022943  -0.034324  -0.079784  -0.050627  -0.018146
   14  C  3  X    0.012312  -0.037336   0.075621   0.032506  -0.019091
   15  C  3  Y    0.001691  -0.031380   0.039144   0.014012   0.038368
   16  C  3  Z    0.006435  -0.014613   0.062085   0.035889   0.008754
   17  C  3  S    0.071682  -0.105735  -0.285587  -0.211026  -0.067325
   18  C  3  X   -0.001298   0.002114   0.022276   0.016936  -0.011505
   19  C  3  Y   -0.003725  -0.017241   0.008077   0.001194   0.026911
   20  C  3  Z    0.002624  -0.001717   0.013088   0.008834   0.002090
   21  C  4  S    0.023329  -0.069543   0.043384   0.033215  -0.014568
   22  C  4  S   -0.025512   0.073377  -0.042673  -0.034428   0.013392
   23  C  4  X    0.047117  -0.039212  -0.102035  -0.018486  -0.056229
   24  C  4  Y   -0.021946  -0.098408  -0.034027  -0.045087   0.134317
   25  C  4  Z   -0.006208   0.019205   0.044254   0.018974  -0.004391
   26  C  4  S   -0.054618   0.169146  -0.123606  -0.092137   0.049128
   27  C  4  X   -0.002780  -0.005067  -0.037459   0.018521  -0.019048
   28  C  4  Y    0.010206   0.011965  -0.013897   0.011700   0.052158
   29  C  4  Z   -0.001293  -0.000305   0.020257  -0.001357  -0.001137
   30  C  5  S   -0.042933  -0.116887  -0.016645  -0.088235   0.062867
   31  C  5  S    0.044471   0.126256   0.017527   0.093976  -0.068038
   32  C  5  X   -0.039428   0.022732  -0.047115  -0.009642  -0.065194
   33  C  5  Y   -0.048310   0.046260   0.037084  -0.086215  -0.005038
   34  C  5  Z    0.017081  -0.013204   0.009327   0.017018   0.017188
   35  C  5  S    0.105018   0.290899   0.035767   0.267832  -0.186354
   36  C  5  X    0.005262   0.010192  -0.012472   0.007101  -0.033668
   37  C  5  Y   -0.010321   0.038608   0.027261  -0.024905   0.000579
   38  C  5  Z    0.000931  -0.010155   0.002468   0.003893   0.008383
   39  N  6  S   -0.059600   0.040115   0.022354   0.011419  -0.034311
   40  N  6  S    0.056633  -0.036855  -0.022543  -0.009935   0.035431
   41  N  6  X    0.036073   0.114991   0.096650   0.093488  -0.029745
   42  N  6  Y   -0.113164  -0.025020   0.112838  -0.147982  -0.122468
   43  N  6  Z    0.007937  -0.024025  -0.038482   0.000079   0.025335
   44  N  6  S    0.208607  -0.157629  -0.076075  -0.059653   0.125955
   45  N  6  X    0.032736   0.089113   0.082149   0.074153  -0.019502
   46  N  6  Y   -0.084875  -0.024490   0.096809  -0.128730  -0.104549
   47  N  6  Z    0.004335  -0.017460  -0.033366   0.001472   0.020110
   48  C  7  S    0.112482   0.051145  -0.022034   0.034942   0.072729
   49  C  7  S   -0.123461  -0.052242   0.023263  -0.036773  -0.079245
   50  C  7  X    0.005556  -0.023693   0.106981  -0.092262   0.094031
   51  C  7  Y   -0.040780   0.040655  -0.006455   0.119843   0.016932
   52  C  7  Z    0.005169  -0.000764  -0.023301   0.004211  -0.024714
   53  C  7  S   -0.243145  -0.146838   0.058923  -0.097582  -0.214407
   54  C  7  X   -0.023966  -0.011251   0.047130  -0.047557   0.034149
   55  C  7  Y   -0.022080  -0.030548   0.014852   0.004822  -0.019852
   56  C  7  Z    0.009236   0.007590  -0.013528   0.010720  -0.004815
   57  C  8  S    0.071021  -0.055527   0.045603  -0.076400   0.023157
   58  C  8  S   -0.074281   0.058803  -0.048508   0.080839  -0.024501
   59  C  8  X   -0.051703  -0.035955   0.003259  -0.003105  -0.092542
   60  C  8  Y    0.048071   0.074163   0.032212  -0.004437   0.131949
   61  C  8  Z    0.004767  -0.003155  -0.005578   0.001589   0.001288
   62  C  8  S   -0.188376   0.147675  -0.130364   0.226939  -0.075108
   63  C  8  X   -0.018617  -0.000951  -0.002404   0.007073  -0.035080
   64  C  8  Y    0.009613   0.038779   0.009468   0.027736   0.046922
   65  C  8  Z    0.002861  -0.005882  -0.000622  -0.005957   0.000945
   66  C  9  S   -0.049263  -0.098759  -0.028425   0.041319  -0.093298
   67  C  9  S    0.051962   0.105397   0.030090  -0.043184   0.096207
   68  C  9  X    0.041170  -0.005496   0.016491  -0.028000  -0.069613
   69  C  9  Y    0.072743  -0.026666   0.051352  -0.119822  -0.014060
   70  C  9  Z   -0.021267   0.005406  -0.011943   0.025633   0.018661
   71  C  9  S    0.115334   0.225410   0.081969  -0.134129   0.293644
   72  C  9  X    0.008679   0.000097   0.006312  -0.002336  -0.015606
   73  C  9  Y    0.007214   0.006867   0.016469  -0.032932  -0.011614
   74  C  9  Z   -0.003209  -0.001214  -0.003895   0.005950   0.005520
   75  C 10  S   -0.127843  -0.007989  -0.031024   0.075077   0.067848
   76  C 10  S    0.135778   0.008188   0.032315  -0.078319  -0.070195
   77  C 10  X    0.017328  -0.082979  -0.050938   0.087858  -0.103051
   78  C 10  Y   -0.020324  -0.005576   0.003623  -0.029853  -0.037633
   79  C 10  Z   -0.000883   0.020507   0.011883  -0.015920   0.030516
   80  C 10  S    0.301699   0.029433   0.087118  -0.221569  -0.213704
   81  C 10  X    0.004423  -0.004172  -0.014277   0.029504  -0.039142
   82  C 10  Y   -0.008464  -0.004208  -0.000283  -0.012258   0.000301
   83  C 10  Z    0.000263   0.001848   0.002752  -0.005437   0.009128
   84  C 11  S   -0.077230   0.082137   0.045008  -0.067689   0.017786
   85  C 11  S    0.083825  -0.087199  -0.047823   0.071757  -0.019972
   86  C 11  X   -0.059134  -0.005044  -0.034531   0.043145   0.090912
   87  C 11  Y    0.058156   0.029983   0.014366  -0.052473  -0.131858
   88  C 11  Z    0.004961  -0.003779   0.006875  -0.001364  -0.000602
   89  C 11  S    0.164698  -0.212707  -0.121536   0.190050  -0.038659
   90  C 11  X    0.000056   0.021280  -0.013026   0.005614   0.032534
   91  C 11  Y    0.013133   0.007010  -0.000862  -0.016415  -0.054971
   92  C 11  Z   -0.002070  -0.006691   0.005671   0.002636   0.001466
   93  C 12  S    0.060836   0.048437  -0.006251  -0.016919  -0.092342
   94  C 12  S   -0.064737  -0.051671   0.007246   0.016859   0.095916
   95  C 12  X    0.030178   0.042606  -0.050714  -0.015823   0.080784
   96  C 12  Y    0.083387  -0.072920  -0.085727   0.117999   0.020246
   97  C 12  Z   -0.019696   0.000289   0.028844  -0.012665  -0.022309
   98  C 12  S   -0.137825  -0.099091   0.014927   0.064232   0.277912
   99  C 12  X   -0.012108  -0.036078  -0.005266  -0.026354   0.017340
  100  C 12  Y    0.030256  -0.016376  -0.046667   0.047022  -0.003990
  101  C 12  Z   -0.000922   0.009716   0.011402   0.000710  -0.003549
  102  H 13  S    0.011814  -0.023554  -0.061618  -0.041735  -0.002815
  103  H 13  S    0.002141  -0.004480  -0.019501  -0.008564   0.001683
  104  H 14  S    0.014116  -0.015410  -0.058909  -0.037283  -0.033899
  105  H 14  S    0.001561  -0.002477  -0.018483  -0.008998  -0.016729
  106  H 15  S    0.034469   0.067668  -0.011136   0.100282  -0.064301
  107  H 15  S    0.012220   0.025742  -0.007776   0.049285  -0.028162
  108  H 16  S    0.071545  -0.051863  -0.098647   0.023448   0.098578
  109  H 16  S    0.026721  -0.021540  -0.048635   0.012254   0.055399
  110  H 17  S   -0.036651   0.031309  -0.042087   0.059111  -0.016123
  111  H 17  S   -0.007188   0.011257  -0.022647   0.032113  -0.004082
  112  H 18  S    0.027152   0.058084   0.022505  -0.040113   0.095599
  113  H 18  S    0.006800   0.014586   0.009162  -0.015385   0.050657
  114  H 19  S    0.068039   0.005464   0.024464  -0.068664  -0.063586
  115  H 19  S    0.014554   0.001940   0.010563  -0.029028  -0.034205
  116  H 20  S    0.040692  -0.046682  -0.040648   0.049895  -0.014002
  117  H 20  S    0.005109  -0.018983  -0.014344   0.022347  -0.004830
  118  H 21  S    0.015759  -0.042228   0.091056   0.045847   0.005901
  119  H 21  S    0.002194  -0.008489   0.030265   0.016301   0.001847
  120  H 22  S    0.014987  -0.041392   0.084705   0.044696   0.015438
  121  H 22  S    0.001610  -0.006905   0.020258   0.015644   0.009592

                     21         22         23         24         25
                   -0.5500    -0.5309    -0.4800    -0.4695    -0.4457
                     A          A          A          A          A   
    1  C  1  S   -0.030172  -0.020738  -0.003046   0.002535  -0.000790
    2  C  1  S    0.028495   0.019374   0.002529  -0.003117   0.000174
    3  C  1  X    0.002323   0.001099   0.012223  -0.004138   0.123350
    4  C  1  Y    0.023739   0.006311  -0.032523   0.041769  -0.099244
    5  C  1  Z    0.059493   0.055688   0.033054  -0.029577  -0.026988
    6  C  1  S    0.115099   0.084353   0.011950  -0.010650   0.002782
    7  C  1  X   -0.001612  -0.003405   0.006213  -0.005787   0.086512
    8  C  1  Y    0.010697   0.003547  -0.023532   0.027067  -0.074102
    9  C  1  Z    0.027188   0.029710   0.016907  -0.021088  -0.019380
   10  H  2  S    0.035143   0.034516   0.030401  -0.032517   0.034541
   11  H  2  S    0.017483   0.021268   0.025968  -0.023030   0.027804
   12  C  3  S    0.065979   0.047522   0.011730  -0.003795  -0.003658
   13  C  3  S   -0.060542  -0.041764  -0.009450   0.004132   0.001957
   14  C  3  X   -0.068121  -0.067089   0.002090   0.010127   0.161513
   15  C  3  Y    0.006585  -0.025836  -0.089213   0.081417  -0.135441
   16  C  3  Z    0.061082   0.061066   0.030745  -0.039563  -0.041296
   17  C  3  S   -0.251634  -0.192320  -0.053438   0.011263   0.020640
   18  C  3  X   -0.031371  -0.025161  -0.000168   0.001483   0.110275
   19  C  3  Y    0.007698  -0.018555  -0.061873   0.061672  -0.104567
   20  C  3  Z    0.030695   0.031225   0.024854  -0.026882  -0.028632
   21  C  4  S   -0.083904  -0.065199   0.015217   0.037070   0.015886
   22  C  4  S    0.088814   0.065477  -0.016193  -0.038039  -0.014906
   23  C  4  X   -0.053124   0.003828   0.092612  -0.023786  -0.096736
   24  C  4  Y   -0.002239  -0.017086  -0.117201   0.114547  -0.094947
   25  C  4  Z    0.025185   0.013510   0.001707  -0.021493   0.015324
   26  C  4  S    0.255820   0.231790  -0.053894  -0.127572  -0.071146
   27  C  4  X   -0.001419   0.022975   0.060534   0.000513  -0.046878
   28  C  4  Y    0.006130  -0.008172  -0.072809   0.047875  -0.067912
   29  C  4  Z    0.009571   0.005928  -0.000059  -0.015320   0.004381
   30  C  5  S    0.026094  -0.001085  -0.028100  -0.025014   0.007592
   31  C  5  S   -0.026074   0.000628   0.028448   0.023534  -0.007526
   32  C  5  X    0.061701   0.155024   0.200308   0.010920   0.061975
   33  C  5  Y    0.131740  -0.011159  -0.050139  -0.198867   0.049942
   34  C  5  Z   -0.030889  -0.032258  -0.038268   0.021854  -0.036787
   35  C  5  S   -0.077609   0.020242   0.115825   0.101064  -0.029975
   36  C  5  X    0.005055   0.043136   0.101858   0.006195   0.023495
   37  C  5  Y    0.067932  -0.016353  -0.039616  -0.119422   0.039329
   38  C  5  Z   -0.008970  -0.005637  -0.015908   0.012402  -0.022384
   39  N  6  S   -0.002866   0.014210   0.004655   0.023920   0.012337
   40  N  6  S    0.005909  -0.011278  -0.006331  -0.020294  -0.008447
   41  N  6  X   -0.115988  -0.187061  -0.165623   0.023680  -0.084401
   42  N  6  Y    0.052436  -0.180960   0.162537  -0.019875  -0.099847
   43  N  6  Z    0.021839   0.073447   0.018375  -0.006518   0.019692
   44  N  6  S   -0.000879  -0.080929  -0.008629  -0.116511  -0.075169
   45  N  6  X   -0.108343  -0.171784  -0.154016   0.023404  -0.075795
   46  N  6  Y    0.043450  -0.161324   0.145744  -0.030221  -0.099370
   47  N  6  Z    0.020979   0.066669   0.017748  -0.004570   0.018020
   48  C  7  S    0.030769  -0.019309  -0.036325  -0.034767   0.014962
   49  C  7  S   -0.033326   0.021942   0.037165   0.036500  -0.016283
   50  C  7  X   -0.075107  -0.083401   0.030983  -0.033048   0.121847
   51  C  7  Y   -0.140753   0.106315  -0.141635   0.030095   0.059735
   52  C  7  Z    0.040907   0.005222   0.016357   0.000512  -0.050663
   53  C  7  S   -0.121563   0.071966   0.148097   0.138255  -0.053916
   54  C  7  X   -0.019812  -0.031264   0.006028  -0.029178   0.079356
   55  C  7  Y   -0.078044   0.034484  -0.023041  -0.003254   0.001882
   56  C  7  Z    0.017530   0.003157   0.003400   0.005302  -0.028824
   57  C  8  S   -0.047188   0.024065   0.055264  -0.000776  -0.005816
   58  C  8  S    0.045650  -0.022906  -0.055449  -0.001362   0.001918
   59  C  8  X   -0.104609   0.134196   0.004164  -0.006741  -0.153247
   60  C  8  Y   -0.070694  -0.051739   0.027139  -0.173115  -0.021516
   61  C  8  Z    0.036016  -0.023109  -0.004622   0.027676   0.034503
   62  C  8  S    0.175087  -0.077325  -0.228658   0.016338   0.049031
   63  C  8  X   -0.038913   0.072131  -0.019378  -0.026395  -0.081222
   64  C  8  Y   -0.053254  -0.022462  -0.011564  -0.076813  -0.017984
   65  C  8  Z    0.017592  -0.013264   0.006833   0.017647   0.018505
   66  C  9  S    0.013134   0.020809  -0.056442   0.013323   0.020351
   67  C  9  S   -0.015081  -0.021217   0.056523  -0.016852  -0.023496
   68  C  9  X   -0.067561   0.106066  -0.092507  -0.096680  -0.122529
   69  C  9  Y   -0.011262   0.073689   0.071896   0.173197  -0.009773
   70  C  9  Z    0.017872  -0.036491   0.010852  -0.004974   0.027678
   71  C  9  S   -0.033047  -0.074766   0.231746  -0.044390  -0.072508
   72  C  9  X   -0.050044   0.054141  -0.044386  -0.064077  -0.082534
   73  C  9  Y   -0.002456   0.028187   0.020650   0.108458  -0.011602
   74  C  9  Z    0.012462  -0.016943   0.007408  -0.002350   0.019048
   75  C 10  S   -0.017067  -0.039032   0.053086  -0.016621  -0.009271
   76  C 10  S    0.016754   0.041156  -0.053612   0.013186   0.008087
   77  C 10  X    0.056648  -0.071542  -0.047797  -0.125126   0.079130
   78  C 10  Y    0.081283  -0.009707  -0.060259   0.196513   0.089279
   79  C 10  Z   -0.026025   0.019019   0.021351  -0.002064  -0.036411
   80  C 10  S    0.062748   0.131156  -0.209904   0.074907   0.035867
   81  C 10  X    0.021347  -0.032368  -0.039613  -0.073404   0.019406
   82  C 10  Y    0.052719  -0.019455  -0.017920   0.114947   0.052866
   83  C 10  Z   -0.013764   0.010609   0.012544  -0.001170  -0.014822
   84  C 11  S   -0.036683   0.059088  -0.045793   0.028094   0.004502
   85  C 11  S    0.034888  -0.059305   0.047648  -0.030600  -0.004145
   86  C 11  X    0.060994  -0.065402   0.089947   0.126648  -0.074774
   87  C 11  Y    0.112567  -0.051000  -0.068294  -0.042926   0.002966
   88  C 11  Z   -0.031404   0.024965  -0.009509  -0.024762   0.010491
   89  C 11  S    0.140255  -0.221200   0.177242  -0.099830  -0.017613
   90  C 11  X    0.039909  -0.031270   0.026166   0.066558  -0.062078
   91  C 11  Y    0.043971  -0.010847  -0.023625   0.004495   0.021671
   92  C 11  Z   -0.014563   0.011013  -0.001771  -0.017572   0.004613
   93  C 12  S    0.031628  -0.027588   0.013158  -0.050315  -0.047539
   94  C 12  S   -0.034849   0.028174  -0.012214   0.050294   0.048131
   95  C 12  X    0.166806  -0.000659  -0.055467   0.028022  -0.094199
   96  C 12  Y   -0.034970  -0.036663   0.125157  -0.005404  -0.070647
   97  C 12  Z   -0.031191   0.009535  -0.003186  -0.009878   0.018722
   98  C 12  S   -0.102447   0.094116  -0.060174   0.206753   0.182008
   99  C 12  X    0.077145  -0.018379   0.004840   0.033349  -0.056952
  100  C 12  Y   -0.037997   0.019394   0.068668   0.007170  -0.039619
  101  C 12  Z   -0.010468   0.003568  -0.009298  -0.011960   0.007673
  102  H 13  S   -0.064473  -0.066990  -0.055568   0.053697  -0.036860
  103  H 13  S   -0.027403  -0.039049  -0.031812   0.042016  -0.028909
  104  H 14  S   -0.075842  -0.049379   0.030634  -0.023348   0.129846
  105  H 14  S   -0.036611  -0.024339   0.032296  -0.011847   0.105120
  106  H 15  S   -0.065025   0.047720   0.113539   0.136337  -0.013043
  107  H 15  S   -0.038247   0.037939   0.080840   0.103476   0.004780
  108  H 16  S    0.023502   0.156777  -0.025095  -0.024974   0.090796
  109  H 16  S    0.014970   0.103511  -0.021990  -0.017432   0.080877
  110  H 17  S    0.103350  -0.062758  -0.065254   0.064822   0.097476
  111  H 17  S    0.064586  -0.035015  -0.049128   0.048512   0.088295
  112  H 18  S    0.017193  -0.050996   0.118311   0.082193   0.045979
  113  H 18  S    0.006997  -0.029514   0.083177   0.065230   0.042542
[...]
   1557    3.56238   -5.89289    2.21853        -9.479634       9.484265       0.004631
   1558    2.08876   -9.75088   -0.16584        -7.674214       7.686917       0.012703
   1559    3.01530   -8.85427    0.74928        -7.924394       7.935690       0.011297
   1560    3.58088   -7.37358    1.66439        -8.552999       8.561383       0.008384
   1561    1.53462   -9.76938    1.31485        -7.716469       7.729600       0.013130
   1562    2.32287   -8.51137    2.45265        -8.106512       8.116688       0.010175
   1563    0.61950   -9.20381    2.79554        -8.034338       8.046931       0.012593
   1564    3.01530   -8.85427   -1.08095        -7.942678       7.953887       0.011208
   1565    3.58088   -7.37358   -1.99607        -8.628779       8.638356       0.009577
   1566    3.94118   -7.51120   -0.16584        -8.501378       8.511089       0.009712
   1567   -0.29561   -8.27726   -4.02383        -8.580881       8.586014       0.005133
   1568    1.18507   -7.72312   -4.04232        -8.648273       8.653284       0.005011
   1569    0.61950   -9.20381   -3.12721        -8.044919       8.054320       0.009402
   1570    2.32287   -8.51137   -2.78432        -8.155134       8.164517       0.009383
   1571    1.53462   -9.76938   -1.64652        -7.726959       7.739013       0.012054
   1572   -2.67998   -9.75088   -0.16584        -8.459007       8.480236       0.021229
   1573   -1.21073   -9.20381   -3.12721        -8.327042       8.336609       0.009567
   1574   -2.12584   -9.76938   -1.64652        -8.290865       8.306360       0.015495
   1575   -1.21073  -10.33495   -0.16584        -7.901724       7.918474       0.016750
   1576   -0.29561  -10.12968   -1.78415        -7.821273       7.834423       0.013151
   1577    0.61950  -10.33495   -0.16584        -7.631798       7.646033       0.014235
   1578   -2.12584   -9.76938    1.31485        -8.329143       8.350005       0.020862
   1579   -1.21073   -9.20381    2.79554        -8.367111       8.383668       0.016557
   1580   -0.29561  -10.12968    1.45247        -7.830009       7.845757       0.015748
   1581   -4.95289   -7.82829    4.74693        -8.307296       8.326059       0.018763
   1582   -3.12266   -9.32041    2.36963        -8.457758       8.481177       0.023420
   1583   -4.03778   -8.75484    3.85031        -8.257527       8.278536       0.021009
   1584   -7.33726   -9.30191    0.88894        -7.697628       7.721952       0.024324
   1585   -8.26381   -8.40529    1.80406        -7.798220       7.822628       0.024408
   1586   -8.82938   -6.92461    2.71917        -8.231792       8.255248       0.023456
   1587   -8.26381   -8.40529   -0.02617        -7.937262       7.959862       0.022600
   1588   -9.18968   -7.06223    0.88894        -8.285738       8.308614       0.022876
   1589   -8.82938   -6.92461   -0.94129        -8.557165       8.575968       0.018803
   1590   -5.86801   -8.75484   -2.07243        -8.421818       8.439220       0.017403
   1591   -6.78312   -9.32041   -0.59175        -7.895298       7.917555       0.022257
   1592   -7.57137   -8.06240   -1.72954        -8.320952       8.338973       0.018021
   1593   -5.86801   -9.88598    0.88894        -7.756829       7.781267       0.024438
   1594   -4.95289   -9.68071   -0.72937        -8.157747       8.179811       0.022064
   1595   -4.03778   -9.88598    0.88894        -8.153687       8.178009       0.024321
   1596   -7.91426   -6.35903    4.19986        -8.465576       8.486082       0.020506
   1597   -7.57137   -8.06240    3.50742        -7.880062       7.903540       0.023478
   1598   -6.78312   -9.32041    2.36963        -7.665594       7.690343       0.024749
   1599   -6.43358   -7.27415    4.76543        -8.241480       8.261094       0.019614
   1600   -5.86801   -8.75484    3.85031        -7.880169       7.902956       0.022787
   1601   -4.95289   -9.68071    2.50725        -7.863106       7.887341       0.024235
   1602   -8.62178   -3.84848    5.02394        -8.846382       8.854888       0.008506
   1603  -12.47977   -1.46411   -1.21843        -8.114391       8.116082       0.001691
   1604  -11.58315   -2.37922   -2.14497        -8.446850       8.446524      -0.000326
   1605  -11.58315   -0.54899    4.47686        -7.981416       7.984579       0.003163
   1606  -12.49827    0.01658    2.99617        -7.916344       7.921160       0.004816
   1607  -12.47977   -1.46411    3.55032        -7.627669       7.633885       0.006215
   1608  -13.06384   -1.46411    2.08106        -7.575804       7.582392       0.006589
   1609  -12.85857    0.15420    1.16595        -8.021799       8.026679       0.004880
   1610  -13.06384   -1.46411    0.25083        -7.748569       7.753590       0.005021
   1611  -11.00615   -5.32210    1.16595        -8.035794       8.050115       0.014321
   1612  -11.93270   -4.42548    2.08106        -7.644385       7.655777       0.011392
   1613  -12.49827   -2.94479    2.99617        -7.501802       7.510409       0.008607
   1614  -11.93270   -4.42548    0.25083        -7.812744       7.822572       0.009828
   1615  -12.85857   -3.08242    1.16595        -7.530451       7.538584       0.008133
   1616  -12.49827   -2.94479   -0.66428        -7.836470       7.841835       0.005365
   1617  -10.45201   -5.34059   -0.31474        -8.461148       8.474453       0.013305
   1618  -11.24026   -4.08259   -1.45254        -8.306124       8.311869       0.005745
   1619   -9.53689   -5.90617    1.16595        -8.767169       8.789309       0.022140
   1620  -11.58315   -2.37922    4.47686        -7.731455       7.738057       0.006602
   1621  -11.24026   -4.08259    3.78443        -7.763549       7.774294       0.010745
   1622  -10.45201   -5.34059    2.64663        -8.123301       8.139255       0.015955
   1623  -10.10247   -3.29434    5.04243        -8.152487       8.159722       0.007235
   1624   -9.53689   -4.77502    4.12732        -8.416935       8.430899       0.013964
   1625  -10.24009   -1.46411    5.40274        -8.263817       8.265540       0.001723
   1626   -9.92935    7.60151    0.53404        -7.718844       7.720009       0.001164
   1627  -11.39860    7.01744    0.53404        -7.257822       7.259578       0.001756
   1628   -9.01423    7.39624    2.15235        -8.043855       8.042501      -0.001353
   1629  -10.84446    7.03594    2.01472        -7.366892       7.367767       0.000875
   1630   -9.92935    6.47037    3.49541        -7.717359       7.715121      -0.002238
   1631  -10.84446    7.03594   -0.94665        -7.533671       7.534464       0.000792
   1632   -9.92935    6.47037   -2.42734        -8.129293       8.126800      -0.002493
   1633  -12.32515    6.12082   -0.38108        -7.137386       7.139172       0.001786
   1634  -11.63271    5.77793   -2.08444        -7.506245       7.505365      -0.000880
   1635  -12.89072    4.64014   -1.29619        -7.237291       7.238122       0.000832
   1636  -11.97561    4.07457   -2.77688        -7.730424       7.727177      -0.003247
   1637  -12.87223    3.15945   -1.85033        -7.546593       7.545840      -0.000753
   1638  -10.49492    4.98968    4.41053        -7.732904       7.730066      -0.002839
   1639  -11.63271    5.77793    3.15252        -7.251083       7.251900       0.000817
   1640  -12.32515    6.12082    1.44915        -7.058879       7.061204       0.002324
   1641  -11.97561    4.07457    3.84495        -7.418895       7.419543       0.000647
   1642  -12.89072    4.64014    2.36427        -7.091198       7.093825       0.002627
   1643  -12.87223    3.15945    2.91841        -7.350902       7.353556       0.002653
   1644  -13.45629    3.15945    1.44915        -7.224623       7.227914       0.003290
   1645  -13.25103    4.77776    0.53404        -7.034128       7.036861       0.002733
   1646  -13.45629    3.15945   -0.38108        -7.293076       7.295096       0.002020
   1647  -12.89072    1.67876    2.36427        -7.712761       7.716512       0.003751
   1648  -13.25103    1.54114    0.53404        -7.690267       7.693486       0.003219
   1649  -12.89072    1.67876   -1.29619        -7.865502       7.865323      -0.000178
   1650  -11.97561    2.24434    3.84495        -7.842208       7.843378       0.001170
   1651  -10.63254    3.15945    4.77083        -8.093895       8.090369      -0.003526
   1652   -5.32815    8.11426    3.11024        -8.293564       8.286285      -0.007279
   1653   -2.01724    8.69126    0.16736        -8.478470       8.477003      -0.001467
   1654   -2.94378    9.58788   -0.74776        -7.837419       7.837626       0.000207
   1655   -2.70967    8.34837    1.87072        -8.568316       8.562714      -0.005602
   1656   -3.49792    9.60637    0.73293        -7.793677       7.792415      -0.001262
   1657   -4.41304    9.04080    2.21362        -7.950323       7.946263      -0.004060
   1658   -2.01724    8.69126   -1.66287        -8.402475       8.403113       0.000639
   1659   -5.32815    8.11426   -4.60575        -7.902406       7.898761      -0.003645
   1660   -3.84747    7.56011   -4.62424        -8.417315       8.412988      -0.004327
   1661   -3.49792    9.60637   -2.22844        -7.682799       7.683428       0.000629
   1662   -2.70967    8.34837   -3.36624        -8.334574       8.334059      -0.000515
   1663   -4.41304    9.04080   -3.70913        -7.702691       7.701850      -0.000841
   1664   -4.41304   10.17194   -0.74776        -7.403462       7.404193       0.000731
   1665   -6.24327   10.17194   -0.74776        -7.208461       7.209504       0.001043
   1666   -7.71252    9.58788   -0.74776        -7.279816       7.280779       0.000963
   1667   -5.32815    9.96668    0.87055        -7.427764       7.427336      -0.000428
   1668   -7.15838    9.60637    0.73293        -7.379292       7.379441       0.000149
   1669   -6.24327    9.04080    2.21362        -7.736224       7.733409      -0.002816
   1670   -7.15838    9.60637   -2.22844        -7.253721       7.254300       0.000579
   1671   -5.32815    9.96668   -2.36607        -7.307132       7.307912       0.000780
   1672   -6.24327    9.04080   -3.70913        -7.471310       7.470197      -0.001113
   1673   -8.63907    8.69126   -1.66287        -7.491732       7.492069       0.000336
   1674   -7.94663    8.34837   -3.36624        -7.580403       7.578593      -0.001810
   1675   -6.80884    7.56011   -4.62424        -7.943538       7.938332      -0.005206
   1676   -9.20464    7.21057   -2.57799        -8.026577       8.024425      -0.002152
   1677   -7.94663    8.34837    1.87072        -7.874185       7.872588      -0.001597
   1678   -8.63907    8.69126    0.16736        -7.592417       7.593154       0.000737
   1679    2.17215    6.70151   -0.51694        -8.856795       8.857535       0.000740
   1680    1.24560    7.59813   -1.43205        -8.455679       8.456970       0.001291
   1681    1.47971    6.35862    1.18643        -9.289943       9.287763      -0.002180
   1682    0.69146    7.61663    0.04863        -8.690772       8.690160      -0.000612
   1683    2.17215    6.70151   -2.34717        -8.609419       8.611399       0.001980
   1684    3.09802    5.35845   -1.43205        -9.417326       9.418424       0.001098
   1685    2.73772    5.22083   -3.26228        -9.147658       9.149885       0.002227
   1686   -1.13877    6.12451   -5.29005        -8.809387       8.805649      -0.003737
   1687    0.34192    5.57037   -5.30854        -8.791854       8.790441      -0.001413
   1688    1.82261    4.65525   -4.74297        -9.189667       9.190818       0.001151
   1689    0.47954    3.74014   -5.66885        -9.571729       9.568426      -0.003303
   1690    0.69146    7.61663   -2.91274        -8.335391       8.336883       0.001491
   1691    1.47971    6.35862   -4.05054        -8.558226       8.559681       0.001455
   1692   -0.22365    7.05105   -4.39343        -8.459981       8.459758      -0.000223
   1693   -0.22365    8.18220   -1.43205        -8.465190       8.465983       0.000793
   1694   -1.13877    7.97693    0.18626        -8.942690       8.940887      -0.001803
   1695   -1.13877    7.97693   -3.05036        -8.507477       8.508019       0.000542
   1696   -2.05388    7.05105   -4.39343        -8.833694       8.830871      -0.002823
   1697    9.53132    0.65928    2.66728        -6.855794       6.854938      -0.000856
   1698    8.63470    1.57440    3.59383        -7.078510       7.076328      -0.002182
   1699    8.98424   -2.30209    1.19803        -7.368255       7.367742      -0.000513
   1700    9.54981   -0.82140    2.11314        -6.983283       6.982667      -0.000616
   1701    9.54981    2.13997    2.11314        -6.748705       6.748283      -0.000422
   1702    8.98424    3.62066    1.19803        -6.844743       6.844410      -0.000333
   1703    8.05769    4.51727    0.28291        -7.126978       7.126370      -0.000608
   1704    8.29180    3.27776    2.90139        -7.079761       7.077780      -0.001981
   1705    7.50355    4.53577    1.76360        -7.309967       7.308035      -0.001932
   1706    8.98424    3.62066   -0.63220        -6.882325       6.882895       0.000570
   1707    9.91011    2.27759    0.28291        -6.660529       6.661356       0.000827
   1708   10.11538    0.65928    1.19803        -6.695016       6.695438       0.000422
   1709    9.54981    2.13997   -1.54732        -6.823896       6.825210       0.001313
   1710   10.11538    0.65928   -0.63220        -6.732584       6.733859       0.001275
   1711    9.53132    0.65928   -2.10146        -6.964537       6.965956       0.001419
   1712    8.98424   -2.30209   -0.63220        -7.427731       7.428277       0.000546
   1713    9.54981   -0.82140   -1.54732        -7.076072       7.077271       0.001199
   1714    9.91011   -0.95903    0.28291        -6.910209       6.910815       0.000606
   1715    8.63470   -0.25583   -3.02800        -7.438520       7.439621       0.001101
   1716    8.29180   -1.95920   -2.33557        -7.783731       7.784764       0.001033
   1717    7.15401    2.48951   -3.59358        -7.839425       7.839922       0.000496
   1718    8.63470    1.57440   -3.02800        -7.246369       7.247504       0.001135
   1719    7.29163    0.65928   -3.95388        -8.028527       8.028967       0.000440
   1720    7.50355    4.53577   -1.19777        -7.384393       7.384116      -0.000278
   1721    8.29180    3.27776   -2.33557        -7.204546       7.205297       0.000751
   1722    6.58844    3.97020   -2.67846        -7.920677       7.920591      -0.000086
   1723    6.58844    5.10134    0.28291        -7.706243       7.704495      -0.001748
   1724    2.76347    2.68281    5.99858        -8.554331       8.546827      -0.007504
   1725    4.24416    3.59793    5.43300        -8.028786       8.023394      -0.005392
   1726    2.76347    4.15207    5.41451        -8.345826       8.339673      -0.006153
   1727    5.14784    5.62569    1.55652        -8.056861       8.054224      -0.002637
   1728    5.38195    4.38618    4.17500        -7.816662       7.812456      -0.004206
   1729    4.59370    5.64419    3.03720        -7.941109       7.937952      -0.003157
   1730    3.67858    5.07862    4.51789        -8.045263       8.040895      -0.004368
   1731    3.67858    6.20976    1.55652        -8.367310       8.365215      -0.002095
   1732    1.84835    6.20976    1.55652        -9.164501       9.161982      -0.002519
   1733    2.76347    6.00449    3.17483        -8.417844       8.414167      -0.003677
   1734    0.93324    5.64419    3.03720        -9.414584       9.407650      -0.006934
   1735    1.84835    5.07862    4.51789        -8.685352       8.678980      -0.006373
   1736    2.76347    6.00449   -0.06179        -9.151570       9.151562      -0.000008
   1737    1.28278    3.59793    5.43300        -9.054254       9.044941      -0.009314
   1738    0.14499    4.38618    4.17500        -9.889736       9.877370      -0.012367
   1739   -0.19790    2.68281    4.86743       -10.408447      10.391944      -0.016503
   1740   -0.19790    0.85258    4.86743       -11.163819      11.143867      -0.019952
   1741    1.14516    1.76770    5.79331        -9.529908       9.518172      -0.011736

 NET CHARGES:
 -------------------------------------
 ATOM                CHARGE    E.S.D.
 -------------------------------------
 C                  -0.2344    0.1736
 H                   0.0754    0.0125
 C                   0.0934    0.1985
 C                  -0.2373    0.1529
 C                  -0.1243    0.1375
 N                  -0.3996    0.1507
 C                   0.2118    0.2156
 C                  -0.3254    0.1910
 C                  -0.1109    0.1848
 C                  -0.2234    0.1897
 C                  -0.2298    0.2130
 C                   0.1218    0.2365
 H                   0.0230    0.0134
 H                   0.0309    0.0130
 H                   0.1851    0.0102
 H                   0.3641    0.0128
 H                   0.1777    0.0116
 H                   0.1428    0.0113
 H                   0.1564    0.0114
 H                   0.1803    0.0137
 H                   0.0523    0.0110
 H                   0.0703    0.0120
 -------------------------------------

 RMS DEVIATION IS            0.867 KCAL/MOLE
 RELATIVE RMS DEVIATION IS   9.659 %

 MULTIPOLE MOMENTS:
 ---------------------------------------------------------
 STATUS  ACTUAL VALUE       QUANTITY        FITTED VALUE 
 ---------------------------------------------------------
 FIXED       0.0000       TOTAL CHARGE        -0.0000
             2.1113 D    DIPOLE MOMENT         2.1215 D
 FREE       -0.2265 D          DX             -0.2464 D
 FREE       -2.0621 D          DY             -2.0747 D
 FREE        0.3925 D          DZ              0.3683 D
 FREE        0.0000 BU         QXX             2.2644 BU
 FREE        0.0000 BU         QYY            10.3000 BU
 FREE        0.0000 BU         QZZ           -12.5644 BU
 FREE        0.0000 BU         QXY             3.4465 BU
 FREE        0.0000 BU         QXZ            -4.4005 BU
 FREE        0.0000 BU         QYZ            -4.0526 BU
 ---------------------------------------------------------
 ...... END OF PROPERTY EVALUATION ......
 CPU     0: STEP CPU TIME=     0.39 TOTAL CPU TIME=         25.0 (      0.4 MIN)
 TOTAL WALL CLOCK TIME=         36.4 SECONDS, CPU UTILIZATION IS    68.77%
               873262  WORDS OF DYNAMIC MEMORY USED
 EXECUTION OF GAMESS TERMINATED NORMALLY Sun May 17 17:31:37 2020
 DDI: 263640 bytes (0.3 MB / 0 MWords) used by master data server.
Note: The following floating-point exceptions are signalling: IEEE_UNDERFLOW_FLAGNote: The following floating-point exceptions are signalling: IEEE_UNDERFLOW_FLAGNote: The following floating-point exceptions are signalling:
 ----------------------------------------
 CPU timing information for all processes
 ========================================
 0: 24.802 + 0.243 = 25.46
 1: 23.543 + 0.44 = 23.587
 2: 23.296 + 0.72 = 23.368
 3: 23.710 + 0.64 = 23.775
 4: 23.546 + 0.73 = 23.619
 5: 22.750 + 0.48 = 22.799
 ----------------------------------------
 IEEE_DENORMAL
 IEEE_DENORMAL
 IEEE_UNDERFLOW_FLAG IEEE_DENORMALNote: The following floating-point exceptions are signalling: IEEE_UNDERFLOW_FLAGNote: The following floating-point exceptions are signalling: IEEE_UNDERFLOW_FLAGNote: The following floating-point exceptions are signalling:
 IEEE_DENORMAL
 IEEE_DENORMAL
 IEEE_UNDERFLOW_FLAG IEEE_DENORMAL
 ddikick.x: exited gracefully.
unset echo
----- accounting info -----
Files used on the master node pietdev were:
-rwxr-xr-x 1 piet piet     1406 mei 17 17:31 /home/piet/scr/thryptophan_charge_geodisk.F05*
-rw-r--r-- 1 piet piet 45875200 mei 17 17:31 /home/piet/scr/thryptophan_charge_geodisk.F10
ls: No match.
ls: No match.
ls: No match.
zo 17 mei 2020 17:31:40 CEST
0.102u 0.031s 0:39.55 0.3%	0+0k 0+8io 0pf+0w
