----- GAMESS execution script 'rungms' -----
This job is running on host pietdev
under operating system Linux at zo 17 mei 2020 14:11:36 CEST
Available scratch disk space (Kbyte units) at beginning of the job is
Filesystem     1K-blocks     Used Available Use% Mounted on
/dev/sda2      244568380 30379668 201695656  14% /
GAMESS temporary binary files will be written to /home/piet/scr
GAMESS supplementary output files will be written to /home/piet/gamess/scr
Copying input file hf_fukui_acid.inp to your run's scratch directory...
cp hf_fukui_acid.inp /home/piet/scr/hf_fukui_acid.F05
unset echo
 
Assuming a single but multicore node.
 
/home/piet/gamess/ddikick.x /home/piet/gamess/gamess.03.x hf_fukui_acid -ddi 1 6 pietdev:cpus=6 -scr /home/piet/scr

 Distributed Data Interface kickoff program.
 Initiating 6 compute processes on 1 nodes to run the following command:
 /home/piet/gamess/gamess.03.x hf_fukui_acid 

          ******************************************************
          *         GAMESS VERSION = 30 SEP 2019 (R2)          *
          *             FROM IOWA STATE UNIVERSITY             *
          * M.W.SCHMIDT, K.K.BALDRIDGE, J.A.BOATZ, S.T.ELBERT, *
          *   M.S.GORDON, J.H.JENSEN, S.KOSEKI, N.MATSUNAGA,   *
          *          K.A.NGUYEN, S.J.SU, T.L.WINDUS,           *
          *       TOGETHER WITH M.DUPUIS, J.A.MONTGOMERY       *
          *         J.COMPUT.CHEM.  14, 1347-1363(1993)        *
          **************** 64 BIT LINUX VERSION ****************

  SINCE 1993, STUDENTS AND POSTDOCS WORKING AT IOWA STATE UNIVERSITY
  AND ALSO IN THEIR VARIOUS JOBS AFTER LEAVING ISU HAVE MADE IMPORTANT
  CONTRIBUTIONS TO THE CODE:
     IVANA ADAMOVIC, CHRISTINE AIKENS, YURI ALEXEEV, POOJA ARORA,
     ANDREY ASADCHEV, ROB BELL, PRADIPTA BANDYOPADHYAY, JONATHAN BENTZ,
     COLLEEN BERTONI, BRETT BODE, KURT BRORSEN, CALEB CARLIN, GALINA CHABAN,
     WEI CHEN, CHEOL HO CHOI, PAUL DAY, ALBERT DEFUSCO, NUWAN DESILVA,
     TIM DUDLEY, DMITRI FEDOROV, ALEX FINDLATER, GRAHAM FLETCHER, 
     MARK FREITAG, KURT GLAESEMANN, EMILIE B GUIDEZ, ANASTASIA GUNINA, 
     DAN KEMP, SAROM SOK LEANG, GRANT MERRILL,
     NORIYUKI MINEZAWA, JONATHAN MULLIN,
     TAKESHI NAGATA, SEAN NEDD, HEATHER NETZLOFF, BOSILJKA NJEGIC, RYAN OLSON,
     MIKE PAK, BUU PHAM, DAVID POOLE,
     SPENCER PRUITT, LUKE ROSKOP, TOSAPORN SATTASATHUCHANA,
     JIM SHOEMAKER, LYUDMILA SLIPCHENKO,
     TONY SMITH, JIE SONG, TETSUYA TAKETSUGU, SIMON WEBB,
     JORGE LUIS GALVEZ VALLEJO, PENG XU, SOOHAENG YOO,
     FEDERICO ZAHARIEV

  ADDITIONAL CODE HAS BEEN PROVIDED BY COLLABORATORS IN OTHER GROUPS:
     IOWA STATE UNIVERSITY:
          JOE IVANIC, AARON WEST, LAIMUTIS BYTAUTAS, KLAUS RUEDENBERG
     UNIVERSITY OF TOKYO: KIMIHIKO HIRAO, TAKAHITO NAKAJIMA,
          TAKAO TSUNEDA, MUNEAKI KAMIYA, SUSUMU YANAGISAWA,
          KIYOSHI YAGI, MAHITO CHIBA, SEIKEN TOKURA, NAOAKI KAWAKAMI
     UNIVERSITY OF AARHUS: FRANK JENSEN
     UNIVERSITY OF IOWA: VISVALDAS KAIRYS, HUI LI
     NATIONAL INST. OF STANDARDS AND TECHNOLOGY: WALT STEVENS, DAVID GARMER
     UNIVERSITY OF PISA: BENEDETTA MENNUCCI, JACOPO TOMASI
     UNIVERSITY OF MEMPHIS: HENRY KURTZ, PRAKASHAN KORAMBATH
     UNIVERSITY OF ALBERTA: TOBY ZENG, MARIUSZ KLOBUKOWSKI
     UNIVERSITY OF NEW ENGLAND: MARK SPACKMAN
     MIE UNIVERSITY: HIROAKI UMEDA
     NAT. INST. OF ADVANCED INDUSTRIAL SCIENCE AND TECHNOLOGY: KAZUO KITAURA
     MICHIGAN STATE UNIVERSITY:
          KAROL KOWALSKI, MARTA WLOCH, JEFFREY GOUR, JESSE LUTZ,
          WEI LI, JUN SHEN, J. EMILIANO DEUSTUA, PIOTR PIECUCH
     UNIVERSITY OF MINNESOTA:
          ANDREW SAND, PRACHI SHARMA, YINAN SHU
     UNIVERSITY OF SILESIA: MONIKA MUSIAL, STANISLAW KUCHARSKI
     FACULTES UNIVERSITAIRES NOTRE-DAME DE LA PAIX:
          OLIVIER QUINET, BENOIT CHAMPAGNE
     UNIVERSITY OF CALIFORNIA - SANTA BARBARA: BERNARD KIRTMAN
     INSTITUTE FOR MOLECULAR SCIENCE:
          KAZUYA ISHIMURA, MICHIO KATOUDA, AND SHIGERU NAGASE
     UNIVERSITY OF NOTRE DAME: ANNA POMOGAEVA, DAN CHIPMAN
     KYUSHU UNIVERSITY:
          HARUYUKI NAKANO,
          FENG LONG GU, JACEK KORCHOWIEC, MARCIN MAKOWSKI, AND YURIKO AOKI,
          HIROTOSHI MORI AND EISAKU MIYOSHI
     PENNSYLVANIA STATE UNIVERSITY:
          TZVETELIN IORDANOV, CHET SWALINA, JONATHAN SKONE,
          SHARON HAMMES-SCHIFFER
     WASEDA UNIVERSITY:
          MASATO KOBAYASHI, TOMOKO AKAMA, TSUGUKI TOUMA,
          TAKESHI YOSHIKAWA, YASUHIRO IKABATA, JUNJI SEINO,
          YUYA NAKAJIMA, HIROMI NAKAI
     NANJING UNIVERSITY: SHUHUA LI
     UNIVERSITY OF NEBRASKA:
          PEIFENG SU, DEJUN SI, NANDUN THELLAMUREGE, YALI WANG, HUI LI
     UNIVERSITY OF ZURICH: ROBERTO PEVERATI, KIM BALDRIDGE
     N. COPERNICUS UNIVERSITY AND JACKSON STATE UNIVERSITY:
          MARIA BARYSZ
     UNIVERSITY OF COPENHAGEN: Jimmy Kromann, CASPER STEINMANN
     TOKYO INSTITUTE OF TECHNOLOGY: HIROYA NAKATA
     NAGOYA UNIVERSITY: YOSHIO NISHIMOTO, STEPHAN IRLE
     MOSCOW STATE UNIVERSITY: VLADIMIR MIRONOV
     A.N.NESMEYANOV INSTITUTE OF ORGANOELEMENT COMPOUNDS OF RUSSIAN ACADEMY OF SCIENCES:
          IGOR S. GERASIMOV
     JOHANNES KEPLER UNIVERSITY LINZ:
          CHRISTIAN FRIEDL


 PARALLEL VERSION RUNNING ON        6 PROCESSORS IN        1 NODES.

 EXECUTION OF GAMESS BEGUN Sun May 17 14:11:36 2020

            ECHO OF THE FIRST FEW INPUT CARDS -
 INPUT CARD> $BASIS GBASIS=N21 NGAUSS=3 $END                                                
 INPUT CARD> $CONTRL SCFTYP=UHF MAXIT=60 MULT=2 ICHARG=-1 $END                              
 INPUT CARD> $SYSTEM MEMDDI=1000 MWORDS=30 $END                                             
 INPUT CARD> $SCF DIRSCF=.TRUE. $END                                                        
 INPUT CARD> $STATPT OPTTOL=0.0001 NSTEP=999 $END                                           
 INPUT CARD> $DATA                                                                          
 INPUT CARD>                                                                                
 INPUT CARD>C1                                                                              
 INPUT CARD>F 9.0000000 -4.3672275160 2.6088700000 0.0000000000                             
 INPUT CARD>H 1.0000000 -3.3981724840 2.6088700000 0.0000000000                             
 INPUT CARD> $END                                                                           
   30000000 WORDS OF MEMORY AVAILABLE

     BASIS OPTIONS
     -------------
     GBASIS=N21          IGAUSS=       3      POLAR=NONE    
     NDFUNC=       0     NFFUNC=       0     DIFFSP=       F
     NPFUNC=       0      DIFFS=       F     BASNAM=        


     RUN TITLE
     ---------
                                                                                 

 THE POINT GROUP OF THE MOLECULE IS C1      
 THE ORDER OF THE PRINCIPAL AXIS IS     0

 ATOM      ATOMIC                      COORDINATES (BOHR)
           CHARGE         X                   Y                   Z
 F           9.0    -8.2528633313        4.9300494376        0.0000000000
 H           1.0    -6.4216148538        4.9300494376        0.0000000000

          INTERNUCLEAR DISTANCES (ANGS.)
          ------------------------------

                1 F          2 H     

   1 F       0.0000000    0.9690550 *
   2 H       0.9690550 *  0.0000000  

  * ... LESS THAN  3.000


     ATOMIC BASIS SET
     ----------------
 THE CONTRACTED PRIMITIVE FUNCTIONS HAVE BEEN UNNORMALIZED
 THE CONTRACTED BASIS FUNCTIONS ARE NOW NORMALIZED TO UNITY

  SHELL TYPE  PRIMITIVE        EXPONENT          CONTRACTION COEFFICIENT(S)

 F         

      1   S       1           413.8010000    0.058548302929
      1   S       2            62.2446000    0.349308017477
      1   S       3            13.4340000    0.709632035505

      2   L       4             9.7775900   -0.407326277682    0.246680003198
      2   L       5             2.0861700    1.223137830990    0.852321011049

      3   L       6             0.4823830    1.000000000000    1.000000000000

 H         

      4   S       7             5.4471780    0.156284978695
      4   S       8             0.8245472    0.904690876670

      5   S       9             0.1831916    1.000000000000

 TOTAL NUMBER OF BASIS SET SHELLS             =    5
 NUMBER OF CARTESIAN GAUSSIAN BASIS FUNCTIONS =   11
 NUMBER OF ELECTRONS                          =   11
 CHARGE OF MOLECULE                           =   -1
 SPIN MULTIPLICITY                            =    2
 NUMBER OF OCCUPIED ORBITALS (ALPHA)          =    6
 NUMBER OF OCCUPIED ORBITALS (BETA )          =    5
 TOTAL NUMBER OF ATOMS                        =    2
 THE NUCLEAR REPULSION ENERGY IS        4.9146798540

 THIS MOLECULE IS RECOGNIZED AS BEING LINEAR,
 ORBITAL LZ DEGENERACY TOLERANCE ETOLLZ= 1.00E-06

     $CONTRL OPTIONS
     ---------------
 SCFTYP=UHF          RUNTYP=ENERGY       EXETYP=RUN     
 MPLEVL=       0     CITYP =NONE         CCTYP =NONE         VBTYP =NONE    
 DFTTYP=NONE         TDDFT =NONE    
 MULT  =       2     ICHARG=      -1     NZVAR =       0     COORD =UNIQUE  
 PP    =NONE         RELWFN=NONE         LOCAL =NONE         NUMGRD=       F
 ISPHER=      -1     NOSYM =       0     MAXIT =      60     UNITS =ANGS    
 PLTORB=       F     MOLPLT=       F     AIMPAC=       F     FRIEND=        
 NPRINT=       7     IREST =       0     GEOM  =INPUT   
 NORMF =       0     NORMP =       0     ITOL  =      20     ICUT  =       9
 INTTYP=BEST         GRDTYP=BEST         QMTTOL= 1.0E-06

     $SYSTEM OPTIONS
     ---------------
  REPLICATED MEMORY=    30000000 WORDS (ON EVERY NODE).
 DISTRIBUTED MEMDDI=        1000 MILLION WORDS IN AGGREGATE,
 MEMDDI DISTRIBUTED OVER   6 PROCESSORS IS   166666666 WORDS/PROCESSOR.
 TOTAL MEMORY REQUESTED ON EACH PROCESSOR=   196666666 WORDS.
 TIMLIM=      525600.00 MINUTES, OR     365.0 DAYS.
 PARALL= T  BALTYP=  DLB     KDIAG=    0  COREFL= F
 MXSEQ2=     300 MXSEQ3=     150  mem10=         0

          ----------------
          PROPERTIES INPUT
          ----------------

     MOMENTS            FIELD           POTENTIAL          DENSITY
 IEMOM =       1   IEFLD =       0   IEPOT =       0   IEDEN =       0
 WHERE =COMASS     WHERE =NUCLEI     WHERE =NUCLEI     WHERE =NUCLEI  
 OUTPUT=BOTH       OUTPUT=BOTH       OUTPUT=BOTH       OUTPUT=BOTH    
 IEMINT=       0   IEFINT=       0                     IEDINT=       0
                                                       MORB  =       0
          EXTRAPOLATION IN EFFECT
          SOSCF IN EFFECT
          DIIS or SOSCF will be reset if energy rises
 ORBITAL PRINTING OPTION: NPREO=     1    11     2     1

     -------------------------------
     INTEGRAL TRANSFORMATION OPTIONS
     -------------------------------
     NWORD  =            0
     CUTOFF = 1.0E-09     MPTRAN =       0
     DIRTRF =       T     AOINTS =DUP     

          ----------------------
          INTEGRAL INPUT OPTIONS
          ----------------------
 NOPK  =       1 NORDER=       0 SCHWRZ=       T

     ------------------------------------------
     THE POINT GROUP IS C1 , NAXIS= 0, ORDER= 1
     ------------------------------------------

     DIMENSIONS OF THE SYMMETRY SUBSPACES ARE
 A   =   11

 ..... DONE SETTING UP THE RUN .....
 CPU     0: STEP CPU TIME=     0.02 TOTAL CPU TIME=          0.0 (      0.0 MIN)
 TOTAL WALL CLOCK TIME=          0.0 SECONDS, CPU UTILIZATION IS    66.67%

          ********************
          1 ELECTRON INTEGRALS
          ********************
 ...... END OF ONE-ELECTRON INTEGRALS ......
 CPU     0: STEP CPU TIME=     0.00 TOTAL CPU TIME=          0.0 (      0.0 MIN)
 TOTAL WALL CLOCK TIME=          0.0 SECONDS, CPU UTILIZATION IS    50.00%

          -------------
          GUESS OPTIONS
          -------------
          GUESS =HUCKEL            NORB  =       0          NORDER=       0
          MIX   =       F          PRTMO =       F          PUNMO =       F
          TOLZ  = 1.0E-08          TOLE  = 1.0E-05
          SYMDEN=       F          PURIFY=       F

 INITIAL GUESS ORBITALS GENERATED BY HUCKEL   ROUTINE.
 HUCKEL GUESS REQUIRES      2513 WORDS.

 SYMMETRIES FOR INITIAL GUESS ORBITALS FOLLOW.  ALPHA SET(S).
     6 ORBITALS ARE OCCUPIED (    1 CORE ORBITALS).
     2=A        3=A        4=A        5=A        6=A        7=A        8=A   
     9=A       10=A       11=A   

 SYMMETRIES FOR INITIAL GUESS ORBITALS FOLLOW.   BETA SET(S).
     5 ORBITALS ARE OCCUPIED (    1 CORE ORBITALS).
     2=A        3=A        4=A        5=A        6=A        7=A        8=A   
     9=A       10=A       11=A   
 ...... END OF INITIAL ORBITAL SELECTION ......
 CPU     0: STEP CPU TIME=     0.02 TOTAL CPU TIME=          0.0 (      0.0 MIN)
 TOTAL WALL CLOCK TIME=          0.1 SECONDS, CPU UTILIZATION IS    66.67%

                    ----------------------
                    AO INTEGRAL TECHNOLOGY
                    ----------------------
     S,P,L SHELL ROTATED AXIS INTEGRALS, REPROGRAMMED BY
        KAZUYA ISHIMURA (IMS) AND JOSE SIERRA (SYNSTAR).
     S,P,D,L SHELL ROTATED AXIS INTEGRALS PROGRAMMED BY
        KAZUYA ISHIMURA (INSTITUTE FOR MOLECULAR SCIENCE).
     S,P,D,F,G SHELL TO TOTAL QUARTET ANGULAR MOMENTUM SUM 5,
        ERIC PROGRAM BY GRAHAM FLETCHER (ELORET AND NASA ADVANCED
        SUPERCOMPUTING DIVISION, AMES RESEARCH CENTER).
     S,P,D,F,G,L SHELL GENERAL RYS QUADRATURE PROGRAMMED BY
        MICHEL DUPUIS (PACIFIC NORTHWEST NATIONAL LABORATORY).

          --------------------
          2 ELECTRON INTEGRALS
          --------------------

 DIRECT SCF METHOD SKIPS INTEGRAL STORAGE ON DISK.
 DIRECT TRANSFORMATION SKIPS AO INTEGRAL STORAGE ON DISK.
  ...... END OF TWO-ELECTRON INTEGRALS .....
 CPU     0: STEP CPU TIME=     0.01 TOTAL CPU TIME=          0.0 (      0.0 MIN)
 TOTAL WALL CLOCK TIME=          0.1 SECONDS, CPU UTILIZATION IS    71.43%

          ---------------------------
                  UHF SCF CALCULATION
          ---------------------------

     NUCLEAR ENERGY =         4.9146798540
     MAXIT = 60     NPUNCH=  2     MULT=  2
     EXTRAP=T  DAMP=F  SHIFT=F  RSTRCT=F  DIIS=F  SOSCF=T
     DENSITY MATRIX CONV=  2.00E-05
     SOSCF WILL OPTIMIZE      30 ALPHA AND      30 BETA ROTATION ANGLES.
     SOGTOL= 2.500E-01
     MEMORY REQUIRED FOR UHF/ROHF ITERS=     46192 WORDS.

 DIRECT SCF CALCULATION, SCHWRZ=T   FDIFF=T
 SCHWARZ INEQUALITY OVERHEAD:        66 INTEGRALS, T=        0.00

                                                                                NONZERO     BLOCKS
 ITER EX      TOTAL ENERGY        E CHANGE  DENSITY CHANGE    ORB. GRAD       INTEGRALS    SKIPPED
   1  0      -98.8188735545   -98.8188735545   0.959740509   0.000000000            677          0
          ---------------START SECOND ORDER SCF---------------
   2  1      -99.1811855892    -0.3623120347   0.237475227   0.104610193            677          0
   3  2      -99.2163319161    -0.0351463269   0.126406962   0.049979767            677          0
   4  3      -99.2216013515    -0.0052694355   0.012317399   0.005712441            677          0
   5  4      -99.2217047372    -0.0001033857   0.002162803   0.001246011            677          0
   6  5      -99.2217108052    -0.0000060680   0.000425298   0.000351685            677          0
   7  6      -99.2217111611    -0.0000003559   0.000151986   0.000139338            677          0
   8  7      -99.2217112154    -0.0000000542   0.000029016   0.000038450            677          0
   9  8      -99.2217112184    -0.0000000030   0.000013366   0.000011233            677          0
  10  9      -99.2217112188    -0.0000000004   0.000004003   0.000003353            677          0

          -----------------
          DENSITY CONVERGED
          -----------------
     TIME TO FORM FOCK OPERATORS=       0.0 SECONDS (       0.0 SEC/ITER)
     FOCK TIME ON FIRST ITERATION=       0.0, LAST ITERATION=       0.0
     TIME TO SOLVE SCF EQUATIONS=       0.0 SECONDS (       0.0 SEC/ITER)

 FINAL UHF ENERGY IS      -99.2217112188 AFTER  10 ITERATIONS

          --------------------
          SPIN SZ   =    0.500
          S-SQUARED =    0.751
          --------------------

 LZ VALUE ANALYSIS FOR THE MOS
 ----------------------------------------
 MO     1 (    1) HAS LZ(WEIGHT)= 0.00(100.0%) 
 MO     2 (    2) HAS LZ(WEIGHT)= 0.00(100.0%) 
 MO     3 (    3) HAS LZ(WEIGHT)= 0.00(100.0%) 
 MO     4 (    4) HAS LZ(WEIGHT)= 0.00(100.0%) 
 MO     5 (    4) HAS LZ(WEIGHT)= 0.00(100.0%) 
 MO     6 (    5) HAS LZ(WEIGHT)= 0.00(100.0%) 
 MO     7 (    6) HAS LZ(WEIGHT)= 0.00(100.0%) 
 MO     8 (    7) HAS LZ(WEIGHT)= 0.00(100.0%) 
 MO     9 (    7) HAS LZ(WEIGHT)= 0.00(100.0%) 
 MO    10 (    8) HAS LZ(WEIGHT)= 0.00(100.0%) 
 MO    11 (    9) HAS LZ(WEIGHT)= 0.00(100.0%) 

  ----- ALPHA SET ----- 

          ------------
          EIGENVECTORS
          ------------

                      1          2          3          4          5
                  -25.6447    -1.1361    -0.3269    -0.1782    -0.1782
                     A          A          A          A          A   
    1  F  1  S    0.981705  -0.248462   0.058897   0.000000   0.000000
    2  F  1  S    0.094968   0.239442  -0.034594   0.000000   0.000000
    3  F  1  X    0.001748   0.066831   0.452107   0.000000   0.000000
    4  F  1  Y   -0.000000  -0.000000  -0.000000   0.000000   0.524456
    5  F  1  Z   -0.000000  -0.000000  -0.000000   0.524456   0.000000
    6  F  1  S   -0.028973   0.781603  -0.297964   0.000000   0.000000
    7  F  1  X   -0.004146   0.052665   0.483572   0.000000   0.000000
    8  F  1  Y   -0.000000  -0.000000  -0.000000   0.000000   0.632999
    9  F  1  Z   -0.000000  -0.000000  -0.000000   0.632999   0.000000
   10  H  2  S    0.002200   0.075347   0.197273   0.000000   0.000000
   11  H  2  S    0.006166   0.026040   0.209259   0.000000   0.000000

                      6          7          8          9         10
                    0.2247     1.6066     2.6434     2.6434     2.7995
                     A          A          A          A          A   
    1  F  1  S    0.074101   0.024096  -0.000000   0.000000  -0.044119
    2  F  1  S   -0.031973  -0.048349  -0.000000   0.000000   0.188303
    3  F  1  X   -0.260709  -0.258794  -0.000000   0.000000  -0.994682
    4  F  1  Y    0.000000  -0.000000  -0.000000   1.018898   0.000000
    5  F  1  Z    0.000000  -0.000000   1.018898   0.000000   0.000000
    6  F  1  S   -0.628765   0.069225  -0.000000   0.000000   0.026792
    7  F  1  X   -0.477635  -0.222852  -0.000000   0.000000   1.174057
    8  F  1  Y    0.000000  -0.000000  -0.000000  -0.955258   0.000000
    9  F  1  Z    0.000000  -0.000000  -0.955258   0.000000   0.000000
   10  H  2  S    0.112203   1.341751  -0.000000   0.000000  -0.438275
   11  H  2  S    1.178357  -0.904149  -0.000000   0.000000  -0.084914

                     11
                    4.0556
                     A   
    1  F  1  S    0.120707
    2  F  1  S   -1.517249
    3  F  1  X   -0.176512
    4  F  1  Y    0.000000
    5  F  1  Z    0.000000
    6  F  1  S    1.520772
    7  F  1  X    0.404701
    8  F  1  Y    0.000000
    9  F  1  Z    0.000000
   10  H  2  S   -0.247268
   11  H  2  S   -0.349531

 LZ VALUE ANALYSIS FOR THE MOS
 ----------------------------------------
 MO     1 (    1) HAS LZ(WEIGHT)= 0.00(100.0%) 
 MO     2 (    2) HAS LZ(WEIGHT)= 0.00(100.0%) 
 MO     3 (    3) HAS LZ(WEIGHT)= 0.00(100.0%) 
 MO     4 (    4) HAS LZ(WEIGHT)= 0.00(100.0%) 
 MO     5 (    4) HAS LZ(WEIGHT)= 0.00(100.0%) 
 MO     6 (    5) HAS LZ(WEIGHT)= 0.00(100.0%) 
 MO     7 (    6) HAS LZ(WEIGHT)= 0.00(100.0%) 
 MO     8 (    7) HAS LZ(WEIGHT)= 0.00(100.0%) 
 MO     9 (    7) HAS LZ(WEIGHT)= 0.00(100.0%) 
 MO    10 (    8) HAS LZ(WEIGHT)= 0.00(100.0%) 
 MO    11 (    9) HAS LZ(WEIGHT)= 0.00(100.0%) 

  ----- BETA SET ----- 

          ------------
          EIGENVECTORS
          ------------

                      1          2          3          4          5
                  -25.6240    -1.0760    -0.2367    -0.1587    -0.1587
                     A          A          A          A          A   
    1  F  1  S    0.981842  -0.247562   0.047365  -0.000000  -0.000000
    2  F  1  S    0.094525   0.225350  -0.042568  -0.000000  -0.000000
    3  F  1  X    0.001610   0.019487   0.430072  -0.000000  -0.000000
    4  F  1  Y   -0.000000  -0.000000  -0.000000   0.020634   0.517476
    5  F  1  Z   -0.000000  -0.000000  -0.000000   0.517476  -0.020634
    6  F  1  S   -0.029035   0.795249  -0.232379  -0.000000  -0.000000
    7  F  1  X   -0.004144   0.028860   0.508125  -0.000000  -0.000000
    8  F  1  Y   -0.000000  -0.000000  -0.000000   0.025465   0.638627
    9  F  1  Z   -0.000000  -0.000000  -0.000000   0.638627  -0.025465
   10  H  2  S    0.002212   0.075249   0.212654  -0.000000  -0.000000
   11  H  2  S    0.006238   0.033556   0.188335  -0.000000  -0.000000

                      6          7          8          9         10
                    0.6979     1.6723     2.6623     2.6623     2.8510
                     A          A          A          A          A   
    1  F  1  S    0.079183   0.031275   0.000000  -0.000000  -0.043754
    2  F  1  S   -0.032396  -0.042505   0.000000  -0.000000   0.230066
    3  F  1  X   -0.224317  -0.261722   0.000000  -0.000000  -1.006484
    4  F  1  Y    0.000000  -0.000000   0.009833   1.022205  -0.000000
    5  F  1  Z    0.000000  -0.000000   1.022205  -0.009833  -0.000000
    6  F  1  S   -0.660113   0.004486   0.000000  -0.000000  -0.034495
    7  F  1  X   -0.482962  -0.292324   0.000000  -0.000000   1.138751
    8  F  1  Y    0.000000  -0.000000  -0.009149  -0.951121  -0.000000
    9  F  1  Z    0.000000  -0.000000  -0.951121   0.009149  -0.000000
   10  H  2  S    0.025016   1.353024   0.000000  -0.000000  -0.407031
   11  H  2  S    1.240861  -0.818437   0.000000  -0.000000  -0.073495

                     11
                    4.1107
                     A   
    1  F  1  S   -0.121779
    2  F  1  S    1.513636
    3  F  1  X    0.217236
    4  F  1  Y   -0.000000
    5  F  1  Z   -0.000000
    6  F  1  S   -1.513243
    7  F  1  X   -0.426760
    8  F  1  Y   -0.000000
    9  F  1  Z   -0.000000
   10  H  2  S    0.250691
   11  H  2  S    0.358172
 ...... END OF UHF CALCULATION ......
 CPU     0: STEP CPU TIME=     0.05 TOTAL CPU TIME=          0.1 (      0.0 MIN)
 TOTAL WALL CLOCK TIME=          0.1 SECONDS, CPU UTILIZATION IS    83.33%

     ----------------------------------------------------------------
     PROPERTY VALUES FOR THE UHF   SELF-CONSISTENT FIELD WAVEFUNCTION
     ----------------------------------------------------------------

          -----------------
          ENERGY COMPONENTS
          -----------------

         WAVEFUNCTION NORMALIZATION =       1.0000000000

                ONE ELECTRON ENERGY =    -153.7792968301
                TWO ELECTRON ENERGY =      49.6429057573
           NUCLEAR REPULSION ENERGY =       4.9146798540
                                      ------------------
                       TOTAL ENERGY =     -99.2217112188

 ELECTRON-ELECTRON POTENTIAL ENERGY =      49.6429057573
  NUCLEUS-ELECTRON POTENTIAL ENERGY =    -253.7974985028
   NUCLEUS-NUCLEUS POTENTIAL ENERGY =       4.9146798540
                                      ------------------
             TOTAL POTENTIAL ENERGY =    -199.2399128915
               TOTAL KINETIC ENERGY =     100.0182016727
                 VIRIAL RATIO (V/T) =       1.9920365449

  ...... PI ENERGY ANALYSIS ......

 ENERGY ANALYSIS:
            FOCK ENERGY=    -54.4934919786
          BARE H ENERGY=   -153.7792968301
     ELECTRONIC ENERGY =   -104.1363944043
         KINETIC ENERGY=    100.0182016727
          N-N REPULSION=      4.9146798540
           TOTAL ENERGY=    -99.2217145503
        SIGMA PART(1+2)=    -95.5466307903
               (K,V1,2)=     93.9011840233   -230.8378958996     41.3900810860
           PI PART(1+2)=     -8.5897636141
               (K,V1,2)=      6.1170176494    -22.9596026032      8.2528213397
  SIGMA SKELETON, ERROR=    -90.6319509363      0.0000000000
             MIXED PART=-1.82131E-33 0.00000E+00 0.00000E+00-1.82131E-33
 ...... END OF PI ENERGY ANALYSIS ......

          ---------------------------------------
          MULLIKEN AND LOWDIN POPULATION ANALYSES
          ---------------------------------------

     ATOMIC MULLIKEN POPULATION IN EACH MOLECULAR ORBITAL
        ALPHA ORBITALS

                      1          2          3          4          5

                  1.000000   1.000000   1.000000   1.000000   1.000000

    1             0.999560   0.954482   0.808488   1.000000   1.000000
    2             0.000440   0.045518   0.191512   0.000000   0.000000

                      6

                  1.000000

    1             0.129498
    2             0.870502

     ATOMIC MULLIKEN POPULATION IN EACH MOLECULAR ORBITAL
         BETA ORBITALS

                      1          2          3          4          5

                  1.000000   1.000000   1.000000   1.000000   1.000000

    1             0.999556   0.951196   0.795902   1.000000   1.000000
    2             0.000444   0.048804   0.204098   0.000000   0.000000

     ATOMIC SPIN POPULATION (ALPHA MINUS BETA)
       ATOM         MULL.POP.                    LOW.POP.
    1 F             0.145371                     0.272776
    2 H             0.854629                     0.727224


          ********* ALL ELECTRONS ********

               ----- POPULATIONS IN EACH AO -----
                             MULLIKEN      LOWDIN
              1  F  1  S      1.98498     1.98179
              2  F  1  S      0.43013     0.62497
              3  F  1  X      0.75012     0.76287
              4  F  1  Y      0.86704     0.88397
              5  F  1  Z      0.86704     0.88397
              6  F  1  S      1.52847     1.30216
              7  F  1  X      0.94499     0.94660
              8  F  1  Y      1.13296     1.11603
              9  F  1  Z      1.13296     1.11603
             10  H  2  S      0.33684     0.39900
             11  H  2  S      1.02448     0.98262

          ----- MULLIKEN ATOMIC OVERLAP POPULATIONS -----
          (OFF-DIAGONAL ELEMENTS NEED TO BE MULTIPLIED BY 2)

             1           2

    1   10.1367965
    2   -0.4981135   1.8594305

          TOTAL MULLIKEN AND LOWDIN ATOMIC POPULATIONS
       ATOM         MULL.POP.    CHARGE          LOW.POP.     CHARGE
    1 F             9.638683   -0.638683         9.618382   -0.618382
    2 H             1.361317   -0.361317         1.381618   -0.381618

          -------------------------------
          BOND ORDER AND VALENCE ANALYSIS     BOND ORDER THRESHOLD=0.050
          -------------------------------

                   BOND                       BOND                       BOND
  ATOM PAIR DIST  ORDER      ATOM PAIR DIST  ORDER      ATOM PAIR DIST  ORDER
    1   2  0.969  0.355

                       TOTAL       BONDED        FREE
      ATOM            VALENCE     VALENCE     VALENCE
    1 F                 0.402       0.355       0.047
    2 H                 1.099       0.355       0.744

          -----------------------------------------
          ATOMIC SPIN DENSITY AT THE NUCLEUS (A.U.)
          -----------------------------------------
                            SPIN DENS    ALPHA DENS     BETA DENS
    1  F            9.0     0.9050102     169.26366     168.35865
    2  H            1.0     0.0236244       0.15476       0.13114

          ---------------------
          ELECTROSTATIC MOMENTS
          ---------------------

 POINT   1           X           Y           Z (BOHR)    CHARGE
                -8.160613    4.930049    0.000000       -1.00 (A.U.)
         DX          DY          DZ         /D/  (DEBYE)
    -2.134980    0.000000   -0.000000    2.134980
 ...... END OF PROPERTY EVALUATION ......
 CPU     0: STEP CPU TIME=     0.02 TOTAL CPU TIME=          0.1 (      0.0 MIN)
 TOTAL WALL CLOCK TIME=          0.1 SECONDS, CPU UTILIZATION IS    92.31%
               580000  WORDS OF DYNAMIC MEMORY USED
 EXECUTION OF GAMESS TERMINATED NORMALLY Sun May 17 14:11:36 2020
 DDI: 263640 bytes (0.3 MB / 0 MWords) used by master data server.
Note: The following floating-point exceptions are signalling: IEEE_UNDERFLOW_FLAG IEEE_DENORMALNote: The following floating-point exceptions are signalling: IEEE_UNDERFLOW_FLAGNote: The following floating-point exceptions are signalling: IEEE_UNDERFLOW_FLAGNote: The following floating-point exceptions are signalling: IEEE_UNDERFLOW_FLAG

 ----------------------------------------
 CPU timing information for all processes
 ========================================
 0: 0.46 + 0.81 = 0.128
 1: 0.10 + 0.10 = 0.21
 2: 0.07 + 0.12 = 0.20
 3: 0.14 + 0.07 = 0.21
 4: 0.10 + 0.10 = 0.20
 5: 0.15 + 0.00 = 0.15
 ----------------------------------------
 IEEE_DENORMAL
 IEEE_DENORMAL
 IEEE_DENORMAL
Note: The following floating-point exceptions are signalling: IEEE_UNDERFLOW_FLAGNote: The following floating-point exceptions are signalling: IEEE_DENORMAL
 IEEE_UNDERFLOW_FLAG IEEE_DENORMAL
 ddikick.x: exited gracefully.
unset echo
----- accounting info -----
Files used on the master node pietdev were:
-rwxr-xr-x 1 piet piet      304 mei 17 14:11 /home/piet/scr/hf_fukui_acid.F05*
-rw-r--r-- 1 piet piet 70451200 mei 17 14:11 /home/piet/scr/hf_fukui_acid.F10
ls: No match.
ls: No match.
ls: No match.
zo 17 mei 2020 14:11:39 CEST
0.114u 0.020s 0:03.28 3.9%	0+0k 0+8io 0pf+0w
