----- GAMESS execution script 'rungms' -----
This job is running on host pietdev
under operating system Linux at vr 22 mei 2020 15:20:46 CEST
Available scratch disk space (Kbyte units) at beginning of the job is
Filesystem     1K-blocks     Used Available Use% Mounted on
/dev/sda2      244568380 31372628 200702696  14% /
GAMESS temporary binary files will be written to /home/piet/scr
GAMESS supplementary output files will be written to /home/piet/gamess/scr
Copying input file c-d-ribose_fukui_base.inp to your run's scratch directory...
cp c-d-ribose_fukui_base.inp /home/piet/scr/c-d-ribose_fukui_base.F05
unset echo
 
Assuming a single but multicore node.
 
/home/piet/gamess/ddikick.x /home/piet/gamess/gamess.03.x c-d-ribose_fukui_base -ddi 1 8 pietdev:cpus=8 -scr /home/piet/scr

 Distributed Data Interface kickoff program.
 Initiating 8 compute processes on 1 nodes to run the following command:
 /home/piet/gamess/gamess.03.x c-d-ribose_fukui_base 

          ******************************************************
          *         GAMESS VERSION = 30 SEP 2019 (R2)          *
          *             FROM IOWA STATE UNIVERSITY             *
          * M.W.SCHMIDT, K.K.BALDRIDGE, J.A.BOATZ, S.T.ELBERT, *
          *   M.S.GORDON, J.H.JENSEN, S.KOSEKI, N.MATSUNAGA,   *
          *          K.A.NGUYEN, S.J.SU, T.L.WINDUS,           *
          *       TOGETHER WITH M.DUPUIS, J.A.MONTGOMERY       *
          *         J.COMPUT.CHEM.  14, 1347-1363(1993)        *
          **************** 64 BIT LINUX VERSION ****************

  SINCE 1993, STUDENTS AND POSTDOCS WORKING AT IOWA STATE UNIVERSITY
  AND ALSO IN THEIR VARIOUS JOBS AFTER LEAVING ISU HAVE MADE IMPORTANT
  CONTRIBUTIONS TO THE CODE:
     IVANA ADAMOVIC, CHRISTINE AIKENS, YURI ALEXEEV, POOJA ARORA,
     ANDREY ASADCHEV, ROB BELL, PRADIPTA BANDYOPADHYAY, JONATHAN BENTZ,
     COLLEEN BERTONI, BRETT BODE, KURT BRORSEN, CALEB CARLIN, GALINA CHABAN,
     WEI CHEN, CHEOL HO CHOI, PAUL DAY, ALBERT DEFUSCO, NUWAN DESILVA,
     TIM DUDLEY, DMITRI FEDOROV, ALEX FINDLATER, GRAHAM FLETCHER, 
     MARK FREITAG, KURT GLAESEMANN, EMILIE B GUIDEZ, ANASTASIA GUNINA, 
     DAN KEMP, SAROM SOK LEANG, GRANT MERRILL,
     NORIYUKI MINEZAWA, JONATHAN MULLIN,
     TAKESHI NAGATA, SEAN NEDD, HEATHER NETZLOFF, BOSILJKA NJEGIC, RYAN OLSON,
     MIKE PAK, BUU PHAM, DAVID POOLE,
     SPENCER PRUITT, LUKE ROSKOP, TOSAPORN SATTASATHUCHANA,
     JIM SHOEMAKER, LYUDMILA SLIPCHENKO,
     TONY SMITH, JIE SONG, TETSUYA TAKETSUGU, SIMON WEBB,
     JORGE LUIS GALVEZ VALLEJO, PENG XU, SOOHAENG YOO,
     FEDERICO ZAHARIEV

  ADDITIONAL CODE HAS BEEN PROVIDED BY COLLABORATORS IN OTHER GROUPS:
     IOWA STATE UNIVERSITY:
          JOE IVANIC, AARON WEST, LAIMUTIS BYTAUTAS, KLAUS RUEDENBERG
     UNIVERSITY OF TOKYO: KIMIHIKO HIRAO, TAKAHITO NAKAJIMA,
          TAKAO TSUNEDA, MUNEAKI KAMIYA, SUSUMU YANAGISAWA,
          KIYOSHI YAGI, MAHITO CHIBA, SEIKEN TOKURA, NAOAKI KAWAKAMI
     UNIVERSITY OF AARHUS: FRANK JENSEN
     UNIVERSITY OF IOWA: VISVALDAS KAIRYS, HUI LI
     NATIONAL INST. OF STANDARDS AND TECHNOLOGY: WALT STEVENS, DAVID GARMER
     UNIVERSITY OF PISA: BENEDETTA MENNUCCI, JACOPO TOMASI
     UNIVERSITY OF MEMPHIS: HENRY KURTZ, PRAKASHAN KORAMBATH
     UNIVERSITY OF ALBERTA: TOBY ZENG, MARIUSZ KLOBUKOWSKI
     UNIVERSITY OF NEW ENGLAND: MARK SPACKMAN
     MIE UNIVERSITY: HIROAKI UMEDA
     NAT. INST. OF ADVANCED INDUSTRIAL SCIENCE AND TECHNOLOGY: KAZUO KITAURA
     MICHIGAN STATE UNIVERSITY:
          KAROL KOWALSKI, MARTA WLOCH, JEFFREY GOUR, JESSE LUTZ,
          WEI LI, JUN SHEN, J. EMILIANO DEUSTUA, PIOTR PIECUCH
     UNIVERSITY OF MINNESOTA:
          ANDREW SAND, PRACHI SHARMA, YINAN SHU
     UNIVERSITY OF SILESIA: MONIKA MUSIAL, STANISLAW KUCHARSKI
     FACULTES UNIVERSITAIRES NOTRE-DAME DE LA PAIX:
          OLIVIER QUINET, BENOIT CHAMPAGNE
     UNIVERSITY OF CALIFORNIA - SANTA BARBARA: BERNARD KIRTMAN
     INSTITUTE FOR MOLECULAR SCIENCE:
          KAZUYA ISHIMURA, MICHIO KATOUDA, AND SHIGERU NAGASE
     UNIVERSITY OF NOTRE DAME: ANNA POMOGAEVA, DAN CHIPMAN
     KYUSHU UNIVERSITY:
          HARUYUKI NAKANO,
          FENG LONG GU, JACEK KORCHOWIEC, MARCIN MAKOWSKI, AND YURIKO AOKI,
          HIROTOSHI MORI AND EISAKU MIYOSHI
     PENNSYLVANIA STATE UNIVERSITY:
          TZVETELIN IORDANOV, CHET SWALINA, JONATHAN SKONE,
          SHARON HAMMES-SCHIFFER
     WASEDA UNIVERSITY:
          MASATO KOBAYASHI, TOMOKO AKAMA, TSUGUKI TOUMA,
          TAKESHI YOSHIKAWA, YASUHIRO IKABATA, JUNJI SEINO,
          YUYA NAKAJIMA, HIROMI NAKAI
     NANJING UNIVERSITY: SHUHUA LI
     UNIVERSITY OF NEBRASKA:
          PEIFENG SU, DEJUN SI, NANDUN THELLAMUREGE, YALI WANG, HUI LI
     UNIVERSITY OF ZURICH: ROBERTO PEVERATI, KIM BALDRIDGE
     N. COPERNICUS UNIVERSITY AND JACKSON STATE UNIVERSITY:
          MARIA BARYSZ
     UNIVERSITY OF COPENHAGEN: Jimmy Kromann, CASPER STEINMANN
     TOKYO INSTITUTE OF TECHNOLOGY: HIROYA NAKATA
     NAGOYA UNIVERSITY: YOSHIO NISHIMOTO, STEPHAN IRLE
     MOSCOW STATE UNIVERSITY: VLADIMIR MIRONOV
     A.N.NESMEYANOV INSTITUTE OF ORGANOELEMENT COMPOUNDS OF RUSSIAN ACADEMY OF SCIENCES:
          IGOR S. GERASIMOV
     JOHANNES KEPLER UNIVERSITY LINZ:
          CHRISTIAN FRIEDL


 PARALLEL VERSION RUNNING ON        8 PROCESSORS IN        1 NODES.

 EXECUTION OF GAMESS BEGUN Fri May 22 15:20:46 2020

            ECHO OF THE FIRST FEW INPUT CARDS -
 INPUT CARD> $BASIS GBASIS=N21 NGAUSS=3 $END                                                
 INPUT CARD> $CONTRL SCFTYP=UHF MAXIT=60 MULT=2 ICHARG=1 $END                               
 INPUT CARD> $SYSTEM MEMDDI=1000 MWORDS=30 $END                                             
 INPUT CARD> $SCF DIRSCF=.TRUE. $END                                                        
 INPUT CARD> $STATPT OPTTOL=0.0001 NSTEP=999 $END                                           
 INPUT CARD> $DATA                                                                          
 INPUT CARD>                                                                                
 INPUT CARD>C1                                                                              
 INPUT CARD>C 6.0000000 -1.3758540306 -1.5136733927 1.0968838320                            
 INPUT CARD>H 1.0000000 -1.4516282116 -0.4345674551 1.1675352091                            
 INPUT CARD>C 6.0000000 -1.0084662532 2.1207062267 -1.3359090540                            
 INPUT CARD>C 6.0000000 -0.3446877962 3.0138398375 -2.0672542286                            
 INPUT CARD>O 8.0000000 -0.4067740059 1.0717878112 -0.6346211998                            
 INPUT CARD>H 1.0000000 -2.0859361715 2.1441739156 -1.2460861245                            
 INPUT CARD>C 6.0000000 2.7436764012 -0.1713823607 -0.8049586233                            
 INPUT CARD>O 8.0000000 1.0421746663 2.8750806769 -2.2701169952                             
 INPUT CARD>H 1.0000000 -0.8749019815 3.8152335736 -2.5726434026                            
 INPUT CARD>O 8.0000000 2.1235978359 0.8556630088 -0.4486044604                             
 INPUT CARD>H 1.0000000 3.8366979421 -0.1830045816 -0.8002662959                            
 INPUT CARD>O 8.0000000 2.2447848771 -1.3229381621 -1.2120066989                            
 INPUT CARD>H 1.0000000 0.6442648390 1.1398856958 -0.5738664122                             
 INPUT CARD>H 1.0000000 1.5033825819 3.7237021242 -2.0321128457                             
 INPUT CARD>C 6.0000000 -0.7915275882 -2.0868394783 0.0486783827                            
 INPUT CARD>H 1.0000000 -1.7788860348 -2.1161731144 1.9002107655                            
 INPUT CARD>O 8.0000000 -0.2636766066 -1.3831664166 -1.0489517339                           
 INPUT CARD>H 1.0000000 -0.6713104601 -3.1578699222 -0.0621800070                           
 INPUT CARD>H 1.0000000 1.1660660478 -1.4036454589 -1.1943239577                            
 INPUT CARD>H 1.0000000 -0.5026359509 -0.3544224277 -0.9735660495                           
 INPUT CARD> $END                                                                           
   30000000 WORDS OF MEMORY AVAILABLE

     BASIS OPTIONS
     -------------
     GBASIS=N21          IGAUSS=       3      POLAR=NONE    
     NDFUNC=       0     NFFUNC=       0     DIFFSP=       F
     NPFUNC=       0      DIFFS=       F     BASNAM=        


     RUN TITLE
     ---------
                                                                                 

 THE POINT GROUP OF THE MOLECULE IS C1      
 THE ORDER OF THE PRINCIPAL AXIS IS     0

 ATOM      ATOMIC                      COORDINATES (BOHR)
           CHARGE         X                   Y                   Z
 C           6.0    -2.5999871169       -2.8604279471        2.0728098828
 H           1.0    -2.7431795560       -0.8212134133        2.2063216262
 C           6.0    -1.9057248864        4.0075536689       -2.5245020566
 C           6.0    -0.6513654861        5.6953314638       -3.9065440390
 O           8.0    -0.7686914101        2.0253852801       -1.1992601736
 H           1.0    -3.9418477920        4.0519011705       -2.3547613324
 C           6.0     5.1847965972       -0.3238657009       -1.5211512295
 O           8.0     1.9694245507        5.4331146719       -4.2898990810
 H           1.0    -1.6533250111        7.2097460333       -4.8615910950
 O           8.0     4.0130180180        1.6169686245       -0.8477395070
 H           1.0     7.2503078082       -0.3458285137       -1.5122840165
 O           8.0     4.2420283191       -2.4999906251       -2.2903605562
 H           1.0     1.2174840092        2.1540716224       -1.0844502726
 H           1.0     2.8409811345        7.0367766746       -3.8401364545
 C           6.0    -1.4957702534       -3.9435547943        0.0919888048
 H           1.0    -3.3616071692       -3.9989873288        3.5908776657
 O           8.0    -0.4982765358       -2.6138055228       -1.9822313514
 H           1.0    -1.2685928223       -5.9675088578       -0.1175031751
 H           1.0     2.2035453139       -2.6525053012       -2.2569450206
 H           1.0    -0.9498442188       -0.6697612723       -1.8397730645

          INTERNUCLEAR DISTANCES (ANGS.)
          ------------------------------

                1 C          2 H          3 C          4 C          5 O     

   1 C       0.0000000    1.0840678 *  4.3888689    5.6190257    3.2591157  
   2 H       1.0840678 *  0.0000000    3.6045873    4.8559955    2.5707186 *
   3 C       4.3888689    3.6045873    0.0000000    1.3315988 *  1.3978798 *
   4 C       5.6190257    4.8559955    1.3315988 *  0.0000000    2.4140957 *
   5 O       3.2591157    2.5707186 *  1.3978798 *  2.4140957 *  0.0000000  
   6 H       4.4015420    3.5885682    1.0814621 *  2.1124824 *  2.0841034 *
   7 C       4.7317313    4.6433371    4.4287868    4.6127025    3.3911391  
   8 O       6.0369462    5.3842619    2.3763319 *  1.4084725 *  2.8330485 *
   9 H       6.4895017    5.6905499    2.1020881 *  1.0857151 *  3.3913962  
  10 O       4.4998280    4.1302353    3.4924875    3.6565268    2.5463884 *
  11 H       5.7044330    5.6481785    5.3916243    5.4137842    4.4282046  
  12 O       4.2984162    4.4849629    4.7389536    5.1229348    3.6192335  
  13 H       3.7301022    3.1470860    2.0674230 *  2.5922844 *  1.0549934 *
  14 H       6.7461638    6.0217142    3.0600131    1.9800261 *  3.5544804  
  15 C       1.3299216 *  2.1018031 *  4.4348152    5.5401955    3.2545138  
  16 H       1.0820235 *  1.8632522 *  5.3867583    6.6418925    4.2978087  
  17 O       2.4204506 *  2.6877283 *  3.5936304    4.5141075    2.4937816 *
  18 H       2.1314767 *  3.0882797    5.4405354    6.4974615    4.2764089  
  19 H       3.4239008    3.6564756    4.1436327    4.7495853    2.9857768 *
  20 H       2.5284650 *  2.3433574 *  2.5521400 *  3.5448966    1.4690639 *

                6 H          7 C          8 O          9 H         10 O     

   1 C       4.4015420    4.7317313    6.0369462    6.4895017    4.4998280  
   2 H       3.5885682    4.6433371    5.3842619    5.6905499    4.1302353  
   3 C       1.0814621 *  4.4287868    2.3763319 *  2.1020881 *  3.4924875  
   4 C       2.1124824 *  4.6127025    1.4084725 *  1.0857151 *  3.6565268  
   5 O       2.0841034 *  3.3911391    2.8330485 *  3.3913962    2.5463884 *
   6 H       0.0000000    5.3741559    3.3716378    2.4533239 *  4.4739707  
   7 C       5.3741559    0.0000000    3.7845388    5.6667385    1.2515222 *
   8 O       3.3716378    3.7845388    0.0000000    2.1565233 *  2.9266759 *
   9 H       2.4533239 *  5.6667385    2.1565233 *  0.0000000    4.7182201  
  10 O       4.4739707    1.2515222 *  2.9266759 *  4.7182201    0.0000000  
  11 H       6.3790368    1.0930934 *  4.3956464    6.4285615    2.0340129 *
  12 O       5.5477178    1.3193414 *  4.4932428    6.1631637    2.3116601 *
  13 H       2.9857113 *  2.4860323 *  2.4589632 *  3.6688504    1.5115883 *
  14 H       3.9994945    4.2680112    0.9947447 *  2.4406533 *  3.3343386  
  15 C       4.6101392    4.1103941    5.7758054    6.4585405    4.1717583  
  16 H       5.3050938    5.6172701    7.0896143    7.4836620    5.4385773  
  17 O       3.9751254    3.2514805    4.6183504    5.4514764    3.3274395  
  18 H       5.6137749    4.5970603    6.6488728    7.4140440    4.9060455  
  19 H       4.8130261    2.0393460 *  4.4136354    5.7707897    2.5646519 *
  20 H       2.9705371 *  3.2558372    3.8075155    4.4812567    2.9388765 *

               11 H         12 O         13 H         14 H         15 C     

   1 C       5.7044330    4.2984162    3.7301022    6.7461638    1.3299216 *
   2 H       5.6481785    4.4849629    3.1470860    6.0217142    2.1018031 *
   3 C       5.3916243    4.7389536    2.0674230 *  3.0600131    4.4348152  
   4 C       5.4137842    5.1229348    2.5922844 *  1.9800261 *  5.5401955  
   5 O       4.4282046    3.6192335    1.0549934 *  3.5544804    3.2545138  
   6 H       6.3790368    5.5477178    2.9857113 *  3.9994945    4.6101392  
   7 C       1.0930934 *  1.3193414 *  2.4860323 *  4.2680112    4.1103941  
   8 O       4.3956464    4.4932428    2.4589632 *  0.9947447 *  5.7758054  
   9 H       6.4285615    6.1631637    3.6688504    2.4406533 *  6.4585405  
  10 O       2.0340129 *  2.3116601 *  1.5115883 *  3.3343386    4.1717583  
  11 H       0.0000000    2.0007913 *  3.4630802    4.7142511    5.0759990  
  12 O       2.0007913 *  0.0000000    3.0057260    5.1663168    3.3752134  
  13 H       3.4630802    3.0057260    0.0000000    3.0887980    3.5861982  
  14 H       4.7142511    5.1663168    3.0887980    0.0000000    6.5847322  
  15 C       5.0759990    3.3752134    3.5861982    6.5847322    0.0000000  
  16 H       6.5241475    5.1483052    4.7533816    7.7679212    2.0985493 *
  17 O       4.2796383    2.5144768 *  2.7232069 *  5.4926506    1.4066180 *
  18 H       5.4513058    3.6321740    4.5236340    7.4810400    1.0834426 *
  19 H       2.9626880 *  1.0818783 *  2.6696057 *  5.2062814    2.4174329 *
  20 H       4.3461748    2.9228749 *  1.9256422 *  4.6664474    2.0321690 *

               16 H         17 O         18 H         19 H         20 H     

   1 C       1.0820235 *  2.4204506 *  2.1314767 *  3.4239008    2.5284650 *
   2 H       1.8632522 *  2.6877283 *  3.0882797    3.6564756    2.3433574 *
   3 C       5.3867583    3.5936304    5.4405354    4.1436327    2.5521400 *
   4 C       6.6418925    4.5141075    6.4974615    4.7495853    3.5448966  
   5 O       4.2978087    2.4937816 *  4.2764089    2.9857768 *  1.4690639 *
   6 H       5.3050938    3.9751254    5.6137749    4.8130261    2.9705371 *
   7 C       5.6172701    3.2514805    4.5970603    2.0393460 *  3.2558372  
   8 O       7.0896143    4.6183504    6.6488728    4.4136354    3.8075155  
   9 H       7.4836620    5.4514764    7.4140440    5.7707897    4.4812567  
  10 O       5.4385773    3.3274395    4.9060455    2.5646519 *  2.9388765 *
  11 H       6.5241475    4.2796383    5.4513058    2.9626880 *  4.3461748  
  12 O       5.1483052    2.5144768 *  3.6321740    1.0818783 *  2.9228749 *
  13 H       4.7533816    2.7232069 *  4.5236340    2.6696057 *  1.9256422 *
  14 H       7.7679212    5.4926506    7.4810400    5.2062814    4.6664474  
  15 C       2.0985493 *  1.4066180 *  1.0834426 *  2.4174329 *  2.0321690 *
  16 H       0.0000000    3.3956911    2.4825055 *  4.3308872    3.6043270  
  17 O       3.3956911    0.0000000    2.0711003 *  1.4372601 *  1.0588195 *
  18 H       2.4825055 *  2.0711003 *  0.0000000    2.7811878 *  2.9526926 *
  19 H       4.3308872    1.4372601 *  2.7811878 *  0.0000000    1.9834741 *
  20 H       3.6043270    1.0588195 *  2.9526926 *  1.9834741 *  0.0000000  

  * ... LESS THAN  3.000


     ATOMIC BASIS SET
     ----------------
 THE CONTRACTED PRIMITIVE FUNCTIONS HAVE BEEN UNNORMALIZED
 THE CONTRACTED BASIS FUNCTIONS ARE NOW NORMALIZED TO UNITY

  SHELL TYPE  PRIMITIVE        EXPONENT          CONTRACTION COEFFICIENT(S)

 C         

      1   S       1           172.2560000    0.061766907377
      1   S       2            25.9109000    0.358794042852
      1   S       3             5.5333500    0.700713083689

      2   L       4             3.6649800   -0.395895162119    0.236459946619
      2   L       5             0.7705450    1.215834355681    0.860618805716

      3   L       6             0.1958570    1.000000000000    1.000000000000

 H         

      4   S       7             5.4471780    0.156284978695
      4   S       8             0.8245472    0.904690876670

      5   S       9             0.1831916    1.000000000000

 C         

      6   S      10           172.2560000    0.061766907377
      6   S      11            25.9109000    0.358794042852
      6   S      12             5.5333500    0.700713083689

      7   L      13             3.6649800   -0.395895162119    0.236459946619
      7   L      14             0.7705450    1.215834355681    0.860618805716

      8   L      15             0.1958570    1.000000000000    1.000000000000

 C         

      9   S      16           172.2560000    0.061766907377
      9   S      17            25.9109000    0.358794042852
      9   S      18             5.5333500    0.700713083689

     10   L      19             3.6649800   -0.395895162119    0.236459946619
     10   L      20             0.7705450    1.215834355681    0.860618805716

     11   L      21             0.1958570    1.000000000000    1.000000000000

 O         

     12   S      22           322.0370000    0.059239393389
     12   S      23            48.4308000    0.351499960776
     12   S      24            10.4206000    0.707657921031

     13   L      25             7.4029400   -0.404453583190    0.244586106967
     13   L      26             1.5762000    1.221561761397    0.853955373466

     14   L      27             0.3736840    1.000000000000    1.000000000000

 H         

     15   S      28             5.4471780    0.156284978695
     15   S      29             0.8245472    0.904690876670

     16   S      30             0.1831916    1.000000000000

 C         

     17   S      31           172.2560000    0.061766907377
     17   S      32            25.9109000    0.358794042852
     17   S      33             5.5333500    0.700713083689

     18   L      34             3.6649800   -0.395895162119    0.236459946619
     18   L      35             0.7705450    1.215834355681    0.860618805716

     19   L      36             0.1958570    1.000000000000    1.000000000000

 O         

     20   S      37           322.0370000    0.059239393389
     20   S      38            48.4308000    0.351499960776
     20   S      39            10.4206000    0.707657921031

     21   L      40             7.4029400   -0.404453583190    0.244586106967
     21   L      41             1.5762000    1.221561761397    0.853955373466

     22   L      42             0.3736840    1.000000000000    1.000000000000

 H         

     23   S      43             5.4471780    0.156284978695
     23   S      44             0.8245472    0.904690876670

     24   S      45             0.1831916    1.000000000000

 O         

     25   S      46           322.0370000    0.059239393389
     25   S      47            48.4308000    0.351499960776
     25   S      48            10.4206000    0.707657921031

     26   L      49             7.4029400   -0.404453583190    0.244586106967
     26   L      50             1.5762000    1.221561761397    0.853955373466

     27   L      51             0.3736840    1.000000000000    1.000000000000

 H         

     28   S      52             5.4471780    0.156284978695
     28   S      53             0.8245472    0.904690876670

     29   S      54             0.1831916    1.000000000000

 O         

     30   S      55           322.0370000    0.059239393389
     30   S      56            48.4308000    0.351499960776
     30   S      57            10.4206000    0.707657921031

     31   L      58             7.4029400   -0.404453583190    0.244586106967
     31   L      59             1.5762000    1.221561761397    0.853955373466

     32   L      60             0.3736840    1.000000000000    1.000000000000

 H         

     33   S      61             5.4471780    0.156284978695
     33   S      62             0.8245472    0.904690876670

     34   S      63             0.1831916    1.000000000000

 H         

     35   S      64             5.4471780    0.156284978695
     35   S      65             0.8245472    0.904690876670

     36   S      66             0.1831916    1.000000000000

 C         

     37   S      67           172.2560000    0.061766907377
     37   S      68            25.9109000    0.358794042852
     37   S      69             5.5333500    0.700713083689

     38   L      70             3.6649800   -0.395895162119    0.236459946619
     38   L      71             0.7705450    1.215834355681    0.860618805716

     39   L      72             0.1958570    1.000000000000    1.000000000000

 H         

     40   S      73             5.4471780    0.156284978695
     40   S      74             0.8245472    0.904690876670

     41   S      75             0.1831916    1.000000000000

 O         

     42   S      76           322.0370000    0.059239393389
     42   S      77            48.4308000    0.351499960776
     42   S      78            10.4206000    0.707657921031

     43   L      79             7.4029400   -0.404453583190    0.244586106967
     43   L      80             1.5762000    1.221561761397    0.853955373466

     44   L      81             0.3736840    1.000000000000    1.000000000000

 H         

     45   S      82             5.4471780    0.156284978695
     45   S      83             0.8245472    0.904690876670

     46   S      84             0.1831916    1.000000000000

 H         

     47   S      85             5.4471780    0.156284978695
     47   S      86             0.8245472    0.904690876670

     48   S      87             0.1831916    1.000000000000

 H         

     49   S      88             5.4471780    0.156284978695
     49   S      89             0.8245472    0.904690876670

     50   S      90             0.1831916    1.000000000000

 TOTAL NUMBER OF BASIS SET SHELLS             =   50
 NUMBER OF CARTESIAN GAUSSIAN BASIS FUNCTIONS =  110
 NUMBER OF ELECTRONS                          =   79
 CHARGE OF MOLECULE                           =    1
 SPIN MULTIPLICITY                            =    2
 NUMBER OF OCCUPIED ORBITALS (ALPHA)          =   40
 NUMBER OF OCCUPIED ORBITALS (BETA )          =   39
 TOTAL NUMBER OF ATOMS                        =   20
 THE NUCLEAR REPULSION ENERGY IS      548.9384995594

     $CONTRL OPTIONS
     ---------------
 SCFTYP=UHF          RUNTYP=ENERGY       EXETYP=RUN     
 MPLEVL=       0     CITYP =NONE         CCTYP =NONE         VBTYP =NONE    
 DFTTYP=NONE         TDDFT =NONE    
 MULT  =       2     ICHARG=       1     NZVAR =       0     COORD =UNIQUE  
 PP    =NONE         RELWFN=NONE         LOCAL =NONE         NUMGRD=       F
 ISPHER=      -1     NOSYM =       0     MAXIT =      60     UNITS =ANGS    
 PLTORB=       F     MOLPLT=       F     AIMPAC=       F     FRIEND=        
 NPRINT=       7     IREST =       0     GEOM  =INPUT   
 NORMF =       0     NORMP =       0     ITOL  =      20     ICUT  =       9
 INTTYP=BEST         GRDTYP=BEST         QMTTOL= 1.0E-06

     $SYSTEM OPTIONS
     ---------------
  REPLICATED MEMORY=    30000000 WORDS (ON EVERY NODE).
 DISTRIBUTED MEMDDI=        1000 MILLION WORDS IN AGGREGATE,
 MEMDDI DISTRIBUTED OVER   8 PROCESSORS IS   125000000 WORDS/PROCESSOR.
 TOTAL MEMORY REQUESTED ON EACH PROCESSOR=   155000000 WORDS.
 TIMLIM=      525600.00 MINUTES, OR     365.0 DAYS.
 PARALL= T  BALTYP=  DLB     KDIAG=    0  COREFL= F
 MXSEQ2=     300 MXSEQ3=     150  mem10=         0

          ----------------
          PROPERTIES INPUT
          ----------------

     MOMENTS            FIELD           POTENTIAL          DENSITY
 IEMOM =       1   IEFLD =       0   IEPOT =       0   IEDEN =       0
 WHERE =COMASS     WHERE =NUCLEI     WHERE =NUCLEI     WHERE =NUCLEI  
 OUTPUT=BOTH       OUTPUT=BOTH       OUTPUT=BOTH       OUTPUT=BOTH    
 IEMINT=       0   IEFINT=       0                     IEDINT=       0
                                                       MORB  =       0
          EXTRAPOLATION IN EFFECT
          SOSCF IN EFFECT
          DIIS or SOSCF will be reset if energy rises
 ORBITAL PRINTING OPTION: NPREO=     1   110     2     1

     -------------------------------
     INTEGRAL TRANSFORMATION OPTIONS
     -------------------------------
     NWORD  =            0
     CUTOFF = 1.0E-09     MPTRAN =       0
     DIRTRF =       T     AOINTS =DUP     

          ----------------------
          INTEGRAL INPUT OPTIONS
          ----------------------
 NOPK  =       1 NORDER=       0 SCHWRZ=       T

     ------------------------------------------
     THE POINT GROUP IS C1 , NAXIS= 0, ORDER= 1
     ------------------------------------------

     DIMENSIONS OF THE SYMMETRY SUBSPACES ARE
 A   =  110

 ..... DONE SETTING UP THE RUN .....
 CPU     0: STEP CPU TIME=     0.02 TOTAL CPU TIME=          0.0 (      0.0 MIN)
 TOTAL WALL CLOCK TIME=          0.0 SECONDS, CPU UTILIZATION IS    40.00%

          ********************
          1 ELECTRON INTEGRALS
          ********************
 ...... END OF ONE-ELECTRON INTEGRALS ......
 CPU     0: STEP CPU TIME=     0.02 TOTAL CPU TIME=          0.0 (      0.0 MIN)
 TOTAL WALL CLOCK TIME=          0.1 SECONDS, CPU UTILIZATION IS    66.67%

          -------------
          GUESS OPTIONS
          -------------
          GUESS =HUCKEL            NORB  =       0          NORDER=       0
          MIX   =       F          PRTMO =       F          PUNMO =       F
          TOLZ  = 1.0E-08          TOLE  = 1.0E-05
          SYMDEN=       F          PURIFY=       F

 INITIAL GUESS ORBITALS GENERATED BY HUCKEL   ROUTINE.
 HUCKEL GUESS REQUIRES    117020 WORDS.

 SYMMETRIES FOR INITIAL GUESS ORBITALS FOLLOW.  ALPHA SET(S).
    40 ORBITALS ARE OCCUPIED (   10 CORE ORBITALS).
    11=A       12=A       13=A       14=A       15=A       16=A       17=A   
    18=A       19=A       20=A       21=A       22=A       23=A       24=A   
    25=A       26=A       27=A       28=A       29=A       30=A       31=A   
    32=A       33=A       34=A       35=A       36=A       37=A       38=A   
    39=A       40=A       41=A       42=A       43=A       44=A       45=A   
    46=A       47=A       48=A       49=A       50=A   

 SYMMETRIES FOR INITIAL GUESS ORBITALS FOLLOW.   BETA SET(S).
    39 ORBITALS ARE OCCUPIED (   10 CORE ORBITALS).
    11=A       12=A       13=A       14=A       15=A       16=A       17=A   
    18=A       19=A       20=A       21=A       22=A       23=A       24=A   
    25=A       26=A       27=A       28=A       29=A       30=A       31=A   
    32=A       33=A       34=A       35=A       36=A       37=A       38=A   
    39=A       40=A       41=A       42=A       43=A       44=A       45=A   
    46=A       47=A       48=A       49=A   
 ...... END OF INITIAL ORBITAL SELECTION ......
 CPU     0: STEP CPU TIME=     0.03 TOTAL CPU TIME=          0.1 (      0.0 MIN)
 TOTAL WALL CLOCK TIME=          0.1 SECONDS, CPU UTILIZATION IS    58.33%

                    ----------------------
                    AO INTEGRAL TECHNOLOGY
                    ----------------------
     S,P,L SHELL ROTATED AXIS INTEGRALS, REPROGRAMMED BY
        KAZUYA ISHIMURA (IMS) AND JOSE SIERRA (SYNSTAR).
     S,P,D,L SHELL ROTATED AXIS INTEGRALS PROGRAMMED BY
        KAZUYA ISHIMURA (INSTITUTE FOR MOLECULAR SCIENCE).
     S,P,D,F,G SHELL TO TOTAL QUARTET ANGULAR MOMENTUM SUM 5,
        ERIC PROGRAM BY GRAHAM FLETCHER (ELORET AND NASA ADVANCED
        SUPERCOMPUTING DIVISION, AMES RESEARCH CENTER).
     S,P,D,F,G,L SHELL GENERAL RYS QUADRATURE PROGRAMMED BY
        MICHEL DUPUIS (PACIFIC NORTHWEST NATIONAL LABORATORY).

          --------------------
          2 ELECTRON INTEGRALS
          --------------------

 DIRECT SCF METHOD SKIPS INTEGRAL STORAGE ON DISK.
 DIRECT TRANSFORMATION SKIPS AO INTEGRAL STORAGE ON DISK.
  ...... END OF TWO-ELECTRON INTEGRALS .....
 CPU     0: STEP CPU TIME=     0.01 TOTAL CPU TIME=          0.1 (      0.0 MIN)
 TOTAL WALL CLOCK TIME=          0.1 SECONDS, CPU UTILIZATION IS    61.54%

          ---------------------------
                  UHF SCF CALCULATION
          ---------------------------

     NUCLEAR ENERGY =       548.9384995594
     MAXIT = 60     NPUNCH=  2     MULT=  2
     EXTRAP=T  DAMP=F  SHIFT=F  RSTRCT=F  DIIS=F  SOSCF=T
     DENSITY MATRIX CONV=  2.00E-05
     SOSCF WILL OPTIMIZE    2800 ALPHA AND    2769 BETA ROTATION ANGLES.
     SOGTOL= 2.500E-01
     MEMORY REQUIRED FOR UHF/ROHF ITERS=    208649 WORDS.

 DIRECT SCF CALCULATION, SCHWRZ=T   FDIFF=T
 SCHWARZ INEQUALITY OVERHEAD:      5538 INTEGRALS, T=        0.00

                                                                                NONZERO     BLOCKS
 ITER EX      TOTAL ENERGY        E CHANGE  DENSITY CHANGE    ORB. GRAD       INTEGRALS    SKIPPED
   1  0     -564.3548371554  -564.3548371554   0.653683487   0.000000000        8827091     479499
          ---------------START SECOND ORDER SCF---------------
   2  1     -565.8616457861    -1.5068086307   0.144280845   0.056895422        8777364     489781
   3  2     -565.9353063779    -0.0736605918   0.061048365   0.042502571        8611752     509126
   4  3     -565.9629517873    -0.0276454094   0.015462500   0.007188342        8420360     523790
   5  4     -565.9647173956    -0.0017656083   0.016061037   0.005086139        8009036     545949
   6  5     -565.9656508757    -0.0009334800   0.014053832   0.002859397        7964572     548522
   7  6     -565.9660494013    -0.0003985257   0.005202518   0.001340060        7823978     556727
   8  7     -565.9661530153    -0.0001036140   0.002458253   0.000779877        7511970     568130
   9  8     -565.9661882050    -0.0000351897   0.001015708   0.000278210        7367785     573195
  10  9     -565.9661942247    -0.0000060197   0.000999986   0.000307244        6880086     593695
  11 10     -565.9661973019    -0.0000030771   0.000827507   0.000183095        6728854     599306
  12 11     -565.9661989321    -0.0000016302   0.000669923   0.000116787        6617071     604098
  13 12     -565.9661998090    -0.0000008769   0.000405429   0.000077603        6503108     609195
  14 13     -565.9662001937    -0.0000003848   0.000221315   0.000051871        6293369     615420
  15 14     -565.9662003630    -0.0000001693   0.000116339   0.000030563        6061765     623233
  16 15     -565.9662004140    -0.0000000510   0.000057761   0.000016441        5712511     635808
  17 16     -565.9662004269    -0.0000000128   0.000023437   0.000007898        5439193     646455
  18 17     -565.9662004303    -0.0000000034   0.000019992   0.000009173        5165412     655761
  19 18     -565.9662004319    -0.0000000017   0.000028123   0.000009168        4925636     664590
  20 19     -565.9662004330    -0.0000000011   0.000056784   0.000008343        4838178     667641
  21 20     -565.9662004348    -0.0000000018   0.000119593   0.000007916        4984629     662952
  22 21     -565.9662004380    -0.0000000032   0.000272638   0.000008140        5186235     656436
  23 22     -565.9662004450    -0.0000000070   0.000607169   0.000010911        5437616     648117
  24 23     -565.9662004597    -0.0000000147   0.001282552   0.000017340        5689802     639211
  25 24     -565.9662004896    -0.0000000299   0.002328578   0.000025002        5923260     631015
  26 25     -565.9662005412    -0.0000000516   0.002970734   0.000032847        6091015     624396
  27 26     -565.9662006028    -0.0000000617   0.001799737   0.000034027        6135565     621904
  28 27     -565.9662006470    -0.0000000442   0.000129724   0.000023124        6106448     624178
  29 28     -565.9662006658    -0.0000000188   0.000187682   0.000007071        5668218     640439
  30 29     -565.9662006691    -0.0000000033   0.000013387   0.000004937        5385150     649828
  31 30     -565.9662006699    -0.0000000008   0.000076936   0.000003545        4808537     668621
  32 31     -565.9662006701    -0.0000000002   0.000039112   0.000002489        4867521     667751
  33 32     -565.9662006704    -0.0000000002   0.000014524   0.000001694        4501162     680892

          -----------------
          DENSITY CONVERGED
          -----------------
     TIME TO FORM FOCK OPERATORS=       2.6 SECONDS (       0.1 SEC/ITER)
     FOCK TIME ON FIRST ITERATION=       0.1, LAST ITERATION=       0.1
     TIME TO SOLVE SCF EQUATIONS=       0.2 SECONDS (       0.0 SEC/ITER)

 FINAL UHF ENERGY IS     -565.9662006704 AFTER  33 ITERATIONS

          --------------------
          SPIN SZ   =    0.500
          S-SQUARED =    0.764
          --------------------

  ----- ALPHA SET ----- 

          ------------
          EIGENVECTORS
          ------------

                      1          2          3          4          5
                  -20.7756   -20.7468   -20.6284   -20.6150   -20.6060
                     A          A          A          A          A   
    1  C  1  S    0.000044   0.000006   0.000152  -0.000022  -0.000008
    2  C  1  S    0.000337   0.000049   0.000758  -0.000111  -0.000069
    3  C  1  X    0.000046   0.000010  -0.000060  -0.000029   0.000016
    4  C  1  Y    0.000165   0.000022   0.000846  -0.000169  -0.000022
    5  C  1  Z   -0.000114  -0.000009  -0.000087   0.000054   0.000051
    6  C  1  S   -0.001099  -0.000130  -0.004250   0.000256   0.000116
    7  C  1  X   -0.000409  -0.000045  -0.002635   0.000547  -0.000069
    8  C  1  Y   -0.000401  -0.000095  -0.008312   0.001460   0.000085
    9  C  1  Z    0.000798   0.000049   0.006142  -0.000940  -0.000132
   10  H  2  S   -0.000016  -0.000018   0.001490  -0.000264   0.000030
   11  H  2  S    0.000374   0.000131   0.003372  -0.000465  -0.000145
   12  C  3  S   -0.000440   0.000145   0.000041  -0.000023   0.000035
   13  C  3  S   -0.000791   0.000429   0.000271  -0.000158   0.000297
   14  C  3  X    0.000189   0.000295  -0.000011  -0.000057   0.000337
   15  C  3  Y   -0.001275  -0.000367  -0.000285   0.000077  -0.000015
   16  C  3  Z    0.000810   0.000210  -0.000113   0.000014   0.000088
   17  C  3  S    0.013454  -0.004061  -0.001197   0.000542  -0.000530
   18  C  3  X    0.013577  -0.011399  -0.001531   0.000750  -0.001019
   19  C  3  Y   -0.008456   0.004834   0.001551  -0.000330   0.000877
   20  C  3  Z    0.004649  -0.001806  -0.000714   0.000042  -0.000666
   21  C  4  S    0.000186  -0.000484  -0.000017   0.000006   0.000022
   22  C  4  S    0.000766  -0.000998  -0.000060   0.000010   0.000202
   23  C  4  X    0.000689   0.001286  -0.000129   0.000017   0.000131
   24  C  4  Y   -0.000122   0.000601   0.000071   0.000006  -0.000121
   25  C  4  Z    0.000106  -0.000505  -0.000020  -0.000019   0.000089
   26  C  4  S   -0.004865   0.013616   0.000060  -0.000297  -0.000360
   27  C  4  X   -0.009309   0.017329   0.001477  -0.000310   0.000127
   28  C  4  Y    0.007227  -0.007564  -0.000930   0.000336   0.000286
   29  C  4  Z   -0.004057   0.002077   0.000359  -0.000134  -0.000239
   30  O  5  S    0.983575   0.005241  -0.001231   0.000163  -0.001106
   31  O  5  S    0.099948  -0.000327   0.000692  -0.000083   0.000792
   32  O  5  X    0.000910   0.000265  -0.000168   0.000057   0.000538
   33  O  5  Y    0.002136  -0.000222  -0.000804   0.000097   0.000063
   34  O  5  Z   -0.002000   0.000146  -0.000138  -0.000026   0.000132
   35  O  5  S   -0.050508   0.004372  -0.001298   0.000260  -0.002613
   36  O  5  X   -0.001956  -0.001503   0.000484  -0.000216  -0.002874
   37  O  5  Y   -0.006119   0.002440   0.003809  -0.000654  -0.000106
   38  O  5  Z    0.005563  -0.001669   0.000312   0.000113  -0.000645
   39  H  6  S    0.000496  -0.001378  -0.000029   0.000035   0.000019
   40  H  6  S    0.003943  -0.003733  -0.000597   0.000313  -0.000512
   41  C  7  S   -0.000002   0.000002   0.000051  -0.000219  -0.000007
   42  C  7  S   -0.000006   0.000025   0.000443   0.000126   0.000474
   43  C  7  X   -0.000184  -0.000080  -0.000372  -0.001160  -0.000958
   44  C  7  Y   -0.000297  -0.000059   0.000057  -0.001629   0.001708
   45  C  7  Z   -0.000159  -0.000035   0.000042  -0.000560   0.000553
   46  C  7  S   -0.001266  -0.000333  -0.001147   0.013902   0.015986
   47  C  7  X    0.000947   0.000407   0.001205  -0.006702  -0.011105
   48  C  7  Y   -0.001822  -0.000410   0.001189  -0.009665   0.011495
   49  C  7  Z   -0.000636  -0.000114   0.000409  -0.003441   0.003956
   50  O  8  S   -0.005492   0.983510  -0.000154   0.000090  -0.000360
   51  O  8  S   -0.001439   0.098398   0.000105  -0.000050   0.000162
   52  O  8  X    0.000201  -0.002720  -0.000028   0.000005  -0.000003
   53  O  8  Y   -0.000171   0.002446   0.000030   0.000012  -0.000120
   54  O  8  Z    0.000112   0.001207  -0.000031  -0.000010   0.000093
   55  O  8  S    0.005406  -0.047277  -0.000715   0.000236  -0.000317
   56  O  8  X   -0.002619   0.009095   0.000362  -0.000095   0.000004
   57  O  8  Y    0.000321  -0.004210  -0.000061  -0.000045   0.000344
   58  O  8  Z    0.000256  -0.003223   0.000017   0.000046  -0.000265
   59  H  9  S   -0.001322   0.000659   0.000197  -0.000050   0.000059
   60  H  9  S   -0.004027   0.004511   0.000637  -0.000138  -0.000267
   61  O 10  S    0.001280   0.000406  -0.000185   0.011089   0.983540
   62  O 10  S    0.000933   0.000268  -0.000049   0.001665   0.099006
   63  O 10  X   -0.000889  -0.000188   0.000084  -0.000549   0.000734
   64  O 10  Y    0.000350   0.000068  -0.000079  -0.000449  -0.003441
   65  O 10  Z    0.000009   0.000031  -0.000005  -0.000161  -0.001375
   66  O 10  S   -0.001344  -0.000483   0.000237  -0.001847  -0.050082
   67  O 10  X    0.003807   0.000914  -0.000592   0.002435  -0.003042
   68  O 10  Y   -0.001678  -0.000416   0.000207   0.002940   0.010395
   69  O 10  Z   -0.000115  -0.000087  -0.000014   0.001034   0.003997
   70  H 11  S    0.000070   0.000003   0.000045  -0.000529  -0.000032
   71  H 11  S   -0.000368  -0.000185  -0.000583   0.001107   0.002772
   72  O 12  S   -0.000172  -0.000105   0.015521   0.983419  -0.010933
   73  O 12  S   -0.000112  -0.000063   0.002485   0.099173  -0.000536
   74  O 12  X    0.000183   0.000050  -0.000565  -0.001171  -0.000791
   75  O 12  Y    0.000056   0.000008  -0.000181   0.003330   0.000346
   76  O 12  Z   -0.000000   0.000000  -0.000043   0.001244   0.000115
   77  O 12  S    0.000232   0.000166  -0.003101  -0.049085  -0.000505
   78  O 12  X   -0.000982  -0.000260   0.002998   0.002029   0.003745
   79  O 12  Y   -0.000260  -0.000018   0.001055  -0.009148  -0.002505
   80  O 12  Z   -0.000030  -0.000001   0.000249  -0.003424  -0.000856
   81  H 13  S    0.002708  -0.000729   0.000406   0.000658   0.000294
   82  H 13  S    0.008742   0.003012  -0.001675  -0.000493   0.006480
   83  H 14  S   -0.000231   0.002999   0.000025  -0.000007   0.000027
   84  H 14  S    0.000808   0.003863  -0.000111   0.000036  -0.000140
   85  C 15  S    0.000020   0.000004  -0.000413   0.000071  -0.000016
   86  C 15  S    0.000213   0.000033  -0.000589   0.000460  -0.000119
   87  C 15  X   -0.000070  -0.000018   0.000818   0.000347  -0.000007
   88  C 15  Y    0.000243   0.000033   0.000481   0.000028  -0.000027
   89  C 15  Z   -0.000043   0.000000  -0.001354  -0.000007   0.000039
   90  C 15  S    0.000016  -0.000062   0.012548  -0.001888   0.000208
   91  C 15  X   -0.000333   0.000006   0.002887  -0.001001   0.000159
   92  C 15  Y   -0.000277  -0.000079   0.012023  -0.001682   0.000254
   93  C 15  Z    0.000857   0.000074  -0.007208   0.001318  -0.000086
   94  H 16  S   -0.000008   0.000000  -0.001190   0.000205  -0.000003
   95  H 16  S   -0.000456  -0.000049  -0.003611   0.000706   0.000076
   96  O 17  S    0.001419   0.000191   0.983507  -0.015327   0.000340
   97  O 17  S    0.001021   0.000111   0.099588  -0.000694  -0.000037
   98  O 17  X   -0.000191  -0.000020  -0.000812   0.000887   0.000129
   99  O 17  Y    0.000497   0.000070   0.000941  -0.000056   0.000070
  100  O 17  Z   -0.000063  -0.000002   0.002711  -0.000268   0.000078
  101  O 17  S   -0.002659  -0.000314  -0.049562  -0.000635   0.000553
  102  O 17  X    0.000864   0.000118   0.002597  -0.003916  -0.000237
  103  O 17  Y   -0.002701  -0.000352  -0.001512   0.000068  -0.000017
  104  O 17  Z    0.000202   0.000010  -0.007625   0.001339  -0.000278
  105  H 18  S    0.000061   0.000002   0.000223   0.000078  -0.000012
  106  H 18  S   -0.000159  -0.000034   0.002979  -0.000545   0.000128
  107  H 19  S    0.000130   0.000036   0.001181   0.002296   0.001562
  108  H 19  S   -0.001660  -0.000415   0.005876   0.009201  -0.001170
  109  H 20  S    0.000841  -0.000011   0.002758   0.000566   0.000447
  110  H 20  S    0.005418   0.000864   0.009088  -0.002197  -0.001552

                      6          7          8          9         10
                  -11.5590   -11.5513   -11.4811   -11.3638   -11.2823
                     A          A          A          A          A   
    1  C  1  S    0.000006   0.000029   0.000016  -0.000080   0.986808
    2  C  1  S    0.000006   0.000055   0.000013  -0.004106   0.096619
    3  C  1  X    0.000053   0.000014   0.000002  -0.001108   0.000240
    4  C  1  Y    0.000003   0.000043  -0.000040   0.001203   0.000022
    5  C  1  Z   -0.000091   0.000009  -0.000019   0.001930  -0.000483
    6  C  1  S    0.000244  -0.000216  -0.000089   0.027038  -0.071095
    7  C  1  X   -0.000232  -0.000044   0.000076   0.006659  -0.004327
    8  C  1  Y    0.000433  -0.000293   0.000518  -0.007998   0.002401
    9  C  1  Z    0.000341   0.000008  -0.000074  -0.011612   0.007859
   10  H  2  S    0.000145  -0.000042  -0.000045  -0.001052  -0.001231
   11  H  2  S   -0.000793   0.000377  -0.000262   0.002149   0.013096
   12  C  3  S    0.986700   0.002661  -0.000076  -0.000030  -0.000001
   13  C  3  S    0.095516  -0.004292   0.000058   0.000060   0.000012
   14  C  3  X    0.000809  -0.001481   0.000060  -0.000023  -0.000005
   15  C  3  Y    0.000325  -0.001710  -0.000008  -0.000116  -0.000081
   16  C  3  Z   -0.000384   0.001440   0.000002  -0.000030   0.000027
   17  C  3  S   -0.065433   0.029670  -0.000239  -0.000236   0.000024
   18  C  3  X   -0.004496   0.009150  -0.000410  -0.000394  -0.000611
   19  C  3  Y   -0.010454   0.011041   0.000116   0.000695   0.000745
   20  C  3  Z    0.008384  -0.009203  -0.000051  -0.000321  -0.000410
   21  C  4  S   -0.003272   0.986595  -0.000041  -0.000004  -0.000022
   22  C  4  S   -0.004831   0.095970  -0.000002  -0.000015   0.000032
   23  C  4  X    0.001159  -0.000155   0.000013  -0.000056  -0.000045
   24  C  4  Y    0.001842  -0.000773  -0.000018   0.000042   0.000006
   25  C  4  Z   -0.001431   0.000521   0.000016  -0.000019  -0.000003
   26  C  4  S    0.029905  -0.065646   0.000174  -0.000192  -0.000305
   27  C  4  X   -0.007839   0.009445   0.000099   0.000625   0.000654
   28  C  4  Y   -0.011530   0.008106  -0.000098  -0.000302  -0.000172
   29  C  4  Z    0.009138  -0.006932   0.000058   0.000077   0.000023
   30  O  5  S    0.000044   0.000063   0.000000   0.000015   0.000015
   31  O  5  S    0.001237   0.000269   0.000046   0.000192   0.000203
   32  O  5  X   -0.000439   0.000267   0.000043  -0.000047  -0.000110
   33  O  5  Y    0.000409  -0.000146  -0.000019  -0.000247  -0.000211
   34  O  5  Z   -0.000295   0.000135   0.000020  -0.000042   0.000142
   35  O  5  S    0.000989  -0.001603  -0.000087  -0.000194  -0.000139
   36  O  5  X    0.001188  -0.001597  -0.000129   0.000176   0.000335
   37  O  5  Y    0.000126  -0.000720   0.000166   0.001195   0.001012
   38  O  5  Z    0.000036   0.000475  -0.000092   0.000075  -0.000531
   39  H  6  S   -0.001662  -0.001141  -0.000020   0.000002   0.000006
   40  H  6  S    0.011725   0.002087  -0.000183  -0.000168  -0.000418
   41  C  7  S    0.000086   0.000039   0.986317  -0.000143  -0.000015
   42  C  7  S    0.000022   0.000007   0.091653   0.000171   0.000022
   43  C  7  X   -0.000140  -0.000046  -0.000768  -0.000159  -0.000045
   44  C  7  Y   -0.000086  -0.000057   0.000328   0.000057  -0.000005
   45  C  7  Z   -0.000051  -0.000041   0.000106  -0.000030   0.000006
   46  C  7  S   -0.000453  -0.000367  -0.036765  -0.000627   0.000056
   47  C  7  X    0.000751   0.000335  -0.009159   0.000886   0.000201
   48  C  7  Y   -0.000825  -0.000479   0.001838   0.000531   0.000056
   49  C  7  Z   -0.000256  -0.000155   0.000573   0.000265   0.000000
   50  O  8  S    0.000039   0.000023   0.000003   0.000006   0.000006
   51  O  8  S    0.000010   0.001088   0.000035   0.000038   0.000042
   52  O  8  X    0.000284  -0.000697  -0.000004  -0.000012  -0.000010
   53  O  8  Y    0.000051   0.000485  -0.000011   0.000018   0.000013
   54  O  8  Z   -0.000002   0.000111   0.000027  -0.000017  -0.000011
   55  O  8  S   -0.000980   0.001966  -0.000100  -0.000264  -0.000257
   56  O  8  X    0.000176   0.000399   0.000041   0.000140   0.000124
   57  O  8  Y    0.000489  -0.002140   0.000034  -0.000045  -0.000045
   58  O  8  Z   -0.000722   0.000184  -0.000075   0.000026   0.000016
   59  H  9  S   -0.001199  -0.001576   0.000020   0.000078   0.000081
   60  H  9  S    0.001841   0.011673   0.000012   0.000262   0.000204
   61  O 10  S    0.000015   0.000011   0.000130  -0.000009  -0.000006
   62  O 10  S    0.000218   0.000154   0.001227  -0.000085  -0.000055
   63  O 10  X   -0.000314  -0.000189  -0.000330   0.000064   0.000034
   64  O 10  Y    0.000097   0.000094   0.000014  -0.000031  -0.000012
   65  O 10  Z    0.000024  -0.000003   0.000003   0.000002  -0.000000
   66  O 10  S   -0.000234  -0.000216  -0.001526   0.000355   0.000178
   67  O 10  X    0.001361   0.000863  -0.000909  -0.000375  -0.000171
   68  O 10  Y   -0.000611  -0.000459   0.004593   0.000027   0.000032
   69  O 10  Z   -0.000121  -0.000028   0.001614  -0.000054  -0.000005
   70  H 11  S   -0.000010   0.000007  -0.001777  -0.000017  -0.000022
   71  H 11  S   -0.000369  -0.000131   0.015160  -0.000414  -0.000124
   72  O 12  S   -0.000008  -0.000001   0.000128   0.000026  -0.000004
   73  O 12  S   -0.000092  -0.000017   0.001479   0.000301  -0.000032
   74  O 12  X    0.000108   0.000045  -0.000509  -0.000207   0.000008
   75  O 12  Y    0.000012   0.000001   0.000322  -0.000081   0.000015
   76  O 12  Z   -0.000002  -0.000001   0.000119  -0.000090  -0.000001
   77  O 12  S    0.000259   0.000020  -0.000230  -0.000888   0.000132
   78  O 12  X   -0.000553  -0.000229   0.001965   0.001037  -0.000056
   79  O 12  Y   -0.000052  -0.000009  -0.003045   0.000521  -0.000022
   80  O 12  Z   -0.000000   0.000001  -0.001108   0.000298   0.000016
   81  H 13  S   -0.001138  -0.000213  -0.000422   0.000243   0.000090
   82  H 13  S    0.003548   0.002277   0.000551  -0.000954  -0.000493
   83  H 14  S    0.000026   0.000156   0.000027   0.000008   0.000016
   84  H 14  S    0.000678   0.002093  -0.000057  -0.000037  -0.000054
   85  C 15  S    0.000050  -0.000002   0.000193   0.986747  -0.000439
   86  C 15  S    0.000073  -0.000005   0.000197   0.095203  -0.004162
   87  C 15  X   -0.000034  -0.000004   0.000115   0.000143   0.001102
   88  C 15  Y    0.000144  -0.000003   0.000031   0.000636  -0.001315
   89  C 15  Z   -0.000008   0.000010  -0.000033  -0.000119  -0.001985
   90  C 15  S    0.000076   0.000001  -0.000495  -0.063998   0.027119
   91  C 15  X   -0.000127   0.000053  -0.000449   0.005694  -0.006279
   92  C 15  Y   -0.000601   0.000139  -0.000597  -0.002433   0.008727
   93  C 15  Z    0.000478  -0.000070   0.000640  -0.010865   0.011038
   94  H 16  S    0.000005  -0.000007   0.000063  -0.001301  -0.001497
   95  H 16  S   -0.000169  -0.000065   0.000133   0.000979   0.011656
   96  O 17  S    0.000009  -0.000000   0.000030   0.000057   0.000079
   97  O 17  S    0.000148   0.000003   0.000346   0.001416   0.000425
   98  O 17  X   -0.000026   0.000004   0.000253  -0.000060   0.000005
   99  O 17  Y    0.000216   0.000019   0.000000  -0.000480   0.000207
  100  O 17  Z   -0.000007   0.000016  -0.000111   0.000435  -0.000110
  101  O 17  S   -0.000395  -0.000001  -0.000770   0.000653  -0.002249
  102  O 17  X    0.000151   0.000026  -0.001222  -0.000772   0.000806
  103  O 17  Y   -0.000858  -0.000038  -0.000161   0.001038  -0.001070
  104  O 17  Z    0.000132  -0.000073   0.000542   0.000048  -0.001145
  105  H 18  S   -0.000035   0.000016   0.000035  -0.001641  -0.000853
  106  H 18  S   -0.000287   0.000048  -0.000230   0.011964   0.002235
  107  H 19  S    0.000086   0.000014  -0.000054  -0.000632  -0.000017
  108  H 19  S   -0.000838  -0.000246   0.003493   0.003170  -0.000090
  109  H 20  S   -0.000582   0.000010  -0.000082  -0.000756  -0.000100
  110  H 20  S    0.002038  -0.000093   0.000206   0.003160   0.001588

                     11         12         13         14         15
                   -1.6701    -1.6302    -1.5796    -1.5192    -1.4818
                     A          A          A          A          A   
    1  C  1  S   -0.000976   0.000760  -0.001560  -0.016630   0.005743
    2  C  1  S    0.001193  -0.000992   0.001507   0.016410  -0.005717
    3  C  1  X    0.000180  -0.000294   0.001201   0.010102  -0.003227
    4  C  1  Y    0.000021  -0.000004  -0.000445  -0.005543   0.002035
    5  C  1  Z   -0.000484   0.000625  -0.002055  -0.018510   0.006175
    6  C  1  S   -0.000569  -0.000088   0.004535   0.030034  -0.008726
    7  C  1  X    0.003478  -0.001839   0.000106   0.009280  -0.003234
    8  C  1  Y   -0.001971   0.000560   0.002430   0.031039  -0.012018
    9  C  1  Z   -0.005736   0.003122  -0.000989  -0.020089   0.005919
   10  H  2  S   -0.000696   0.000285   0.000489   0.002306  -0.000913
   11  H  2  S    0.009180  -0.004667  -0.002902  -0.014344   0.005927
   12  C  3  S   -0.081592   0.013551   0.011582   0.010495  -0.011882
   13  C  3  S    0.097069  -0.015553  -0.013147  -0.012749   0.014004
   14  C  3  X    0.053759  -0.002078  -0.005799  -0.006090   0.005244
   15  C  3  Y   -0.041456   0.045118   0.007196   0.004683  -0.003683
   16  C  3  Z    0.023992  -0.032688  -0.004657  -0.003473   0.002227
   17  C  3  S    0.105014  -0.030604  -0.019891  -0.016998   0.021951
   18  C  3  X   -0.020050   0.043760   0.001890   0.004921  -0.002147
   19  C  3  Y    0.014708  -0.027056  -0.002658  -0.007650   0.003984
   20  C  3  Z   -0.008059   0.012124   0.001655   0.003791  -0.002313
   21  C  4  S   -0.053469  -0.071805   0.001888   0.002223  -0.004786
   22  C  4  S    0.061103   0.083747  -0.002084  -0.002640   0.005674
   23  C  4  X    0.020983   0.080752   0.004219   0.005072  -0.004161
   24  C  4  Y   -0.027738  -0.006183   0.003339   0.003657  -0.004376
   25  C  4  Z    0.015732  -0.009186  -0.002928  -0.003561   0.003629
   26  C  4  S    0.082780   0.118771  -0.001517  -0.001475   0.006989
   27  C  4  X    0.014301  -0.051516  -0.003838  -0.007316   0.002658
   28  C  4  Y   -0.018554   0.019419   0.002574   0.004093  -0.002296
   29  C  4  Z    0.013111  -0.003907  -0.001640  -0.001661   0.001526
   30  O  5  S   -0.200527   0.101075   0.024375   0.014761  -0.013129
   31  O  5  S    0.187205  -0.092377  -0.021951  -0.014784   0.011931
   32  O  5  X    0.013745  -0.007025   0.004338  -0.003767  -0.007646
   33  O  5  Y    0.044643  -0.014934  -0.008362  -0.018305   0.010004
   34  O  5  Z   -0.037827   0.013944   0.005369   0.001357  -0.004215
   35  O  5  S    0.643309  -0.342998  -0.085197  -0.048039   0.047795
   36  O  5  X    0.022047  -0.006934   0.001199  -0.002934  -0.004837
   37  O  5  Y    0.061853  -0.031573  -0.011127  -0.026620   0.014672
   38  O  5  Z   -0.054486   0.027373   0.006743   0.003298  -0.004915
   39  H  6  S    0.020016  -0.000694  -0.003325  -0.002973   0.004179
   40  H  6  S   -0.018705   0.017987   0.002028   0.003205  -0.002258
   41  C  7  S   -0.008006   0.006022  -0.125543   0.023319   0.008268
   42  C  7  S    0.008767  -0.006889   0.148162  -0.028364  -0.009363
   43  C  7  X   -0.005143   0.003979  -0.080862   0.017550   0.017443
   44  C  7  Y    0.004475  -0.001974   0.010372  -0.044769  -0.170948
   45  C  7  Z    0.001540  -0.000589   0.002702  -0.015316  -0.059288
   46  C  7  S    0.010086  -0.004675   0.114908  -0.023754  -0.004968
   47  C  7  X   -0.002912  -0.001342   0.042535  -0.012359  -0.004819
   48  C  7  Y    0.004174   0.000612  -0.007319   0.004720   0.014749
   49  C  7  Z    0.001179   0.000218  -0.002731   0.001742   0.004834
   50  O  8  S   -0.085309  -0.203409  -0.005686  -0.006099   0.002912
   51  O  8  S    0.082260   0.189844   0.005021   0.005358  -0.002337
   52  O  8  X   -0.023997  -0.040950   0.000206   0.000151  -0.001608
   53  O  8  Y    0.016911   0.050297   0.001486   0.002463  -0.000772
   54  O  8  Z    0.011740   0.020177   0.000439  -0.000124  -0.000221
   55  O  8  S    0.252773   0.653212   0.019912   0.023078  -0.011433
   56  O  8  X   -0.025974  -0.073817  -0.000994  -0.003167  -0.000796
   57  O  8  Y    0.022859   0.064434   0.000731   0.003441   0.000739
   58  O  8  Z    0.014947   0.030450   0.001418  -0.000100  -0.001431
   59  H  9  S    0.014885   0.015992  -0.000832  -0.001193   0.001929
   60  H  9  S    0.001594  -0.026143  -0.001552  -0.002738   0.000803
   61  O 10  S   -0.016688   0.009891  -0.143886   0.063357   0.152280
   62  O 10  S    0.014000  -0.008748   0.132113  -0.058564  -0.143960
   63  O 10  X   -0.002487   0.001014   0.029032  -0.012963  -0.031128
   64  O 10  Y   -0.005261   0.003819  -0.072625   0.025466   0.052691
   65  O 10  Z   -0.002795   0.001562  -0.026720   0.009656   0.020065
   66  O 10  S    0.052426  -0.031890   0.449918  -0.203183  -0.486666
   67  O 10  X   -0.011991   0.002665   0.024139  -0.009611  -0.032171
   68  O 10  Y   -0.001854   0.006341  -0.090419   0.029394   0.058976
   69  O 10  Z   -0.003539   0.000651  -0.033907   0.011921   0.023528
   70  H 11  S    0.001568  -0.001213   0.028797  -0.005141   0.000769
   71  H 11  S    0.001052   0.000615  -0.025865   0.008066   0.004783
   72  O 12  S   -0.005687   0.005643  -0.147691  -0.024136  -0.166998
   73  O 12  S    0.005354  -0.005141   0.133542   0.023422   0.155560
   74  O 12  X   -0.001024   0.000598  -0.004581  -0.010265  -0.003481
   75  O 12  Y    0.002945  -0.002598   0.065067   0.001030   0.049647
   76  O 12  Z    0.001085  -0.000971   0.023941   0.001188   0.018745
   77  O 12  S    0.016335  -0.016961   0.463272   0.074518   0.543824
   78  O 12  X    0.000983   0.001011  -0.020410  -0.007383  -0.007282
   79  O 12  Y    0.003825  -0.003660   0.088466   0.001978   0.064341
   80  O 12  Z    0.001366  -0.001342   0.032523   0.001826   0.024189
   81  H 13  S    0.061757  -0.029865   0.005181  -0.013371  -0.013012
   82  H 13  S   -0.011817   0.000592   0.018332   0.000177  -0.017873
   83  H 14  S    0.032719   0.083695   0.002423   0.003236  -0.001451
   84  H 14  S   -0.000966   0.010764   0.001764   0.000876  -0.002126
   85  C 15  S   -0.003635   0.002956  -0.007609  -0.068648   0.021602
   86  C 15  S    0.004353  -0.003678   0.008093   0.078117  -0.025310
   87  C 15  X    0.001360  -0.001081   0.002873   0.025491  -0.007749
   88  C 15  Y    0.002501  -0.002247   0.005126   0.046387  -0.014615
   89  C 15  Z   -0.002708   0.002259  -0.005866  -0.051796   0.015903
   90  C 15  S   -0.001296  -0.000135   0.010622   0.086280  -0.028039
   91  C 15  X    0.000815  -0.000232   0.001366  -0.005576   0.005049
   92  C 15  Y   -0.001283   0.002105  -0.003299  -0.031008   0.009724
   93  C 15  Z   -0.002015   0.000334  -0.000126   0.012313  -0.006627
   94  H 16  S    0.000491  -0.000366   0.000398   0.006089  -0.002247
   95  H 16  S    0.002592  -0.001316   0.000109   0.011455  -0.004217
   96  O 17  S   -0.015660   0.011868  -0.027765  -0.214776   0.060660
   97  O 17  S    0.014215  -0.011047   0.024693   0.193848  -0.055120
   98  O 17  X   -0.001564   0.001118   0.003524  -0.018224   0.013568
   99  O 17  Y    0.006147  -0.003952   0.001473   0.014739  -0.004193
  100  O 17  Z    0.003509  -0.002722   0.005895   0.055005  -0.017644
  101  O 17  S    0.046538  -0.035049   0.088360   0.697384  -0.199133
  102  O 17  X   -0.001494   0.000736   0.005868  -0.024764   0.018624
  103  O 17  Y    0.008095  -0.003465   0.003294   0.021365  -0.005519
  104  O 17  Z    0.005752  -0.004677   0.008480   0.080840  -0.026364
  105  H 18  S    0.000783  -0.000628   0.001574   0.016543  -0.005605
  106  H 18  S   -0.000185   0.000808  -0.002186  -0.017127   0.005223
  107  H 19  S    0.002405  -0.002308   0.041407   0.033569   0.045759
  108  H 19  S    0.004168  -0.001491   0.005718   0.014544  -0.000540
  109  H 20  S    0.022558  -0.013057   0.005515   0.076736  -0.022910
  110  H 20  S    0.007183  -0.008780   0.003314   0.005220   0.001132

                     16         17         18         19         20
                   -1.3410    -1.1466    -1.0851    -1.0060    -0.9969
                     A          A          A          A          A   
    1  C  1  S   -0.001392  -0.167408   0.014803  -0.003411   0.025824
    2  C  1  S    0.001601   0.183880  -0.015425   0.002783  -0.026373
    3  C  1  X    0.001013   0.048995  -0.002490  -0.002554   0.000970
    4  C  1  Y   -0.001026  -0.049551   0.002112   0.009042  -0.003003
    5  C  1  Z   -0.001810  -0.086824   0.004086   0.000757  -0.004131
    6  C  1  S    0.002265   0.360157  -0.038719   0.009492  -0.078044
    7  C  1  X   -0.000934   0.006519  -0.002827   0.003662  -0.003060
    8  C  1  Y    0.002212   0.002517  -0.000077   0.003492   0.003325
    9  C  1  Z    0.001252  -0.014794   0.002932  -0.008535   0.004076
   10  H  2  S   -0.000007   0.077883  -0.008882   0.007925  -0.021196
   11  H  2  S   -0.004321   0.002502  -0.002350   0.013400  -0.014834
   12  C  3  S   -0.147248  -0.004667  -0.110274   0.030309   0.009260
   13  C  3  S    0.178802   0.004865   0.121188  -0.038221  -0.007049
   14  C  3  X    0.043881  -0.001570  -0.117926  -0.111047   0.190415
   15  C  3  Y    0.131501  -0.009347  -0.107094  -0.038593  -0.036626
   16  C  3  Z   -0.099315   0.010520   0.093846   0.022347  -0.004634
   17  C  3  S    0.319693   0.016165   0.400340  -0.082307  -0.074637
   18  C  3  X    0.000591   0.001079  -0.082370  -0.071248   0.137464
   19  C  3  Y    0.045202  -0.001211   0.023957  -0.046355  -0.022244
   20  C  3  Z   -0.034152   0.003093  -0.007571   0.024440  -0.004686
   21  C  4  S   -0.149079   0.006804   0.102440  -0.044690   0.005330
   22  C  4  S    0.180231  -0.007684  -0.111797   0.044874  -0.001084
   23  C  4  X   -0.123526   0.003101  -0.011557  -0.028854   0.133923
   24  C  4  Y   -0.092316  -0.001016  -0.046853   0.171742  -0.156316
   25  C  4  Z    0.079845   0.001737   0.046917  -0.127846   0.062502
   26  C  4  S    0.334132  -0.023221  -0.390878   0.203679  -0.052048
   27  C  4  X   -0.048502   0.003705   0.065345  -0.065830   0.080909
   28  C  4  Y   -0.011138   0.000094  -0.013913   0.123234  -0.116811
   29  C  4  Z    0.017980   0.000030   0.003217  -0.080155   0.048417
   30  O  5  S    0.064764  -0.001773   0.028903  -0.032218   0.010961
   31  O  5  S   -0.062915   0.001231  -0.028720   0.031788  -0.012425
   32  O  5  X   -0.032865  -0.009437  -0.214948  -0.107851   0.005922
   33  O  5  Y    0.039630   0.020734   0.105842  -0.108619   0.096493
   34  O  5  Z   -0.023712   0.004915  -0.056523   0.022628  -0.061065
   35  O  5  S   -0.236709   0.007519  -0.116935   0.130322  -0.039554
   36  O  5  X   -0.031751  -0.011414  -0.216764  -0.102170   0.007704
   37  O  5  Y    0.025554   0.017472   0.108981  -0.111017   0.098553
   38  O  5  Z   -0.010365   0.006761  -0.055937   0.020618  -0.056440
   39  H  6  S    0.069628   0.003918   0.135414   0.028715  -0.102312
   40  H  6  S   -0.013237   0.002377   0.027941   0.012327  -0.030503
   41  C  7  S   -0.004072  -0.007856  -0.024308  -0.102672  -0.088023
   42  C  7  S    0.005225   0.009819   0.032146   0.132270   0.113262
   43  C  7  X   -0.002169   0.002259   0.007019   0.082174   0.080955
   44  C  7  Y    0.008708  -0.008544   0.020823  -0.025817  -0.033676
   45  C  7  Z    0.003143  -0.002907   0.007941  -0.007397  -0.012408
   46  C  7  S    0.006284   0.018109   0.050485   0.251319   0.225114
   47  C  7  X    0.001379   0.003788   0.019441   0.079848   0.073816
   48  C  7  Y    0.000881  -0.003372   0.001482  -0.012780  -0.008103
   49  C  7  Z    0.000467  -0.000832   0.000815  -0.003606  -0.004153
   50  O  8  S    0.067304  -0.002077  -0.035198   0.016021  -0.002992
   51  O  8  S   -0.063872   0.002078   0.036849  -0.018997   0.004721
   52  O  8  X   -0.054046   0.005060   0.125510  -0.033545  -0.119683
   53  O  8  Y   -0.037889   0.001549   0.037624   0.076041  -0.135041
   54  O  8  Z    0.005585   0.000555   0.008376  -0.058395   0.026798
   55  O  8  S   -0.246490   0.008171   0.132914  -0.053638   0.004167
   56  O  8  X   -0.027995   0.004127   0.114472  -0.039087  -0.111367
   57  O  8  Y   -0.032523   0.001560   0.036348   0.069407  -0.124976
   58  O  8  Z   -0.001414   0.000483   0.006690  -0.052391   0.021821
   59  H  9  S    0.069153  -0.005845  -0.095122   0.132496  -0.106531
   60  H  9  S   -0.018397  -0.000678  -0.012981   0.034325  -0.036321
   61  O 10  S   -0.006208   0.002380   0.004040   0.044202   0.037785
   62  O 10  S    0.005626  -0.002300  -0.002702  -0.040754  -0.036240
   63  O 10  X    0.008976   0.003019   0.051206   0.084758   0.061981
   64  O 10  Y   -0.005564  -0.001540  -0.022898  -0.053068  -0.032914
   65  O 10  Z   -0.001227  -0.000292  -0.004807  -0.011368  -0.011807
   66  O 10  S    0.021475  -0.008587  -0.017719  -0.172393  -0.145267
   67  O 10  X    0.005200   0.003243   0.051314   0.079363   0.049507
   68  O 10  Y   -0.004591  -0.001436  -0.020213  -0.055182  -0.028194
   69  O 10  Z   -0.000715  -0.000143  -0.004925  -0.008154  -0.012236
   70  H 11  S    0.001342   0.005653   0.019323   0.113718   0.103231
   71  H 11  S   -0.000928  -0.000431  -0.002475   0.022079   0.021204
   72  O 12  S    0.003375  -0.003133   0.007242   0.035539   0.030940
   73  O 12  S   -0.003215   0.002211  -0.007409  -0.033251  -0.028478
   74  O 12  X   -0.000194   0.016784   0.011100   0.126664   0.118465
   75  O 12  Y   -0.000447   0.007628   0.007022   0.075241   0.067132
   76  O 12  Z   -0.000092   0.002897   0.002559   0.024125   0.021543
   77  O 12  S   -0.011696   0.014269  -0.026333  -0.142337  -0.125188
   78  O 12  X    0.000183   0.011721   0.008173   0.114584   0.109884
   79  O 12  Y   -0.000336   0.005063   0.006894   0.068192   0.060105
   80  O 12  Z   -0.000078   0.002731   0.002650   0.021342   0.019508
   81  H 13  S   -0.031523  -0.003397  -0.109562  -0.059078  -0.018806
   82  H 13  S   -0.022302  -0.001304  -0.047611  -0.047909  -0.046726
   83  H 14  S   -0.056303   0.003181   0.073908   0.009647  -0.097520
   84  H 14  S   -0.023800   0.001564   0.036685   0.002340  -0.055663
   85  C 15  S   -0.005684  -0.150017   0.001839   0.012478  -0.014957
   86  C 15  S    0.006342   0.172169  -0.002586  -0.013300   0.015888
   87  C 15  X    0.001847  -0.066096   0.009957  -0.010868   0.017342
   88  C 15  Y    0.002599   0.037194  -0.002816   0.016225  -0.006050
   89  C 15  Z   -0.003727   0.120733  -0.020299   0.005821  -0.042277
   90  C 15  S    0.012290   0.332831  -0.000364  -0.043588   0.049997
   91  C 15  X   -0.000721  -0.022908   0.001934  -0.007096  -0.000420
   92  C 15  Y   -0.000699   0.008866  -0.001138   0.010582  -0.005507
   93  C 15  Z    0.001224   0.048501  -0.004900   0.000458  -0.007139
   94  H 16  S    0.000467   0.079502  -0.008031   0.000585  -0.018043
   95  H 16  S   -0.000425   0.006706  -0.002311   0.003987  -0.006642
   96  O 17  S   -0.010169   0.057126  -0.011256   0.000772  -0.010956
   97  O 17  S    0.009133  -0.053951   0.010699  -0.000791   0.009662
   98  O 17  X   -0.001026  -0.032393  -0.003898  -0.045283  -0.040341
   99  O 17  Y   -0.006592  -0.049330  -0.020651   0.054397  -0.044233
  100  O 17  Z    0.003394   0.053089   0.001346  -0.000096   0.020018
  101  O 17  S    0.035703  -0.215174   0.041773  -0.003867   0.043504
  102  O 17  X   -0.002151  -0.028073  -0.005530  -0.044706  -0.042019
  103  O 17  Y   -0.005054  -0.049538  -0.021675   0.051152  -0.044942
  104  O 17  Z    0.003891   0.040308   0.001249   0.001722   0.020839
  105  H 18  S    0.002067   0.072681   0.000720  -0.016520   0.015132
  106  H 18  S   -0.000724   0.005004   0.000691  -0.004033   0.004103
  107  H 19  S    0.000039  -0.018897  -0.006310  -0.081347  -0.072080
  108  H 19  S    0.001614  -0.022849  -0.005622  -0.054908  -0.045071
  109  H 20  S   -0.008692  -0.041526  -0.016550   0.053198  -0.026131
  110  H 20  S   -0.008779  -0.030605  -0.011537   0.043358  -0.020102

                     21         22         23         24         25
                   -0.9654    -0.9541    -0.9003    -0.8730    -0.8476
                     A          A          A          A          A   
    1  C  1  S    0.007423  -0.078825  -0.049748  -0.042777  -0.004558
    2  C  1  S   -0.008037   0.078939   0.050230   0.042292   0.004842
    3  C  1  X    0.000464  -0.014652  -0.019160  -0.025804  -0.004901
    4  C  1  Y    0.001853   0.029907   0.027083   0.056744  -0.018060
    5  C  1  Z   -0.003401   0.023529   0.036160   0.042409   0.027751
    6  C  1  S   -0.023132   0.256196   0.172860   0.148031   0.023545
    7  C  1  X    0.001103   0.003055  -0.006245  -0.005474   0.001882
    8  C  1  Y    0.004609   0.005636   0.000436   0.015395  -0.024423
    9  C  1  Z   -0.001068  -0.005296   0.013852   0.011507   0.010889
   10  H  2  S   -0.004888   0.076042   0.054485   0.067870  -0.003497
   11  H  2  S   -0.004934   0.036060   0.030061   0.056270   0.016430
   12  C  3  S   -0.019740  -0.015058   0.016153  -0.010648   0.008629
   13  C  3  S    0.025534   0.019528  -0.013623   0.008308  -0.009039
   14  C  3  X    0.007599  -0.003995   0.226583  -0.140689  -0.044073
   15  C  3  Y    0.176674   0.023080   0.000387   0.053357   0.099331
   16  C  3  Z   -0.085409  -0.097287   0.083975   0.144155  -0.046443
   17  C  3  S    0.073140   0.045363  -0.095674   0.061222  -0.037057
   18  C  3  X   -0.001447  -0.018000   0.182917  -0.118540  -0.048589
   19  C  3  Y    0.102387  -0.009174   0.004429   0.075234   0.043823
   20  C  3  Z   -0.037857  -0.059199   0.061005   0.120871   0.008273
   21  C  4  S    0.030876   0.019819  -0.025906   0.008330   0.005188
   22  C  4  S   -0.033040  -0.017910   0.030678  -0.013669  -0.005835
   23  C  4  X   -0.171388   0.017832  -0.013298   0.116486  -0.048635
   24  C  4  Y   -0.064182  -0.149775   0.074284   0.063108  -0.060507
   25  C  4  Z    0.144401   0.042555   0.108683   0.020955   0.013887
   26  C  4  S   -0.125151  -0.084424   0.085387  -0.024085   0.003564
   27  C  4  X   -0.053170   0.025476  -0.019245   0.083257  -0.034816
   28  C  4  Y   -0.039583  -0.118024   0.097543   0.021611  -0.072106
   29  C  4  Z    0.089187   0.028519   0.083107   0.037835   0.006394
   30  O  5  S    0.003813   0.009544   0.002614   0.010897  -0.031774
   31  O  5  S   -0.005437  -0.008960  -0.003462  -0.007505   0.030696
   32  O  5  X    0.210586  -0.027686  -0.073937   0.055998   0.044012
   33  O  5  Y   -0.043276  -0.168993   0.152063   0.171231  -0.057912
   34  O  5  Z    0.057192  -0.088714  -0.008170   0.279512   0.167245
   35  O  5  S   -0.004286  -0.040050  -0.011367  -0.053324   0.145870
   36  O  5  X    0.215400  -0.026484  -0.080366   0.063239   0.055611
   37  O  5  Y   -0.046879  -0.186311   0.161380   0.192477  -0.061781
   38  O  5  Z    0.058570  -0.090008  -0.002928   0.294152   0.180490
   39  H  6  S    0.012284   0.012865  -0.142206   0.103875   0.016947
   40  H  6  S   -0.002092  -0.000516  -0.061395   0.049556   0.003196
   41  C  7  S   -0.048331  -0.001838  -0.011175  -0.001916  -0.036862
   42  C  7  S    0.060570   0.001376   0.016173   0.001496   0.046216
   43  C  7  X    0.064944  -0.004430   0.009892   0.031496   0.140354
   44  C  7  Y   -0.076217   0.006793   0.076082  -0.066627   0.185565
   45  C  7  Z   -0.029380   0.000700   0.029537  -0.024169   0.071387
   46  C  7  S    0.136687   0.003547   0.024078   0.016626   0.119971
   47  C  7  X    0.043547  -0.012458   0.018507   0.021429   0.118386
   48  C  7  Y   -0.016876   0.004212   0.019871  -0.016743   0.052957
   49  C  7  Z   -0.008389  -0.000906   0.009832  -0.005454   0.022287
   50  O  8  S   -0.010286  -0.019173   0.040274  -0.004265  -0.025102
   51  O  8  S    0.012814   0.020868  -0.040888   0.002044   0.026598
   52  O  8  X    0.227452  -0.007663   0.046916  -0.116292   0.035057
   53  O  8  Y    0.088329  -0.098879   0.182015  -0.069959  -0.096059
   54  O  8  Z    0.077714   0.005077   0.131020   0.016866  -0.058061
   55  O  8  S    0.037392   0.072738  -0.165001   0.018458   0.105155
   56  O  8  X    0.225836  -0.005327   0.046363  -0.119862   0.036636
   57  O  8  Y    0.089327  -0.092454   0.186722  -0.071935  -0.095548
   58  O  8  Z    0.071940   0.000675   0.132814   0.018176  -0.066875
   59  H  9  S   -0.043478  -0.090096   0.031963  -0.020576  -0.023783
   60  H  9  S   -0.007458  -0.033234   0.000803  -0.000346  -0.008902
   61  O 10  S    0.021032   0.003244   0.013149  -0.009075   0.044243
   62  O 10  S   -0.021197  -0.002745  -0.011162   0.007933  -0.037772
   63  O 10  X   -0.028595   0.005878   0.081523  -0.059595   0.181901
   64  O 10  Y    0.012859  -0.008720  -0.041056   0.047655  -0.062728
   65  O 10  Z   -0.002171  -0.004912  -0.007257   0.014514  -0.013986
   66  O 10  S   -0.081269  -0.015891  -0.052743   0.036978  -0.185321
   67  O 10  X   -0.034273   0.004847   0.078014  -0.058578   0.180716
   68  O 10  Y    0.012575  -0.006692  -0.037451   0.045212  -0.064182
   69  O 10  Z   -0.003435  -0.006284  -0.004167   0.015906  -0.012304
   70  H 11  S    0.068872  -0.000589   0.014749   0.018478   0.110118
   71  H 11  S    0.021970   0.004792   0.002017   0.006869   0.046504
   72  O 12  S    0.020585   0.002848   0.002616   0.006226   0.001961
   73  O 12  S   -0.017857  -0.002596  -0.003301  -0.004344  -0.003095
   74  O 12  X    0.111177  -0.008323  -0.063959   0.058944  -0.154872
   75  O 12  Y    0.061509   0.004299  -0.031099   0.027065  -0.123818
   76  O 12  Z    0.018379  -0.001627  -0.008807   0.007361  -0.033182
   77  O 12  S   -0.086781  -0.012358  -0.010194  -0.029139  -0.010507
   78  O 12  X    0.106617  -0.006473  -0.064382   0.061015  -0.165479
   79  O 12  Y    0.054888   0.005629  -0.025724   0.026873  -0.117842
   80  O 12  Z    0.016142  -0.002676  -0.007973   0.006320  -0.029779
   81  H 13  S    0.095461  -0.023881  -0.054546   0.053881  -0.002937
   82  H 13  S    0.052117  -0.011213  -0.072256   0.069710  -0.030721
   83  H 14  S    0.133465  -0.039800   0.105081  -0.074257  -0.032826
   84  H 14  S    0.082197  -0.020630   0.060867  -0.053672  -0.019073
   85  C 15  S   -0.001764   0.075404   0.050824   0.054472  -0.002701
   86  C 15  S    0.001769  -0.080003  -0.054452  -0.059977   0.002728
   87  C 15  X    0.000996  -0.065919  -0.021944  -0.009248   0.021488
   88  C 15  Y    0.006844   0.072123   0.044616   0.074995  -0.066615
   89  C 15  Z   -0.012016   0.112942   0.046506   0.004869   0.019225
   90  C 15  S    0.005890  -0.245920  -0.166702  -0.186652   0.010319
   91  C 15  X   -0.004371  -0.018697  -0.000160  -0.000416   0.030507
   92  C 15  Y    0.004090   0.045298   0.028217   0.055486  -0.047069
   93  C 15  Z   -0.000999   0.020965   0.001149  -0.014560  -0.003055
   94  H 16  S   -0.006924   0.058556   0.047299   0.038607   0.020694
   95  H 16  S   -0.001587   0.024212   0.018472   0.019234   0.010687
   96  O 17  S   -0.002523   0.000186  -0.020413  -0.029147   0.000593
   97  O 17  S    0.001373  -0.000026   0.019708   0.026362   0.001111
   98  O 17  X   -0.037168   0.012911   0.054520   0.004311   0.138211
   99  O 17  Y    0.010628   0.212319   0.051752   0.020405  -0.053441
  100  O 17  Z    0.011641  -0.065771  -0.052883  -0.026403  -0.031752
  101  O 17  S    0.012933   0.001407   0.082991   0.125983  -0.008834
  102  O 17  X   -0.037490   0.015700   0.057878   0.002766   0.152034
  103  O 17  Y    0.012042   0.214800   0.052136   0.021052  -0.053608
  104  O 17  Z    0.013481  -0.067298  -0.055794  -0.025654  -0.033337
  105  H 18  S   -0.001531  -0.096352  -0.065602  -0.084923   0.038274
  106  H 18  S   -0.000677  -0.035260  -0.027796  -0.034465   0.018939
  107  H 19  S   -0.066784   0.003317   0.044584  -0.024219   0.111414
  108  H 19  S   -0.041905   0.003933   0.039616  -0.008734   0.101864
  109  H 20  S    0.011172   0.132319   0.007196  -0.014363  -0.038352
  110  H 20  S    0.003521   0.099774   0.005315  -0.031639  -0.019811

                     26         27         28         29         30
                   -0.8410    -0.8243    -0.8089    -0.7791    -0.7691
                     A          A          A          A          A   
    1  C  1  S    0.043056   0.007250  -0.010346   0.007741   0.036739
    2  C  1  S   -0.041959  -0.007562   0.009708  -0.006088  -0.029180
    3  C  1  X    0.032888   0.007137  -0.016438   0.058903   0.106979
    4  C  1  Y   -0.023359  -0.013324  -0.078734   0.134761  -0.152869
    5  C  1  Z   -0.061945  -0.016106   0.047909  -0.109134  -0.190020
    6  C  1  S   -0.172854  -0.027140   0.064385  -0.065370  -0.186445
    7  C  1  X    0.021342   0.002749  -0.015543   0.032688   0.051258
    8  C  1  Y   -0.004235   0.000434  -0.055361   0.116756  -0.080941
    9  C  1  Z   -0.042552  -0.009877   0.043860  -0.065670  -0.088755
   10  H  2  S   -0.049391  -0.014822  -0.035442   0.064094  -0.141703
   11  H  2  S   -0.003265  -0.016639  -0.053110   0.030685  -0.121410
   12  C  3  S    0.013594  -0.000679  -0.018263  -0.012773  -0.012160
   13  C  3  S   -0.010551   0.000896   0.012650   0.009791   0.011254
   14  C  3  X   -0.028163  -0.027611  -0.150056  -0.062161   0.020488
   15  C  3  Y    0.125312  -0.026449  -0.055001  -0.022560   0.003377
   16  C  3  Z    0.015978   0.010297   0.031254  -0.023730   0.083404
   17  C  3  S   -0.082503   0.000958   0.137813   0.107901   0.075331
   18  C  3  X   -0.075249  -0.030482  -0.102022  -0.028849   0.043275
   19  C  3  Y    0.028384  -0.018014   0.003525   0.007248   0.054307
   20  C  3  Z    0.072541  -0.008433  -0.038292  -0.053480   0.051607
   21  C  4  S   -0.017046  -0.004287   0.009438   0.008179   0.008877
   22  C  4  S    0.019546   0.004066  -0.012888  -0.006961  -0.009620
   23  C  4  X    0.108707   0.058059   0.161382   0.069718  -0.002704
   24  C  4  Y   -0.028866   0.027258   0.062165  -0.014271   0.040351
   25  C  4  Z    0.171280   0.017518  -0.004156  -0.021926  -0.002161
   26  C  4  S    0.101984   0.014215  -0.095002  -0.087567  -0.066395
   27  C  4  X    0.057123   0.040776   0.141349   0.069588   0.014608
   28  C  4  Y   -0.034206   0.023961   0.064914   0.014375   0.048294
   29  C  4  Z    0.186470   0.036071   0.025722  -0.028709  -0.027317
   30  O  5  S   -0.030252   0.007864   0.024616   0.007712   0.023921
   31  O  5  S    0.033797  -0.005318  -0.028961  -0.013246  -0.025018
   32  O  5  X   -0.140777  -0.019479   0.180370   0.140081   0.063905
   33  O  5  Y   -0.180954  -0.049294  -0.017507  -0.000894   0.159582
   34  O  5  Z    0.170040  -0.074290  -0.178749  -0.090713   0.034529
   35  O  5  S    0.121901  -0.044876  -0.087306  -0.009820  -0.102454
   36  O  5  X   -0.144775  -0.034489   0.214833   0.164421   0.073434
   37  O  5  Y   -0.208338  -0.053556  -0.012147  -0.008723   0.179073
   38  O  5  Z    0.185354  -0.085339  -0.204474  -0.096183   0.035634
   39  H  6  S    0.007915   0.020149   0.123570   0.058277   0.004586
   40  H  6  S   -0.013013   0.010068   0.078469   0.042961   0.008380
   41  C  7  S    0.005689   0.044363  -0.033037  -0.009534  -0.003498
   42  C  7  S   -0.004272  -0.069817   0.043942   0.013449   0.003278
   43  C  7  X   -0.087293   0.281967  -0.000534   0.007556   0.017956
   44  C  7  Y    0.023185  -0.014024   0.006956   0.099162   0.035074
   45  C  7  Z    0.012883  -0.005093  -0.000779   0.050638   0.006719
   46  C  7  S   -0.039133  -0.039337   0.087407   0.021120   0.014332
   47  C  7  X   -0.060524   0.210817  -0.013746   0.012539   0.006997
   48  C  7  Y   -0.001969   0.011645   0.001278   0.016661   0.010622
   49  C  7  Z    0.005150   0.004621  -0.002550   0.021964  -0.002338
   50  O  8  S    0.021460   0.017215   0.032689   0.016687  -0.007462
   51  O  8  S   -0.024328  -0.019095  -0.036703  -0.017868   0.008232
   52  O  8  X   -0.092187  -0.049046  -0.148134  -0.074614   0.006496
   53  O  8  Y    0.025811   0.040325   0.125345   0.104761  -0.007582
   54  O  8  Z    0.236441   0.105899   0.129009  -0.013120  -0.111795
   55  O  8  S   -0.090585  -0.073670  -0.141201  -0.074322   0.032451
   56  O  8  X   -0.099676  -0.050673  -0.163695  -0.085201   0.008141
   57  O  8  Y    0.040774   0.040959   0.134457   0.116949  -0.013106
   58  O  8  Z    0.243193   0.117725   0.144466  -0.012613  -0.123863
   59  H  9  S   -0.078596  -0.004828  -0.031197  -0.034791   0.011839
   60  H  9  S   -0.047081  -0.001462  -0.009781  -0.025166   0.006934
   61  O 10  S    0.005382  -0.063107   0.031528   0.026855   0.008603
   62  O 10  S   -0.004575   0.056424  -0.028758  -0.023916  -0.006840
   63  O 10  X    0.017828   0.023901  -0.019450   0.071887   0.021917
   64  O 10  Y   -0.057493   0.256190  -0.065562  -0.079953  -0.013312
   65  O 10  Z   -0.009787   0.083887  -0.028827  -0.010467  -0.009322
   66  O 10  S   -0.022844   0.275737  -0.137233  -0.111280  -0.039571
   67  O 10  X    0.021666   0.024280  -0.028389   0.072883   0.022957
   68  O 10  Y   -0.055979   0.250552  -0.067044  -0.086035  -0.012927
   69  O 10  Z   -0.006618   0.081102  -0.029524  -0.008940  -0.008265
   70  H 11  S   -0.052265   0.104790   0.036673   0.015166   0.014506
   71  H 11  S   -0.025092   0.046453   0.026566   0.008121   0.012119
   72  O 12  S   -0.004175  -0.051754   0.031891  -0.010285  -0.002309
   73  O 12  S    0.001746   0.050953  -0.028798   0.007923   0.001163
   74  O 12  X   -0.023053   0.071551  -0.045396  -0.078131  -0.032177
   75  O 12  Y    0.015807  -0.198159   0.056890  -0.068046  -0.018400
   76  O 12  Z    0.009185  -0.069862   0.018547  -0.002129  -0.015411
   77  O 12  S    0.024444   0.216239  -0.143709   0.045828   0.011644
   78  O 12  X   -0.027246   0.077507  -0.048764  -0.088889  -0.037868
[...]
    3             0.025449   0.035342   0.057495   0.005362   0.022822
    4             0.007928   0.000194   0.041795   0.000153   0.001552
    5             0.063509   0.123689   0.216706   0.008212   0.051418
    6             0.001363   0.000678   0.011105   0.000018   0.000112
    7             0.215872   0.048426   0.024392   0.009211   0.002321
    8             0.055032   0.025475   0.443971   0.000868   0.003947
    9             0.006389   0.000056   0.028519   0.000009   0.000534
   10             0.208864   0.096008   0.030548   0.015625   0.007484
   11             0.001667   0.016063   0.000334   0.007538   0.000528
   12             0.262727   0.096983   0.042012   0.061106   0.024079
   13             0.001172   0.003138   0.000824   0.000275   0.000494
   14             0.001667   0.001051  -0.000004   0.000077   0.000172
   15             0.029907   0.071436   0.020357   0.051755   0.181944
   16             0.004450   0.004215   0.003827   0.135010   0.017921
   17             0.065822   0.421565   0.047776   0.368237   0.205249
   18             0.000361   0.000142   0.000349   0.002152   0.142112
   19             0.001605   0.014188   0.000824   0.008478   0.001484
   20             0.000424   0.002524   0.000439   0.003332   0.031884

                     36         37         38         39

                  1.000000   1.000000   1.000000   1.000000

    1             0.044342   0.004551   0.000318   0.518545
    2             0.000220   0.000534   0.000029   0.000038
    3             0.004086   0.003438   0.000294   0.000007
    4             0.000031   0.000579   0.000249   0.000000
    5             0.007028   0.037078   0.000561   0.000027
    6             0.000009   0.002850   0.000039   0.000003
    7             0.031565   0.049443   0.008004   0.000688
    8             0.002277   0.001248   0.002553   0.000001
    9            -0.000000   0.000029   0.000207   0.000000
   10             0.083486   0.646023   0.485983   0.000842
   11             0.029473   0.094476   0.005329   0.001266
   12             0.483013   0.118866   0.493144   0.013317
   13             0.000841   0.011243   0.000207   0.000014
   14             0.000016   0.000040   0.000110   0.000000
   15             0.043983   0.005510   0.000384   0.322678
   16             0.017557   0.001425   0.000233   0.000003
   17             0.223356   0.015930   0.001983   0.140182
   18             0.004730   0.000084   0.000006   0.000386
   19             0.014513   0.005798   0.000325   0.001639
   20             0.009474   0.000856   0.000042   0.000364

     ATOMIC SPIN POPULATION (ALPHA MINUS BETA)
       ATOM         MULL.POP.                    LOW.POP.
    1 C            -0.042392                    -0.032219
    2 H             0.003322                     0.001784
    3 C             0.195398                     0.213657
    4 C             0.553870                     0.486905
    5 O             0.240616                     0.238480
    6 H            -0.023530                    -0.013818
    7 C             0.000573                     0.000428
    8 O             0.079248                     0.095434
    9 H            -0.046141                    -0.027159
   10 O            -0.002543                    -0.002481
   11 H            -0.000269                    -0.000194
   12 O             0.000073                     0.000070
   13 H            -0.009091                    -0.006828
   14 H             0.007974                     0.009123
   15 C             0.037273                     0.028371
   16 H             0.003096                     0.001645
   17 O             0.016038                     0.015028
   18 H            -0.002001                    -0.000974
   19 H            -0.000238                    -0.000103
   20 H            -0.011277                    -0.007147


          ********* ALL ELECTRONS ********

               ----- POPULATIONS IN EACH AO -----
                             MULLIKEN      LOWDIN
              1  C  1  S      1.98706     1.97725
              2  C  1  S      0.39041     0.42001
              3  C  1  X      0.46971     0.45855
              4  C  1  Y      0.57088     0.53588
              5  C  1  Z      0.56632     0.53986
              6  C  1  S      0.97552     0.58293
              7  C  1  X      0.58561     0.63043
              8  C  1  Y      0.52365     0.56998
              9  C  1  Z      0.43971     0.55792
             10  H  2  S      0.46895     0.46238
             11  H  2  S      0.31887     0.44041
             12  C  3  S      1.98728     1.97715
             13  C  3  S      0.43178     0.44717
             14  C  3  X      0.64286     0.60852
             15  C  3  Y      0.46615     0.44455
             16  C  3  Z      0.40806     0.38825
             17  C  3  S      0.84584     0.55566
             18  C  3  X      0.47185     0.51312
             19  C  3  Y      0.19681     0.40693
             20  C  3  Z      0.31296     0.43256
             21  C  4  S      1.98723     1.97704
             22  C  4  S      0.42840     0.44529
             23  C  4  X      0.52250     0.50002
             24  C  4  Y      0.56907     0.53820
             25  C  4  Z      0.44075     0.41930
             26  C  4  S      0.84911     0.56025
             27  C  4  X      0.17829     0.40444
             28  C  4  Y      0.43046     0.49842
             29  C  4  Z      0.41349     0.46319
             30  O  5  S      1.98651     1.98035
             31  O  5  S      0.41916     0.57890
             32  O  5  X      0.70738     0.70075
             33  O  5  Y      0.65423     0.65196
             34  O  5  Z      0.70985     0.71044
             35  O  5  S      1.52649     1.00754
             36  O  5  X      0.87918     0.84981
             37  O  5  Y      0.86682     0.85633
             38  O  5  Z      0.91447     0.91468
             39  H  6  S      0.46104     0.45311
             40  H  6  S      0.15352     0.36794
             41  C  7  S      1.98613     1.97671
             42  C  7  S      0.44310     0.44167
             43  C  7  X      0.61531     0.58116
             44  C  7  Y      0.52878     0.50794
             45  C  7  Z      0.31054     0.29612
             46  C  7  S      0.61439     0.54462
             47  C  7  X      0.39546     0.48391
             48  C  7  Y      0.08310     0.38393
             49  C  7  Z      0.33833     0.41239
             50  O  8  S      1.98617     1.98040
             51  O  8  S      0.42281     0.57600
             52  O  8  X      0.55686     0.53905
             53  O  8  Y      0.71348     0.70363
             54  O  8  Z      0.80007     0.80502
             55  O  8  S      1.51863     1.02585
             56  O  8  X      0.72046     0.76136
             57  O  8  Y      0.89001     0.89048
             58  O  8  Z      0.98578     0.98227
             59  H  9  S      0.45987     0.45216
             60  H  9  S      0.17288     0.37947
             61  O 10  S      1.98635     1.98067
             62  O 10  S      0.41738     0.57273
             63  O 10  X      0.74216     0.74281
             64  O 10  Y      0.68015     0.67555
             65  O 10  Z      0.66659     0.66755
             66  O 10  S      1.51958     1.03810
             67  O 10  X      0.92434     0.94114
             68  O 10  Y      0.85159     0.88146
             69  O 10  Z      0.91728     0.90696
             70  H 11  S      0.48081     0.47541
             71  H 11  S      0.23889     0.42259
             72  O 12  S      1.98627     1.98025
             73  O 12  S      0.41555     0.57305
             74  O 12  X      0.69190     0.68619
             75  O 12  Y      0.66579     0.66118
             76  O 12  Z      0.74044     0.74553
             77  O 12  S      1.51142     1.01292
             78  O 12  X      0.87400     0.86213
             79  O 12  Y      0.85298     0.88147
             80  O 12  Z      0.98215     0.96833
             81  H 13  S      0.29691     0.31635
             82  H 13  S      0.18823     0.35219
             83  H 14  S      0.37790     0.39154
             84  H 14  S      0.14439     0.27212
             85  C 15  S      1.98676     1.97664
             86  C 15  S      0.40600     0.42433
             87  C 15  X      0.45025     0.43294
             88  C 15  Y      0.56838     0.54012
             89  C 15  Z      0.50685     0.48275
             90  C 15  S      0.82485     0.55402
             91  C 15  X      0.48548     0.55098
             92  C 15  Y      0.42643     0.50852
             93  C 15  Z      0.22539     0.44456
             94  H 16  S      0.46172     0.45195
             95  H 16  S      0.27429     0.41601
             96  O 17  S      1.98600     1.97966
             97  O 17  S      0.40616     0.56288
             98  O 17  X      0.75354     0.76133
             99  O 17  Y      0.62806     0.61789
            100  O 17  Z      0.71821     0.72098
            101  O 17  S      1.51525     1.00667
            102  O 17  X      0.99433     0.96940
            103  O 17  Y      0.82896     0.82278
            104  O 17  Z      0.94806     0.94889
            105  H 18  S      0.47228     0.46804
            106  H 18  S      0.23624     0.40929
            107  H 19  S      0.30630     0.32213
            108  H 19  S      0.20116     0.35760
            109  H 20  S      0.34239     0.36077
            110  H 20  S      0.19318     0.34903

          ----- MULLIKEN ATOMIC OVERLAP POPULATIONS -----
          (OFF-DIAGONAL ELEMENTS NEED TO BE MULTIPLIED BY 2)

             1           2           3           4           5

    1    5.3497734
    2    0.3915044   0.4603656
    3    0.0000639   0.0000990   5.0577546
    4   -0.0000020   0.0000172   0.1944670   5.1205888
    5   -0.0018951   0.0060051   0.3014246  -0.0470260   8.2895673
    6    0.0000467  -0.0000634   0.3514901  -0.0453340  -0.0234085
    7   -0.0000139   0.0000011   0.0000834   0.0000146   0.0006079
    8   -0.0000000  -0.0000000  -0.0626144   0.2919502  -0.0009362
    9    0.0000000  -0.0000001  -0.0533785   0.3381858   0.0010024
   10   -0.0000010   0.0000004   0.0001722   0.0003069  -0.0235961
   11   -0.0000000  -0.0000000   0.0000000   0.0000007  -0.0000258
   12   -0.0000169  -0.0000007  -0.0000027  -0.0000001  -0.0000056
   13    0.0000571  -0.0000957  -0.0279963  -0.0024770   0.1495933
   14   -0.0000000   0.0000000   0.0032682  -0.0315363  -0.0000170
   15    0.4905669  -0.0585684   0.0000261   0.0000016   0.0009931
   16    0.3776008  -0.0123790  -0.0000002   0.0000000   0.0000127
   17   -0.0525723  -0.0025853   0.0000724  -0.0000272  -0.0207866
   18   -0.0453350   0.0014880  -0.0000002  -0.0000000  -0.0000212
   19    0.0005621   0.0000274   0.0000014   0.0000041   0.0002847
   20   -0.0014520   0.0019999  -0.0013250   0.0001743   0.0323182

             6           7           8           9          10

    6    0.3281237
    7    0.0000001   4.3238273
    8    0.0008601   0.0000874   8.1251299
    9    0.0020633   0.0000001  -0.0258085   0.3717082
   10   -0.0000188   0.3771889  -0.0004938  -0.0000016   8.3333334
   11   -0.0000000   0.3585917  -0.0000022  -0.0000000  -0.0521534
   12    0.0000000   0.2842294  -0.0000000   0.0000000  -0.0462132
   13    0.0011610  -0.0087982   0.0072737   0.0002424   0.1155619
   14   -0.0000580   0.0000062   0.2588591  -0.0012549   0.0002914
   15   -0.0000006   0.0002446   0.0000000  -0.0000000  -0.0000113
   16   -0.0000002   0.0000001   0.0000000  -0.0000000   0.0000000
   17    0.0000271   0.0013874   0.0000000   0.0000001  -0.0002001
   18    0.0000000   0.0000085   0.0000000   0.0000000  -0.0000002
   19   -0.0000015  -0.0233288  -0.0000029  -0.0000000   0.0008014
   20   -0.0003243   0.0010121  -0.0000461  -0.0000085   0.0004604

            11          12          13          14          15

   11    0.4654449
   12   -0.0554082   8.3754411
   13    0.0009165  -0.0008492   0.2514116
   14   -0.0000000   0.0000000  -0.0001664   0.2928941
   15    0.0000019   0.0012075   0.0001128   0.0000000   4.9338984
   16    0.0000000   0.0000002  -0.0000004  -0.0000000  -0.0364651
   17   -0.0000297  -0.0286239   0.0015437   0.0000000   0.2115738
   18    0.0000002   0.0000548   0.0000022   0.0000000   0.3852442
   19    0.0023457   0.1890410   0.0015053   0.0000000  -0.0093829
   20    0.0000233   0.0016489  -0.0038532  -0.0000003  -0.0390551

            16          17          18          19          20

   16    0.4057920
   17    0.0012108   8.3710261
   18    0.0001569  -0.0280613   0.3933440
   19   -0.0000249   0.0926445  -0.0008157   0.2609800
   20    0.0001104   0.2319591   0.0024498  -0.0071802   0.3166583

          TOTAL MULLIKEN AND LOWDIN ATOMIC POPULATIONS
       ATOM         MULL.POP.    CHARGE          LOW.POP.     CHARGE
    1 C             6.508887   -0.508887         6.272827   -0.272827
    2 H             0.787816    0.212184         0.902795    0.097205
    3 C             5.763606    0.236394         5.773910    0.226090
    4 C             5.819309    0.180691         5.806147    0.193853
    5 O             8.664092   -0.664092         8.250766   -0.250766
    6 H             0.614563    0.385437         0.821054    0.178946
    7 C             5.315150    0.684850         5.628443    0.371557
    8 O             8.594256   -0.594256         8.264066   -0.264066
    9 H             0.632750    0.367250         0.831625    0.168375
   10 O             8.705427   -0.705427         8.406971   -0.406971
   11 H             0.719705    0.280295         0.898002    0.101998
   12 O             8.720502   -0.720502         8.371042   -0.371042
   13 H             0.485145    0.514855         0.668536    0.331464
   14 H             0.522286    0.477714         0.663656    0.336344
   15 C             5.880388    0.119612         5.914859    0.085141
   16 H             0.736014    0.263986         0.867964    0.132036
   17 O             8.778558   -0.778558         8.390481   -0.390481
   18 H             0.708515    0.291485         0.877332    0.122668
   19 H             0.507461    0.492539         0.679725    0.320275
   20 H             0.535570    0.464430         0.709800    0.290200

          -------------------------------
          BOND ORDER AND VALENCE ANALYSIS     BOND ORDER THRESHOLD=0.050
          -------------------------------

                   BOND                       BOND                       BOND
  ATOM PAIR DIST  ORDER      ATOM PAIR DIST  ORDER      ATOM PAIR DIST  ORDER
    1   2  1.084  0.936        1  15  1.330  1.844        1  16  1.082  0.916
    3   4  1.332  1.290        3   5  1.398  1.220        3   6  1.081  0.830
    4   8  1.408  1.118        4   9  1.086  0.819        5  13  1.055  0.460
    5  20  1.469  0.109        7  10  1.252  1.470        7  11  1.093  0.837
    7  12  1.319  1.174        8  14  0.995  0.726       10  12  2.312  0.102
   10  13  1.512  0.256       12  19  1.082  0.526       15  17  1.407  0.795
   15  18  1.083  0.895       17  19  1.437  0.209       17  20  1.059  0.648

                       TOTAL       BONDED        FREE
      ATOM            VALENCE     VALENCE     VALENCE
    1 C                 3.731       3.730       0.001
    2 H                 0.933       0.933       0.000
    3 C                 3.409       3.361       0.048
    4 C                 3.475       3.258       0.216
    5 O                 1.956       1.903       0.053
    6 H                 0.822       0.821       0.001
    7 C                 3.507       3.507       0.000
    8 O                 1.923       1.910       0.013
    9 H                 0.827       0.825       0.002
   10 O                 1.879       1.879       0.000
   11 H                 0.877       0.877       0.000
   12 O                 1.840       1.840       0.000
   13 H                 0.750       0.750       0.000
   14 H                 0.754       0.754       0.000
   15 C                 3.508       3.507       0.001
   16 H                 0.909       0.909       0.000
   17 O                 1.778       1.778       0.000
   18 H                 0.886       0.886       0.000
   19 H                 0.760       0.760       0.000
   20 H                 0.772       0.772       0.000

          -----------------------------------------
          ATOMIC SPIN DENSITY AT THE NUCLEUS (A.U.)
          -----------------------------------------
                            SPIN DENS    ALPHA DENS     BETA DENS
    1  C            6.0    -0.0070139      46.95918      46.96619
    2  H            1.0     0.0008208       0.18309       0.18227
    3  C            6.0     0.0204861      47.00477      46.98429
    4  C            6.0     0.0882326      47.03258      46.94435
    5  O            8.0     0.1002516     116.84277     116.74251
    6  H            1.0    -0.0074742       0.17456       0.18203
    7  C            6.0     0.0001621      46.94768      46.94752
    8  O            8.0     0.0671176     116.79492     116.72780
    9  H            1.0    -0.0141875       0.17063       0.18481
   10  O            8.0    -0.0041690     116.77569     116.77986
   11  H            1.0    -0.0000973       0.18553       0.18563
   12  O            8.0    -0.0000837     116.75779     116.75787
   13  H            1.0    -0.0042311       0.11363       0.11787
   14  H            1.0     0.0070146       0.15534       0.14833
   15  C            6.0     0.0065989      46.95249      46.94589
   16  H            1.0     0.0007905       0.17980       0.17901
   17  O            8.0     0.0037931     116.67748     116.67369
   18  H            1.0    -0.0004270       0.18321       0.18363
   19  H            1.0    -0.0000047       0.11849       0.11850
   20  H            1.0    -0.0032513       0.13390       0.13715

          ---------------------
          ELECTROSTATIC MOMENTS
          ---------------------

 POINT   1           X           Y           Z (BOHR)    CHARGE
                 0.834697    0.668502   -1.674819        1.00 (A.U.)
         DX          DY          DZ         /D/  (DEBYE)
    -4.086864   10.382395   -2.254521   11.383297
 ...... END OF PROPERTY EVALUATION ......
 CPU     0: STEP CPU TIME=     0.05 TOTAL CPU TIME=          3.0 (      0.0 MIN)
 TOTAL WALL CLOCK TIME=          5.8 SECONDS, CPU UTILIZATION IS    50.68%
               580000  WORDS OF DYNAMIC MEMORY USED
 EXECUTION OF GAMESS TERMINATED NORMALLY Fri May 22 15:20:52 2020
 DDI: 263640 bytes (0.3 MB / 0 MWords) used by master data server.
Note: The following floating-point exceptions are signalling: IEEE_DENORMALNote: The following floating-point exceptions are signalling: IEEE_DENORMALNote: The following floating-point exceptions are signalling: IEEE_DENORMALNote: The following floating-point exceptions are signalling: IEEE_DENORMALNote: The following floating-point exceptions are signalling: IEEE_DENORMAL

 ----------------------------------------
 CPU timing information for all processes
 ========================================
 0: 2.766 + 0.204 = 2.971
 1: 2.727 + 0.24 = 2.751
 2: 2.752 + 0.44 = 2.797
 3: 2.792 + 0.15 = 2.808
 4: 2.675 + 0.32 = 2.707
 5: 2.762 + 0.31 = 2.794
 6: 2.820 + 0.15 = 2.836
 7: 2.716 + 0.31 = 2.748
 ----------------------------------------

Note: The following floating-point exceptions are signalling:


Note: The following floating-point exceptions are signalling: IEEE_DENORMALNote: The following floating-point exceptions are signalling: IEEE_DENORMAL IEEE_DENORMAL


 ddikick.x: exited gracefully.
unset echo
----- accounting info -----
Files used on the master node pietdev were:
-rwxr-xr-x 1 piet piet     1258 mei 22 15:20 /home/piet/scr/c-d-ribose_fukui_base.F05*
-rw-r--r-- 1 piet piet 68812800 mei 22 15:20 /home/piet/scr/c-d-ribose_fukui_base.F10
ls: No match.
ls: No match.
ls: No match.
vr 22 mei 2020 15:20:55 CEST
0.131u 0.028s 0:09.02 1.6%	0+0k 0+8io 0pf+0w
