----- GAMESS execution script 'rungms' -----
This job is running on host pietdev
under operating system Linux at vr 22 mei 2020 15:20:01 CEST
Available scratch disk space (Kbyte units) at beginning of the job is
Filesystem     1K-blocks     Used Available Use% Mounted on
/dev/sda2      244568380 31372628 200702696  14% /
GAMESS temporary binary files will be written to /home/piet/scr
GAMESS supplementary output files will be written to /home/piet/gamess/scr
Copying input file c-d-ribose_charge_geodisk.inp to your run's scratch directory...
cp c-d-ribose_charge_geodisk.inp /home/piet/scr/c-d-ribose_charge_geodisk.F05
unset echo
 
Assuming a single but multicore node.
 
/home/piet/gamess/ddikick.x /home/piet/gamess/gamess.03.x c-d-ribose_charge_geodisk -ddi 1 8 pietdev:cpus=8 -scr /home/piet/scr

 Distributed Data Interface kickoff program.
 Initiating 8 compute processes on 1 nodes to run the following command:
 /home/piet/gamess/gamess.03.x c-d-ribose_charge_geodisk 

          ******************************************************
          *         GAMESS VERSION = 30 SEP 2019 (R2)          *
          *             FROM IOWA STATE UNIVERSITY             *
          * M.W.SCHMIDT, K.K.BALDRIDGE, J.A.BOATZ, S.T.ELBERT, *
          *   M.S.GORDON, J.H.JENSEN, S.KOSEKI, N.MATSUNAGA,   *
          *          K.A.NGUYEN, S.J.SU, T.L.WINDUS,           *
          *       TOGETHER WITH M.DUPUIS, J.A.MONTGOMERY       *
          *         J.COMPUT.CHEM.  14, 1347-1363(1993)        *
          **************** 64 BIT LINUX VERSION ****************

  SINCE 1993, STUDENTS AND POSTDOCS WORKING AT IOWA STATE UNIVERSITY
  AND ALSO IN THEIR VARIOUS JOBS AFTER LEAVING ISU HAVE MADE IMPORTANT
  CONTRIBUTIONS TO THE CODE:
     IVANA ADAMOVIC, CHRISTINE AIKENS, YURI ALEXEEV, POOJA ARORA,
     ANDREY ASADCHEV, ROB BELL, PRADIPTA BANDYOPADHYAY, JONATHAN BENTZ,
     COLLEEN BERTONI, BRETT BODE, KURT BRORSEN, CALEB CARLIN, GALINA CHABAN,
     WEI CHEN, CHEOL HO CHOI, PAUL DAY, ALBERT DEFUSCO, NUWAN DESILVA,
     TIM DUDLEY, DMITRI FEDOROV, ALEX FINDLATER, GRAHAM FLETCHER, 
     MARK FREITAG, KURT GLAESEMANN, EMILIE B GUIDEZ, ANASTASIA GUNINA, 
     DAN KEMP, SAROM SOK LEANG, GRANT MERRILL,
     NORIYUKI MINEZAWA, JONATHAN MULLIN,
     TAKESHI NAGATA, SEAN NEDD, HEATHER NETZLOFF, BOSILJKA NJEGIC, RYAN OLSON,
     MIKE PAK, BUU PHAM, DAVID POOLE,
     SPENCER PRUITT, LUKE ROSKOP, TOSAPORN SATTASATHUCHANA,
     JIM SHOEMAKER, LYUDMILA SLIPCHENKO,
     TONY SMITH, JIE SONG, TETSUYA TAKETSUGU, SIMON WEBB,
     JORGE LUIS GALVEZ VALLEJO, PENG XU, SOOHAENG YOO,
     FEDERICO ZAHARIEV

  ADDITIONAL CODE HAS BEEN PROVIDED BY COLLABORATORS IN OTHER GROUPS:
     IOWA STATE UNIVERSITY:
          JOE IVANIC, AARON WEST, LAIMUTIS BYTAUTAS, KLAUS RUEDENBERG
     UNIVERSITY OF TOKYO: KIMIHIKO HIRAO, TAKAHITO NAKAJIMA,
          TAKAO TSUNEDA, MUNEAKI KAMIYA, SUSUMU YANAGISAWA,
          KIYOSHI YAGI, MAHITO CHIBA, SEIKEN TOKURA, NAOAKI KAWAKAMI
     UNIVERSITY OF AARHUS: FRANK JENSEN
     UNIVERSITY OF IOWA: VISVALDAS KAIRYS, HUI LI
     NATIONAL INST. OF STANDARDS AND TECHNOLOGY: WALT STEVENS, DAVID GARMER
     UNIVERSITY OF PISA: BENEDETTA MENNUCCI, JACOPO TOMASI
     UNIVERSITY OF MEMPHIS: HENRY KURTZ, PRAKASHAN KORAMBATH
     UNIVERSITY OF ALBERTA: TOBY ZENG, MARIUSZ KLOBUKOWSKI
     UNIVERSITY OF NEW ENGLAND: MARK SPACKMAN
     MIE UNIVERSITY: HIROAKI UMEDA
     NAT. INST. OF ADVANCED INDUSTRIAL SCIENCE AND TECHNOLOGY: KAZUO KITAURA
     MICHIGAN STATE UNIVERSITY:
          KAROL KOWALSKI, MARTA WLOCH, JEFFREY GOUR, JESSE LUTZ,
          WEI LI, JUN SHEN, J. EMILIANO DEUSTUA, PIOTR PIECUCH
     UNIVERSITY OF MINNESOTA:
          ANDREW SAND, PRACHI SHARMA, YINAN SHU
     UNIVERSITY OF SILESIA: MONIKA MUSIAL, STANISLAW KUCHARSKI
     FACULTES UNIVERSITAIRES NOTRE-DAME DE LA PAIX:
          OLIVIER QUINET, BENOIT CHAMPAGNE
     UNIVERSITY OF CALIFORNIA - SANTA BARBARA: BERNARD KIRTMAN
     INSTITUTE FOR MOLECULAR SCIENCE:
          KAZUYA ISHIMURA, MICHIO KATOUDA, AND SHIGERU NAGASE
     UNIVERSITY OF NOTRE DAME: ANNA POMOGAEVA, DAN CHIPMAN
     KYUSHU UNIVERSITY:
          HARUYUKI NAKANO,
          FENG LONG GU, JACEK KORCHOWIEC, MARCIN MAKOWSKI, AND YURIKO AOKI,
          HIROTOSHI MORI AND EISAKU MIYOSHI
     PENNSYLVANIA STATE UNIVERSITY:
          TZVETELIN IORDANOV, CHET SWALINA, JONATHAN SKONE,
          SHARON HAMMES-SCHIFFER
     WASEDA UNIVERSITY:
          MASATO KOBAYASHI, TOMOKO AKAMA, TSUGUKI TOUMA,
          TAKESHI YOSHIKAWA, YASUHIRO IKABATA, JUNJI SEINO,
          YUYA NAKAJIMA, HIROMI NAKAI
     NANJING UNIVERSITY: SHUHUA LI
     UNIVERSITY OF NEBRASKA:
          PEIFENG SU, DEJUN SI, NANDUN THELLAMUREGE, YALI WANG, HUI LI
     UNIVERSITY OF ZURICH: ROBERTO PEVERATI, KIM BALDRIDGE
     N. COPERNICUS UNIVERSITY AND JACKSON STATE UNIVERSITY:
          MARIA BARYSZ
     UNIVERSITY OF COPENHAGEN: Jimmy Kromann, CASPER STEINMANN
     TOKYO INSTITUTE OF TECHNOLOGY: HIROYA NAKATA
     NAGOYA UNIVERSITY: YOSHIO NISHIMOTO, STEPHAN IRLE
     MOSCOW STATE UNIVERSITY: VLADIMIR MIRONOV
     A.N.NESMEYANOV INSTITUTE OF ORGANOELEMENT COMPOUNDS OF RUSSIAN ACADEMY OF SCIENCES:
          IGOR S. GERASIMOV
     JOHANNES KEPLER UNIVERSITY LINZ:
          CHRISTIAN FRIEDL


 PARALLEL VERSION RUNNING ON        8 PROCESSORS IN        1 NODES.

 EXECUTION OF GAMESS BEGUN Fri May 22 15:20:01 2020

            ECHO OF THE FIRST FEW INPUT CARDS -
 INPUT CARD> $BASIS GBASIS=N21 NGAUSS=3 $END                                                
 INPUT CARD> $CONTRL SCFTYP=RHF DFTTYP=B3LYP MAXIT=60 MULT=1 ICHARG=0 $END                  
 INPUT CARD> $SYSTEM MEMDDI=1000 MWORDS=30 $END                                             
 INPUT CARD> $SCF DIRSCF=.TRUE. $END                                                        
 INPUT CARD> $ELPOT  IEPOT=1 WHERE=PDC $END                                                 
 INPUT CARD> $PDC PTSEL=GEODESIC CONSTR=CHARGE $END                                         
 INPUT CARD> $DATA                                                                          
 INPUT CARD>                                                                                
 INPUT CARD>C1                                                                              
 INPUT CARD>C 6.0000000 -1.3758540306 -1.5136733927 1.0968838320                            
 INPUT CARD>H 1.0000000 -1.4516282116 -0.4345674551 1.1675352091                            
 INPUT CARD>C 6.0000000 -1.0084662532 2.1207062267 -1.3359090540                            
 INPUT CARD>C 6.0000000 -0.3446877962 3.0138398375 -2.0672542286                            
 INPUT CARD>O 8.0000000 -0.4067740059 1.0717878112 -0.6346211998                            
 INPUT CARD>H 1.0000000 -2.0859361715 2.1441739156 -1.2460861245                            
 INPUT CARD>C 6.0000000 2.7436764012 -0.1713823607 -0.8049586233                            
 INPUT CARD>O 8.0000000 1.0421746663 2.8750806769 -2.2701169952                             
 INPUT CARD>H 1.0000000 -0.8749019815 3.8152335736 -2.5726434026                            
 INPUT CARD>O 8.0000000 2.1235978359 0.8556630088 -0.4486044604                             
 INPUT CARD>H 1.0000000 3.8366979421 -0.1830045816 -0.8002662959                            
 INPUT CARD>O 8.0000000 2.2447848771 -1.3229381621 -1.2120066989                            
 INPUT CARD>H 1.0000000 0.6442648390 1.1398856958 -0.5738664122                             
 INPUT CARD>H 1.0000000 1.5033825819 3.7237021242 -2.0321128457                             
 INPUT CARD>C 6.0000000 -0.7915275882 -2.0868394783 0.0486783827                            
 INPUT CARD>H 1.0000000 -1.7788860348 -2.1161731144 1.9002107655                            
 INPUT CARD>O 8.0000000 -0.2636766066 -1.3831664166 -1.0489517339                           
 INPUT CARD>H 1.0000000 -0.6713104601 -3.1578699222 -0.0621800070                           
 INPUT CARD>H 1.0000000 1.1660660478 -1.4036454589 -1.1943239577                            
 INPUT CARD>H 1.0000000 -0.5026359509 -0.3544224277 -0.9735660495                           
 INPUT CARD> $END                                                                           
   30000000 WORDS OF MEMORY AVAILABLE

     BASIS OPTIONS
     -------------
     GBASIS=N21          IGAUSS=       3      POLAR=NONE    
     NDFUNC=       0     NFFUNC=       0     DIFFSP=       F
     NPFUNC=       0      DIFFS=       F     BASNAM=        


     RUN TITLE
     ---------
                                                                                 

 THE POINT GROUP OF THE MOLECULE IS C1      
 THE ORDER OF THE PRINCIPAL AXIS IS     0

 ATOM      ATOMIC                      COORDINATES (BOHR)
           CHARGE         X                   Y                   Z
 C           6.0    -2.5999871169       -2.8604279471        2.0728098828
 H           1.0    -2.7431795560       -0.8212134133        2.2063216262
 C           6.0    -1.9057248864        4.0075536689       -2.5245020566
 C           6.0    -0.6513654861        5.6953314638       -3.9065440390
 O           8.0    -0.7686914101        2.0253852801       -1.1992601736
 H           1.0    -3.9418477920        4.0519011705       -2.3547613324
 C           6.0     5.1847965972       -0.3238657009       -1.5211512295
 O           8.0     1.9694245507        5.4331146719       -4.2898990810
 H           1.0    -1.6533250111        7.2097460333       -4.8615910950
 O           8.0     4.0130180180        1.6169686245       -0.8477395070
 H           1.0     7.2503078082       -0.3458285137       -1.5122840165
 O           8.0     4.2420283191       -2.4999906251       -2.2903605562
 H           1.0     1.2174840092        2.1540716224       -1.0844502726
 H           1.0     2.8409811345        7.0367766746       -3.8401364545
 C           6.0    -1.4957702534       -3.9435547943        0.0919888048
 H           1.0    -3.3616071692       -3.9989873288        3.5908776657
 O           8.0    -0.4982765358       -2.6138055228       -1.9822313514
 H           1.0    -1.2685928223       -5.9675088578       -0.1175031751
 H           1.0     2.2035453139       -2.6525053012       -2.2569450206
 H           1.0    -0.9498442188       -0.6697612723       -1.8397730645

          INTERNUCLEAR DISTANCES (ANGS.)
          ------------------------------

                1 C          2 H          3 C          4 C          5 O     

   1 C       0.0000000    1.0840678 *  4.3888689    5.6190257    3.2591157  
   2 H       1.0840678 *  0.0000000    3.6045873    4.8559955    2.5707186 *
   3 C       4.3888689    3.6045873    0.0000000    1.3315988 *  1.3978798 *
   4 C       5.6190257    4.8559955    1.3315988 *  0.0000000    2.4140957 *
   5 O       3.2591157    2.5707186 *  1.3978798 *  2.4140957 *  0.0000000  
   6 H       4.4015420    3.5885682    1.0814621 *  2.1124824 *  2.0841034 *
   7 C       4.7317313    4.6433371    4.4287868    4.6127025    3.3911391  
   8 O       6.0369462    5.3842619    2.3763319 *  1.4084725 *  2.8330485 *
   9 H       6.4895017    5.6905499    2.1020881 *  1.0857151 *  3.3913962  
  10 O       4.4998280    4.1302353    3.4924875    3.6565268    2.5463884 *
  11 H       5.7044330    5.6481785    5.3916243    5.4137842    4.4282046  
  12 O       4.2984162    4.4849629    4.7389536    5.1229348    3.6192335  
  13 H       3.7301022    3.1470860    2.0674230 *  2.5922844 *  1.0549934 *
  14 H       6.7461638    6.0217142    3.0600131    1.9800261 *  3.5544804  
  15 C       1.3299216 *  2.1018031 *  4.4348152    5.5401955    3.2545138  
  16 H       1.0820235 *  1.8632522 *  5.3867583    6.6418925    4.2978087  
  17 O       2.4204506 *  2.6877283 *  3.5936304    4.5141075    2.4937816 *
  18 H       2.1314767 *  3.0882797    5.4405354    6.4974615    4.2764089  
  19 H       3.4239008    3.6564756    4.1436327    4.7495853    2.9857768 *
  20 H       2.5284650 *  2.3433574 *  2.5521400 *  3.5448966    1.4690639 *

                6 H          7 C          8 O          9 H         10 O     

   1 C       4.4015420    4.7317313    6.0369462    6.4895017    4.4998280  
   2 H       3.5885682    4.6433371    5.3842619    5.6905499    4.1302353  
   3 C       1.0814621 *  4.4287868    2.3763319 *  2.1020881 *  3.4924875  
   4 C       2.1124824 *  4.6127025    1.4084725 *  1.0857151 *  3.6565268  
   5 O       2.0841034 *  3.3911391    2.8330485 *  3.3913962    2.5463884 *
   6 H       0.0000000    5.3741559    3.3716378    2.4533239 *  4.4739707  
   7 C       5.3741559    0.0000000    3.7845388    5.6667385    1.2515222 *
   8 O       3.3716378    3.7845388    0.0000000    2.1565233 *  2.9266759 *
   9 H       2.4533239 *  5.6667385    2.1565233 *  0.0000000    4.7182201  
  10 O       4.4739707    1.2515222 *  2.9266759 *  4.7182201    0.0000000  
  11 H       6.3790368    1.0930934 *  4.3956464    6.4285615    2.0340129 *
  12 O       5.5477178    1.3193414 *  4.4932428    6.1631637    2.3116601 *
  13 H       2.9857113 *  2.4860323 *  2.4589632 *  3.6688504    1.5115883 *
  14 H       3.9994945    4.2680112    0.9947447 *  2.4406533 *  3.3343386  
  15 C       4.6101392    4.1103941    5.7758054    6.4585405    4.1717583  
  16 H       5.3050938    5.6172701    7.0896143    7.4836620    5.4385773  
  17 O       3.9751254    3.2514805    4.6183504    5.4514764    3.3274395  
  18 H       5.6137749    4.5970603    6.6488728    7.4140440    4.9060455  
  19 H       4.8130261    2.0393460 *  4.4136354    5.7707897    2.5646519 *
  20 H       2.9705371 *  3.2558372    3.8075155    4.4812567    2.9388765 *

               11 H         12 O         13 H         14 H         15 C     

   1 C       5.7044330    4.2984162    3.7301022    6.7461638    1.3299216 *
   2 H       5.6481785    4.4849629    3.1470860    6.0217142    2.1018031 *
   3 C       5.3916243    4.7389536    2.0674230 *  3.0600131    4.4348152  
   4 C       5.4137842    5.1229348    2.5922844 *  1.9800261 *  5.5401955  
   5 O       4.4282046    3.6192335    1.0549934 *  3.5544804    3.2545138  
   6 H       6.3790368    5.5477178    2.9857113 *  3.9994945    4.6101392  
   7 C       1.0930934 *  1.3193414 *  2.4860323 *  4.2680112    4.1103941  
   8 O       4.3956464    4.4932428    2.4589632 *  0.9947447 *  5.7758054  
   9 H       6.4285615    6.1631637    3.6688504    2.4406533 *  6.4585405  
  10 O       2.0340129 *  2.3116601 *  1.5115883 *  3.3343386    4.1717583  
  11 H       0.0000000    2.0007913 *  3.4630802    4.7142511    5.0759990  
  12 O       2.0007913 *  0.0000000    3.0057260    5.1663168    3.3752134  
  13 H       3.4630802    3.0057260    0.0000000    3.0887980    3.5861982  
  14 H       4.7142511    5.1663168    3.0887980    0.0000000    6.5847322  
  15 C       5.0759990    3.3752134    3.5861982    6.5847322    0.0000000  
  16 H       6.5241475    5.1483052    4.7533816    7.7679212    2.0985493 *
  17 O       4.2796383    2.5144768 *  2.7232069 *  5.4926506    1.4066180 *
  18 H       5.4513058    3.6321740    4.5236340    7.4810400    1.0834426 *
  19 H       2.9626880 *  1.0818783 *  2.6696057 *  5.2062814    2.4174329 *
  20 H       4.3461748    2.9228749 *  1.9256422 *  4.6664474    2.0321690 *

               16 H         17 O         18 H         19 H         20 H     

   1 C       1.0820235 *  2.4204506 *  2.1314767 *  3.4239008    2.5284650 *
   2 H       1.8632522 *  2.6877283 *  3.0882797    3.6564756    2.3433574 *
   3 C       5.3867583    3.5936304    5.4405354    4.1436327    2.5521400 *
   4 C       6.6418925    4.5141075    6.4974615    4.7495853    3.5448966  
   5 O       4.2978087    2.4937816 *  4.2764089    2.9857768 *  1.4690639 *
   6 H       5.3050938    3.9751254    5.6137749    4.8130261    2.9705371 *
   7 C       5.6172701    3.2514805    4.5970603    2.0393460 *  3.2558372  
   8 O       7.0896143    4.6183504    6.6488728    4.4136354    3.8075155  
   9 H       7.4836620    5.4514764    7.4140440    5.7707897    4.4812567  
  10 O       5.4385773    3.3274395    4.9060455    2.5646519 *  2.9388765 *
  11 H       6.5241475    4.2796383    5.4513058    2.9626880 *  4.3461748  
  12 O       5.1483052    2.5144768 *  3.6321740    1.0818783 *  2.9228749 *
  13 H       4.7533816    2.7232069 *  4.5236340    2.6696057 *  1.9256422 *
  14 H       7.7679212    5.4926506    7.4810400    5.2062814    4.6664474  
  15 C       2.0985493 *  1.4066180 *  1.0834426 *  2.4174329 *  2.0321690 *
  16 H       0.0000000    3.3956911    2.4825055 *  4.3308872    3.6043270  
  17 O       3.3956911    0.0000000    2.0711003 *  1.4372601 *  1.0588195 *
  18 H       2.4825055 *  2.0711003 *  0.0000000    2.7811878 *  2.9526926 *
  19 H       4.3308872    1.4372601 *  2.7811878 *  0.0000000    1.9834741 *
  20 H       3.6043270    1.0588195 *  2.9526926 *  1.9834741 *  0.0000000  

  * ... LESS THAN  3.000


     ATOMIC BASIS SET
     ----------------
 THE CONTRACTED PRIMITIVE FUNCTIONS HAVE BEEN UNNORMALIZED
 THE CONTRACTED BASIS FUNCTIONS ARE NOW NORMALIZED TO UNITY

  SHELL TYPE  PRIMITIVE        EXPONENT          CONTRACTION COEFFICIENT(S)

 C         

      1   S       1           172.2560000    0.061766907377
      1   S       2            25.9109000    0.358794042852
      1   S       3             5.5333500    0.700713083689

      2   L       4             3.6649800   -0.395895162119    0.236459946619
      2   L       5             0.7705450    1.215834355681    0.860618805716

      3   L       6             0.1958570    1.000000000000    1.000000000000

 H         

      4   S       7             5.4471780    0.156284978695
      4   S       8             0.8245472    0.904690876670

      5   S       9             0.1831916    1.000000000000

 C         

      6   S      10           172.2560000    0.061766907377
      6   S      11            25.9109000    0.358794042852
      6   S      12             5.5333500    0.700713083689

      7   L      13             3.6649800   -0.395895162119    0.236459946619
      7   L      14             0.7705450    1.215834355681    0.860618805716

      8   L      15             0.1958570    1.000000000000    1.000000000000

 C         

      9   S      16           172.2560000    0.061766907377
      9   S      17            25.9109000    0.358794042852
      9   S      18             5.5333500    0.700713083689

     10   L      19             3.6649800   -0.395895162119    0.236459946619
     10   L      20             0.7705450    1.215834355681    0.860618805716

     11   L      21             0.1958570    1.000000000000    1.000000000000

 O         

     12   S      22           322.0370000    0.059239393389
     12   S      23            48.4308000    0.351499960776
     12   S      24            10.4206000    0.707657921031

     13   L      25             7.4029400   -0.404453583190    0.244586106967
     13   L      26             1.5762000    1.221561761397    0.853955373466

     14   L      27             0.3736840    1.000000000000    1.000000000000

 H         

     15   S      28             5.4471780    0.156284978695
     15   S      29             0.8245472    0.904690876670

     16   S      30             0.1831916    1.000000000000

 C         

     17   S      31           172.2560000    0.061766907377
     17   S      32            25.9109000    0.358794042852
     17   S      33             5.5333500    0.700713083689

     18   L      34             3.6649800   -0.395895162119    0.236459946619
     18   L      35             0.7705450    1.215834355681    0.860618805716

     19   L      36             0.1958570    1.000000000000    1.000000000000

 O         

     20   S      37           322.0370000    0.059239393389
     20   S      38            48.4308000    0.351499960776
     20   S      39            10.4206000    0.707657921031

     21   L      40             7.4029400   -0.404453583190    0.244586106967
     21   L      41             1.5762000    1.221561761397    0.853955373466

     22   L      42             0.3736840    1.000000000000    1.000000000000

 H         

     23   S      43             5.4471780    0.156284978695
     23   S      44             0.8245472    0.904690876670

     24   S      45             0.1831916    1.000000000000

 O         

     25   S      46           322.0370000    0.059239393389
     25   S      47            48.4308000    0.351499960776
     25   S      48            10.4206000    0.707657921031

     26   L      49             7.4029400   -0.404453583190    0.244586106967
     26   L      50             1.5762000    1.221561761397    0.853955373466

     27   L      51             0.3736840    1.000000000000    1.000000000000

 H         

     28   S      52             5.4471780    0.156284978695
     28   S      53             0.8245472    0.904690876670

     29   S      54             0.1831916    1.000000000000

 O         

     30   S      55           322.0370000    0.059239393389
     30   S      56            48.4308000    0.351499960776
     30   S      57            10.4206000    0.707657921031

     31   L      58             7.4029400   -0.404453583190    0.244586106967
     31   L      59             1.5762000    1.221561761397    0.853955373466

     32   L      60             0.3736840    1.000000000000    1.000000000000

 H         

     33   S      61             5.4471780    0.156284978695
     33   S      62             0.8245472    0.904690876670

     34   S      63             0.1831916    1.000000000000

 H         

     35   S      64             5.4471780    0.156284978695
     35   S      65             0.8245472    0.904690876670

     36   S      66             0.1831916    1.000000000000

 C         

     37   S      67           172.2560000    0.061766907377
     37   S      68            25.9109000    0.358794042852
     37   S      69             5.5333500    0.700713083689

     38   L      70             3.6649800   -0.395895162119    0.236459946619
     38   L      71             0.7705450    1.215834355681    0.860618805716

     39   L      72             0.1958570    1.000000000000    1.000000000000

 H         

     40   S      73             5.4471780    0.156284978695
     40   S      74             0.8245472    0.904690876670

     41   S      75             0.1831916    1.000000000000

 O         

     42   S      76           322.0370000    0.059239393389
     42   S      77            48.4308000    0.351499960776
     42   S      78            10.4206000    0.707657921031

     43   L      79             7.4029400   -0.404453583190    0.244586106967
     43   L      80             1.5762000    1.221561761397    0.853955373466

     44   L      81             0.3736840    1.000000000000    1.000000000000

 H         

     45   S      82             5.4471780    0.156284978695
     45   S      83             0.8245472    0.904690876670

     46   S      84             0.1831916    1.000000000000

 H         

     47   S      85             5.4471780    0.156284978695
     47   S      86             0.8245472    0.904690876670

     48   S      87             0.1831916    1.000000000000

 H         

     49   S      88             5.4471780    0.156284978695
     49   S      89             0.8245472    0.904690876670

     50   S      90             0.1831916    1.000000000000

 TOTAL NUMBER OF BASIS SET SHELLS             =   50
 NUMBER OF CARTESIAN GAUSSIAN BASIS FUNCTIONS =  110
 NUMBER OF ELECTRONS                          =   80
 CHARGE OF MOLECULE                           =    0
 SPIN MULTIPLICITY                            =    1
 NUMBER OF OCCUPIED ORBITALS (ALPHA)          =   40
 NUMBER OF OCCUPIED ORBITALS (BETA )          =   40
 TOTAL NUMBER OF ATOMS                        =   20
 THE NUCLEAR REPULSION ENERGY IS      548.9384995594

 SELECTED MURRAY-HANDY-LAMING RADIAL GRID

 LEGACY BECKE'S FUZZY CELL METHOD

 SELECTED ORIGINAL BECKE'S PARTITION FUNCTION

     LEBEDEV GRID-BASED DFT OPTIONS
     ------------------------------
     DFTTYP=B3LYP   
     NRAD  =      96     NLEB  =     302
     NRAD0 =      24     NLEB0 =     110
     SWOFF =    5.00E-03 (PURE SCF -> DFT)
     SWITCH=    3.00E-04 (COARSE -> TIGHT GRID)
     THRESH=    0.00E+00 GTHRE=    1.00E+00

 GRIMME'S EMPIRICAL DISPERSION CORRECTION= F

     $CONTRL OPTIONS
     ---------------
 SCFTYP=RHF          RUNTYP=ENERGY       EXETYP=RUN     
 MPLEVL=       0     CITYP =NONE         CCTYP =NONE         VBTYP =NONE    
 DFTTYP=B3LYP        TDDFT =NONE    
 MULT  =       1     ICHARG=       0     NZVAR =       0     COORD =UNIQUE  
 PP    =NONE         RELWFN=NONE         LOCAL =NONE         NUMGRD=       F
 ISPHER=      -1     NOSYM =       0     MAXIT =      60     UNITS =ANGS    
 PLTORB=       F     MOLPLT=       F     AIMPAC=       F     FRIEND=        
 NPRINT=       7     IREST =       0     GEOM  =INPUT   
 NORMF =       0     NORMP =       0     ITOL  =      20     ICUT  =       9
 INTTYP=BEST         GRDTYP=BEST         QMTTOL= 1.0E-06

     $SYSTEM OPTIONS
     ---------------
  REPLICATED MEMORY=    30000000 WORDS (ON EVERY NODE).
 DISTRIBUTED MEMDDI=        1000 MILLION WORDS IN AGGREGATE,
 MEMDDI DISTRIBUTED OVER   8 PROCESSORS IS   125000000 WORDS/PROCESSOR.
 TOTAL MEMORY REQUESTED ON EACH PROCESSOR=   155000000 WORDS.
 TIMLIM=      525600.00 MINUTES, OR     365.0 DAYS.
 PARALL= T  BALTYP=  DLB     KDIAG=    0  COREFL= F
 MXSEQ2=     300 MXSEQ3=     150  mem10=         0

     INPUT FOR POTENTIAL-DERIVED CHARGES 
     -----------------------------------
     VDWSCL=    1.40   RMAX=    3.00   DELR=    0.80
     VDWINC=    0.20 PTDENS=    0.28
     LAYER =       4  NFREQ=      30 MAXPDC=   10000
     CONSTR=CHARGE    UNITS=ANGS      PTSEL=GEODESIC
     CENTER=  0.0000  0.0000  0.0000
     DPOLE =  0.0000  0.0000  0.0000
     QPOLE =  0.0000  0.0000  0.0000  0.0000  0.0000  0.0000


          ----------------
          PROPERTIES INPUT
          ----------------

     MOMENTS            FIELD           POTENTIAL          DENSITY
 IEMOM =       1   IEFLD =       0   IEPOT =       1   IEDEN =       0
 WHERE =COMASS     WHERE =NUCLEI     WHERE =PDC        WHERE =NUCLEI  
 OUTPUT=BOTH       OUTPUT=BOTH       OUTPUT=BOTH       OUTPUT=BOTH    
 IEMINT=       0   IEFINT=       0                     IEDINT=       0
                                                       MORB  =       0
          EXTRAPOLATION IN EFFECT
          DIIS IN EFFECT
 ORBITAL PRINTING OPTION: NPREO=     1   110     2     1

     -------------------------------
     INTEGRAL TRANSFORMATION OPTIONS
     -------------------------------
     NWORD  =            0
     CUTOFF = 1.0E-09     MPTRAN =       0
     DIRTRF =       T     AOINTS =DUP     

          ----------------------
          INTEGRAL INPUT OPTIONS
          ----------------------
 NOPK  =       1 NORDER=       0 SCHWRZ=       T

     ------------------------------------------
     THE POINT GROUP IS C1 , NAXIS= 0, ORDER= 1
     ------------------------------------------

     DIMENSIONS OF THE SYMMETRY SUBSPACES ARE
 A   =  110

 ..... DONE SETTING UP THE RUN .....
 CPU     0: STEP CPU TIME=     0.03 TOTAL CPU TIME=          0.0 (      0.0 MIN)
 TOTAL WALL CLOCK TIME=          0.0 SECONDS, CPU UTILIZATION IS   100.00%

          ********************
          1 ELECTRON INTEGRALS
          ********************
 ...... END OF ONE-ELECTRON INTEGRALS ......
 CPU     0: STEP CPU TIME=     0.00 TOTAL CPU TIME=          0.0 (      0.0 MIN)
 TOTAL WALL CLOCK TIME=          0.0 SECONDS, CPU UTILIZATION IS    60.00%

          -------------
          GUESS OPTIONS
          -------------
          GUESS =HUCKEL            NORB  =       0          NORDER=       0
          MIX   =       F          PRTMO =       F          PUNMO =       F
          TOLZ  = 1.0E-08          TOLE  = 1.0E-05
          SYMDEN=       F          PURIFY=       F

 INITIAL GUESS ORBITALS GENERATED BY HUCKEL   ROUTINE.
 HUCKEL GUESS REQUIRES    117020 WORDS.

 SYMMETRIES FOR INITIAL GUESS ORBITALS FOLLOW.   BOTH SET(S).
    40 ORBITALS ARE OCCUPIED (   10 CORE ORBITALS).
    11=A       12=A       13=A       14=A       15=A       16=A       17=A   
    18=A       19=A       20=A       21=A       22=A       23=A       24=A   
    25=A       26=A       27=A       28=A       29=A       30=A       31=A   
    32=A       33=A       34=A       35=A       36=A       37=A       38=A   
    39=A       40=A       41=A       42=A       43=A       44=A       45=A   
    46=A       47=A       48=A       49=A       50=A   
 ...... END OF INITIAL ORBITAL SELECTION ......
 CPU     0: STEP CPU TIME=     0.03 TOTAL CPU TIME=          0.1 (      0.0 MIN)
 TOTAL WALL CLOCK TIME=          0.1 SECONDS, CPU UTILIZATION IS    75.00%

                    ----------------------
                    AO INTEGRAL TECHNOLOGY
                    ----------------------
     S,P,L SHELL ROTATED AXIS INTEGRALS, REPROGRAMMED BY
        KAZUYA ISHIMURA (IMS) AND JOSE SIERRA (SYNSTAR).
     S,P,D,L SHELL ROTATED AXIS INTEGRALS PROGRAMMED BY
        KAZUYA ISHIMURA (INSTITUTE FOR MOLECULAR SCIENCE).
     S,P,D,F,G SHELL TO TOTAL QUARTET ANGULAR MOMENTUM SUM 5,
        ERIC PROGRAM BY GRAHAM FLETCHER (ELORET AND NASA ADVANCED
        SUPERCOMPUTING DIVISION, AMES RESEARCH CENTER).
     S,P,D,F,G,L SHELL GENERAL RYS QUADRATURE PROGRAMMED BY
        MICHEL DUPUIS (PACIFIC NORTHWEST NATIONAL LABORATORY).

          --------------------
          2 ELECTRON INTEGRALS
          --------------------

 DIRECT SCF METHOD SKIPS INTEGRAL STORAGE ON DISK.
 DIRECT TRANSFORMATION SKIPS AO INTEGRAL STORAGE ON DISK.
  ...... END OF TWO-ELECTRON INTEGRALS .....
 CPU     0: STEP CPU TIME=     0.01 TOTAL CPU TIME=          0.1 (      0.0 MIN)
 TOTAL WALL CLOCK TIME=          0.1 SECONDS, CPU UTILIZATION IS    77.78%

          --------------------------
             R-B3LYP SCF CALCULATION
          --------------------------

     NUCLEAR ENERGY =       548.9384995594
     MAXIT =   60     NPUNCH=    2
     EXTRAP=T  DAMP=F  SHIFT=F  RSTRCT=F  DIIS=T  DEM=F  SOSCF=F
         DENSITY MATRIX CONVERGENCE THRESHOLD=  2.00E-05
     COARSE -> FINE DFT GRID SWITCH THRESHOLD=  3.00E-04 (SWITCH IN $DFT)
                   HF -> DFT SWITCH THRESHOLD=  5.00E-03 (SWOFF IN $DFT)
     MEMORY REQUIRED FOR RHF ITERS=    792048 WORDS.

 DIRECT SCF CALCULATION, SCHWRZ=T   FDIFF=T,  DIRTHR=  0.00E+00 NITDIR=10
 SCHWARZ INEQUALITY OVERHEAD:      5538 INTEGRALS, T=        0.00

 DFT CODE IS SWITCHING FROM THE FINE GRID NRAD= 96,  NLEB=  302
                      TO THE COARSE GRID NRAD0= 24, NLEB0=  110

     EXCHANGE FUNCTIONAL   =B88&HFX   
     CORRELATION FUNCTIONAL=LYP88&VWN5
     DFT THRESHOLD         =.690E-08
     GRID CHANGE THRESHOLD =.300E-03
 FOR AN EULER-MACLAURIN QUADRATURE USING  96 RADIAL POINTS:
 SMALLEST GAUSSIAN PRIMITIVE EXPONENT=        0.1831915800 OF TYPE -S-
 ON ATOM NUMBER   2 HAS RADIAL NORMALIZATION=  1.000000
  LARGEST GAUSSIAN PRIMITIVE EXPONENT=      322.0370000000 OF TYPE -S-
 ON ATOM NUMBER   5 HAS RADIAL NORMALIZATION=  1.000000
 DFT IS SWITCHED OFF, PERFORMING PURE SCF UNTIL SWOFF THRESHOLD IS REACHED.

                                                                                   NONZERO     BLOCKS
 ITER EX DEM     TOTAL ENERGY        E CHANGE  DENSITY CHANGE    DIIS ERROR      INTEGRALS    SKIPPED
   1  0  0     -564.7499089567  -564.7499089567   0.654160600   0.788585232        8861513     469631
          * * *   INITIATING DIIS PROCEDURE   * * *
   2  1  0     -566.1745132332    -1.4246042764   0.141829774   0.142535157        8834103     479737
   3  2  0     -566.2421058448    -0.0675926117   0.049622090   0.079790641        8700013     500154
   4  3  0     -566.2617286760    -0.0196228312   0.025477571   0.021178964        8461018     520494
   5  4  0     -566.2641639570    -0.0024352810   0.004970352   0.004989594        8308965     530076
 CONVERGED TO SWOFF, SO DFT CALCULATION IS NOW SWITCHED ON.
          * * *   INITIATING DIIS PROCEDURE   * * *
   6  5  0     -569.1222442611    -2.8580803040   0.104955410   0.073826338        8872068     466885
   7  6  0     -569.1712250376    -0.0489807765   0.061338907   0.055242497        8760681     493859
   8  7  0     -569.1724408079    -0.0012157703   0.032067035   0.067341636        8592306     510586
   9  8  0     -569.1840469330    -0.0116061252   0.011879981   0.019508127        8446279     522714
  10  9  0     -569.1846836254    -0.0006366924   0.003512380   0.010017156        8021882     544087
  11 10  0     -569.1848027467    -0.0001191212   0.000470591   0.000663286        7453831     570439
  12 11  0     -569.1848040226    -0.0000012759   0.000184290   0.000222974        6919353     589354
 DFT CODE IS SWITCHING BACK TO THE FINE GRID
          * * *   INITIATING DIIS PROCEDURE   * * *
  13 12  0     -569.1860420922    -0.0012380696   0.001549815   0.001450590        8877621     464804
  14 13  0     -569.1860672906    -0.0000251984   0.001870327   0.000886538        7562641     564128
  15 14  0     -569.1860690093    -0.0000017187   0.000646580   0.000791843        7251247     578524
  16 15  0     -569.1860724138    -0.0000034045   0.000115196   0.000094005        6828963     594906
  17 16  0     -569.1860724632    -0.0000000494   0.000051757   0.000106812        6141789     620409
  18 17  0     -569.1860724799    -0.0000000167   0.000017534   0.000050218        5740660     636082
  19 18  0     -569.1860724835    -0.0000000036   0.000003991   0.000009465        5154767     654244

          -----------------
          DENSITY CONVERGED
          -----------------
     TIME TO FORM FOCK OPERATORS=      13.0 SECONDS (       0.7 SEC/ITER)
     FOCK TIME ON FIRST ITERATION=       0.1, LAST ITERATION=       1.6
     TIME TO SOLVE SCF EQUATIONS=       0.3 SECONDS (       0.0 SEC/ITER)

 FINAL R-B3LYP ENERGY IS     -569.1860724835 AFTER  19 ITERATIONS
 DFT EXCHANGE + CORRELATION ENERGY =       -59.1497392449
 TOTAL ELECTRON NUMBER             =        80.0000048681

          ------------
          EIGENVECTORS
          ------------

                      1          2          3          4          5
                  -19.0624   -19.0615   -19.0600   -19.0511   -19.0411
                     A          A          A          A          A   
    1  C  1  S    0.000088   0.000141  -0.000047   0.000007  -0.000009
    2  C  1  S    0.000564   0.000680  -0.000232   0.000054  -0.000081
    3  C  1  X    0.000034  -0.000072  -0.000023   0.000011   0.000017
    4  C  1  Y    0.000404   0.000820  -0.000319   0.000023  -0.000027
    5  C  1  Z   -0.000147  -0.000069   0.000072  -0.000010   0.000058
    6  C  1  S   -0.002270  -0.003936   0.000894  -0.000142   0.000141
    7  C  1  X   -0.001114  -0.002535   0.001010  -0.000045  -0.000069
    8  C  1  Y   -0.002650  -0.008436   0.002950  -0.000080   0.000102
    9  C  1  Z    0.002446   0.006030  -0.001990   0.000041  -0.000158
   10  H  2  S    0.000367   0.001531  -0.000533  -0.000025   0.000033
   11  H  2  S    0.001331   0.003367  -0.001046   0.000136  -0.000165
   12  C  3  S   -0.000447   0.000153  -0.000045   0.000155   0.000043
   13  C  3  S   -0.000825   0.000479  -0.000243   0.000476   0.000331
   14  C  3  X    0.000160  -0.000063  -0.000058   0.000338   0.000368
   15  C  3  Y   -0.001353   0.000029   0.000095  -0.000411   0.000001
   16  C  3  Z    0.000778  -0.000318   0.000057   0.000239   0.000087
   17  C  3  S    0.013898  -0.004690   0.001205  -0.004398  -0.000705
   18  C  3  X    0.014008  -0.005074   0.001512  -0.012425  -0.001200
   19  C  3  Y   -0.008659   0.003835  -0.000893   0.005200   0.001027
   20  C  3  Z    0.004797  -0.001982   0.000315  -0.001902  -0.000774
   21  C  4  S    0.000196  -0.000068   0.000016  -0.000521   0.000026
   22  C  4  S    0.000814  -0.000269   0.000046  -0.001161   0.000220
   23  C  4  X    0.000690  -0.000309   0.000057   0.001314   0.000129
   24  C  4  Y   -0.000136   0.000117  -0.000011   0.000676  -0.000136
   25  C  4  Z    0.000126  -0.000057  -0.000012  -0.000542   0.000099
   26  C  4  S   -0.005171   0.001329  -0.000511   0.014900  -0.000430
   27  C  4  X   -0.009700   0.004047  -0.000915   0.018891   0.000130
   28  C  4  Y    0.007486  -0.002855   0.000758  -0.008328   0.000284
   29  C  4  Z   -0.004212   0.001426  -0.000332   0.002278  -0.000232
   30  O  5  S    0.953071  -0.237009   0.027799   0.015087  -0.010993
   31  O  5  S    0.103956  -0.024967   0.002782   0.000705  -0.000201
   32  O  5  X    0.000919  -0.000407   0.000114   0.000306   0.000592
   33  O  5  Y    0.001604  -0.001286   0.000291  -0.000225   0.000052
   34  O  5  Z   -0.001920   0.000315  -0.000060   0.000144   0.000164
   35  O  5  S   -0.054986   0.012249  -0.001082   0.004222  -0.002311
   36  O  5  X   -0.001964   0.000989  -0.000354  -0.001692  -0.003123
   37  O  5  Y   -0.005279   0.005435  -0.001520   0.002610  -0.000068
   38  O  5  Z    0.005896  -0.001102   0.000247  -0.001789  -0.000760
   39  H  6  S    0.000536  -0.000163   0.000062  -0.001512   0.000024
   40  H  6  S    0.004019  -0.001616   0.000570  -0.004080  -0.000584
   41  C  7  S    0.000010   0.000021  -0.000235   0.000002   0.000001
   42  C  7  S    0.000115   0.000476  -0.000025   0.000028   0.000420
   43  C  7  X   -0.000318  -0.000528  -0.001145  -0.000098  -0.000975
   44  C  7  Y   -0.000301  -0.000119  -0.001697  -0.000061   0.001753
   45  C  7  Z   -0.000160  -0.000001  -0.000588  -0.000038   0.000567
   46  C  7  S   -0.001364   0.001339   0.015069  -0.000239   0.017554
   47  C  7  X    0.001180  -0.000002  -0.007252   0.000366  -0.012184
   48  C  7  Y   -0.001605   0.000094  -0.010863  -0.000416   0.012646
   49  C  7  Z   -0.000563   0.000015  -0.003863  -0.000114   0.004361
   50  O  8  S   -0.014362   0.005909  -0.002591   0.982392  -0.006200
   51  O  8  S   -0.002447   0.000982  -0.000390   0.105411  -0.000438
   52  O  8  X    0.000228  -0.000094   0.000023  -0.002566   0.000010
   53  O  8  Y   -0.000200   0.000092  -0.000003   0.002468  -0.000146
   54  O  8  Z    0.000103  -0.000059  -0.000006   0.001287   0.000094
   55  O  8  S    0.006030  -0.002384   0.000676  -0.052618  -0.000091
   56  O  8  X   -0.002777   0.001100  -0.000267   0.009771  -0.000024
   57  O  8  Y    0.000375  -0.000182  -0.000020  -0.004504   0.000400
   58  O  8  Z    0.000301  -0.000056   0.000065  -0.003515  -0.000271
   59  H  9  S   -0.001365   0.000552  -0.000130   0.000733   0.000076
   60  H  9  S   -0.004171   0.001734  -0.000390   0.004949  -0.000279
   61  O 10  S    0.010696  -0.002174   0.006500   0.006431   0.982499
   62  O 10  S    0.002003  -0.000394   0.001298   0.000955   0.106170
   63  O 10  X   -0.000932   0.000231  -0.000647  -0.000215   0.000832
   64  O 10  Y    0.000320  -0.000240  -0.000452   0.000057  -0.003430
   65  O 10  Z   -0.000007  -0.000030  -0.000168   0.000027  -0.001321
   66  O 10  S   -0.001894   0.000514  -0.001699  -0.000893  -0.055739
   67  O 10  X    0.003886  -0.001217   0.002875   0.001035  -0.003388
   68  O 10  Y   -0.001613   0.001097   0.003001  -0.000399   0.011288
   69  O 10  Z   -0.000079   0.000167   0.001082  -0.000072   0.004315
   70  H 11  S    0.000080  -0.000059  -0.000583   0.000002  -0.000030
   71  H 11  S   -0.000521  -0.000364   0.001226  -0.000185   0.003042
   72  O 12  S    0.012196   0.163151   0.968866   0.001701  -0.006037
   73  O 12  S    0.001466   0.018658   0.104733   0.000126  -0.000052
   74  O 12  X    0.000026  -0.000829  -0.001053   0.000051  -0.000885
   75  O 12  Y    0.000041   0.000269   0.003219   0.000019   0.000409
   76  O 12  Z    0.000000   0.000136   0.001208   0.000003   0.000138
   77  O 12  S   -0.001053  -0.011584  -0.053517   0.000087  -0.000725
   78  O 12  X   -0.000201   0.003739   0.001582  -0.000277   0.004140
   79  O 12  Y   -0.000106  -0.000277  -0.009903  -0.000062  -0.002761
   80  O 12  Z   -0.000006  -0.000279  -0.003686  -0.000015  -0.000949
   81  H 13  S    0.002898  -0.000154   0.000727  -0.000777   0.000279
   82  H 13  S    0.008976  -0.004185  -0.000023   0.003468   0.007007
   83  H 14  S   -0.000267   0.000100  -0.000027   0.003144   0.000012
   84  H 14  S    0.000788  -0.000301   0.000072   0.004314  -0.000187
   85  C 15  S   -0.000083  -0.000418   0.000144   0.000006  -0.000018
   86  C 15  S    0.000069  -0.000644   0.000613   0.000040  -0.000132
   87  C 15  X    0.000134   0.000905   0.000252  -0.000022  -0.000005
   88  C 15  Y    0.000379   0.000409  -0.000034   0.000037  -0.000034
   89  C 15  Z   -0.000386  -0.001341   0.000200   0.000004   0.000044
   90  C 15  S    0.003277   0.012801  -0.004091  -0.000109   0.000225
   91  C 15  X    0.000423   0.003042  -0.001601  -0.000007   0.000176
   92  C 15  Y    0.002840   0.012325  -0.003784  -0.000129   0.000282
   93  C 15  Z   -0.001020  -0.007749   0.002676   0.000116  -0.000104
   94  H 16  S   -0.000323  -0.001226   0.000420   0.000004  -0.000003
   95  H 16  S   -0.001437  -0.003566   0.001348  -0.000046   0.000092
   96  O 17  S    0.238594   0.939541  -0.161002  -0.002555   0.000545
   97  O 17  S    0.026884   0.102014  -0.016543  -0.000166  -0.000027
   98  O 17  X   -0.000377  -0.000508   0.001078  -0.000019   0.000149
   99  O 17  Y    0.000730   0.000602  -0.000156   0.000081   0.000070
  100  O 17  Z    0.000578   0.002560  -0.000693  -0.000010   0.000087
  101  O 17  S   -0.016216  -0.052356   0.007465  -0.000219   0.000626
  102  O 17  X    0.001560   0.001759  -0.004635   0.000122  -0.000289
  103  O 17  Y   -0.003272  -0.000689   0.000206  -0.000414   0.000020
  104  O 17  Z   -0.001754  -0.007742   0.002694   0.000037  -0.000305
  105  H 18  S    0.000125   0.000221   0.000054   0.000003  -0.000013
  106  H 18  S    0.000600   0.003027  -0.001075  -0.000048   0.000142
  107  H 19  S    0.000486   0.001552   0.002163   0.000053   0.001729
  108  H 19  S   -0.000139   0.008228   0.009046  -0.000484  -0.001215
  109  H 20  S    0.001620   0.002636   0.000216  -0.000006   0.000489
  110  H 20  S    0.008248   0.007707  -0.003704   0.000970  -0.001797

                      6          7          8          9         10
                  -10.2594   -10.1776   -10.1751   -10.1682   -10.1044
                     A          A          A          A          A   
    1  C  1  S    0.000024  -0.007186   0.000037   0.000125   0.985459
    2  C  1  S    0.000015  -0.005569   0.000022   0.000075   0.106689
    3  C  1  X    0.000002  -0.001449   0.000065   0.000021   0.000153
    4  C  1  Y   -0.000045   0.001565  -0.000005   0.000050  -0.000064
    5  C  1  Z   -0.000021   0.002534  -0.000115   0.000000  -0.000337
    6  C  1  S   -0.000097   0.030448   0.000192  -0.000235  -0.079962
    7  C  1  X    0.000085   0.007430  -0.000289  -0.000073  -0.004673
    8  C  1  Y    0.000580  -0.009188   0.000553  -0.000293   0.002758
    9  C  1  Z   -0.000088  -0.012935   0.000437   0.000045   0.008484
   10  H  2  S   -0.000051  -0.001107   0.000174  -0.000034  -0.001797
   11  H  2  S   -0.000293   0.002483  -0.000949   0.000359   0.014669
   12  C  3  S    0.000093   0.003489   0.981867   0.083224  -0.000016
   13  C  3  S    0.000079   0.000443   0.105415   0.003633   0.000012
   14  C  3  X    0.000066  -0.000025   0.000512  -0.001832  -0.000006
   15  C  3  Y   -0.000010  -0.000129   0.000171  -0.002146  -0.000092
   16  C  3  Z    0.000003  -0.000034  -0.000340   0.001785   0.000029
   17  C  3  S   -0.000265  -0.000531  -0.076157   0.026700   0.000021
   18  C  3  X   -0.000441  -0.000459  -0.005074   0.009639  -0.000693
   19  C  3  Y    0.000123   0.000733  -0.012637   0.011493   0.000844
   20  C  3  Z   -0.000054  -0.000326   0.010115  -0.009559  -0.000463
   21  C  4  S    0.000028  -0.000201  -0.083609   0.981862  -0.000115
   22  C  4  S    0.000003  -0.000056  -0.014173   0.104663   0.000026
   23  C  4  X    0.000014  -0.000057   0.001483   0.000114  -0.000051
   24  C  4  Y   -0.000019   0.000056   0.002368  -0.000114   0.000007
   25  C  4  Z    0.000018  -0.000028  -0.001839   0.000090  -0.000004
   26  C  4  S    0.000189  -0.000085   0.038855  -0.071411  -0.000336
   27  C  4  X    0.000104   0.000667  -0.009904   0.009978   0.000742
   28  C  4  Y   -0.000107  -0.000385  -0.013304   0.007548  -0.000199
   29  C  4  Z    0.000065   0.000124   0.010648  -0.006647   0.000028
   30  O  5  S    0.000001   0.000017   0.000156   0.000073   0.000016
   31  O  5  S    0.000047   0.000217   0.001315   0.000374   0.000227
   32  O  5  X    0.000044  -0.000054  -0.000396   0.000276  -0.000126
   33  O  5  Y   -0.000021  -0.000276   0.000268  -0.000140  -0.000241
   34  O  5  Z    0.000021  -0.000046  -0.000207   0.000130   0.000162
   35  O  5  S   -0.000088  -0.000211   0.000903  -0.001534  -0.000146
   36  O  5  X   -0.000137   0.000204   0.001529  -0.001697   0.000379
   37  O  5  Y    0.000181   0.001341  -0.000070  -0.000710   0.001147
   38  O  5  Z   -0.000097   0.000082   0.000188   0.000484  -0.000598
   39  H  6  S   -0.000021  -0.000006  -0.002224  -0.001471   0.000006
   40  H  6  S   -0.000196  -0.000141   0.013397   0.003431  -0.000473
   41  C  7  S    0.984839  -0.000244  -0.000078  -0.000036  -0.000025
   42  C  7  S    0.101466   0.000181   0.000005   0.000001   0.000027
   43  C  7  X   -0.000632  -0.000181  -0.000153  -0.000066  -0.000054
   44  C  7  Y    0.000341   0.000063  -0.000092  -0.000073  -0.000005
   45  C  7  Z    0.000129  -0.000033  -0.000053  -0.000051   0.000007
   46  C  7  S   -0.041186  -0.000702  -0.000463  -0.000457   0.000050
   47  C  7  X   -0.010733   0.001004   0.000809   0.000458   0.000243
   48  C  7  Y    0.002072   0.000596  -0.000890  -0.000625   0.000076
   49  C  7  Z    0.000636   0.000297  -0.000277  -0.000201   0.000006
   50  O  8  S    0.000003   0.000007   0.000020   0.000128   0.000007
   51  O  8  S    0.000037   0.000042  -0.000127   0.001138   0.000048
   52  O  8  X   -0.000003  -0.000013   0.000358  -0.000476  -0.000012
   53  O  8  Y   -0.000013   0.000020   0.000013   0.000507   0.000015
   54  O  8  Z    0.000030  -0.000019  -0.000003   0.000088  -0.000013
   55  O  8  S   -0.000106  -0.000299  -0.000993   0.001943  -0.000292
   56  O  8  X    0.000042   0.000157   0.000001   0.000623   0.000141
   57  O  8  Y    0.000039  -0.000048   0.000711  -0.002359  -0.000051
   58  O  8  Z   -0.000083   0.000027  -0.000770   0.000073   0.000019
   59  H  9  S    0.000021   0.000083  -0.001175  -0.002275   0.000093
   60  H  9  S    0.000014   0.000299   0.000880   0.013626   0.000232
   61  O 10  S    0.000349  -0.000011   0.000016   0.000014  -0.000006
   62  O 10  S    0.001326  -0.000095   0.000225   0.000191  -0.000063
   63  O 10  X   -0.000574   0.000071  -0.000336  -0.000244   0.000040
   64  O 10  Y    0.000330  -0.000035   0.000101   0.000116  -0.000014
   65  O 10  Z    0.000114   0.000003   0.000027  -0.000001  -0.000000
   66  O 10  S   -0.002373   0.000398  -0.000232  -0.000259   0.000205
   67  O 10  X   -0.001175  -0.000418   0.001454   0.001107  -0.000200
   68  O 10  Y    0.005564   0.000026  -0.000644  -0.000582   0.000036
   69  O 10  Z    0.001952  -0.000062  -0.000133  -0.000043  -0.000007
   70  H 11  S   -0.002498  -0.000019  -0.000012   0.000007  -0.000025
   71  H 11  S    0.017226  -0.000472  -0.000404  -0.000188  -0.000148
   72  O 12  S    0.000302   0.000029  -0.000009  -0.000002  -0.000003
   73  O 12  S    0.001637   0.000334  -0.000103  -0.000029  -0.000029
   74  O 12  X   -0.000697  -0.000232   0.000119   0.000062   0.000005
   75  O 12  Y    0.000088  -0.000092   0.000014   0.000002   0.000015
   76  O 12  Z    0.000036  -0.000100  -0.000002  -0.000002  -0.000003
   77  O 12  S   -0.000804  -0.000989   0.000291   0.000051   0.000126
   78  O 12  X    0.002132   0.001165  -0.000608  -0.000316  -0.000039
   79  O 12  Y   -0.003830   0.000588  -0.000060  -0.000015  -0.000013
   80  O 12  Z   -0.001389   0.000335  -0.000002   0.000002   0.000023
   81  H 13  S   -0.000454   0.000269  -0.001211  -0.000356   0.000104
   82  H 13  S    0.000568  -0.001058   0.003738   0.002920  -0.000571
   83  H 14  S    0.000031   0.000009   0.000001   0.000203   0.000018
   84  H 14  S   -0.000066  -0.000039   0.000615   0.002483  -0.000062
   85  C 15  S    0.000300   0.985370  -0.003471  -0.000099   0.006912
   86  C 15  S    0.000229   0.105213  -0.000293  -0.000008  -0.004086
   87  C 15  X    0.000129   0.000063  -0.000038  -0.000008   0.001426
   88  C 15  Y    0.000036   0.000388   0.000165   0.000012  -0.001674
   89  C 15  Z   -0.000037   0.000044  -0.000010   0.000011  -0.002560
   90  C 15  S   -0.000559  -0.072430   0.000350   0.000013   0.029418
   91  C 15  X   -0.000498   0.006464  -0.000174   0.000046  -0.006972
   92  C 15  Y   -0.000672  -0.002363  -0.000694   0.000095   0.009571
   93  C 15  Z    0.000715  -0.012359   0.000597  -0.000029   0.012260
   94  H 16  S    0.000070  -0.001455   0.000011  -0.000007  -0.002109
   95  H 16  S    0.000151   0.001006  -0.000194  -0.000090   0.013267
   96  O 17  S    0.000033   0.000166   0.000009   0.000001   0.000080
   97  O 17  S    0.000383   0.001493   0.000158   0.000021   0.000453
   98  O 17  X    0.000285   0.000036  -0.000030   0.000001   0.000009
   99  O 17  Y    0.000002  -0.000412   0.000244   0.000044   0.000225
  100  O 17  Z   -0.000123   0.000273  -0.000010   0.000017  -0.000118
  101  O 17  S   -0.000851   0.000508  -0.000441  -0.000053  -0.002356
  102  O 17  X   -0.001371  -0.000785   0.000169   0.000048   0.000831
  103  O 17  Y   -0.000183   0.001235  -0.000975  -0.000137  -0.001175
  104  O 17  Z    0.000604  -0.000101   0.000157  -0.000067  -0.001187
  105  H 18  S    0.000038  -0.002277  -0.000034   0.000015  -0.000966
  106  H 18  S   -0.000257   0.013667  -0.000385   0.000023   0.002619
  107  H 19  S    0.000015  -0.000708   0.000099   0.000024  -0.000027
  108  H 19  S    0.003854   0.003553  -0.000940  -0.000366  -0.000029
  109  H 20  S   -0.000089  -0.000821  -0.000669  -0.000048  -0.000139
  110  H 20  S    0.000230   0.003535   0.002303   0.000130   0.001815

                     11         12         13         14         15
                   -1.0930    -1.0477    -1.0348    -1.0207    -1.0041
                     A          A          A          A          A   
    1  C  1  S   -0.002237  -0.009631  -0.013982  -0.004296   0.008207
    2  C  1  S    0.002192   0.009521   0.013369   0.003764  -0.007783
    3  C  1  X    0.001502   0.005306   0.008465   0.002949  -0.004814
    4  C  1  Y   -0.000418  -0.002352  -0.004153  -0.001682   0.002827
    5  C  1  Z   -0.002676  -0.009994  -0.015549  -0.005169   0.009046
    6  C  1  S    0.004849   0.012372   0.023561   0.010131  -0.013191
    7  C  1  X    0.001271   0.008444   0.007055  -0.000107  -0.003015
    8  C  1  Y    0.002282   0.014095   0.026157   0.010186  -0.018017
    9  C  1  Z   -0.003133  -0.016240  -0.015848  -0.001799   0.006272
   10  H  2  S    0.000387   0.000690   0.002142   0.001079  -0.001601
   11  H  2  S   -0.000206   0.003166  -0.013069  -0.011785   0.012871
   12  C  3  S   -0.008256  -0.062222   0.026471   0.033223  -0.032805
   13  C  3  S    0.009741   0.069263  -0.029430  -0.037788   0.036841
   14  C  3  X    0.006189   0.042002  -0.020518  -0.016668   0.018665
   15  C  3  Y   -0.006547  -0.038369   0.003385   0.046982  -0.029778
   16  C  3  Z    0.003926   0.022443  -0.000146  -0.032031   0.019275
   17  C  3  S    0.009014   0.082469  -0.031968  -0.050993   0.048573
   18  C  3  X   -0.006048  -0.010887  -0.011689   0.045368  -0.020770
   19  C  3  Y    0.002110   0.001956   0.002674  -0.020928   0.010795
   20  C  3  Z   -0.000591  -0.000781  -0.000172   0.007601  -0.004509
   21  C  4  S   -0.003595  -0.045209   0.050267  -0.044483   0.003832
   22  C  4  S    0.003753   0.048027  -0.054558   0.049715  -0.004961
   23  C  4  X    0.001475   0.030634  -0.049090   0.065996  -0.018277
   24  C  4  Y   -0.002236  -0.018115   0.010223   0.004536  -0.007673
   25  C  4  Z    0.001429   0.008347  -0.000252  -0.012757   0.008031
   26  C  4  S    0.006348   0.067839  -0.072740   0.065885  -0.006819
   27  C  4  X    0.003681   0.007361   0.010093  -0.043189   0.019936
   28  C  4  Y   -0.003100  -0.010991  -0.003454   0.027555  -0.014351
   29  C  4  Z    0.001504   0.008695  -0.000644  -0.011569   0.007374
   30  O  5  S   -0.027052  -0.156672   0.037918   0.125339  -0.087590
   31  O  5  S    0.025217   0.143711  -0.036901  -0.114318   0.080475
   32  O  5  X    0.006515   0.014520  -0.005714  -0.014366   0.002886
   33  O  5  Y    0.004508   0.038522  -0.022243  -0.033167   0.029625
   34  O  5  Z   -0.005461  -0.037882   0.010378   0.026247  -0.021291
   35  O  5  S    0.080219   0.489484  -0.110656  -0.407431   0.284972
   36  O  5  X    0.005633   0.019473  -0.007244  -0.014799   0.005716
   37  O  5  Y    0.005239   0.039041  -0.025864  -0.044444   0.038910
   38  O  5  Z   -0.007498  -0.044103   0.010816   0.035299  -0.026251
   39  H  6  S    0.001551   0.015121  -0.007638  -0.005812   0.007809
   40  H  6  S   -0.003468  -0.010598  -0.001898   0.020924  -0.011224
   41  C  7  S   -0.128442   0.029082   0.019515   0.008169   0.018147
   42  C  7  S    0.146876  -0.034394  -0.022974  -0.009327  -0.020796
   43  C  7  X   -0.084477   0.018158   0.015779   0.011019   0.022874
   44  C  7  Y    0.001727   0.005036  -0.050802  -0.084296  -0.167085
   45  C  7  Z    0.000304   0.001813  -0.017637  -0.029284  -0.058248
   46  C  7  S    0.131164  -0.030244  -0.023431  -0.007970  -0.016959
   47  C  7  X    0.038842  -0.016123  -0.008726  -0.003252  -0.007750
   48  C  7  Y   -0.006721   0.005198   0.001894   0.003933   0.009643
   49  C  7  Z   -0.001727   0.001491   0.000775   0.001336   0.002861
   50  O  8  S   -0.005799  -0.090889   0.127752  -0.151763   0.035271
   51  O  8  S    0.005578   0.086070  -0.119719   0.140717  -0.031940
   52  O  8  X   -0.001866  -0.026883   0.033308  -0.034381   0.005505
   53  O  8  Y    0.001415   0.030461  -0.046060   0.059024  -0.014803
   54  O  8  Z    0.001322   0.016396  -0.021248   0.022897  -0.004722
   55  O  8  S    0.015437   0.271191  -0.393059   0.483416  -0.117591
   56  O  8  X   -0.000355  -0.028885   0.041923  -0.054520   0.012184
   57  O  8  Y    0.000300   0.030829  -0.045603   0.060312  -0.013356
   58  O  8  Z    0.001887   0.017390  -0.023839   0.025425  -0.006531
   59  H  9  S    0.001104   0.011951  -0.012227   0.008693   0.000454
   60  H  9  S    0.001246   0.001122   0.007590  -0.022614   0.009705
   61  O 10  S   -0.131551   0.020483   0.059458   0.074991   0.140318
   62  O 10  S    0.122217  -0.019673  -0.056096  -0.071372  -0.136097
   63  O 10  X    0.032078  -0.012665  -0.014313  -0.014849  -0.041876
   64  O 10  Y   -0.082293   0.017508   0.030034   0.034660   0.070875
   65  O 10  Z   -0.029368   0.005188   0.011216   0.012839   0.024921
   66  O 10  S    0.398816  -0.064495  -0.184211  -0.233544  -0.434425
   67  O 10  X    0.023100  -0.015661  -0.008591  -0.009531  -0.040827
   68  O 10  Y   -0.089495   0.022435   0.026508   0.033242   0.066243
   69  O 10  Z   -0.031815   0.005328   0.012103   0.010811   0.023248
   70  H 11  S    0.028265  -0.007110  -0.003959  -0.000528  -0.001925
   71  H 11  S   -0.024899   0.009500   0.006607   0.003115   0.007006
   72  O 12  S   -0.152232   0.035591  -0.031458  -0.073573  -0.136565
   73  O 12  S    0.139743  -0.032442   0.030544   0.069911   0.129964
   74  O 12  X   -0.008919  -0.003893  -0.009852  -0.007040  -0.005112
   75  O 12  Y    0.080572  -0.020634   0.007087   0.027708   0.054067
   76  O 12  Z    0.030075  -0.007368   0.003410   0.010843   0.020480
   77  O 12  S    0.464512  -0.113359   0.096031   0.231927   0.435930
   78  O 12  X   -0.022161   0.002551  -0.007602  -0.007491  -0.005507
   79  O 12  Y    0.093360  -0.023197   0.006818   0.028198   0.053946
   80  O 12  Z    0.035022  -0.008134   0.003838   0.011448   0.020711
   81  H 13  S    0.020279   0.055051  -0.022536  -0.053985   0.018157
   82  H 13  S    0.015058   0.004794  -0.001518  -0.007237  -0.011127
   83  H 14  S    0.002290   0.042039  -0.060798   0.074892  -0.017926
   84  H 14  S    0.000906   0.006826  -0.013886   0.020054  -0.007717
   85  C 15  S   -0.010605  -0.039286  -0.058471  -0.019016   0.032079
   86  C 15  S    0.011286   0.044299   0.065112   0.020413  -0.036231
   87  C 15  X    0.004261   0.015468   0.023022   0.007562  -0.012221
   88  C 15  Y    0.007446   0.027784   0.040362   0.012351  -0.021709
   89  C 15  Z   -0.008647  -0.031501  -0.046745  -0.015122   0.025063
   90  C 15  S    0.013861   0.047848   0.082473   0.032357  -0.049405
   91  C 15  X    0.002127  -0.002283  -0.003255  -0.000096   0.005561
   92  C 15  Y   -0.004159  -0.015680  -0.023477  -0.006346   0.012231
   93  C 15  Z   -0.001033   0.003796   0.008134   0.002395  -0.007886
   94  H 16  S    0.000680   0.003755   0.005120   0.001372  -0.003078
   95  H 16  S    0.001119   0.009376   0.009908   0.001543  -0.005310
   96  O 17  S   -0.035520  -0.113862  -0.162761  -0.050661   0.079673
   97  O 17  S    0.032012   0.104606   0.148884   0.045579  -0.073249
   98  O 17  X    0.001719  -0.016821  -0.019847  -0.002738   0.017576
   99  O 17  Y    0.003908   0.014511   0.010192  -0.002291  -0.001642
  100  O 17  Z    0.010477   0.039765   0.057678   0.017976  -0.031451
  101  O 17  S    0.108564   0.355966   0.515966   0.165136  -0.257405
  102  O 17  X    0.005016  -0.018413  -0.021681  -0.003052   0.021942
  103  O 17  Y    0.005575   0.015824   0.012318   0.000561  -0.003136
  104  O 17  Z    0.012680   0.048787   0.069206   0.020115  -0.037777
  105  H 18  S    0.002199   0.009316   0.014128   0.004703  -0.008337
  106  H 18  S   -0.002701  -0.008517  -0.013754  -0.004331   0.007281
  107  H 19  S    0.047833   0.004329   0.033618   0.032913   0.036855
  108  H 19  S    0.010937   0.009971   0.014349   0.006200  -0.000500
  109  H 20  S    0.013534   0.061406   0.055486   0.002503  -0.020326
  110  H 20  S    0.007994   0.014150   0.004395  -0.012325   0.007550

                     16         17         18         19         20
                   -0.7524    -0.7476    -0.6423    -0.6098    -0.5970
                     A          A          A          A          A   
    1  C  1  S   -0.096025  -0.140896   0.027359  -0.059938   0.080443
    2  C  1  S    0.104273   0.152358  -0.028309   0.059772  -0.081141
    3  C  1  X    0.027250   0.037347  -0.000321  -0.012356   0.020386
    4  C  1  Y   -0.031544  -0.042803   0.006132   0.025988  -0.033929
    5  C  1  Z   -0.048409  -0.066471  -0.004400   0.017942  -0.034686
    6  C  1  S    0.204206   0.303533  -0.083210   0.185079  -0.255928
    7  C  1  X   -0.000138   0.004076   0.000008   0.004070   0.002063
    8  C  1  Y   -0.001330  -0.005448   0.007437   0.011794  -0.007428
    9  C  1  Z   -0.002054  -0.008562  -0.002573  -0.004513  -0.002302
   10  H  2  S    0.042294   0.064947  -0.016505   0.056831  -0.076863
   11  H  2  S   -0.004213   0.006641  -0.003395   0.025872  -0.038580
   12  C  3  S   -0.125461   0.085759  -0.015317   0.068313   0.062225
   13  C  3  S    0.142141  -0.097448   0.015288  -0.072339  -0.066207
   14  C  3  X    0.027185  -0.017210  -0.016315   0.051347   0.090176
   15  C  3  Y    0.086095  -0.067674  -0.041714   0.098838   0.058230
   16  C  3  Z   -0.066357   0.053583   0.030656  -0.086446  -0.041949
   17  C  3  S    0.274375  -0.187685   0.052528  -0.219867  -0.203150
   18  C  3  X    0.001375   0.001755  -0.006931   0.030641   0.055423
   19  C  3  Y    0.032763  -0.025435  -0.011709   0.008385   0.014449
   20  C  3  Z   -0.026739   0.021494   0.007688  -0.015555  -0.006240
   21  C  4  S   -0.120772   0.088486   0.025414  -0.079501  -0.052023
   22  C  4  S    0.137509  -0.100689  -0.027480   0.084657   0.054690
   23  C  4  X   -0.082399   0.059853   0.005607   0.008630   0.035967
   24  C  4  Y   -0.065757   0.046244   0.001010   0.021210   0.006417
   25  C  4  Z    0.054298  -0.037904   0.000281  -0.029577  -0.017586
   26  C  4  S    0.251947  -0.187320  -0.074684   0.254994   0.165712
   27  C  4  X   -0.032493   0.024066   0.007926  -0.027034   0.003514
   28  C  4  Y   -0.003108   0.002056   0.001913   0.007889  -0.005707
   29  C  4  Z    0.009894  -0.006883  -0.001975  -0.006347   0.000203
   30  O  5  S    0.046611  -0.038170  -0.006923  -0.010015  -0.016182
   31  O  5  S   -0.045749   0.037165   0.006063   0.007797   0.015723
   32  O  5  X   -0.045906   0.029697  -0.068320   0.143470   0.164253
   33  O  5  Y    0.047942  -0.017712   0.023150  -0.130673  -0.003508
   34  O  5  Z   -0.021566   0.017340  -0.019617   0.046044   0.043197
   35  O  5  S   -0.166911   0.137511   0.029946   0.040710   0.066840
   36  O  5  X   -0.042569   0.025053  -0.059197   0.135151   0.150435
   37  O  5  Y    0.040308  -0.016643   0.022098  -0.126408   0.000872
   38  O  5  Z   -0.013425   0.014485  -0.016584   0.040986   0.037374
   39  H  6  S    0.067334  -0.046948   0.017728  -0.075475  -0.090442
   40  H  6  S    0.008278  -0.004173   0.007957  -0.030937  -0.041242
   41  C  7  S   -0.011114  -0.002933  -0.135668  -0.027383   0.001599
   42  C  7  S    0.013963   0.003216   0.167312   0.031855  -0.002681
   43  C  7  X    0.001459   0.002385   0.128023   0.037868   0.008489
   44  C  7  Y    0.000781  -0.015866  -0.079437  -0.059891  -0.060311
   45  C  7  Z    0.000652  -0.005756  -0.027080  -0.022905  -0.022501
   46  C  7  S    0.024308   0.008679   0.349044   0.077329   0.002799
   47  C  7  X    0.007136   0.000648   0.107033   0.012198   0.002312
   48  C  7  Y   -0.001883  -0.004480  -0.029619  -0.016664  -0.018085
   49  C  7  Z    0.000066  -0.001463  -0.009137  -0.007289  -0.006904
   50  O  8  S    0.042985  -0.030803  -0.007937   0.021373   0.015525
   51  O  8  S   -0.042827   0.030737   0.008348  -0.022469  -0.015944
   52  O  8  X   -0.059243   0.044183   0.025367  -0.108118  -0.100091
   53  O  8  Y   -0.043985   0.031952   0.016218  -0.046526  -0.051797
   54  O  8  Z   -0.000483   0.000577  -0.000497  -0.010155  -0.002992
   55  O  8  S   -0.152937   0.109930   0.029326  -0.077715  -0.059410
   56  O  8  X   -0.043600   0.032717   0.019922  -0.092980  -0.083601
   57  O  8  Y   -0.035713   0.026040   0.014800  -0.038131  -0.044625
   58  O  8  Z   -0.001198   0.000984  -0.001833  -0.008122  -0.000457
   59  H  9  S    0.062628  -0.046884  -0.018880   0.070074   0.037491
   60  H  9  S    0.001801  -0.001931  -0.006090   0.024213   0.016274
   61  O 10  S    0.000841   0.003037   0.056019   0.011885  -0.005641
   62  O 10  S   -0.000598  -0.003369  -0.054341  -0.013204   0.002457
   63  O 10  X    0.014841  -0.009107   0.079727  -0.031742  -0.058765
   64  O 10  Y   -0.007938   0.005255  -0.033981   0.015120   0.033932
   65  O 10  Z   -0.001372   0.000975  -0.008727   0.002315   0.006849
   66  O 10  S   -0.002023  -0.010518  -0.207599  -0.045798   0.025885
   67  O 10  X    0.011764  -0.006748   0.065963  -0.031071  -0.054396
   68  O 10  Y   -0.006021   0.003767  -0.029746   0.009702   0.026749
   69  O 10  Z   -0.000897   0.000620  -0.008234   0.002442   0.005277
   70  H 11  S    0.007229   0.002572   0.154982   0.038732   0.002663
   71  H 11  S   -0.001660   0.000590   0.041015   0.021390   0.001630
   72  O 12  S   -0.000016  -0.003972   0.049300   0.016078   0.000186
   73  O 12  S   -0.000437   0.003484  -0.045664  -0.013566   0.000863
   74  O 12  X    0.012967   0.015621   0.216531   0.076849   0.053477
   75  O 12  Y    0.006887   0.008748   0.118788   0.048450   0.026688
   76  O 12  Z    0.002595   0.002993   0.037225   0.012738   0.009715
   77  O 12  S    0.001733   0.016451  -0.194270  -0.068175  -0.001884
   78  O 12  X    0.008548   0.010478   0.183131   0.069316   0.046534
   79  O 12  Y    0.004675   0.005232   0.095592   0.040888   0.017992
   80  O 12  Z    0.002377   0.002493   0.029339   0.008468   0.008704
   81  H 13  S   -0.039860   0.029115  -0.054241   0.076080   0.103375
   82  H 13  S   -0.029573   0.020417  -0.055290   0.053030   0.070629
   83  H 14  S   -0.055623   0.040698   0.019865  -0.069981  -0.066770
   84  H 14  S   -0.031839   0.023493   0.011322  -0.048031  -0.046650
   85  C 15  S   -0.091028  -0.117945  -0.007125   0.061271  -0.080163
   86  C 15  S    0.102226   0.132901   0.007788  -0.065793   0.086195
   87  C 15  X   -0.034696  -0.058067   0.013143  -0.054345   0.060087
   88  C 15  Y    0.017043   0.022952   0.008113   0.066254  -0.076930
   89  C 15  Z    0.062867   0.106186  -0.046111   0.085076  -0.105946
   90  C 15  S    0.204229   0.257073   0.025333  -0.198846   0.260629
   91  C 15  X   -0.012572  -0.018812  -0.005280  -0.023174   0.018633
   92  C 15  Y    0.000910   0.003441   0.004875   0.039974  -0.044953
   93  C 15  Z    0.026549   0.039292  -0.009342   0.024032  -0.024412
   94  H 16  S    0.046496   0.069229  -0.021013   0.044039  -0.065130
   95  H 16  S    0.003244   0.008087  -0.005265   0.022869  -0.030368
   96  O 17  S    0.029725   0.055231  -0.011330  -0.007507   0.017715
   97  O 17  S   -0.029215  -0.053521   0.011497   0.006553  -0.016455
   98  O 17  X   -0.017396  -0.021957  -0.068594  -0.011428  -0.034426
   99  O 17  Y   -0.044533  -0.033264  -0.012033   0.172289  -0.174079
  100  O 17  Z    0.028531   0.030176   0.028738  -0.049459   0.076225
  101  O 17  S   -0.106432  -0.200565   0.044170   0.034473  -0.072525
  102  O 17  X   -0.015853  -0.017473  -0.064303  -0.009591  -0.030754
  103  O 17  Y   -0.039859  -0.031122  -0.013171   0.157810  -0.157320
  104  O 17  Z    0.020761   0.021772   0.026589  -0.040064   0.067594
  105  H 18  S    0.046391   0.059405   0.003380  -0.081134   0.103351
  106  H 18  S    0.005228   0.007896   0.000787  -0.033721   0.044984
  107  H 19  S   -0.014206  -0.019336  -0.137141  -0.046444  -0.038183
  108  H 19  S   -0.015537  -0.022011  -0.103697  -0.030115  -0.031342
  109  H 20  S   -0.041791  -0.024311   0.007217   0.109512  -0.090554
  110  H 20  S   -0.030826  -0.012521   0.004117   0.082974  -0.070666

                     21         22         23         24         25
                   -0.5393    -0.5200    -0.5077    -0.4908    -0.4765
                     A          A          A          A          A   
    1  C  1  S    0.014639   0.017754  -0.029261   0.039993   0.031749
    2  C  1  S   -0.014835  -0.017412   0.027685  -0.038395  -0.027624
    3  C  1  X    0.009754   0.010364  -0.033550   0.042455   0.101838
    4  C  1  Y    0.003187  -0.051792   0.006296  -0.188860   0.044799
    5  C  1  Z   -0.024249  -0.006152   0.074623  -0.067982  -0.201363
    6  C  1  S   -0.058646  -0.060703   0.128642  -0.155370  -0.165718
    7  C  1  X    0.005644   0.007772  -0.016022   0.019091   0.051643
    8  C  1  Y    0.009378  -0.037451  -0.006323  -0.106008   0.057261
    9  C  1  Z   -0.011906  -0.007105   0.040333  -0.026952  -0.109767
   10  H  2  S   -0.010634  -0.039761   0.030021  -0.140818  -0.015249
   11  H  2  S   -0.004514  -0.006379   0.005652  -0.101126  -0.010940
   12  C  3  S   -0.033278   0.039518  -0.024522  -0.021877  -0.007146
   13  C  3  S    0.036868  -0.045735   0.030621   0.025399   0.007943
   14  C  3  X   -0.115644  -0.092396   0.098291   0.007653  -0.042675
   15  C  3  Y    0.112920   0.013472   0.111880   0.035668   0.002633
   16  C  3  Z   -0.050287   0.003103  -0.059998  -0.068537  -0.016240
   17  C  3  S    0.113068  -0.101917   0.054910   0.057969   0.019785
   18  C  3  X   -0.079568  -0.060590   0.062490  -0.000106  -0.031123
   19  C  3  Y    0.068027  -0.007436   0.078731   0.007306  -0.008630
   20  C  3  Z   -0.026782   0.011189  -0.034558  -0.042181  -0.006011
   21  C  4  S    0.012599  -0.044154   0.021671   0.020062   0.008173
   22  C  4  S   -0.013264   0.044114  -0.020013  -0.019136  -0.008518
   23  C  4  X   -0.192820  -0.092473  -0.076930   0.005461   0.021310
   24  C  4  Y    0.048311   0.189847  -0.123260  -0.124422  -0.033952
   25  C  4  Z    0.038637  -0.104712   0.134809   0.065369   0.001305
   26  C  4  S   -0.053317   0.166290  -0.106400  -0.074845  -0.018740
   27  C  4  X   -0.083683  -0.072056  -0.013172   0.010197   0.007217
   28  C  4  Y    0.038283   0.130206  -0.080250  -0.087158  -0.028386
   29  C  4  Z    0.015747  -0.063637   0.080850   0.040999   0.001892
   30  O  5  S    0.009584  -0.042407   0.017998   0.015252   0.004182
   31  O  5  S   -0.010329   0.038099  -0.017524  -0.015362  -0.003523
   32  O  5  X    0.103407  -0.008628   0.168541   0.013845  -0.018011
   33  O  5  Y   -0.071220  -0.096123   0.053569  -0.093183  -0.053600
   34  O  5  Z    0.059194   0.047747   0.020715  -0.046345   0.004692
   35  O  5  S   -0.040517   0.179655  -0.067891  -0.065866  -0.025675
   36  O  5  X    0.088429  -0.004010   0.155250   0.018931  -0.027376
   37  O  5  Y   -0.067712  -0.091158   0.057935  -0.093343  -0.061846
   38  O  5  Z    0.054247   0.044888   0.016972  -0.051303   0.005630
   39  H  6  S    0.088442   0.012642  -0.032157   0.015485   0.033096
   40  H  6  S    0.046209   0.009996  -0.026405   0.005839   0.024435
   41  C  7  S    0.024636  -0.026840  -0.016458  -0.007656   0.034812
   42  C  7  S   -0.031679   0.032018   0.013770   0.008760  -0.052029
   43  C  7  X   -0.065384   0.121104   0.229562  -0.010854   0.178282
   44  C  7  Y   -0.127015   0.128421   0.044652   0.000376   0.041539
   45  C  7  Z   -0.050179   0.055530   0.012524  -0.008814   0.017586
   46  C  7  S   -0.068918   0.085490   0.087265   0.021416  -0.064292
   47  C  7  X   -0.060177   0.091027   0.151005  -0.022273   0.124625
   48  C  7  Y   -0.040638   0.040479   0.028209   0.004411   0.017297
   49  C  7  Z   -0.018509   0.023156   0.006397  -0.007964   0.008873
   50  O  8  S    0.004630   0.024105  -0.005281  -0.017029  -0.009804
   51  O  8  S   -0.004060  -0.023750   0.006521   0.016437   0.008672
   52  O  8  X    0.231333   0.045270   0.132175   0.013435  -0.024740
   53  O  8  Y    0.131764   0.118541   0.007301  -0.058897  -0.042196
   54  O  8  Z    0.018923  -0.037833   0.058638   0.019533  -0.003131
   55  O  8  S   -0.021986  -0.093601   0.012953   0.068464   0.042515
   56  O  8  X    0.202585   0.032462   0.124135   0.014646  -0.021139
   57  O  8  Y    0.111408   0.107943   0.002480  -0.053939  -0.039127
   58  O  8  Z    0.016437  -0.036687   0.054560   0.016746  -0.001987
   59  H  9  S    0.047517   0.166037  -0.083772  -0.091953  -0.030221
   60  H  9  S    0.037076   0.102596  -0.047825  -0.063167  -0.022994
   61  O 10  S   -0.029133   0.031856   0.003119   0.008719  -0.037948
   62  O 10  S    0.024027  -0.027422  -0.005467  -0.007695   0.032932
   63  O 10  X   -0.131382   0.122535   0.031470  -0.002083   0.025471
   64  O 10  Y    0.058730  -0.041040   0.084207  -0.014926   0.128099
   65  O 10  Z    0.012398  -0.001154   0.018226  -0.014237   0.045563
   66  O 10  S    0.117401  -0.128937  -0.011285  -0.040481   0.164298
   67  O 10  X   -0.114805   0.108113   0.022305  -0.004652   0.029853
   68  O 10  Y    0.048605  -0.040154   0.077020  -0.009983   0.112324
   69  O 10  Z    0.010812   0.002835   0.013581  -0.014962   0.040671
   70  H 11  S   -0.055872   0.089889   0.141154   0.001897   0.063798
   71  H 11  S   -0.022937   0.048951   0.087895   0.007829   0.046774
   72  O 12  S    0.000269  -0.002475  -0.002501   0.009765  -0.050866
   73  O 12  S    0.002278  -0.000456   0.002137  -0.008783   0.044869
   74  O 12  X    0.098063  -0.104082  -0.037228  -0.005033  -0.012134
   75  O 12  Y    0.078578  -0.105203  -0.110205   0.023863  -0.169543
   76  O 12  Z    0.021876  -0.027624  -0.036610  -0.000615  -0.055672
   77  O 12  S   -0.002042   0.009369   0.000786  -0.042652   0.218710
   78  O 12  X    0.090256  -0.097793  -0.028155  -0.004246  -0.010369
   79  O 12  Y    0.065014  -0.090700  -0.097806   0.023325  -0.158727
   80  O 12  Z    0.017589  -0.023051  -0.032360  -0.002461  -0.051044
   81  H 13  S    0.082691  -0.017787   0.081885  -0.005586  -0.003119
   82  H 13  S    0.091551  -0.037754   0.074690  -0.003520   0.031360
   83  H 14  S    0.147827   0.059829   0.062644  -0.014309  -0.028095
   84  H 14  S    0.120892   0.046372   0.056604  -0.011245  -0.019819
   85  C 15  S   -0.011635  -0.023607   0.028232  -0.045674  -0.038159
   86  C 15  S    0.012533   0.025898  -0.031438   0.051432   0.044455
   87  C 15  X   -0.004056   0.004464   0.023529  -0.073712  -0.044452
   88  C 15  Y    0.016178  -0.093625  -0.026253  -0.174795   0.173897
   89  C 15  Z   -0.015547   0.031751  -0.002225   0.148183   0.046668
   90  C 15  S    0.038442   0.072565  -0.090244   0.157762   0.116109
   91  C 15  X   -0.012151   0.012891   0.028591  -0.044496  -0.042860
   92  C 15  Y    0.014861  -0.059699  -0.026147  -0.111385   0.129931
   93  C 15  Z    0.002409   0.012328  -0.018573   0.082197   0.056364
   94  H 16  S   -0.023836  -0.004898   0.060482  -0.016155  -0.153425
   95  H 16  S   -0.011137  -0.001041   0.035385  -0.009673  -0.108306
   96  O 17  S    0.007552   0.014200  -0.022669   0.009461   0.041508
   97  O 17  S   -0.007154  -0.013043   0.020642  -0.010973  -0.038210
   98  O 17  X   -0.061051   0.069880   0.095958   0.029349  -0.094577
   99  O 17  Y    0.016876   0.000734  -0.054845   0.200398   0.067684
  100  O 17  Z    0.029150  -0.032344  -0.041872  -0.117695   0.111258
  101  O 17  S   -0.027353  -0.067770   0.094195  -0.040656  -0.169378
  102  O 17  X   -0.058129   0.070310   0.090545   0.031309  -0.102284
  103  O 17  Y    0.017020  -0.002327  -0.047043   0.190353   0.063534
  104  O 17  Z    0.029103  -0.029588  -0.040881  -0.112351   0.109613
  105  H 18  S    0.001976   0.070418  -0.010481   0.131489  -0.067809
  106  H 18  S    0.001211   0.043134  -0.006055   0.082399  -0.046964
  107  H 19  S   -0.072266   0.078145   0.064763   0.004250   0.004615
  108  H 19  S   -0.067905   0.076553   0.093546   0.004347  -0.001203
  109  H 20  S    0.020574   0.013744  -0.052050   0.117611   0.042695
  110  H 20  S    0.013944   0.032171  -0.062816   0.118673   0.011547

                     26         27         28         29         30
                   -0.4688    -0.4427    -0.4281    -0.4195    -0.3903
                     A          A          A          A          A   
    1  C  1  S   -0.012643   0.000339   0.000529   0.004744   0.001198
    2  C  1  S    0.009447   0.001362  -0.000137  -0.011352   0.000516
    3  C  1  X   -0.066312   0.005791   0.012799  -0.115545  -0.056450
    4  C  1  Y   -0.043417  -0.089634  -0.016014   0.087193  -0.124830
    5  C  1  Z    0.120544  -0.031599  -0.006258   0.141785   0.010725
    6  C  1  S    0.072966  -0.007873  -0.002159  -0.000054  -0.024990
    7  C  1  X   -0.032741  -0.004994   0.006454  -0.064600  -0.038565
    8  C  1  Y   -0.041863  -0.050671  -0.018415   0.063400  -0.100941
    9  C  1  Z    0.060512  -0.005662  -0.003035   0.064576   0.006694
   10  H  2  S   -0.004425  -0.060635  -0.011599   0.068330  -0.084627
   11  H  2  S    0.003922  -0.072176  -0.004154   0.072168  -0.049616
   12  C  3  S   -0.005416   0.014762  -0.003050   0.007707  -0.002904
   13  C  3  S    0.002771  -0.012672   0.004233  -0.005341   0.000892
   14  C  3  X   -0.163824   0.239115   0.010360   0.070126  -0.087494
   15  C  3  Y   -0.082387  -0.070661   0.004182   0.037425   0.102746
   16  C  3  Z    0.060065   0.064217   0.008898  -0.120286   0.127664
   17  C  3  S    0.035693  -0.052926   0.013700  -0.055172   0.018638
   18  C  3  X   -0.111811   0.161220   0.002865   0.031586  -0.050465
   19  C  3  Y   -0.035898  -0.017485   0.004624  -0.029598   0.088283
   20  C  3  Z    0.024807   0.015785   0.007451  -0.065341   0.122126
   21  C  4  S    0.012118  -0.031503   0.000368  -0.010527   0.003405
   22  C  4  S   -0.016088   0.036243   0.000694   0.013654  -0.005539
   23  C  4  X    0.079292  -0.035719   0.012616  -0.059216   0.107097
   24  C  4  Y    0.067043   0.081274  -0.006451  -0.093273   0.055154
   25  C  4  Z   -0.101239   0.024398   0.014551   0.037940   0.091432
   26  C  4  S   -0.019017   0.078499  -0.005402   0.052906  -0.009256
   27  C  4  X    0.040971  -0.008215   0.004172  -0.051207   0.062042
   28  C  4  Y    0.032567   0.090956   0.003456  -0.068715   0.052884
   29  C  4  Z   -0.064452   0.015658   0.009372   0.027648   0.089859
   30  O  5  S    0.012174   0.013751   0.002059  -0.021924  -0.003525
   31  O  5  S   -0.006704  -0.010518  -0.001654   0.018886   0.003437
   32  O  5  X   -0.061440  -0.105852  -0.001150  -0.057052   0.088861
   33  O  5  Y   -0.002180   0.174401   0.014893  -0.174979   0.083525
   34  O  5  Z    0.009728  -0.115928   0.009021  -0.053883   0.202597
   35  O  5  S   -0.074714  -0.055950  -0.010258   0.095442   0.017725
   36  O  5  X   -0.073760  -0.113545  -0.000374  -0.056675   0.097747
   37  O  5  Y    0.002267   0.182719   0.011634  -0.180355   0.094951
   38  O  5  Z    0.004913  -0.116335   0.014595  -0.052754   0.213965
   39  H  6  S    0.107877  -0.171395  -0.002129  -0.063128   0.080668
   40  H  6  S    0.080389  -0.139925  -0.006277  -0.054653   0.077141
   41  C  7  S    0.042073   0.033012   0.000636   0.024785   0.000453
   42  C  7  S   -0.061338  -0.043121  -0.002595  -0.029563   0.005206
   43  C  7  X    0.149785   0.026333   0.004774  -0.024548  -0.038073
   44  C  7  Y   -0.117766  -0.041897  -0.134751   0.067231   0.094709
   45  C  7  Z   -0.047693  -0.026919   0.291036   0.061981   0.040915
   46  C  7  S   -0.088076  -0.092059   0.003639  -0.082297  -0.016860
   47  C  7  X    0.098091   0.036352  -0.006734   0.023418   0.018654
   48  C  7  Y   -0.030721  -0.010657  -0.106388   0.002465   0.009518
   49  C  7  Z   -0.016913  -0.014902   0.279999   0.035020   0.010948
   50  O  8  S   -0.011119   0.042644   0.002990  -0.004913   0.015913
   51  O  8  S    0.008774  -0.038237  -0.001856   0.005227  -0.015497
   52  O  8  X   -0.106325   0.058493  -0.010964   0.057628  -0.106566
   53  O  8  Y   -0.053808   0.134693   0.018577  -0.013887   0.049647
   54  O  8  Z   -0.048633   0.050722   0.006254   0.007689   0.097512
   55  O  8  S    0.051660  -0.188305  -0.011995   0.018465  -0.058710
   56  O  8  X   -0.095733   0.056181  -0.016293   0.054784  -0.113721
   57  O  8  Y   -0.051527   0.120866   0.025851  -0.011974   0.058944
   58  O  8  Z   -0.041931   0.053159   0.003227   0.003030   0.101657
   59  H  9  S    0.022432   0.081062  -0.012031  -0.028257  -0.046711
   60  H  9  S    0.019650   0.057641  -0.014242  -0.030366  -0.047091
   61  O 10  S   -0.073859  -0.046320  -0.007444  -0.006984   0.023930
   62  O 10  S    0.062950   0.040426   0.006683   0.005846  -0.021910
   63  O 10  X   -0.109966  -0.015188  -0.026200   0.092758   0.074434
   64  O 10  Y    0.215427   0.104216  -0.065583  -0.031318  -0.094698
   65  O 10  Z    0.068099   0.030619   0.260948   0.027025  -0.017010
   66  O 10  S    0.315099   0.206348   0.028285   0.048401  -0.086420
   67  O 10  X   -0.092100  -0.007247  -0.024598   0.093842   0.072967
   68  O 10  Y    0.187316   0.095360  -0.062175  -0.032805  -0.095819
   69  O 10  Z    0.061307   0.028316   0.250279   0.023514  -0.013040
   70  H 11  S    0.041138  -0.024443   0.003715  -0.050654  -0.027727
   71  H 11  S    0.034216  -0.023060   0.006647  -0.054269  -0.043334
   72  O 12  S   -0.022256  -0.026084   0.007728  -0.051729  -0.030535
   73  O 12  S    0.023314   0.024722  -0.006779   0.045094   0.026552
   74  O 12  X    0.111197   0.075568   0.012130   0.032258  -0.002252
   75  O 12  Y   -0.051360  -0.032027  -0.071261  -0.123899  -0.083934
   76  O 12  Z   -0.025579  -0.027974   0.271119  -0.015461  -0.035516
   77  O 12  S    0.086430   0.114059  -0.033677   0.235303   0.137398
   78  O 12  X    0.116029   0.079298   0.011908   0.029869  -0.005634
[...]
   1501    7.87575    5.07190    0.21989        -9.193897       9.186315      -0.007582
   1502    6.79478    6.11796   -0.84774        -9.685124       9.681086      -0.004038
   1503    7.06791    4.67186    2.20716        -9.110708       9.100024      -0.010684
   1504    6.14829    6.13954    0.87973        -9.518637       9.510611      -0.008026
   1505    5.08065    5.47970    2.60720        -9.538220       9.526730      -0.011489
   1506    7.87575    5.07190   -1.91537        -9.562094       9.557507      -0.004588
   1507    4.01302    6.55989    1.04029       -10.330600      10.326044      -0.004556
   1508    2.94538    5.47970    2.60720       -10.380836      10.370681      -0.010154
   1509    2.28555    3.75224    3.67483       -10.581476      10.569348      -0.012128
   1510    2.12499    1.61697    4.09518       -10.976510      10.964568      -0.011942
   1511   10.21168   -1.26094    1.79863        -7.955295       7.960063       0.004768
   1512   11.10830   -0.34583    0.87209        -7.642713       7.648614       0.005901
   1513   10.21168    0.56929    1.79863        -8.035834       8.040308       0.004474
   1514    9.63468   -4.20382   -1.51228        -8.287890       8.284836      -0.003054
   1515   10.56122   -3.30720   -0.59717        -7.826287       7.828586       0.002300
   1516   11.12680   -1.82652    0.31795        -7.601375       7.606633       0.005257
   1517    9.08054   -4.22232   -0.03160        -8.540909       8.538328      -0.002581
   1518    9.86879   -2.96431    1.10620        -8.093186       8.096049       0.002862
   1519   11.12680    1.13486    0.31795        -7.717457       7.723266       0.005809
   1520   10.56122    2.61554   -0.59717        -8.085426       8.089825       0.004399
   1521    9.63468    3.51216   -1.51228        -8.689532       8.691467       0.001934
   1522    9.86879    2.27265    1.10620        -8.342792       8.345281       0.002489
   1523    9.08054    3.53066   -0.03160        -8.980478       8.979129      -0.001349
   1524   10.56122    2.61554   -2.42740        -8.127926       8.132787       0.004861
   1525   11.48710    1.27248   -1.51228        -7.620318       7.626694       0.006376
   1526   11.69237   -0.34583   -0.59717        -7.453893       7.460345       0.006452
   1527   11.12680    1.13486   -3.34251        -7.782957       7.788632       0.005675
   1528   11.69237   -0.34583   -2.42740        -7.481650       7.487699       0.006049
   1529   11.10830   -0.34583   -3.89665        -7.720332       7.725075       0.004743
   1530   10.56122   -3.30720   -2.42740        -7.861828       7.862578       0.000750
   1531   11.12680   -1.82652   -3.34251        -7.660336       7.663911       0.003575
   1532   11.48710   -1.96414   -1.51228        -7.496095       7.501015       0.004920
   1533   10.21168   -1.26094   -4.82320        -8.075420       8.077202       0.001782
   1534    9.86879   -2.96431   -4.13077        -8.205716       8.203754      -0.001963
   1535   10.21168    0.56929   -4.82320        -8.162708       8.166348       0.003640
   1536    9.08054    3.53066   -2.99297        -9.086409       9.087625       0.001217
   1537    9.86879    2.27265   -4.13077        -8.470927       8.474627       0.003700
   1538    4.24203   -5.28176    2.21063       -10.087930      10.080082      -0.007848
   1539    5.96950   -4.63526    2.23221        -9.566383       9.559759      -0.006624
   1540    7.02379   -7.00098   -2.29036        -8.387860       8.371488      -0.016373
   1541    8.10476   -5.95493   -1.22273        -8.454983       8.442267      -0.012716
   1542    6.37730   -7.02256   -0.56289        -8.662719       8.648665      -0.014054
   1543    7.29692   -5.55489    0.76453        -8.851585       8.841873      -0.009713
   1544    5.30966   -6.36273    1.16457        -9.263744       9.253367      -0.010377
   1545    8.10476   -5.95493   -3.35799        -8.304575       8.289137      -0.015438
   1546    8.76460   -4.22746   -4.42563        -8.489499       8.478505      -0.010994
   1547    9.18495   -4.38802   -2.29036        -8.554079       8.547181      -0.006897
   1548    4.24203   -5.28176   -6.79135        -9.005751       8.988891      -0.016860
   1549    5.96950   -4.63526   -6.81293        -8.720406       8.703430      -0.016977
   1550    7.69696   -3.56762   -6.15310        -8.688399       8.675217      -0.013182
   1551    5.30966   -6.36273   -5.74530        -8.605757       8.587891      -0.017867
   1552    7.29692   -5.55489   -5.34526        -8.380615       8.363457      -0.017158
   1553    6.37730   -7.02256   -4.01783        -8.388532       8.370691      -0.017842
   1554    4.24203   -1.43236   -7.47276       -10.125435      10.112256      -0.013179
   1555    6.13006   -2.49999   -7.23328        -9.211457       9.197975      -0.013482
   1556    4.24203   -3.56762   -7.47276        -9.367213       9.351629      -0.015583
   1557    2.51456   -0.36472   -6.81293       -11.641036      11.628343      -0.012693
   1558    2.35400   -2.49999   -7.23328       -10.478586      10.464766      -0.013820
   1559    2.51456   -4.63526   -6.81293        -9.757899       9.742373      -0.015526
   1560    3.17439   -6.36273   -5.74530        -9.231598       9.216119      -0.015478
   1561    2.10676   -7.02256   -4.01783        -9.830165       9.819367      -0.010798
   1562    3.17439   -7.68239   -2.29036        -9.441605       9.432242      -0.009364
   1563    4.24203   -7.44291   -4.17839        -8.845142       8.829745      -0.015397
   1564    5.30966   -7.68239   -2.29036        -8.676360       8.661134      -0.015227
   1565    4.24203   -7.44291   -0.40233        -9.276421       9.266101      -0.010320
   1566    6.69897    7.03678   -1.45577        -9.228190       9.233897       0.005707
   1567    4.45929    7.03678    0.39666       -10.078365      10.079965       0.001600
   1568    5.80235    7.95189   -0.52922        -8.956291       8.966091       0.009800
   1569    2.84098    7.95189    0.60192        -9.852822       9.860936       0.008113
   1570    4.32167    8.86701    0.03635        -8.805226       8.819014       0.013788
   1571    2.84098    9.42115    0.01786        -8.851926       8.867633       0.015706
   1572    6.71747    8.51746   -2.00991        -8.299133       8.313476       0.014343
   1573    6.15190    9.99815   -2.92502        -7.685150       7.704981       0.019831
   1574    5.22535   10.89477   -3.84014        -7.446500       7.468683       0.022183
   1575    5.45946    9.65526   -1.22166        -8.080093       8.098244       0.018151
   1576    4.67121   10.91326   -2.35945        -7.635005       7.657349       0.022344
   1577    3.75610   10.34769   -0.87876        -8.127842       8.147885       0.020043
   1578    6.15190    9.99815   -4.75525        -7.532212       7.551489       0.019277
   1579    7.07777    8.65509   -3.84014        -7.976598       7.991953       0.015356
   1580    7.28304    7.03678   -2.92502        -8.864878       8.872951       0.008073
   1581    6.71747    8.51746   -5.67037        -7.894199       7.907749       0.013550
   1582    7.28304    7.03678   -4.75525        -8.575603       8.583822       0.008220
   1583    6.69897    7.03678   -6.22451        -8.468506       8.474543       0.006037
   1584    2.84098    9.42115   -7.69813        -8.081016       8.093800       0.012783
   1585    4.32167    8.86701   -7.71662        -7.976144       7.986546       0.010401
   1586    5.80235    7.95189   -7.15105        -8.113675       8.121848       0.008173
   1587    4.67121   10.91326   -5.32082        -7.417149       7.438588       0.021439
   1588    5.45946    9.65526   -6.45862        -7.609654       7.626033       0.016379
   1589    3.75610   10.34769   -6.80151        -7.640134       7.658247       0.018113
   1590    3.75610   11.47884   -3.84014        -7.491416       7.515147       0.023731
   1591    1.92587   11.47884   -3.84014        -7.842321       7.866491       0.024170
   1592    2.84098   11.27357   -2.22183        -7.842049       7.865217       0.023169
   1593    1.01075   10.91326   -2.35945        -8.412009       8.434067       0.022058
   1594    1.92587   10.34769   -0.87876        -8.540785       8.560092       0.019307
   1595    2.84098   11.27357   -5.45845        -7.607690       7.630364       0.022674
   1596    1.92587   10.34769   -6.80151        -8.026862       8.045883       0.019022
   1597    2.20595   -5.08745    4.23063        -9.565647       9.557005      -0.008642
   1598    3.32672   -3.94355    3.07245       -10.772442      10.764410      -0.008032
   1599    3.34984   -5.79441    2.37978        -9.997592       9.990864      -0.006728
   1600    1.77733   -7.21666    3.36509        -8.865994       8.863380      -0.002613
   1601   -0.35188   -8.08220    3.79371        -8.312096       8.314634       0.002538
   1602   -6.34138   -2.09270   -2.19580        -9.992528       9.983295      -0.009232
   1603   -6.31826   -3.94355   -2.88847        -9.216569       9.205967      -0.010602
   1604   -5.19749   -5.08745   -4.04666        -9.114557       9.103570      -0.010986
   1605   -3.34663   -6.23134   -4.75362        -9.167990       9.156428      -0.011562
   1606   -5.63442   -7.64527    1.23588        -8.032298       8.031699      -0.000598
   1607   -5.63442   -7.64527   -1.05190        -8.092349       8.089209      -0.003141
   1608   -6.34138   -5.79441   -2.19580        -8.538888       8.530304      -0.008584
   1609   -4.76887   -7.21666   -3.18111        -8.435844       8.430332      -0.005512
   1610   -3.36161   -6.38336    7.44887        -6.922823       6.926362       0.003540
   1611   -1.88092   -5.82922    7.46737        -7.288199       7.289565       0.001366
   1612   -0.40023   -4.91410    6.90179        -8.019414       8.016398      -0.003016
   1613   -3.36161   -4.91410    8.03294        -7.014578       7.017221       0.002643
   1614   -1.74330   -3.99899    7.82767        -7.567044       7.566496      -0.000549
   1615   -3.36161   -3.08387    8.03294        -7.352968       7.354128       0.001159
   1616   -1.53138   -7.87548    5.07156        -7.763107       7.766036       0.002929
   1617   -0.74313   -6.61747    6.20936        -7.804413       7.804228      -0.000185
   1618   -2.44649   -7.30990    6.55225        -7.178878       7.182059       0.003180
   1619   -4.84229   -2.16876    7.46737        -7.416262       7.417882       0.001620
   1620   -6.32298   -3.08387    6.90179        -7.111700       7.114082       0.002382
   1621   -7.23810   -2.51830    5.42111        -7.477628       7.478025       0.000396
   1622   -7.21960   -3.99899    5.97525        -7.028918       7.030953       0.002035
   1623   -7.80367   -3.99899    4.50599        -7.324517       7.324179      -0.000338
   1624   -5.74598   -7.85698    3.59088        -7.290189       7.293004       0.002815
   1625   -6.67252   -6.96036    4.50599        -7.002893       7.005423       0.002530
   1626   -7.23810   -5.47967    5.42111        -6.912860       6.915234       0.002374
   1627   -6.67252   -6.96036    2.67576        -7.546571       7.546137      -0.000434
   1628   -7.59840   -5.61730    3.59088        -7.317864       7.317184      -0.000680
   1629   -4.27672   -8.44105    3.59088        -7.511470       7.516075       0.004605
   1630   -2.44649   -8.44105    3.59088        -7.990038       7.995877       0.005839
   1631   -6.32298   -4.91410    6.90179        -6.797315       6.800870       0.003555
   1632   -5.98009   -6.61747    6.20936        -6.752922       6.757020       0.004099
   1633   -5.19184   -7.87548    5.07156        -6.975521       6.979745       0.004224
   1634   -4.84229   -5.82922    7.46737        -6.759590       6.763700       0.004110
   1635   -4.27672   -7.30990    6.55225        -6.846313       6.850742       0.004429
   1636   -3.36161   -8.23578    5.20919        -7.230081       7.234581       0.004500
   1637   -4.97992   -3.99899    7.82767        -6.943049       6.946176       0.003126
   1638   -0.49828   -5.39557   -6.48322        -9.484408       9.468553      -0.015855
   1639    1.22919   -4.74907   -6.50480       -10.054450      10.038541      -0.015909
   1640    0.56936   -6.47654   -5.43717        -9.575717       9.562505      -0.013212
   1641    1.63699   -7.13637   -3.70970        -9.929841       9.921302      -0.008539
   1642   -0.49828    0.16796   -6.48322       -12.115413      12.103105      -0.012308
   1643    1.22919   -0.47854   -6.50480       -12.147007      12.135403      -0.011604
   1644   -0.49828   -1.54617   -7.16463       -10.763316      10.749574      -0.013741
   1645    1.38975   -2.61381   -6.92515       -10.841725      10.827483      -0.014242
   1646   -0.49828   -3.68144   -7.16463        -9.876754       9.860646      -0.016107
   1647   -2.22574   -0.47854   -6.50480       -11.156363      11.145278      -0.011084
   1648   -5.02085   -0.88634   -4.11750       -10.849641      10.844907      -0.004735
   1649   -3.95321   -1.54617   -5.84497       -10.347790      10.337417      -0.010373
   1650   -4.99927   -2.61381   -4.76400        -9.964195       9.953283      -0.010912
   1651   -3.95321   -3.68144   -5.84497        -9.564313       9.550073      -0.014240
   1652   -2.38631   -2.61381   -6.92515        -9.958048       9.943340      -0.014709
   1653   -2.22574   -4.74907   -6.50480        -9.386320       9.370261      -0.016059
   1654   -1.56591   -6.47654   -5.43717        -9.244869       9.231876      -0.012993
   1655   -3.55317   -5.66870   -5.03713        -9.270051       9.256754      -0.013298
   1656   -1.26859   -8.35188    3.74049        -8.128869       8.133322       0.004453
   1657    1.11578   -9.82550   -0.11750        -7.921648       7.924357       0.002710
   1658    2.04232   -8.92888    0.79761        -8.394634       8.395500       0.000866
   1659    0.56164   -9.84400    1.36318        -7.751096       7.754911       0.003814
   1660    1.34989   -8.58599    2.50098        -8.310452       8.311846       0.001393
   1661   -0.35348   -9.27842    2.84387        -7.816626       7.820817       0.004192
   1662    2.04232   -8.92888   -1.03262        -8.587915       8.587482      -0.000434
   1663    2.96820   -7.58582   -0.11750        -9.563096       9.558943      -0.004154
   1664   -1.26859   -8.35188   -3.97550        -8.557337       8.554132      -0.003204
   1665    0.21209   -7.79774   -3.99399        -9.196096       9.190566      -0.005530
   1666   -0.35348   -9.27842   -3.07888        -8.171012       8.171058       0.000046
   1667    1.34989   -8.58599   -2.73598        -8.823345       8.821165      -0.002180
   1668    0.56164   -9.84400   -1.59819        -7.944809       7.946896       0.002087
   1669   -2.74928   -7.79774   -3.99399        -8.619865       8.615196      -0.004669
   1670   -3.65296   -9.82550   -0.11750        -7.454515       7.458338       0.003823
   1671   -4.57951   -8.92888    0.79761        -7.711707       7.714618       0.002910
   1672   -4.57951   -8.92888   -1.03262        -7.744672       7.745733       0.001061
   1673   -2.18371   -9.27842   -3.07888        -7.924412       7.924813       0.000402
   1674   -3.09882   -9.84400   -1.59819        -7.539739       7.542512       0.002773
   1675   -3.88707   -8.58599   -2.73598        -8.012817       8.011857      -0.000961
   1676   -2.18371  -10.40957   -0.11750        -7.363491       7.368274       0.004782
   1677   -1.26859  -10.20430   -1.73581        -7.588982       7.592216       0.003234
   1678   -0.35348  -10.40957   -0.11750        -7.525544       7.529918       0.004374
   1679   -3.88707   -8.58599    2.50098        -7.892669       7.897940       0.005271
   1680   -3.09882   -9.84400    1.36318        -7.451034       7.456211       0.005177
   1681   -2.18371   -9.27842    2.84387        -7.691447       7.697083       0.005636
   1682   -1.26859  -10.20430    1.50081        -7.447730       7.453046       0.005316
   1683   -5.39190   -0.66976   -2.75489       -11.176897      11.174003      -0.002895

 NET CHARGES:
 -------------------------------------
 ATOM                CHARGE    E.S.D.
 -------------------------------------
 C                  -0.6482    0.1265
 H                   0.2260    0.0186
 C                  -0.2128    0.1244
 C                   0.0422    0.0941
 O                  -0.4910    0.1127
 H                   0.1907    0.0105
 C                   0.6603    0.0573
 O                  -0.5001    0.0120
 H                   0.0933    0.0094
 O                  -0.6191    0.0240
 H                   0.0309    0.0068
 O                  -0.6745    0.0196
 H                   0.5182    0.0525
 H                   0.4143    0.0029
 C                   0.2104    0.0990
 H                   0.2197    0.0107
 O                  -0.7089    0.0454
 H                   0.1244    0.0090
 H                   0.5499    0.0231
 H                   0.5742    0.0309
 -------------------------------------

 RMS DEVIATION IS            1.266 KCAL/MOLE
 RELATIVE RMS DEVIATION IS  14.537 %

 MULTIPOLE MOMENTS:
 ---------------------------------------------------------
 STATUS  ACTUAL VALUE       QUANTITY        FITTED VALUE 
 ---------------------------------------------------------
 FIXED       0.0000       TOTAL CHARGE         0.0000
             2.2067 D    DIPOLE MOMENT         2.1954 D
 FREE       -0.3928 D          DX             -0.3860 D
 FREE        2.1400 D          DY              2.1373 D
 FREE        0.3680 D          DZ              0.3205 D
 FREE        0.0000 BU         QXX            -0.2273 BU
 FREE        0.0000 BU         QYY            10.2289 BU
 FREE        0.0000 BU         QZZ           -10.0016 BU
 FREE        0.0000 BU         QXY             1.5478 BU
 FREE        0.0000 BU         QXZ            -0.0889 BU
 FREE        0.0000 BU         QYZ            -8.4028 BU
 ---------------------------------------------------------
 ...... END OF PROPERTY EVALUATION ......
 CPU     0: STEP CPU TIME=     0.50 TOTAL CPU TIME=         14.4 (      0.2 MIN)
 TOTAL WALL CLOCK TIME=         28.8 SECONDS, CPU UTILIZATION IS    49.84%
               792378  WORDS OF DYNAMIC MEMORY USED
 EXECUTION OF GAMESS TERMINATED NORMALLY Fri May 22 15:20:30 2020
 DDI: 263640 bytes (0.3 MB / 0 MWords) used by master data server.
Note: The following floating-point exceptions are signalling: IEEE_UNDERFLOW_FLAGNote: The following floating-point exceptions are signalling: IEEE_UNDERFLOW_FLAGNote: The following floating-point exceptions are signalling: IEEE_DENORMAL
Note: The following floating-point exceptions are signalling:
 ----------------------------------------
 CPU timing information for all processes
 ========================================
 0: 14.52 + 0.327 = 14.380
 1: 14.171 + 0.56 = 14.228
 2: 14.230 + 0.77 = 14.307
 3: 13.601 + 0.56 = 13.658
 4: 13.616 + 0.122 = 13.739
 5: 13.970 + 0.52 = 14.22
 6: 13.753 + 0.61 = 13.814
 7: 13.776 + 0.96 = 13.872
 ----------------------------------------
 IEEE_DENORMAL IEEE_UNDERFLOW_FLAG IEEE_DENORMAL IEEE_UNDERFLOW_FLAGNote: The following floating-point exceptions are signalling: IEEE_UNDERFLOW_FLAGNote: The following floating-point exceptions are signalling: IEEE_UNDERFLOW_FLAG
Note: The following floating-point exceptions are signalling: IEEE_UNDERFLOW_FLAGNote: The following floating-point exceptions are signalling: IEEE_UNDERFLOW_FLAG
 IEEE_DENORMAL
 IEEE_DENORMAL
 IEEE_DENORMAL
 IEEE_DENORMAL
 IEEE_DENORMAL
 ddikick.x: exited gracefully.
unset echo
----- accounting info -----
Files used on the master node pietdev were:
-rwxr-xr-x 1 piet piet     1305 mei 22 15:20 /home/piet/scr/c-d-ribose_charge_geodisk.F05*
-rw-r--r-- 1 piet piet 50790400 mei 22 15:20 /home/piet/scr/c-d-ribose_charge_geodisk.F10
ls: No match.
ls: No match.
ls: No match.
vr 22 mei 2020 15:20:33 CEST
0.120u 0.026s 0:31.99 0.4%	0+0k 0+8io 0pf+0w
