----- GAMESS execution script 'rungms' -----
This job is running on host pietdev
under operating system Linux at vr 22 mei 2020 15:00:20 CEST
Available scratch disk space (Kbyte units) at beginning of the job is
Filesystem     1K-blocks     Used Available Use% Mounted on
/dev/sda2      244568380 31372548 200702776  14% /
GAMESS temporary binary files will be written to /home/piet/scr
GAMESS supplementary output files will be written to /home/piet/gamess/scr
Copying input file c-d-ribose_geoopt.inp to your run's scratch directory...
cp c-d-ribose_geoopt.inp /home/piet/scr/c-d-ribose_geoopt.F05
unset echo
 
Assuming a single but multicore node.
 
/home/piet/gamess/ddikick.x /home/piet/gamess/gamess.03.x c-d-ribose_geoopt -ddi 1 8 pietdev:cpus=8 -scr /home/piet/scr

 Distributed Data Interface kickoff program.
 Initiating 8 compute processes on 1 nodes to run the following command:
 /home/piet/gamess/gamess.03.x c-d-ribose_geoopt 

          ******************************************************
          *         GAMESS VERSION = 30 SEP 2019 (R2)          *
          *             FROM IOWA STATE UNIVERSITY             *
          * M.W.SCHMIDT, K.K.BALDRIDGE, J.A.BOATZ, S.T.ELBERT, *
          *   M.S.GORDON, J.H.JENSEN, S.KOSEKI, N.MATSUNAGA,   *
          *          K.A.NGUYEN, S.J.SU, T.L.WINDUS,           *
          *       TOGETHER WITH M.DUPUIS, J.A.MONTGOMERY       *
          *         J.COMPUT.CHEM.  14, 1347-1363(1993)        *
          **************** 64 BIT LINUX VERSION ****************

  SINCE 1993, STUDENTS AND POSTDOCS WORKING AT IOWA STATE UNIVERSITY
  AND ALSO IN THEIR VARIOUS JOBS AFTER LEAVING ISU HAVE MADE IMPORTANT
  CONTRIBUTIONS TO THE CODE:
     IVANA ADAMOVIC, CHRISTINE AIKENS, YURI ALEXEEV, POOJA ARORA,
     ANDREY ASADCHEV, ROB BELL, PRADIPTA BANDYOPADHYAY, JONATHAN BENTZ,
     COLLEEN BERTONI, BRETT BODE, KURT BRORSEN, CALEB CARLIN, GALINA CHABAN,
     WEI CHEN, CHEOL HO CHOI, PAUL DAY, ALBERT DEFUSCO, NUWAN DESILVA,
     TIM DUDLEY, DMITRI FEDOROV, ALEX FINDLATER, GRAHAM FLETCHER, 
     MARK FREITAG, KURT GLAESEMANN, EMILIE B GUIDEZ, ANASTASIA GUNINA, 
     DAN KEMP, SAROM SOK LEANG, GRANT MERRILL,
     NORIYUKI MINEZAWA, JONATHAN MULLIN,
     TAKESHI NAGATA, SEAN NEDD, HEATHER NETZLOFF, BOSILJKA NJEGIC, RYAN OLSON,
     MIKE PAK, BUU PHAM, DAVID POOLE,
     SPENCER PRUITT, LUKE ROSKOP, TOSAPORN SATTASATHUCHANA,
     JIM SHOEMAKER, LYUDMILA SLIPCHENKO,
     TONY SMITH, JIE SONG, TETSUYA TAKETSUGU, SIMON WEBB,
     JORGE LUIS GALVEZ VALLEJO, PENG XU, SOOHAENG YOO,
     FEDERICO ZAHARIEV

  ADDITIONAL CODE HAS BEEN PROVIDED BY COLLABORATORS IN OTHER GROUPS:
     IOWA STATE UNIVERSITY:
          JOE IVANIC, AARON WEST, LAIMUTIS BYTAUTAS, KLAUS RUEDENBERG
     UNIVERSITY OF TOKYO: KIMIHIKO HIRAO, TAKAHITO NAKAJIMA,
          TAKAO TSUNEDA, MUNEAKI KAMIYA, SUSUMU YANAGISAWA,
          KIYOSHI YAGI, MAHITO CHIBA, SEIKEN TOKURA, NAOAKI KAWAKAMI
     UNIVERSITY OF AARHUS: FRANK JENSEN
     UNIVERSITY OF IOWA: VISVALDAS KAIRYS, HUI LI
     NATIONAL INST. OF STANDARDS AND TECHNOLOGY: WALT STEVENS, DAVID GARMER
     UNIVERSITY OF PISA: BENEDETTA MENNUCCI, JACOPO TOMASI
     UNIVERSITY OF MEMPHIS: HENRY KURTZ, PRAKASHAN KORAMBATH
     UNIVERSITY OF ALBERTA: TOBY ZENG, MARIUSZ KLOBUKOWSKI
     UNIVERSITY OF NEW ENGLAND: MARK SPACKMAN
     MIE UNIVERSITY: HIROAKI UMEDA
     NAT. INST. OF ADVANCED INDUSTRIAL SCIENCE AND TECHNOLOGY: KAZUO KITAURA
     MICHIGAN STATE UNIVERSITY:
          KAROL KOWALSKI, MARTA WLOCH, JEFFREY GOUR, JESSE LUTZ,
          WEI LI, JUN SHEN, J. EMILIANO DEUSTUA, PIOTR PIECUCH
     UNIVERSITY OF MINNESOTA:
          ANDREW SAND, PRACHI SHARMA, YINAN SHU
     UNIVERSITY OF SILESIA: MONIKA MUSIAL, STANISLAW KUCHARSKI
     FACULTES UNIVERSITAIRES NOTRE-DAME DE LA PAIX:
          OLIVIER QUINET, BENOIT CHAMPAGNE
     UNIVERSITY OF CALIFORNIA - SANTA BARBARA: BERNARD KIRTMAN
     INSTITUTE FOR MOLECULAR SCIENCE:
          KAZUYA ISHIMURA, MICHIO KATOUDA, AND SHIGERU NAGASE
     UNIVERSITY OF NOTRE DAME: ANNA POMOGAEVA, DAN CHIPMAN
     KYUSHU UNIVERSITY:
          HARUYUKI NAKANO,
          FENG LONG GU, JACEK KORCHOWIEC, MARCIN MAKOWSKI, AND YURIKO AOKI,
          HIROTOSHI MORI AND EISAKU MIYOSHI
     PENNSYLVANIA STATE UNIVERSITY:
          TZVETELIN IORDANOV, CHET SWALINA, JONATHAN SKONE,
          SHARON HAMMES-SCHIFFER
     WASEDA UNIVERSITY:
          MASATO KOBAYASHI, TOMOKO AKAMA, TSUGUKI TOUMA,
          TAKESHI YOSHIKAWA, YASUHIRO IKABATA, JUNJI SEINO,
          YUYA NAKAJIMA, HIROMI NAKAI
     NANJING UNIVERSITY: SHUHUA LI
     UNIVERSITY OF NEBRASKA:
          PEIFENG SU, DEJUN SI, NANDUN THELLAMUREGE, YALI WANG, HUI LI
     UNIVERSITY OF ZURICH: ROBERTO PEVERATI, KIM BALDRIDGE
     N. COPERNICUS UNIVERSITY AND JACKSON STATE UNIVERSITY:
          MARIA BARYSZ
     UNIVERSITY OF COPENHAGEN: Jimmy Kromann, CASPER STEINMANN
     TOKYO INSTITUTE OF TECHNOLOGY: HIROYA NAKATA
     NAGOYA UNIVERSITY: YOSHIO NISHIMOTO, STEPHAN IRLE
     MOSCOW STATE UNIVERSITY: VLADIMIR MIRONOV
     A.N.NESMEYANOV INSTITUTE OF ORGANOELEMENT COMPOUNDS OF RUSSIAN ACADEMY OF SCIENCES:
          IGOR S. GERASIMOV
     JOHANNES KEPLER UNIVERSITY LINZ:
          CHRISTIAN FRIEDL


 PARALLEL VERSION RUNNING ON        8 PROCESSORS IN        1 NODES.

 EXECUTION OF GAMESS BEGUN Fri May 22 15:00:20 2020

            ECHO OF THE FIRST FEW INPUT CARDS -
 INPUT CARD> $BASIS GBASIS=N21 NGAUSS=3 $END                                                
 INPUT CARD> $CONTRL SCFTYP=RHF RUNTYP=OPTIMIZE DFTTYP=B3LYP MAXIT=60 MULT=1 ICHARG=0 $END  
 INPUT CARD> $SYSTEM MEMDDI=1000 MWORDS=30 $END                                             
 INPUT CARD> $STATPT NSTEP=999 $END                                                         
 INPUT CARD> $SCF DIRSCF=.TRUE. $END                                                        
 INPUT CARD> $DATA                                                                          
 INPUT CARD>                                                                                
 INPUT CARD>C1                                                                              
 INPUT CARD>C 6.0000000 -1.74157500 -1.69589240 1.07466310                                  
 INPUT CARD>H 1.0000000 -1.94712770 -0.63748610 1.20380260                                  
 INPUT CARD>C 6.0000000 -0.94807930 2.26791640 -1.28163260                                  
 INPUT CARD>C 6.0000000 -0.43719940 3.22901700 -2.05654350                                  
 INPUT CARD>O 8.0000000 -0.21674700 1.30673030 -0.62885040                                  
 INPUT CARD>H 1.0000000 -2.01399450 2.17981560 -1.11430740                                  
 INPUT CARD>C 6.0000000 3.06873520 -0.38153480 -0.89089940                                  
 INPUT CARD>O 8.0000000 0.91860060 3.27415610 -2.30625060                                   
 INPUT CARD>H 1.0000000 -1.07715490 3.95553110 -2.54682210                                  
 INPUT CARD>O 8.0000000 2.50892270 0.68988380 -0.73353320                                   
 INPUT CARD>H 1.0000000 4.16227410 -0.47473730 -0.94820430                                  
 INPUT CARD>O 8.0000000 2.48793270 -1.56543670 -1.01455820                                  
 INPUT CARD>H 1.0000000 0.75078180 1.39745460 -0.77562630                                   
 INPUT CARD>H 1.0000000 1.18652960 4.16868410 -2.54711200                                   
 INPUT CARD>C 6.0000000 -0.90229790 -2.15330200 0.14238280                                  
 INPUT CARD>H 1.0000000 -2.23704180 -2.39698400 1.73582570                                  
 INPUT CARD>O 8.0000000 -0.21266270 -1.39499510 -0.76846850                                 
 INPUT CARD>H 1.0000000 -0.68472650 -3.20935190 0.01168970                                  
 INPUT CARD>H 1.0000000 1.49489210 -1.49646370 -0.94232420                                  
 INPUT CARD>H 1.0000000 -0.41170200 -0.43061490 -0.67739110                                 
 INPUT CARD> $END                                                                           
   30000000 WORDS OF MEMORY AVAILABLE

     BASIS OPTIONS
     -------------
     GBASIS=N21          IGAUSS=       3      POLAR=NONE    
     NDFUNC=       0     NFFUNC=       0     DIFFSP=       F
     NPFUNC=       0      DIFFS=       F     BASNAM=        


     RUN TITLE
     ---------
                                                                                 

 THE POINT GROUP OF THE MOLECULE IS C1      
 THE ORDER OF THE PRINCIPAL AXIS IS     0

 ATOM      ATOMIC                      COORDINATES (BOHR)
           CHARGE         X                   Y                   Z
 C           6.0    -3.2910995371       -3.2047719407        2.0308187881
 H           1.0    -3.6795378161       -1.2046740500        2.2748570573
 C           6.0    -1.7916100916        4.2857405591       -2.4219344309
 C           6.0    -0.8261870680        6.1019573397       -3.8863036968
 O           8.0    -0.4095924387        2.4693622069       -1.1883549433
 H           1.0    -3.8058977458        4.1192541878       -2.1057356521
 C           6.0     5.7990686569       -0.7209962268       -1.6835557486
 O           8.0     1.7359034262        6.1872578700       -4.3581816930
 H           1.0    -2.0355276073        7.4748699149       -4.8127959085
 O           8.0     4.7411764274        1.3036913454       -1.3861767509
 H           1.0     7.8655575348       -0.8971234132       -1.7918463074
 O           8.0     4.7015110789       -2.9582464141       -1.9172369966
 H           1.0     1.4187718786        2.6408062743       -1.4657211759
 H           1.0     2.2422158203        7.8776706784       -4.8133437400
 C           6.0    -1.7050957903       -4.0691507488        0.2690644774
 H           1.0    -4.2273960251       -4.5296429570        3.2802349354
 O           8.0    -0.4018742308       -2.6361584932       -1.4521948952
 H           1.0    -1.2939454615       -6.0647956892        0.0220903299
 H           1.0     2.8249364502       -2.8279063436       -1.7807345296
 H           1.0    -0.7780039686       -0.8137441672       -1.2800835655

          INTERNUCLEAR DISTANCES (ANGS.)
          ------------------------------

                1 C          2 H          3 C          4 C          5 O     

   1 C       0.0000000    1.0858880 *  4.6790539    5.9800153    3.7739637  
   2 H       1.0858880 *  0.0000000    3.9518160    5.2782181    3.1832078  
   3 C       4.6790539    3.9518160    0.0000000    1.3361136 *  1.3728985 *
   4 C       5.9800153    5.2782181    1.3361136 *  0.0000000    2.4045983 *
   5 O       3.7739637    3.1832078    1.3728985 *  2.4045983 *  0.0000000  
   6 H       4.4594749    3.6490127    1.0825593 *  2.1153995 *  2.0562211 *
   7 C       5.3600425    5.4417064    4.8277389    5.1658869    3.7031476  
   8 O       6.5733168    5.9861354    2.3551761 *  1.3793422 *  2.8237298 *
   9 H       6.7450127    5.9933167    2.1131513 *  1.0852368 *  3.3815770  
  10 O       5.1988684    5.0370196    3.8394612    4.1081856    2.7965574 *
  11 H       6.3591388    6.4793836    5.8093920    6.0084414    4.7382950  
  12 O       4.7191736    5.0449953    5.1548136    5.7121727    3.9640139  
  13 H       4.3822607    3.9163552    1.9748102 *  2.5311399 *  0.9827950 *
  14 H       7.4889458    6.8548115    3.1258457    1.9391048 *  3.7201737  
  15 C       1.3351989 *  2.1250833 *  4.6451144    5.8327482    3.6106238  
  16 H       1.0835833 *  1.8608954 *  5.7033126    7.0195003    4.8364019  
  17 O       2.4135547 *  2.7335036 *  3.7710868    4.8053139    2.7053336 *
  18 H       2.1301176 *  3.1031087    5.6340487    6.7669382    4.5852257  
  19 H       3.8187339    4.1462276    4.5004219    5.2253832    3.2993743  
  20 H       2.5375546 *  2.4370510 *  2.8168918 *  3.9109611    1.7489231 *

                6 H          7 C          8 O          9 H         10 O     

   1 C       4.4594749    5.3600425    6.5733168    6.7450127    5.1988684  
   2 H       3.6490127    5.4417064    5.9861354    5.9933167    5.0370196  
   3 C       1.0825593 *  4.8277389    2.3551761 *  2.1131513 *  3.8394612  
   4 C       2.1153995 *  5.1658869    1.3793422 *  1.0852368 *  4.1081856  
   5 O       2.0562211 *  3.7031476    2.8237298 *  3.3815770    2.7965574 *
   6 H       0.0000000    5.6960134    3.3493915    2.4663601 *  4.7772027  
   7 C       5.6960134    0.0000000    4.4710596    6.2241968    1.2190537 *
   8 O       3.3493915    4.4710596    0.0000000    2.1225425 *  3.4177519  
   9 H       2.4663601 *  6.2241968    2.1225425 *  0.0000000    5.1780712  
  10 O       4.7772027    1.2190537 *  3.4177519    5.1780712    0.0000000  
  11 H       6.7246216    1.0989986 *  5.1400301    7.0451738    2.0337150 *
  12 O       5.8569799    1.3244798 *  5.2490886    6.7482418    2.2728586 *
  13 H       2.8932303 *  2.9242091 *  2.4275466 *  3.6086344    1.8956497 *
  14 H       4.0313622    5.1952122    0.9643550 *  2.2736978 *  4.1400294  
  15 C       4.6466168    4.4694446    6.2264579    6.6768436    4.5262965  
  16 H       5.3963046    6.2540379    7.6458021    7.7486036    6.1766225  
  17 O       4.0179189    3.4365191    5.0443536    5.7042106    3.4285518  
  18 H       5.6637399    4.7853622    7.0696097    7.6181055    5.0949771  
  19 H       5.0849673    1.9294282 *  4.9951197    6.2381156    2.4190839 *
  20 H       3.0939594    3.4873253    4.2600724    4.8141330    3.1286927  

               11 H         12 O         13 H         14 H         15 C     

   1 C       6.3591388    4.7191736    4.3822607    7.4889458    1.3351989 *
   2 H       6.4793836    5.0449953    3.9163552    6.8548115    2.1250833 *
   3 C       5.8093920    5.1548136    1.9748102 *  3.1258457    4.6451144  
   4 C       6.0084414    5.7121727    2.5311399 *  1.9391048 *  5.8327482  
   5 O       4.7382950    3.9640139    0.9827950 *  3.7201737    3.6106238  
   6 H       6.7246216    5.8569799    2.8932303 *  4.0313622    4.6466168  
   7 C       1.0989986 *  1.3244798 *  2.9242091 *  5.1952122    4.4694446  
   8 O       5.1400301    5.2490886    2.4275466 *  0.9643550 *  6.2264579  
   9 H       7.0451738    6.7482418    3.6086344    2.2736978 *  6.6768436  
  10 O       2.0337150 *  2.2728586 *  1.8956497 *  4.1400294    4.5262965  
  11 H       0.0000000    1.9993617 *  3.8952748    5.7422055    5.4458102  
  12 O       1.9993617 *  0.0000000    3.4428922    6.0763898    3.6301187  
  13 H       3.8952748    3.4428922    0.0000000    3.3177930    4.0228455  
  14 H       5.7422055    6.0763898    3.3177930    0.0000000    7.1808141  
  15 C       5.4458102    3.6301187    4.0228455    7.1808141    0.0000000  
  16 H       7.2007148    5.5300512    5.4435508    8.5540864    2.0928408 *
  17 O       4.4742878    2.7171356 *  2.9539891 *  6.0063165    1.3712316 *
  18 H       5.6473824    3.7177155    4.8890916    8.0302230    1.0861213 *
  19 H       2.8563764 *  0.9980504 *  2.9926997 *  5.8961285    2.7119266 *
  20 H       4.5821986    3.1319935    2.1686071 *  5.2157216    1.9698641 *

               16 H         17 O         18 H         19 H         20 H     

   1 C       1.0835833 *  2.4135547 *  2.1301176 *  3.8187339    2.5375546 *
   2 H       1.8608954 *  2.7335036 *  3.1031087    4.1462276    2.4370510 *
   3 C       5.7033126    3.7710868    5.6340487    4.5004219    2.8168918 *
   4 C       7.0195003    4.8053139    6.7669382    5.2253832    3.9109611  
   5 O       4.8364019    2.7053336 *  4.5852257    3.2993743    1.7489231 *
   6 H       5.3963046    4.0179189    5.6637399    5.0849673    3.0939594  
   7 C       6.2540379    3.4365191    4.7853622    1.9294282 *  3.4873253  
   8 O       7.6458021    5.0443536    7.0696097    4.9951197    4.2600724  
   9 H       7.7486036    5.7042106    7.6181055    6.2381156    4.8141330  
  10 O       6.1766225    3.4285518    5.0949771    2.4190839 *  3.1286927  
  11 H       7.2007148    4.4742878    5.6473824    2.8563764 *  4.5821986  
  12 O       5.5300512    2.7171356 *  3.7177155    0.9980504 *  3.1319935  
  13 H       5.4435508    2.9539891 *  4.8890916    2.9926997 *  2.1686071 *
  14 H       8.5540864    6.0063165    8.0302230    5.8961285    5.2157216  
  15 C       2.0928408 *  1.3712316 *  1.0861213 *  2.7119266 *  1.9698641 *
  16 H       0.0000000    3.3724742    2.4581028 *  4.6808925    3.6086131  
  17 O       3.3724742    0.0000000    2.0306112 *  1.7193793 *  0.9889089 *
  18 H       2.4581028 *  2.0306112 *  0.0000000    2.9317001 *  2.8758919 *
  19 H       4.6808925    1.7193793 *  2.9317001 *  0.0000000    2.2003010 *
  20 H       3.6086131    0.9889089 *  2.8758919 *  2.2003010 *  0.0000000  

  * ... LESS THAN  3.000


     ATOMIC BASIS SET
     ----------------
 THE CONTRACTED PRIMITIVE FUNCTIONS HAVE BEEN UNNORMALIZED
 THE CONTRACTED BASIS FUNCTIONS ARE NOW NORMALIZED TO UNITY

  SHELL TYPE  PRIMITIVE        EXPONENT          CONTRACTION COEFFICIENT(S)

 C         

      1   S       1           172.2560000    0.061766907377
      1   S       2            25.9109000    0.358794042852
      1   S       3             5.5333500    0.700713083689

      2   L       4             3.6649800   -0.395895162119    0.236459946619
      2   L       5             0.7705450    1.215834355681    0.860618805716

      3   L       6             0.1958570    1.000000000000    1.000000000000

 H         

      4   S       7             5.4471780    0.156284978695
      4   S       8             0.8245472    0.904690876670

      5   S       9             0.1831916    1.000000000000

 C         

      6   S      10           172.2560000    0.061766907377
      6   S      11            25.9109000    0.358794042852
      6   S      12             5.5333500    0.700713083689

      7   L      13             3.6649800   -0.395895162119    0.236459946619
      7   L      14             0.7705450    1.215834355681    0.860618805716

      8   L      15             0.1958570    1.000000000000    1.000000000000

 C         

      9   S      16           172.2560000    0.061766907377
      9   S      17            25.9109000    0.358794042852
      9   S      18             5.5333500    0.700713083689

     10   L      19             3.6649800   -0.395895162119    0.236459946619
     10   L      20             0.7705450    1.215834355681    0.860618805716

     11   L      21             0.1958570    1.000000000000    1.000000000000

 O         

     12   S      22           322.0370000    0.059239393389
     12   S      23            48.4308000    0.351499960776
     12   S      24            10.4206000    0.707657921031

     13   L      25             7.4029400   -0.404453583190    0.244586106967
     13   L      26             1.5762000    1.221561761397    0.853955373466

     14   L      27             0.3736840    1.000000000000    1.000000000000

 H         

     15   S      28             5.4471780    0.156284978695
     15   S      29             0.8245472    0.904690876670

     16   S      30             0.1831916    1.000000000000

 C         

     17   S      31           172.2560000    0.061766907377
     17   S      32            25.9109000    0.358794042852
     17   S      33             5.5333500    0.700713083689

     18   L      34             3.6649800   -0.395895162119    0.236459946619
     18   L      35             0.7705450    1.215834355681    0.860618805716

     19   L      36             0.1958570    1.000000000000    1.000000000000

 O         

     20   S      37           322.0370000    0.059239393389
     20   S      38            48.4308000    0.351499960776
     20   S      39            10.4206000    0.707657921031

     21   L      40             7.4029400   -0.404453583190    0.244586106967
     21   L      41             1.5762000    1.221561761397    0.853955373466

     22   L      42             0.3736840    1.000000000000    1.000000000000

 H         

     23   S      43             5.4471780    0.156284978695
     23   S      44             0.8245472    0.904690876670

     24   S      45             0.1831916    1.000000000000

 O         

     25   S      46           322.0370000    0.059239393389
     25   S      47            48.4308000    0.351499960776
     25   S      48            10.4206000    0.707657921031

     26   L      49             7.4029400   -0.404453583190    0.244586106967
     26   L      50             1.5762000    1.221561761397    0.853955373466

     27   L      51             0.3736840    1.000000000000    1.000000000000

 H         

     28   S      52             5.4471780    0.156284978695
     28   S      53             0.8245472    0.904690876670

     29   S      54             0.1831916    1.000000000000

 O         

     30   S      55           322.0370000    0.059239393389
     30   S      56            48.4308000    0.351499960776
     30   S      57            10.4206000    0.707657921031

     31   L      58             7.4029400   -0.404453583190    0.244586106967
     31   L      59             1.5762000    1.221561761397    0.853955373466

     32   L      60             0.3736840    1.000000000000    1.000000000000

 H         

     33   S      61             5.4471780    0.156284978695
     33   S      62             0.8245472    0.904690876670

     34   S      63             0.1831916    1.000000000000

 H         

     35   S      64             5.4471780    0.156284978695
     35   S      65             0.8245472    0.904690876670

     36   S      66             0.1831916    1.000000000000

 C         

     37   S      67           172.2560000    0.061766907377
     37   S      68            25.9109000    0.358794042852
     37   S      69             5.5333500    0.700713083689

     38   L      70             3.6649800   -0.395895162119    0.236459946619
     38   L      71             0.7705450    1.215834355681    0.860618805716

     39   L      72             0.1958570    1.000000000000    1.000000000000

 H         

     40   S      73             5.4471780    0.156284978695
     40   S      74             0.8245472    0.904690876670

     41   S      75             0.1831916    1.000000000000

 O         

     42   S      76           322.0370000    0.059239393389
     42   S      77            48.4308000    0.351499960776
     42   S      78            10.4206000    0.707657921031

     43   L      79             7.4029400   -0.404453583190    0.244586106967
     43   L      80             1.5762000    1.221561761397    0.853955373466

     44   L      81             0.3736840    1.000000000000    1.000000000000

 H         

     45   S      82             5.4471780    0.156284978695
     45   S      83             0.8245472    0.904690876670

     46   S      84             0.1831916    1.000000000000

 H         

     47   S      85             5.4471780    0.156284978695
     47   S      86             0.8245472    0.904690876670

     48   S      87             0.1831916    1.000000000000

 H         

     49   S      88             5.4471780    0.156284978695
     49   S      89             0.8245472    0.904690876670

     50   S      90             0.1831916    1.000000000000

 TOTAL NUMBER OF BASIS SET SHELLS             =   50
 NUMBER OF CARTESIAN GAUSSIAN BASIS FUNCTIONS =  110
 NUMBER OF ELECTRONS                          =   80
 CHARGE OF MOLECULE                           =    0
 SPIN MULTIPLICITY                            =    1
 NUMBER OF OCCUPIED ORBITALS (ALPHA)          =   40
 NUMBER OF OCCUPIED ORBITALS (BETA )          =   40
 TOTAL NUMBER OF ATOMS                        =   20
 THE NUCLEAR REPULSION ENERGY IS      525.3984613181

 SELECTED MURRAY-HANDY-LAMING RADIAL GRID

 LEGACY BECKE'S FUZZY CELL METHOD

 SELECTED ORIGINAL BECKE'S PARTITION FUNCTION

     LEBEDEV GRID-BASED DFT OPTIONS
     ------------------------------
     DFTTYP=B3LYP   
     NRAD  =      96     NLEB  =     302
     NRAD0 =      24     NLEB0 =     110
     SWOFF =    5.00E-03 (PURE SCF -> DFT)
     SWITCH=    3.00E-04 (COARSE -> TIGHT GRID)
     THRESH=    0.00E+00 GTHRE=    1.00E+00

 GRIMME'S EMPIRICAL DISPERSION CORRECTION= F

     $CONTRL OPTIONS
     ---------------
 SCFTYP=RHF          RUNTYP=OPTIMIZE     EXETYP=RUN     
 MPLEVL=       0     CITYP =NONE         CCTYP =NONE         VBTYP =NONE    
 DFTTYP=B3LYP        TDDFT =NONE    
 MULT  =       1     ICHARG=       0     NZVAR =       0     COORD =UNIQUE  
 PP    =NONE         RELWFN=NONE         LOCAL =NONE         NUMGRD=       F
 ISPHER=      -1     NOSYM =       0     MAXIT =      60     UNITS =ANGS    
 PLTORB=       F     MOLPLT=       F     AIMPAC=       F     FRIEND=        
 NPRINT=       7     IREST =       0     GEOM  =INPUT   
 NORMF =       0     NORMP =       0     ITOL  =      20     ICUT  =       9
 INTTYP=BEST         GRDTYP=BEST         QMTTOL= 1.0E-06

     $SYSTEM OPTIONS
     ---------------
  REPLICATED MEMORY=    30000000 WORDS (ON EVERY NODE).
 DISTRIBUTED MEMDDI=        1000 MILLION WORDS IN AGGREGATE,
 MEMDDI DISTRIBUTED OVER   8 PROCESSORS IS   125000000 WORDS/PROCESSOR.
 TOTAL MEMORY REQUESTED ON EACH PROCESSOR=   155000000 WORDS.
 TIMLIM=      525600.00 MINUTES, OR     365.0 DAYS.
 PARALL= T  BALTYP=  DLB     KDIAG=    0  COREFL= F
 MXSEQ2=     300 MXSEQ3=     150  mem10=         0

          ----------------
          PROPERTIES INPUT
          ----------------

     MOMENTS            FIELD           POTENTIAL          DENSITY
 IEMOM =       1   IEFLD =       0   IEPOT =       0   IEDEN =       0
 WHERE =COMASS     WHERE =NUCLEI     WHERE =NUCLEI     WHERE =NUCLEI  
 OUTPUT=BOTH       OUTPUT=BOTH       OUTPUT=BOTH       OUTPUT=BOTH    
 IEMINT=       0   IEFINT=       0                     IEDINT=       0
                                                       MORB  =       0
          EXTRAPOLATION IN EFFECT
          DIIS IN EFFECT
 ORBITAL PRINTING OPTION: NPREO=     1   110     2     1

     -------------------------------
     INTEGRAL TRANSFORMATION OPTIONS
     -------------------------------
     NWORD  =            0
     CUTOFF = 1.0E-09     MPTRAN =       0
     DIRTRF =       T     AOINTS =DUP     

          ----------------------
          INTEGRAL INPUT OPTIONS
          ----------------------
 NOPK  =       1 NORDER=       0 SCHWRZ=       T

     ------------------------------------------
     THE POINT GROUP IS C1 , NAXIS= 0, ORDER= 1
     ------------------------------------------

     DIMENSIONS OF THE SYMMETRY SUBSPACES ARE
 A   =  110

 ..... DONE SETTING UP THE RUN .....
 CPU     0: STEP CPU TIME=     0.01 TOTAL CPU TIME=          0.0 (      0.0 MIN)
 TOTAL WALL CLOCK TIME=          0.0 SECONDS, CPU UTILIZATION IS    33.33%


          -----------------------------
          STATIONARY POINT LOCATION RUN
          -----------------------------

 OBTAINING INITIAL HESSIAN, HESS=GUESS   
 CARTESIAN COORDINATE OPTIMIZATION USING BADGER'S RULE FORCE CONSTANT GUESS

          PARAMETERS CONTROLLING GEOMETRY SEARCH ARE
          METHOD =QA                  UPHESS =BFGS    
          NNEG   =         0          NFRZ   =         0
          NSTEP  =       999          IFOLOW =         1
          HESS   =GUESS               RESTAR =         F
          IHREP  =         0          HSSEND =         F
          NPRT   =         0          NPUN   =         0
          OPTTOL = 1.000E-04          RMIN   = 1.500E-03
          RMAX   = 1.000E-01          RLIM   = 7.000E-02
          DXMAX  = 3.000E-01          PURIFY =         F
          MOVIE  =         F          TRUPD  =         T
          TRMAX  = 5.000E-01          TRMIN  = 5.000E-02
          ITBMAT =         5          STPT   =         F
          STSTEP = 1.000E-02          PROJCT=          T

 BEGINNING GEOMETRY SEARCH POINT NSERCH=   0 ...

 COORDINATES OF ALL ATOMS ARE (ANGS)
   ATOM   CHARGE       X              Y              Z
 ------------------------------------------------------------
 C           6.0  -1.7415750000  -1.6958924000   1.0746631000
 H           1.0  -1.9471277000  -0.6374861000   1.2038026000
 C           6.0  -0.9480793000   2.2679164000  -1.2816326000
 C           6.0  -0.4371994000   3.2290170000  -2.0565435000
 O           8.0  -0.2167470000   1.3067303000  -0.6288504000
 H           1.0  -2.0139945000   2.1798156000  -1.1143074000
 C           6.0   3.0687352000  -0.3815348000  -0.8908994000
 O           8.0   0.9186006000   3.2741561000  -2.3062506000
 H           1.0  -1.0771549000   3.9555311000  -2.5468221000
 O           8.0   2.5089227000   0.6898838000  -0.7335332000
 H           1.0   4.1622741000  -0.4747373000  -0.9482043000
 O           8.0   2.4879327000  -1.5654367000  -1.0145582000
 H           1.0   0.7507818000   1.3974546000  -0.7756263000
 H           1.0   1.1865296000   4.1686841000  -2.5471120000
 C           6.0  -0.9022979000  -2.1533020000   0.1423828000
 H           1.0  -2.2370418000  -2.3969840000   1.7358257000
 O           8.0  -0.2126627000  -1.3949951000  -0.7684685000
 H           1.0  -0.6847265000  -3.2093519000   0.0116897000
 H           1.0   1.4948921000  -1.4964637000  -0.9423242000
 H           1.0  -0.4117020000  -0.4306149000  -0.6773911000

          ********************
          1 ELECTRON INTEGRALS
          ********************
 ...... END OF ONE-ELECTRON INTEGRALS ......
 CPU     0: STEP CPU TIME=     0.02 TOTAL CPU TIME=          0.0 (      0.0 MIN)
 TOTAL WALL CLOCK TIME=          0.0 SECONDS, CPU UTILIZATION IS    75.00%

          -------------
          GUESS OPTIONS
          -------------
          GUESS =HUCKEL            NORB  =       0          NORDER=       0
          MIX   =       F          PRTMO =       F          PUNMO =       F
          TOLZ  = 1.0E-08          TOLE  = 1.0E-05
          SYMDEN=       F          PURIFY=       F

 INITIAL GUESS ORBITALS GENERATED BY HUCKEL   ROUTINE.
 HUCKEL GUESS REQUIRES    117020 WORDS.

 SYMMETRIES FOR INITIAL GUESS ORBITALS FOLLOW.   BOTH SET(S).
    40 ORBITALS ARE OCCUPIED (   10 CORE ORBITALS).
    11=A       12=A       13=A       14=A       15=A       16=A       17=A   
    18=A       19=A       20=A       21=A       22=A       23=A       24=A   
    25=A       26=A       27=A       28=A       29=A       30=A       31=A   
    32=A       33=A       34=A       35=A       36=A       37=A       38=A   
    39=A       40=A       41=A       42=A       43=A       44=A       45=A   
    46=A       47=A       48=A       49=A       50=A   
 ...... END OF INITIAL ORBITAL SELECTION ......
 CPU     0: STEP CPU TIME=     0.02 TOTAL CPU TIME=          0.0 (      0.0 MIN)
 TOTAL WALL CLOCK TIME=          0.1 SECONDS, CPU UTILIZATION IS    71.43%

                    ----------------------
                    AO INTEGRAL TECHNOLOGY
                    ----------------------
     S,P,L SHELL ROTATED AXIS INTEGRALS, REPROGRAMMED BY
        KAZUYA ISHIMURA (IMS) AND JOSE SIERRA (SYNSTAR).
     S,P,D,L SHELL ROTATED AXIS INTEGRALS PROGRAMMED BY
        KAZUYA ISHIMURA (INSTITUTE FOR MOLECULAR SCIENCE).
     S,P,D,F,G SHELL TO TOTAL QUARTET ANGULAR MOMENTUM SUM 5,
        ERIC PROGRAM BY GRAHAM FLETCHER (ELORET AND NASA ADVANCED
        SUPERCOMPUTING DIVISION, AMES RESEARCH CENTER).
     S,P,D,F,G,L SHELL GENERAL RYS QUADRATURE PROGRAMMED BY
        MICHEL DUPUIS (PACIFIC NORTHWEST NATIONAL LABORATORY).

          --------------------
          2 ELECTRON INTEGRALS
          --------------------

 DIRECT SCF METHOD SKIPS INTEGRAL STORAGE ON DISK.
 DIRECT TRANSFORMATION SKIPS AO INTEGRAL STORAGE ON DISK.
  ...... END OF TWO-ELECTRON INTEGRALS .....
 CPU     0: STEP CPU TIME=     0.01 TOTAL CPU TIME=          0.1 (      0.0 MIN)
 TOTAL WALL CLOCK TIME=          0.1 SECONDS, CPU UTILIZATION IS    85.71%

          --------------------------
             R-B3LYP SCF CALCULATION
          --------------------------

     NUCLEAR ENERGY =       525.3984613181
     MAXIT =   60     NPUNCH=    2
     EXTRAP=T  DAMP=F  SHIFT=F  RSTRCT=F  DIIS=T  DEM=F  SOSCF=F
         DENSITY MATRIX CONVERGENCE THRESHOLD=  2.00E-05
     COARSE -> FINE DFT GRID SWITCH THRESHOLD=  3.00E-04 (SWITCH IN $DFT)
                   HF -> DFT SWITCH THRESHOLD=  5.00E-03 (SWOFF IN $DFT)
     MEMORY REQUIRED FOR RHF ITERS=    792108 WORDS.

 DIRECT SCF CALCULATION, SCHWRZ=T   FDIFF=T,  DIRTHR=  0.00E+00 NITDIR=10
 SCHWARZ INEQUALITY OVERHEAD:      5359 INTEGRALS, T=        0.00

 DFT CODE IS SWITCHING FROM THE FINE GRID NRAD= 96,  NLEB=  302
                      TO THE COARSE GRID NRAD0= 24, NLEB0=  110

     EXCHANGE FUNCTIONAL   =B88&HFX   
     CORRELATION FUNCTIONAL=LYP88&VWN5
     DFT THRESHOLD         =.690E-08
     GRID CHANGE THRESHOLD =.300E-03
 FOR AN EULER-MACLAURIN QUADRATURE USING  96 RADIAL POINTS:
 SMALLEST GAUSSIAN PRIMITIVE EXPONENT=        0.1831915800 OF TYPE -S-
 ON ATOM NUMBER   2 HAS RADIAL NORMALIZATION=  1.000000
  LARGEST GAUSSIAN PRIMITIVE EXPONENT=      322.0370000000 OF TYPE -S-
 ON ATOM NUMBER   5 HAS RADIAL NORMALIZATION=  1.000000
 DFT IS SWITCHED OFF, PERFORMING PURE SCF UNTIL SWOFF THRESHOLD IS REACHED.

                                                                                   NONZERO     BLOCKS
 ITER EX DEM     TOTAL ENERGY        E CHANGE  DENSITY CHANGE    DIIS ERROR      INTEGRALS    SKIPPED
   1  0  0     -564.7143662583  -564.7143662583   0.697198752   0.729790152        7449343     516967
          * * *   INITIATING DIIS PROCEDURE   * * *
   2  1  0     -566.1565093601    -1.4421431018   0.140272149   0.163851902        7426793     526320
   3  2  0     -566.2324362384    -0.0759268783   0.060500348   0.125820919        7321325     543950
   4  3  0     -566.2653348456    -0.0328986071   0.025883405   0.022621664        7104338     562915
   5  4  0     -566.2677520750    -0.0024172294   0.005009646   0.005213162        6974605     571580
   6  5  0     -566.2678970965    -0.0001450216   0.001607049   0.001648982        6556894     591454
 CONVERGED TO SWOFF, SO DFT CALCULATION IS NOW SWITCHED ON.
          * * *   INITIATING DIIS PROCEDURE   * * *
   7  6  0     -569.1067524981    -2.8388554016   0.091198490   0.085035760        7458819     514058
   8  7  0     -569.1533850587    -0.0466325606   0.062699726   0.063098580        7362952     539311
   9  8  0     -569.1549342695    -0.0015492108   0.034857880   0.077856594        7224897     554017
  10  9  0     -569.1655189718    -0.0105847023   0.013472157   0.027918564        7095584     565307
  11 10  0     -569.1664533778    -0.0009344061   0.003286499   0.009719297        6718824     583706
  12 11  0     -569.1665559342    -0.0001025564   0.000505828   0.000480745        6227596     606706
  13 12  0     -569.1665570320    -0.0000010978   0.000253390   0.000385385        5826846     621387
 DFT CODE IS SWITCHING BACK TO THE FINE GRID
          * * *   INITIATING DIIS PROCEDURE   * * *
  14 13  0     -569.1709386092    -0.0043815771   0.002023493   0.001584376        7463635     512039
  15 14  0     -569.1709695937    -0.0000309846   0.001657124   0.001400833        6357064     600766
  16 15  0     -569.1709706475    -0.0000010538   0.000606216   0.001691594        6155842     610975
  17 16  0     -569.1709765941    -0.0000059466   0.000262858   0.000588997        5840429     622799
  18 17  0     -569.1709770259    -0.0000004318   0.000056538   0.000163760        5344091     642624
  19 18  0     -569.1709770604    -0.0000000345   0.000015734   0.000014704        4827592     658739
  20 19  0     -569.1709770620    -0.0000000016   0.000005018   0.000005895        4265537     678088

          -----------------
          DENSITY CONVERGED
          -----------------
     TIME TO FORM FOCK OPERATORS=      11.7 SECONDS (       0.6 SEC/ITER)
     FOCK TIME ON FIRST ITERATION=       0.1, LAST ITERATION=       1.4
     TIME TO SOLVE SCF EQUATIONS=       0.3 SECONDS (       0.0 SEC/ITER)

 FINAL R-B3LYP ENERGY IS     -569.1709770620 AFTER  20 ITERATIONS
 DFT EXCHANGE + CORRELATION ENERGY =       -59.2113624943
 TOTAL ELECTRON NUMBER             =        80.0000563358

          ------------
          EIGENVECTORS
          ------------

                      1          2          3          4          5
                  -19.0655   -19.0638   -19.0610   -19.0533   -19.0327
                     A          A          A          A          A   
    1  C  1  S    0.000006   0.000150   0.000002   0.000004  -0.000003
    2  C  1  S    0.000038   0.000720   0.000033   0.000033  -0.000031
    3  C  1  X   -0.000046  -0.000057   0.000101   0.000012  -0.000020
    4  C  1  Y   -0.000043   0.000977  -0.000024   0.000017   0.000000
    5  C  1  Z    0.000016  -0.000073  -0.000120  -0.000014   0.000039
    6  C  1  S   -0.000503  -0.003264   0.000163  -0.000072   0.000017
    7  C  1  X    0.000014  -0.003243  -0.000333  -0.000049   0.000049
    8  C  1  Y    0.000243  -0.010344   0.001196  -0.000000  -0.000180
    9  C  1  Z    0.000046   0.005101   0.000254   0.000046  -0.000128
   10  H  2  S   -0.000040   0.001845   0.000055  -0.000008  -0.000016
   11  H  2  S    0.000047   0.003490  -0.001173   0.000015   0.000184
   12  C  3  S   -0.000005  -0.000006  -0.000472   0.000162   0.000035
   13  C  3  S   -0.000032  -0.000007  -0.001005   0.000510   0.000234
   14  C  3  X   -0.000012  -0.000032   0.000313   0.000408   0.000220
   15  C  3  Y    0.000022  -0.000188  -0.001354  -0.000339   0.000009
   16  C  3  Z    0.000005  -0.000050   0.000907   0.000170  -0.000003
   17  C  3  S    0.000105   0.000080   0.016475  -0.005089  -0.000814
   18  C  3  X    0.000207  -0.000765   0.017812  -0.013261  -0.001171
   19  C  3  Y   -0.000073   0.000532  -0.008884   0.003122   0.000428
   20  C  3  Z   -0.000000  -0.000344   0.004887  -0.000692  -0.000220
   21  C  4  S    0.000001  -0.000001   0.000219  -0.000503   0.000007
   22  C  4  S   -0.000002   0.000026   0.000807  -0.001170   0.000083
   23  C  4  X    0.000003  -0.000054   0.000685   0.001416   0.000072
   24  C  4  Y    0.000003   0.000023  -0.000122   0.000879  -0.000076
   25  C  4  Z   -0.000006   0.000016   0.000070  -0.000757   0.000044
   26  C  4  S   -0.000061  -0.000198  -0.005786   0.017012   0.000143
   27  C  4  X   -0.000099   0.000708  -0.012806   0.019745   0.000161
   28  C  4  Y    0.000067  -0.000161   0.007141  -0.005915  -0.000107
   29  C  4  Z   -0.000019   0.000004  -0.003980   0.001562   0.000068
   30  O  5  S   -0.001549   0.056434   0.980596   0.028906  -0.003752
   31  O  5  S   -0.000185   0.006675   0.106574   0.001959  -0.000015
   32  O  5  X    0.000012  -0.000105   0.000610   0.000246   0.000322
   33  O  5  Y    0.000032  -0.000754   0.002356  -0.000167   0.000012
   34  O  5  Z   -0.000011  -0.000049  -0.002283   0.000070   0.000027
   35  O  5  S    0.000098  -0.003603  -0.056476   0.004318  -0.000942
   36  O  5  X   -0.000075   0.000274  -0.000073  -0.001441  -0.001395
   37  O  5  Y   -0.000194   0.002938  -0.008164   0.002392   0.000106
   38  O  5  Z    0.000065  -0.000077   0.007089  -0.001582  -0.000172
   39  H  6  S    0.000011  -0.000012   0.000565  -0.001529  -0.000018
   40  H  6  S    0.000093  -0.000485   0.004728  -0.004142  -0.000483
   41  C  7  S   -0.000239   0.000079  -0.000035  -0.000009   0.000145
   42  C  7  S    0.000137   0.000402  -0.000290  -0.000080   0.000721
   43  C  7  X   -0.001560  -0.000219   0.000025  -0.000001  -0.000769
   44  C  7  Y   -0.001768   0.000212  -0.000372  -0.000105   0.001985
   45  C  7  Z   -0.000146   0.000044  -0.000072  -0.000022   0.000267
   46  C  7  S    0.015230  -0.002914  -0.000741  -0.000277   0.019943
   47  C  7  X   -0.007445   0.002609   0.000108   0.000111  -0.013509
   48  C  7  Y   -0.010726   0.001823  -0.001575  -0.000441   0.015209
   49  C  7  Z   -0.001029   0.000114  -0.000245  -0.000072   0.002461
   50  O  8  S   -0.000261   0.000802  -0.029339   0.982131  -0.001470
   51  O  8  S   -0.000042   0.000134  -0.004376   0.105825  -0.000051
   52  O  8  X    0.000002  -0.000018   0.000317  -0.003068   0.000026
   53  O  8  Y    0.000003   0.000025  -0.000267   0.002210  -0.000115
   54  O  8  Z   -0.000002  -0.000015   0.000093   0.000166   0.000075
   55  O  8  S    0.000074  -0.000338   0.008297  -0.054201  -0.000142
   56  O  8  X   -0.000025   0.000147  -0.003256   0.010830  -0.000015
   57  O  8  Y   -0.000015  -0.000064   0.000246  -0.003474   0.000356
   58  O  8  Z    0.000010   0.000021   0.000548  -0.001625  -0.000228
   59  H  9  S   -0.000013   0.000077  -0.001569   0.000590   0.000065
   60  H  9  S   -0.000034   0.000244  -0.004861   0.004401  -0.000044
   61  O 10  S    0.003765  -0.000719   0.003811   0.001599   0.982604
   62  O 10  S    0.001056  -0.000202   0.000728   0.000274   0.106315
   63  O 10  X   -0.000621   0.000073  -0.000701  -0.000201   0.001370
   64  O 10  Y   -0.000416   0.000020   0.000385   0.000119  -0.003926
   65  O 10  Z   -0.000023   0.000009  -0.000008  -0.000005  -0.000594
   66  O 10  S   -0.001976   0.000694  -0.000151  -0.000090  -0.057344
   67  O 10  X    0.002875  -0.000519   0.002568   0.000767  -0.004973
   68  O 10  Y    0.003209  -0.000465  -0.001625  -0.000521   0.013550
   69  O 10  Z    0.000271  -0.000066  -0.000040  -0.000008   0.002018
   70  H 11  S   -0.000641   0.000052   0.000058   0.000015   0.000116
   71  H 11  S    0.000795  -0.000914  -0.000017  -0.000039   0.003821
   72  O 12  S    0.978153  -0.092931   0.006854   0.000530  -0.003651
   73  O 12  S    0.105947  -0.009444   0.000641   0.000038   0.000310
   74  O 12  X   -0.001080  -0.000335   0.000165   0.000043  -0.000876
   75  O 12  Y    0.003624  -0.000509   0.000043   0.000002   0.000507
   76  O 12  Z    0.000549  -0.000042  -0.000010  -0.000004   0.000100
   77  O 12  S   -0.054466   0.003600  -0.000219  -0.000009  -0.001436
   78  O 12  X    0.001482   0.001911  -0.000829  -0.000213   0.004290
   79  O 12  Y   -0.010936   0.001926  -0.000238  -0.000026  -0.003603
   80  O 12  Z   -0.001556   0.000119   0.000039   0.000014  -0.000637
   81  H 13  S    0.000197   0.000547   0.003032  -0.000820  -0.000680
   82  H 13  S   -0.000125  -0.000714   0.007392   0.002684   0.003534
   83  H 14  S   -0.000000   0.000046  -0.000658   0.003098  -0.000091
   84  H 14  S    0.000008  -0.000046   0.000697   0.004810  -0.000116
   85  C 15  S   -0.000015  -0.000407   0.000051   0.000007  -0.000010
   86  C 15  S    0.000036  -0.000647   0.000247   0.000044  -0.000100
   87  C 15  X    0.000310   0.001110  -0.000115  -0.000015  -0.000063
   88  C 15  Y   -0.000002   0.000700   0.000234   0.000037  -0.000079
   89  C 15  Z   -0.000049  -0.001284   0.000059   0.000004   0.000037
   90  C 15  S    0.000505   0.014788  -0.001045  -0.000128  -0.000010
   91  C 15  X   -0.000283   0.005167  -0.000926  -0.000079   0.000223
   92  C 15  Y    0.000043   0.014136  -0.001954  -0.000178   0.000400
   93  C 15  Z    0.000249  -0.007921   0.001371   0.000134  -0.000124
   94  H 16  S    0.000033  -0.001410   0.000116   0.000007  -0.000016
   95  H 16  S    0.000154  -0.004058  -0.000030  -0.000043   0.000031
   96  O 17  S    0.093286   0.976596  -0.055879  -0.002415   0.000557
   97  O 17  S    0.010697   0.106040  -0.005469  -0.000159  -0.000031
   98  O 17  X    0.000748  -0.001846   0.000030  -0.000007   0.000055
   99  O 17  Y    0.000020   0.000623   0.000431   0.000075   0.000054
  100  O 17  Z    0.000070   0.002659  -0.000215  -0.000013   0.000029
  101  O 17  S   -0.005653  -0.055411   0.001469  -0.000194   0.000341
  102  O 17  X   -0.002819   0.006066  -0.000134   0.000033   0.000008
  103  O 17  Y   -0.000023  -0.000319  -0.002147  -0.000369  -0.000048
  104  O 17  Z    0.000114  -0.008197   0.000816   0.000060  -0.000144
  105  H 18  S    0.000063   0.000105  -0.000021   0.000003   0.000004
  106  H 18  S   -0.000221   0.003045  -0.000618  -0.000059   0.000223
  107  H 19  S    0.002669  -0.000424   0.000084   0.000012   0.001882
  108  H 19  S    0.009049   0.003737  -0.001221  -0.000268  -0.001359
  109  H 20  S    0.000860   0.002739  -0.000456  -0.000045   0.000315
  110  H 20  S   -0.000880   0.008919   0.004059   0.000817  -0.000922

                      6          7          8          9         10
                  -10.2532   -10.1777   -10.1680   -10.1664   -10.1016
                     A          A          A          A          A   
    1  C  1  S    0.000024  -0.007118  -0.000157   0.000046   0.985456
    2  C  1  S    0.000016  -0.005483  -0.000097   0.000028   0.106549
    3  C  1  X    0.000003  -0.001985   0.000011   0.000003   0.000193
    4  C  1  Y   -0.000055   0.001332  -0.000053   0.000016  -0.000093
    5  C  1  Z   -0.000018   0.002173  -0.000017   0.000000  -0.000232
    6  C  1  S   -0.000127   0.030386   0.000309  -0.000083  -0.079324
    7  C  1  X    0.000048   0.010410  -0.000095  -0.000011  -0.006317
    8  C  1  Y    0.000686  -0.008722   0.000451  -0.000066   0.002544
    9  C  1  Z   -0.000072  -0.011203   0.000077   0.000001   0.007069
   10  H  2  S   -0.000070  -0.000897   0.000095  -0.000015  -0.001808
   11  H  2  S   -0.000305   0.002778  -0.000657   0.000098   0.014022
   12  C  3  S   -0.000132  -0.000433   0.902896   0.394592   0.000112
   13  C  3  S   -0.000097  -0.000062   0.098543   0.037402  -0.000049
   14  C  3  X   -0.000079  -0.000037   0.000910  -0.001170   0.000015
   15  C  3  Y    0.000011  -0.000048   0.000931  -0.002133  -0.000049
   16  C  3  Z   -0.000006  -0.000027  -0.000858   0.001687   0.000026
   17  C  3  S    0.000205  -0.000117  -0.079686   0.000539   0.000334
   18  C  3  X    0.000364  -0.000551  -0.004172   0.006028  -0.000525
   19  C  3  Y   -0.000172   0.000517  -0.017154   0.007255   0.000503
   20  C  3  Z    0.000092  -0.000356   0.013472  -0.006085  -0.000343
   21  C  4  S   -0.000070   0.000217  -0.394929   0.902757  -0.000093
   22  C  4  S   -0.000046   0.000024  -0.046928   0.094396   0.000036
   23  C  4  X   -0.000027  -0.000047   0.000961   0.000611  -0.000024
   24  C  4  Y    0.000025   0.000023   0.002345   0.000743   0.000002
   25  C  4  Z   -0.000015  -0.000004  -0.001787  -0.000693   0.000000
   26  C  4  S    0.000006  -0.000188   0.058975  -0.053898  -0.000373
   27  C  4  X   -0.000064   0.000612  -0.011186   0.006016   0.000493
   28  C  4  Y   -0.000011  -0.000151  -0.015900   0.003456   0.000024
   29  C  4  Z    0.000018   0.000041   0.012907  -0.003002  -0.000063
   30  O  5  S   -0.000016   0.000008   0.000151   0.000114  -0.000003
   31  O  5  S   -0.000156   0.000136   0.001117   0.000622   0.000020
   32  O  5  X   -0.000087  -0.000042  -0.000451   0.000138  -0.000055
   33  O  5  Y   -0.000012  -0.000321   0.000253  -0.000087  -0.000145
   34  O  5  Z   -0.000003   0.000012  -0.000123   0.000048   0.000071
   35  O  5  S    0.000528   0.000056   0.001041  -0.000672   0.000232
   36  O  5  X    0.000504   0.000085   0.002549  -0.000594   0.000116
   37  O  5  Y   -0.000005   0.001254  -0.000574  -0.000928   0.000560
   38  O  5  Z    0.000027  -0.000133   0.000106   0.000788  -0.000258
   39  H  6  S    0.000005   0.000004  -0.001574  -0.002154   0.000044
   40  H  6  S    0.000159  -0.000263   0.011844   0.007466  -0.000478
   41  C  7  S    0.984816  -0.000110   0.000077   0.000100  -0.000022
   42  C  7  S    0.101884   0.000080  -0.000070  -0.000091   0.000031
   43  C  7  X   -0.000948  -0.000127  -0.000000   0.000006  -0.000045
   44  C  7  Y    0.000718   0.000031  -0.000102  -0.000136  -0.000003
   45  C  7  Z    0.000143   0.000001  -0.000018  -0.000026   0.000003
   46  C  7  S   -0.040189  -0.000286  -0.000327  -0.000430  -0.000067
   47  C  7  X   -0.011029   0.000799   0.000127   0.000157   0.000260
   48  C  7  Y    0.003914   0.000165  -0.000517  -0.000629   0.000030
   49  C  7  Z    0.000950   0.000004  -0.000073  -0.000096  -0.000016
   50  O  8  S   -0.000003   0.000006  -0.000042   0.000164   0.000004
   51  O  8  S   -0.000036   0.000041  -0.000512   0.001042   0.000031
   52  O  8  X    0.000001  -0.000013   0.000535  -0.000301  -0.000008
   53  O  8  Y    0.000027   0.000020   0.000018   0.000387   0.000009
   54  O  8  Z   -0.000019  -0.000012  -0.000067  -0.000088  -0.000006
   55  O  8  S    0.000080  -0.000260  -0.001325   0.001328  -0.000179
   56  O  8  X   -0.000017   0.000127  -0.001158   0.001613   0.000079
   57  O  8  Y   -0.000093  -0.000051   0.000918  -0.001738  -0.000032
   58  O  8  Z    0.000064   0.000012  -0.000589   0.000354   0.000007
   59  H  9  S   -0.000017   0.000068  -0.000415  -0.002603   0.000056
   60  H  9  S    0.000028   0.000225  -0.003937   0.013128   0.000136
   61  O 10  S    0.000360  -0.000010   0.000000   0.000002  -0.000003
   62  O 10  S    0.001231  -0.000095   0.000069   0.000097  -0.000030
   63  O 10  X   -0.000610   0.000049  -0.000220  -0.000267   0.000015
   64  O 10  Y    0.000610  -0.000016   0.000105   0.000147  -0.000003
   65  O 10  Z    0.000116   0.000004   0.000012   0.000004   0.000000
   66  O 10  S   -0.003600   0.000366   0.000107   0.000094   0.000119
   67  O 10  X   -0.001697  -0.000243   0.000805   0.001009  -0.000068
   68  O 10  Y    0.006870  -0.000040  -0.000493  -0.000669  -0.000021
   69  O 10  Z    0.000882  -0.000024  -0.000052  -0.000036  -0.000003
   70  H 11  S   -0.002336  -0.000043   0.000019   0.000022  -0.000018
   71  H 11  S    0.017131  -0.000398  -0.000045  -0.000046  -0.000134
   72  O 12  S    0.000313  -0.000002   0.000001   0.000000   0.000000
   73  O 12  S    0.001790   0.000018  -0.000004  -0.000010   0.000006
   74  O 12  X   -0.000797  -0.000070   0.000045   0.000055  -0.000006
   75  O 12  Y    0.000228  -0.000041  -0.000006  -0.000005   0.000001
   76  O 12  Z    0.000070  -0.000015  -0.000004  -0.000005  -0.000008
   77  O 12  S   -0.001064   0.000028  -0.000051  -0.000034  -0.000018
   78  O 12  X    0.002515   0.000228  -0.000217  -0.000268   0.000032
   79  O 12  Y   -0.004333   0.000277  -0.000011  -0.000015   0.000041
   80  O 12  Z   -0.000690   0.000050   0.000013   0.000018   0.000027
   81  H 13  S    0.000062   0.000259  -0.000998  -0.000627  -0.000000
   82  H 13  S   -0.001383  -0.000714   0.002164   0.003003  -0.000173
   83  H 14  S    0.000024   0.000036  -0.000045   0.000424   0.000026
   84  H 14  S    0.000030  -0.000042   0.000807   0.001777  -0.000050
   85  C 15  S    0.000140   0.985322   0.000487  -0.000023   0.006846
   86  C 15  S    0.000103   0.105027   0.000026   0.000009  -0.004056
   87  C 15  X    0.000099   0.000047  -0.000009  -0.000012   0.002071
   88  C 15  Y    0.000033   0.000375   0.000009   0.000006  -0.001363
   89  C 15  Z    0.000012  -0.000092   0.000004   0.000010  -0.002265
   90  C 15  S   -0.000363  -0.071036   0.000073  -0.000082   0.029248
   91  C 15  X   -0.000496   0.009958  -0.000100  -0.000021  -0.010089
   92  C 15  Y   -0.000872   0.000250  -0.000176  -0.000028   0.008059
   93  C 15  Z    0.000605  -0.011738   0.000159   0.000054   0.010902
   94  H 16  S    0.000083  -0.001600   0.000008   0.000002  -0.002006
   95  H 16  S    0.000197   0.000572   0.000047  -0.000022   0.013562
   96  O 17  S    0.000019   0.000208  -0.000008   0.000000   0.000073
   97  O 17  S    0.000279   0.001464  -0.000048   0.000019   0.000374
   98  O 17  X    0.000347  -0.000060   0.000012   0.000006   0.000060
   99  O 17  Y    0.000008  -0.000359   0.000049   0.000061   0.000195
  100  O 17  Z   -0.000093   0.000146   0.000000   0.000003  -0.000077
  101  O 17  S   -0.000351   0.000012   0.000229  -0.000047  -0.002002
  102  O 17  X   -0.001388   0.000406  -0.000048  -0.000004   0.001011
  103  O 17  Y   -0.000179   0.002102  -0.000098  -0.000193  -0.000864
  104  O 17  Z    0.000479  -0.000903   0.000037   0.000006  -0.001159
  105  H 18  S    0.000014  -0.002238  -0.000024   0.000007  -0.000977
  106  H 18  S   -0.000376   0.013921  -0.000044   0.000003   0.002530
  107  H 19  S    0.000579  -0.000363   0.000009   0.000011  -0.000097
  108  H 19  S    0.003813   0.000827  -0.000199  -0.000278   0.000299
  109  H 20  S   -0.000010  -0.001009  -0.000146  -0.000126   0.000001
  110  H 20  S    0.000178   0.003241  -0.000038   0.000289   0.000847

                     11         12         13         14         15
                   -1.1059    -1.0604    -1.0520    -1.0372    -1.0192
                     A          A          A          A          A   
    1  C  1  S   -0.001047  -0.007079  -0.015349   0.004542  -0.002963
    2  C  1  S    0.000949   0.007250   0.014808  -0.003857   0.002924
    3  C  1  X    0.001048   0.006056   0.013087  -0.003784   0.002356
    4  C  1  Y   -0.000045  -0.001175  -0.003105   0.001214  -0.000808
    5  C  1  Z   -0.001164  -0.007045  -0.015074   0.004274  -0.002789
    6  C  1  S    0.003162   0.007555   0.019472  -0.007275   0.002002
    7  C  1  X    0.000708   0.005295   0.009321  -0.001893   0.001379
    8  C  1  Y    0.000845   0.015166   0.035407  -0.011047   0.008866
    9  C  1  Z   -0.001086  -0.007691  -0.014828   0.003668  -0.002190
   10  H  2  S    0.000214   0.000198   0.001207  -0.000715   0.000232
   11  H  2  S   -0.000587  -0.002644  -0.013158   0.006968  -0.003759
   12  C  3  S   -0.002636  -0.062621   0.017962  -0.050256   0.011683
   13  C  3  S    0.003579   0.068868  -0.019431   0.056776  -0.012398
   14  C  3  X    0.002764   0.048524  -0.014285   0.037385  -0.007807
   15  C  3  Y   -0.002131  -0.030826  -0.000159  -0.055918   0.009597
   16  C  3  Z    0.001253   0.017676   0.001562   0.037691  -0.006318
   17  C  3  S    0.001424   0.077750  -0.021829   0.061916  -0.016419
   18  C  3  X   -0.004900  -0.000873  -0.011977  -0.060916   0.005176
   19  C  3  Y    0.001787   0.004271  -0.000811   0.019760  -0.002502
   20  C  3  Z   -0.000732  -0.003801   0.002679  -0.007518   0.001346
   21  C  4  S   -0.001033  -0.059086   0.040425   0.039839  -0.001081
   22  C  4  S    0.001232   0.063706  -0.044348  -0.045565   0.001694
   23  C  4  X    0.000587   0.051809  -0.042762  -0.064674   0.005498
   24  C  4  Y   -0.000730  -0.011231   0.001113  -0.017649   0.003217
   25  C  4  Z    0.000483   0.001914   0.004371   0.020899  -0.003028
   26  C  4  S    0.001865   0.075817  -0.049681  -0.048043   0.001753
   27  C  4  X    0.001966   0.001387   0.011077   0.058675  -0.007988
   28  C  4  Y   -0.000958  -0.005349  -0.004544  -0.030305   0.004532
   29  C  4  Z    0.000406   0.005013   0.001244   0.014905  -0.002515
   30  O  5  S   -0.008749  -0.145684   0.023591  -0.163793   0.030134
   31  O  5  S    0.008890   0.135580  -0.024312   0.150078  -0.026985
   32  O  5  X    0.002538   0.014889  -0.002978   0.017522  -0.000342
   33  O  5  Y    0.001861   0.046639  -0.014188   0.050349  -0.010793
   34  O  5  Z   -0.002292  -0.042480   0.008868  -0.044226   0.008691
   35  O  5  S    0.023081   0.447125  -0.065533   0.529870  -0.101666
   36  O  5  X   -0.000866   0.011880  -0.001962   0.012506  -0.003428
   37  O  5  Y    0.002590   0.048640  -0.020982   0.068054  -0.015555
   38  O  5  Z   -0.002935  -0.046729   0.008853  -0.055723   0.010663
   39  H  6  S    0.000430   0.015516  -0.005396   0.009166  -0.002717
   40  H  6  S   -0.002438  -0.005292  -0.002650  -0.026396   0.002383
   41  C  7  S   -0.130505   0.010656   0.014205  -0.004583  -0.036812
   42  C  7  S    0.148083  -0.011836  -0.016082   0.005425   0.042077
   43  C  7  X   -0.089621   0.006691   0.009429  -0.003574  -0.025837
   44  C  7  Y    0.008191   0.000806  -0.020493   0.030525   0.203858
   45  C  7  Z    0.004928  -0.000204  -0.002942   0.003937   0.026427
   46  C  7  S    0.121484  -0.009776  -0.017234   0.007363   0.033873
   47  C  7  X    0.040919  -0.004763  -0.005658   0.001572   0.014921
   48  C  7  Y   -0.011524   0.004806   0.004169   0.000299  -0.017589
   49  C  7  Z   -0.003057   0.000871   0.000748  -0.000058  -0.002756
   50  O  8  S   -0.001514  -0.130166   0.103448   0.144905  -0.010875
   51  O  8  S    0.001645   0.122664  -0.096795  -0.133116   0.009894
   52  O  8  X   -0.000644  -0.046841   0.035273   0.044038  -0.002651
   53  O  8  Y    0.000247   0.042991  -0.036385  -0.056611   0.004667
   54  O  8  Z    0.000187   0.001020   0.000706   0.004921  -0.000669
   55  O  8  S    0.003451   0.392270  -0.318393  -0.467132   0.036605
   56  O  8  X   -0.000174  -0.053364   0.043554   0.066167  -0.004987
   57  O  8  Y    0.000628   0.040049  -0.033631  -0.052042   0.004503
   58  O  8  Z   -0.000191   0.003502  -0.001973  -0.000706  -0.000360
   59  H  9  S    0.000436   0.015398  -0.009999  -0.007157  -0.000140
   60  H  9  S    0.000393  -0.001542   0.006290   0.026152  -0.003845
   61  O 10  S   -0.126216   0.007579   0.026856  -0.026201  -0.167643
   62  O 10  S    0.117829  -0.007446  -0.025300   0.024436   0.162369
   63  O 10  X    0.035058  -0.004242  -0.008161   0.006319   0.053916
   64  O 10  Y   -0.091373   0.007290   0.016757  -0.013569  -0.097337
   65  O 10  Z   -0.013049   0.000944   0.002513  -0.002138  -0.014661
   66  O 10  S    0.381437  -0.024671  -0.082891   0.080155   0.515789
   67  O 10  X    0.025989  -0.008580  -0.005681  -0.001319   0.050738
   68  O 10  Y   -0.095854   0.010616   0.015410  -0.009230  -0.089129
   69  O 10  Z   -0.013013   0.000958   0.002592  -0.001497  -0.013175
   70  H 11  S    0.026975  -0.002476  -0.002719   0.000244   0.004654
   71  H 11  S   -0.025266   0.002861   0.004498  -0.002015  -0.013095
   72  O 12  S   -0.161697   0.012603  -0.004730   0.024290   0.151575
   73  O 12  S    0.148440  -0.011069   0.006150  -0.023599  -0.144315
   74  O 12  X   -0.014139  -0.001416  -0.005860   0.004132   0.018299
   75  O 12  Y    0.090347  -0.007645  -0.001315  -0.009441  -0.059710
   76  O 12  Z    0.013036  -0.000909   0.000295  -0.001600  -0.009443
   77  O 12  S    0.494282  -0.041657   0.008701  -0.074094  -0.483705
   78  O 12  X   -0.022899   0.002818   0.000766   0.002689   0.012984
   79  O 12  Y    0.107091  -0.008540  -0.001455  -0.009980  -0.060731
   80  O 12  Z    0.015760  -0.001152   0.000240  -0.001711  -0.009506
   81  H 13  S    0.006996   0.064753  -0.013922   0.074377  -0.007990
   82  H 13  S    0.013362   0.007269  -0.001238   0.003126   0.015877
   83  H 14  S    0.000625   0.064673  -0.052535  -0.076224   0.005928
   84  H 14  S   -0.000148   0.011138  -0.010311  -0.019381   0.001889
   85  C 15  S   -0.005659  -0.033436  -0.071615   0.020753  -0.012509
   86  C 15  S    0.006286   0.037581   0.079375  -0.022167   0.013911
   87  C 15  X    0.003176   0.017970   0.038232  -0.010937   0.006441
   88  C 15  Y    0.004531   0.026279   0.054767  -0.014817   0.009435
   89  C 15  Z   -0.004231  -0.024030  -0.050995   0.014484  -0.008619
   90  C 15  S    0.006864   0.040138   0.092169  -0.030457   0.017595
   91  C 15  X    0.001449  -0.004435  -0.009155   0.001818  -0.004492
   92  C 15  Y   -0.001872  -0.015831  -0.030234   0.005183  -0.006340
   93  C 15  Z   -0.001208   0.006651   0.013754  -0.002802   0.004970
   94  H 16  S    0.000252   0.002938   0.006186  -0.001683   0.001374
   95  H 16  S    0.000147   0.006265   0.013245  -0.003826   0.003175
   96  O 17  S   -0.018521  -0.092439  -0.191939   0.052478  -0.029296
   97  O 17  S    0.016389   0.086264   0.177133  -0.047044   0.027748
   98  O 17  X   -0.001379  -0.024199  -0.049916   0.013273  -0.011675
   99  O 17  Y    0.001797   0.011432   0.016428  -0.000333   0.002103
  100  O 17  Z    0.005242   0.031181   0.065890  -0.018604   0.011425
  101  O 17  S    0.056239   0.285826   0.605119  -0.172673   0.094493
  102  O 17  X    0.003417  -0.027991  -0.058687   0.015835  -0.018851
  103  O 17  Y    0.001967   0.006612   0.012280  -0.004119   0.002107
  104  O 17  Z    0.005374   0.037271   0.078038  -0.021093   0.014706
  105  H 18  S    0.001150   0.007778   0.016929  -0.005078   0.003160
  106  H 18  S   -0.001047  -0.007841  -0.015205   0.002844  -0.003363
  107  H 19  S    0.061237   0.001368   0.015532  -0.014209  -0.066203
  108  H 19  S    0.007918   0.008983   0.018941  -0.005687  -0.000138
  109  H 20  S    0.006555   0.049213   0.083058  -0.013386   0.012522
  110  H 20  S    0.005351   0.015474   0.004246   0.018731  -0.004295

                     16         17         18         19         20
                   -0.7494    -0.7452    -0.6460    -0.6162    -0.6097
                     A          A          A          A          A   
    1  C  1  S   -0.087057  -0.144316   0.017244  -0.072500  -0.074139
    2  C  1  S    0.094135   0.156068  -0.017818   0.073483   0.075356
    3  C  1  X    0.034782   0.055532  -0.000251  -0.015270  -0.019425
    4  C  1  Y   -0.023184  -0.037394   0.004710   0.016942   0.021445
    5  C  1  Z   -0.038190  -0.060958  -0.001790   0.015518   0.020119
    6  C  1  S    0.184604   0.309716  -0.053973   0.218062   0.224135
    7  C  1  X    0.001895   0.004887  -0.000366   0.002251   0.002041
    8  C  1  Y   -0.000287  -0.003171   0.007720   0.004220   0.000960
    9  C  1  Z   -0.003204  -0.006234  -0.000468  -0.001820  -0.002663
   10  H  2  S    0.039060   0.065762  -0.010240   0.061794   0.065975
   11  H  2  S   -0.000428   0.003983  -0.003417   0.027689   0.039176
   12  C  3  S   -0.127473   0.077054  -0.008512   0.068500  -0.070952
   13  C  3  S    0.144690  -0.087567   0.008503  -0.073767   0.076667
   14  C  3  X    0.015170  -0.006561  -0.005203   0.041671  -0.073910
   15  C  3  Y    0.090814  -0.061102  -0.020733   0.095558  -0.078470
   16  C  3  Z   -0.070238   0.048061   0.016314  -0.081962   0.063117
   17  C  3  S    0.277491  -0.170114   0.027421  -0.210850   0.222100
   18  C  3  X   -0.002036   0.002257  -0.002078   0.039515  -0.054363
   19  C  3  Y    0.033688  -0.021485  -0.005753   0.010895  -0.019847
   20  C  3  Z   -0.027210   0.017687   0.004348  -0.015406   0.016117
   21  C  4  S   -0.127603   0.081649   0.012834  -0.070587   0.057514
   22  C  4  S    0.145670  -0.093299  -0.014099   0.075804  -0.061289
   23  C  4  X   -0.065633   0.041799   0.000174   0.024062  -0.044908
   24  C  4  Y   -0.077427   0.047894   0.000939   0.014085  -0.008385
   25  C  4  Z    0.061132  -0.037625   0.000328  -0.022718   0.018920
   26  C  4  S    0.267419  -0.172748  -0.037169   0.220057  -0.177006
   27  C  4  X   -0.031566   0.021750   0.003213  -0.018562  -0.003525
   28  C  4  Y   -0.007672   0.003792   0.000923   0.001625   0.005721
   29  C  4  Z    0.009842  -0.005418  -0.000471  -0.003480   0.000073
   30  O  5  S    0.049029  -0.033455  -0.002853  -0.009069   0.013544
   31  O  5  S   -0.048519   0.033640   0.001998   0.007794  -0.014505
   32  O  5  X   -0.060618   0.036857  -0.035763   0.170928  -0.190889
   33  O  5  Y    0.040132  -0.013081   0.011292  -0.090369   0.023366
   34  O  5  Z   -0.017827   0.009447  -0.004778   0.029806  -0.019047
   35  O  5  S   -0.175256   0.119749   0.014675   0.033770  -0.053690
   36  O  5  X   -0.050963   0.029734  -0.029228   0.152217  -0.167694
   37  O  5  Y    0.033700  -0.007390   0.010802  -0.089033   0.012502
   38  O  5  Z   -0.011639   0.006918  -0.004279   0.026102  -0.015144
   39  H  6  S    0.067933  -0.042065   0.009377  -0.076381   0.092333
   40  H  6  S    0.009114  -0.004669   0.004626  -0.027468   0.038198
   41  C  7  S   -0.006198  -0.002789  -0.134004  -0.013169   0.000287
   42  C  7  S    0.007738   0.003281   0.164227   0.014964  -0.000345
   43  C  7  X    0.000760   0.001086   0.117406   0.016914  -0.005273
   44  C  7  Y   -0.000816  -0.009465  -0.136706  -0.037429   0.026655
   45  C  7  Z   -0.000049  -0.001276  -0.022548  -0.006241   0.003961
   46  C  7  S    0.013005   0.008158   0.346184   0.041027  -0.007089
   47  C  7  X    0.004673   0.002060   0.104133   0.002193  -0.005143
   48  C  7  Y   -0.002745  -0.002992  -0.055890  -0.006980   0.005448
   49  C  7  Z   -0.000408  -0.000410  -0.011432  -0.001672   0.001053
   50  O  8  S    0.042573  -0.026750  -0.003588   0.018629  -0.015237
   51  O  8  S   -0.042702   0.026935   0.003708  -0.019905   0.015970
   52  O  8  X   -0.062434   0.040655   0.013570  -0.103658   0.104995
   53  O  8  Y   -0.063748   0.040595   0.011621  -0.073618   0.080758
   54  O  8  Z    0.028968  -0.018364  -0.005325   0.031860  -0.036911
   55  O  8  S   -0.151915   0.095159   0.013283  -0.065964   0.056361
   56  O  8  X   -0.046049   0.030475   0.010806  -0.089026   0.088141
   57  O  8  Y   -0.050130   0.031882   0.009797  -0.061184   0.068180
   58  O  8  Z    0.022402  -0.014230  -0.004574   0.027463  -0.032387
   59  H  9  S    0.065353  -0.042562  -0.008993   0.054244  -0.037240
   60  H  9  S    0.001733  -0.000921  -0.002287   0.016014  -0.013333
   61  O 10  S    0.001066   0.001418   0.053454   0.004663   0.002597
   62  O 10  S   -0.000777  -0.001872  -0.053548  -0.005849  -0.000567
   63  O 10  X    0.006966  -0.003265   0.044140  -0.017407   0.020670
   64  O 10  Y   -0.004746   0.002679  -0.018761   0.012185  -0.017360
   65  O 10  Z   -0.000579   0.000294  -0.003887   0.001016  -0.001674
   66  O 10  S   -0.002857  -0.004002  -0.190582  -0.018989  -0.012372
   67  O 10  X    0.007232  -0.003531   0.035304  -0.021340   0.023605
   68  O 10  Y   -0.004090   0.001995  -0.020368   0.011903  -0.015983
   69  O 10  Z   -0.000827   0.000346  -0.003851   0.001455  -0.001599
   70  H 11  S    0.003989   0.002248   0.150478   0.018894  -0.003572
   71  H 11  S   -0.001287  -0.000433   0.038324   0.011904  -0.000124
   72  O 12  S   -0.000408  -0.002499   0.041962   0.007114   0.000511
   73  O 12  S   -0.000012   0.001848  -0.039521  -0.006008  -0.000694
   74  O 12  X    0.008581   0.010835   0.270455   0.044854  -0.024529
   75  O 12  Y    0.003861   0.004940   0.122713   0.023355  -0.008619
   76  O 12  Z    0.000130   0.000143   0.000360  -0.000483  -0.000271
   77  O 12  S    0.003120   0.011957  -0.166400  -0.030570  -0.002153
   78  O 12  X    0.004939   0.006364   0.221938   0.040810  -0.021065
   79  O 12  Y    0.002814   0.003243   0.098762   0.019633  -0.005318
   80  O 12  Z    0.000396   0.000464  -0.000267  -0.001458  -0.000786
   81  H 13  S   -0.050081   0.033419  -0.025269   0.094261  -0.114000
   82  H 13  S   -0.030394   0.016700  -0.027719   0.056354  -0.061067
   83  H 14  S   -0.068889   0.044040   0.011903  -0.079185   0.082314
   84  H 14  S   -0.036010   0.023157   0.006927  -0.049590   0.052968
   85  C 15  S   -0.082040  -0.125702  -0.002736   0.063678   0.068817
   86  C 15  S    0.092652   0.142682   0.002848  -0.069621  -0.075367
   87  C 15  X   -0.043410  -0.078887   0.013930  -0.091707  -0.090486
   88  C 15  Y    0.008266   0.011303   0.010531   0.050905   0.054791
   89  C 15  Z    0.049431   0.090721  -0.025409   0.100544   0.099525
   90  C 15  S    0.182324   0.276671   0.010434  -0.200538  -0.219672
   91  C 15  X   -0.017543  -0.029622  -0.005123  -0.029902  -0.027013
   92  C 15  Y   -0.002938  -0.005258   0.003355   0.037372   0.042407
   93  C 15  Z    0.021858   0.036893  -0.001778   0.026853   0.024099
   94  H 16  S    0.042574   0.071443  -0.012872   0.052660   0.055205
   95  H 16  S    0.004418   0.008098  -0.002359   0.023467   0.025013
   96  O 17  S    0.029126   0.054039  -0.005214  -0.008575  -0.013117
   97  O 17  S   -0.029254  -0.053093   0.006482   0.008200   0.012529
   98  O 17  X   -0.016813  -0.022776  -0.043426   0.019777   0.027867
   99  O 17  Y   -0.048051  -0.056841  -0.004691   0.203110   0.197612
  100  O 17  Z    0.021713   0.028666   0.015499  -0.053492  -0.057194
  101  O 17  S   -0.102539  -0.196189   0.020935   0.035583   0.052817
  102  O 17  X   -0.014638  -0.017178  -0.046395   0.017274   0.023950
  103  O 17  Y   -0.041371  -0.050862  -0.005349   0.179108   0.171723
  104  O 17  Z    0.016431   0.021257   0.015749  -0.044724  -0.049344
  105  H 18  S    0.042436   0.064876  -0.000655  -0.080898  -0.087174
  106  H 18  S    0.005154   0.007689  -0.002213  -0.032107  -0.033454
  107  H 19  S   -0.008586  -0.011731  -0.167433  -0.025241   0.016510
  108  H 19  S   -0.009893  -0.014889  -0.101076  -0.011804   0.008883
  109  H 20  S   -0.041985  -0.045639   0.005050   0.118883   0.109611
  110  H 20  S   -0.026330  -0.016464   0.000026   0.074551   0.067901

                     21         22         23         24         25
                   -0.5454    -0.5153    -0.5074    -0.4935    -0.4757
                     A          A          A          A          A   
    1  C  1  S   -0.010892   0.000265  -0.019163  -0.045783  -0.039648
    2  C  1  S    0.010625  -0.000310   0.017486   0.043538   0.033731
    3  C  1  X   -0.009283  -0.004876  -0.031768  -0.079665  -0.164582
    4  C  1  Y    0.009664  -0.030948   0.009852   0.197538  -0.051456
    5  C  1  Z    0.009973   0.013335   0.039465   0.071219   0.202779
    6  C  1  S    0.039057   0.009524   0.086094   0.175569   0.211568
    7  C  1  X   -0.003490   0.000414  -0.014990  -0.037477  -0.078479
    8  C  1  Y    0.003064  -0.027977   0.000684   0.118134  -0.063873
    9  C  1  Z    0.003199   0.004152   0.019013   0.029268   0.102532
   10  H  2  S    0.014787  -0.014323   0.027147   0.158269   0.040657
   11  H  2  S    0.007915  -0.001965   0.007954   0.106648   0.030523
   12  C  3  S    0.005922   0.039178  -0.040532   0.013938   0.003274
   13  C  3  S   -0.005140  -0.046472   0.048412  -0.016050  -0.003958
   14  C  3  X    0.122628  -0.027721   0.061669   0.021148   0.030378
   15  C  3  Y   -0.109214  -0.061420   0.132159  -0.023007  -0.002065
   16  C  3  Z    0.060357   0.046689  -0.094475   0.034214   0.006387
   17  C  3  S   -0.043588  -0.094737   0.091254  -0.035579  -0.006124
   18  C  3  X    0.076913  -0.008427   0.036578   0.018712   0.022422
   19  C  3  Y   -0.056956  -0.041470   0.084066   0.000181   0.008078
   20  C  3  Z    0.028941   0.029135  -0.055983   0.014722  -0.001186
   21  C  4  S    0.025867  -0.036849   0.035482  -0.012901  -0.004213
   22  C  4  S   -0.027057   0.037460  -0.035222   0.013017   0.004755
   23  C  4  X    0.245768  -0.003559  -0.054095  -0.012946  -0.010746
   24  C  4  Y   -0.092095   0.143076  -0.184001   0.065552   0.013039
   25  C  4  Z    0.014304  -0.111496   0.161324  -0.037836  -0.001653
   26  C  4  S   -0.070629   0.134287  -0.145765   0.038413   0.005026
   27  C  4  X    0.118680  -0.028144   0.008956  -0.008814  -0.002073
   28  C  4  Y   -0.080444   0.101563  -0.126587   0.050492   0.014008
   29  C  4  Z    0.026794  -0.072557   0.101958  -0.028534  -0.004645
   30  O  5  S    0.012872  -0.031172   0.028682  -0.007569  -0.000921
   31  O  5  S   -0.010595   0.028790  -0.028237   0.008308   0.000583
   32  O  5  X   -0.142719  -0.072780   0.170265  -0.004765   0.004843
   33  O  5  Y    0.088464  -0.027439   0.031086   0.060426   0.033671
   34  O  5  Z   -0.054216   0.020780  -0.018502   0.005377  -0.009686
   35  O  5  S   -0.054551   0.132645  -0.110145   0.034887   0.010852
   36  O  5  X   -0.122756  -0.060404   0.151190  -0.007068   0.010983
   37  O  5  Y    0.081363  -0.026027   0.035810   0.065212   0.039128
   38  O  5  Z   -0.050583   0.020287  -0.020828   0.008309  -0.012075
   39  H  6  S   -0.056678  -0.016116  -0.008447  -0.022381  -0.021281
   40  H  6  S   -0.029131  -0.004075  -0.010870  -0.010294  -0.015797
   41  C  7  S   -0.006931  -0.035569  -0.014578   0.004888  -0.026894
   42  C  7  S    0.009504   0.041576   0.013053  -0.005546   0.040652
   43  C  7  X    0.015689   0.223529   0.201013   0.008311  -0.114660
   44  C  7  Y    0.039799   0.161577   0.068123   0.011425  -0.021877
   45  C  7  Z    0.004675   0.015134  -0.000919   0.002937   0.001327
   46  C  7  S    0.014989   0.120782   0.073422  -0.013710   0.050391
   47  C  7  X    0.018589   0.170461   0.140298   0.017505  -0.077213
   48  C  7  Y    0.009139   0.052537   0.030605   0.001158  -0.007012
   49  C  7  Z    0.000744   0.002809  -0.002920   0.001318   0.001415
   50  O  8  S   -0.025287   0.023994  -0.023688   0.013548   0.005689
   51  O  8  S    0.023736  -0.024032   0.024384  -0.012755  -0.005033
   52  O  8  X   -0.183592  -0.082100   0.155717  -0.016067   0.006067
   53  O  8  Y   -0.204791   0.032540   0.002639   0.035408   0.021503
   54  O  8  Z    0.092716  -0.028095   0.022440  -0.015125  -0.005798
   55  O  8  S    0.106778  -0.090263   0.083959  -0.055929  -0.025427
   56  O  8  X   -0.157599  -0.080138   0.148373  -0.015774   0.005276
   57  O  8  Y   -0.173798   0.029783  -0.000372   0.030928   0.018910
   58  O  8  Z    0.079723  -0.024852   0.020988  -0.012415  -0.004563
   59  H  9  S   -0.133904   0.115401  -0.124740   0.052863   0.014347
   60  H  9  S   -0.086081   0.067625  -0.070945   0.036434   0.011205
   61  O 10  S    0.008804   0.035979   0.006701  -0.003848   0.030000
   62  O 10  S   -0.006671  -0.032487  -0.008217   0.003120  -0.025244
   63  O 10  X    0.039473   0.160574   0.071296   0.010663  -0.020762
   64  O 10  Y   -0.022093  -0.018873   0.054785   0.006561  -0.095880
   65  O 10  Z   -0.003799  -0.004430   0.000989   0.002017  -0.011426
   66  O 10  S   -0.034872  -0.140247  -0.022587   0.020218  -0.132520
   67  O 10  X    0.038594   0.136068   0.055244   0.010686  -0.022451
   68  O 10  Y   -0.019206  -0.019719   0.048639   0.004420  -0.082467
   69  O 10  Z   -0.004695  -0.002944  -0.000007   0.001885  -0.009912
   70  H 11  S    0.012354   0.144173   0.118306  -0.001178  -0.033307
   71  H 11  S    0.002507   0.075598   0.070102  -0.006381  -0.025868
   72  O 12  S   -0.000274  -0.007055  -0.009667  -0.008460   0.039080
   73  O 12  S   -0.000432   0.003608   0.008225   0.007244  -0.034112
   74  O 12  X   -0.030856  -0.142957  -0.070397  -0.005681   0.010249
   75  O 12  Y   -0.019513  -0.152964  -0.119838  -0.021741   0.123628
   76  O 12  Z   -0.000527  -0.007589  -0.010354  -0.000248   0.013616
   77  O 12  S    0.001808   0.026836   0.033375   0.038632  -0.173280
   78  O 12  X   -0.028575  -0.128985  -0.058257  -0.006464   0.011289
   79  O 12  Y   -0.015430  -0.132194  -0.106572  -0.020180   0.117808
   80  O 12  Z   -0.000260  -0.005905  -0.009382   0.000654   0.012321
   81  H 13  S   -0.085276  -0.046650   0.084133   0.002782  -0.000364
   82  H 13  S   -0.059385  -0.064204   0.061366  -0.010118  -0.021367
   83  H 14  S   -0.164521  -0.010960   0.052145   0.012411   0.013053
   84  H 14  S   -0.122814  -0.012692   0.047675   0.007867   0.009640
   85  C 15  S    0.012446  -0.003349   0.019660   0.052803   0.048621
   86  C 15  S   -0.014055   0.003725  -0.022669  -0.057739  -0.057238
   87  C 15  X   -0.004001   0.002405   0.014990   0.091026   0.084167
   88  C 15  Y    0.014499  -0.063807  -0.005171   0.215613  -0.192467
   89  C 15  Z    0.003745   0.019188  -0.005665  -0.133188  -0.064332
   90  C 15  S   -0.040270   0.008668  -0.062283  -0.187264  -0.150879
   91  C 15  X    0.001425   0.017030   0.022490   0.044452   0.085605
   92  C 15  Y    0.010899  -0.042034  -0.005591   0.130244  -0.145099
   93  C 15  Z   -0.002334  -0.000380  -0.014796  -0.066144  -0.075168
   94  H 16  S    0.010632   0.015582   0.033721   0.015956   0.171391
   95  H 16  S    0.005586   0.008717   0.019905   0.009868   0.122297
   96  O 17  S   -0.007166  -0.001586  -0.014772  -0.007576  -0.048455
   97  O 17  S    0.006334   0.001728   0.012778   0.008762   0.045863
   98  O 17  X    0.008251   0.064877   0.048624  -0.067353   0.135238
   99  O 17  Y    0.005130  -0.002604  -0.031910  -0.206913  -0.084822
  100  O 17  Z   -0.006612  -0.031415  -0.017944   0.106119  -0.115656
  101  O 17  S    0.031796  -0.002691   0.064672   0.037475   0.192630
  102  O 17  X    0.006729   0.064959   0.046066  -0.066820   0.136567
  103  O 17  Y    0.005137  -0.006001  -0.023544  -0.191032  -0.075637
  104  O 17  Z   -0.006932  -0.030651  -0.018204   0.100938  -0.114180
  105  H 18  S   -0.018430   0.036403  -0.013693  -0.151683   0.075096
  106  H 18  S   -0.008429   0.023955  -0.006573  -0.096755   0.051714
  107  H 19  S    0.019607   0.100685   0.059787  -0.000944   0.003187
  108  H 19  S    0.013636   0.092097   0.072306  -0.005987   0.029102
  109  H 20  S   -0.003731   0.001498  -0.028076  -0.118033  -0.045789
  110  H 20  S   -0.013750   0.015892  -0.042704  -0.098032  -0.016806

                     26         27         28         29         30
                   -0.4621    -0.4423    -0.4327    -0.3984    -0.3919
                     A          A          A          A          A   
    1  C  1  S   -0.010903   0.000683  -0.000014  -0.006827  -0.005166
    2  C  1  S    0.008213  -0.000607  -0.000295   0.010374   0.006414
    3  C  1  X   -0.074294   0.012719   0.000868   0.095955   0.097320
    4  C  1  Y   -0.021449  -0.061268  -0.003451  -0.051187   0.051683
    5  C  1  Z    0.085173  -0.016151   0.003805  -0.049094  -0.025498
    6  C  1  S    0.061879  -0.005456   0.004577   0.024177   0.035179
    7  C  1  X   -0.034335   0.002697   0.001147   0.058929   0.062646
    8  C  1  Y   -0.024012  -0.034660  -0.005753  -0.048664   0.034744
    9  C  1  Z    0.040430  -0.003986   0.000390  -0.022130  -0.010567
   10  H  2  S    0.012824  -0.041614  -0.001985  -0.046074   0.025560
   11  H  2  S    0.018435  -0.048508  -0.000031  -0.043561   0.006682
   12  C  3  S   -0.005148   0.010014  -0.000302  -0.007346  -0.003563
   13  C  3  S    0.005520  -0.005959   0.000689   0.006239   0.004495
   14  C  3  X   -0.121654   0.299594   0.009464  -0.060604   0.030544
   15  C  3  Y   -0.054836  -0.022262   0.004224   0.050119  -0.114727
   16  C  3  Z    0.041818   0.024150   0.001300   0.177375  -0.091173
   17  C  3  S    0.022551  -0.029326   0.001524   0.051843   0.020833
   18  C  3  X   -0.099223   0.199624   0.005116  -0.032683   0.016534
   19  C  3  Y   -0.028993   0.030927   0.002355   0.090682  -0.062955
   20  C  3  Z    0.022908  -0.016949   0.002597   0.128620  -0.108526
   21  C  4  S    0.011006  -0.029157  -0.000742   0.007055   0.005115
   22  C  4  S   -0.013612   0.036489   0.001184  -0.008154  -0.004861
   23  C  4  X    0.049609  -0.059016   0.000948   0.085334  -0.054993
   24  C  4  Y    0.041236   0.029397  -0.002498   0.125509  -0.054184
   25  C  4  Z   -0.057559   0.040987   0.006774   0.075109  -0.127490
   26  C  4  S   -0.016215   0.047282   0.001507  -0.046932  -0.036061
   27  C  4  X    0.023728  -0.015458  -0.000956   0.061192  -0.019176
   28  C  4  Y    0.016244   0.067763   0.000322   0.115136  -0.051182
   29  C  4  Z   -0.032751   0.004765   0.004549   0.068993  -0.124120
   30  O  5  S    0.006666   0.016491  -0.000212   0.014972   0.015008
   31  O  5  S   -0.001592  -0.014972   0.000055  -0.011819  -0.013299
   32  O  5  X   -0.031967  -0.100479  -0.002605   0.061354  -0.023008
   33  O  5  Y   -0.032508   0.196398   0.005199   0.173993  -0.019099
   34  O  5  Z    0.020831  -0.105536   0.004321   0.146355  -0.175119
   35  O  5  S   -0.055423  -0.057759   0.001293  -0.072019  -0.064951
   36  O  5  X   -0.047164  -0.104162  -0.000378   0.058988  -0.031058
   37  O  5  Y   -0.031701   0.195284   0.004470   0.181842  -0.023286
   38  O  5  Z    0.019797  -0.104482   0.007300   0.154682  -0.184346
   39  H  6  S    0.087621  -0.200551  -0.005756   0.070302  -0.022742
   40  H  6  S    0.059880  -0.165063  -0.006204   0.062940  -0.023736
   41  C  7  S    0.062026   0.029784   0.002268  -0.010474  -0.008069
   42  C  7  S   -0.092234  -0.041533  -0.003785   0.010630   0.004924
   43  C  7  X    0.152570   0.029692   0.016445   0.030367   0.046576
   44  C  7  Y   -0.143401  -0.051065  -0.052330  -0.069351  -0.099002
   45  C  7  Z   -0.031172  -0.017504   0.319808  -0.019979  -0.019816
   46  C  7  S   -0.132125  -0.077766  -0.003657   0.043128   0.043534
   47  C  7  X    0.085607   0.024105   0.011428  -0.013090  -0.020168
   48  C  7  Y   -0.036662  -0.016981  -0.039884   0.002722   0.002530
   49  C  7  Z   -0.014689  -0.012488   0.296798  -0.007794  -0.002933
[...]
   20             0.000026   0.002156   0.000117   0.048596   0.002949

                     31         32         33         34         35

                  2.000000   2.000000   2.000000   2.000000   2.000000

    1             0.302883   0.274212   0.026090   0.122683   0.075308
    2             0.209562   0.089512   0.002135   0.017257   0.000771
    3             0.091922   0.004110   0.197594   0.033333   0.051526
    4             0.232451   0.073082   0.081548   0.033083   0.018381
    5             0.161120   0.178915   0.786371   0.429564   0.102106
    6             0.000540   0.000093   0.055391   0.014064   0.000230
    7             0.010176   0.006876   0.009203   0.034374   0.044431
    8             0.422362   0.243739   0.546703   0.057650   0.061668
    9             0.028531   0.020313   0.011881   0.003176   0.020152
   10             0.028526   0.016259   0.051729   0.123284   0.079747
   11             0.000375   0.000047   0.022060   0.017495   0.090997
   12             0.019981   0.003550   0.045793   0.368720   0.669710
   13             0.005686   0.007608   0.026559   0.015131   0.011833
   14             0.005860   0.006131   0.022185   0.000211   0.003374
   15             0.127964   0.239604   0.044218   0.199898   0.068408
   16             0.108694   0.148825   0.002341   0.000628   0.018793
   17             0.091821   0.659852   0.061702   0.422442   0.599629
   18             0.131734   0.024460   0.000830   0.069735   0.036801
   19             0.002180   0.000175   0.004465   0.023246   0.021243
   20             0.017631   0.002638   0.001199   0.014025   0.024893

                     36         37         38         39         40

                  2.000000   2.000000   2.000000   2.000000   2.000000

    1             0.002130   0.001280   0.006807   0.927624   0.002835
    2             0.000205   0.000263   0.000675   0.000048   0.002044
    3             0.031521   0.026801   0.013959   0.002116   0.498983
    4             0.085936   0.073020   0.010371   0.001597   0.580456
    5             0.068641   0.071951   0.186895   0.002499   0.419833
    6             0.004862   0.003485   0.024286   0.000064   0.000048
    7             0.003961   0.015363   0.060492   0.002461   0.000373
    8             0.707463   0.616877   0.034931   0.001069   0.409987
    9             0.073847   0.071114   0.004876   0.000001   0.005441
   10             0.427862   0.545674   1.313260   0.008026   0.001082
   11             0.001001   0.002219   0.130374   0.008349   0.000068
   12             0.553400   0.554551   0.188844   0.062779   0.000132
   13             0.003441   0.004089   0.005714   0.000066   0.002691
   14             0.007844   0.010368   0.000625   0.000110   0.025314
   15             0.001419   0.001074   0.005344   0.416401   0.001974
   16             0.001059   0.000010   0.000756   0.000083   0.000103
   17             0.023042   0.001436   0.002472   0.558168   0.036171
   18             0.001522   0.000042   0.000360   0.001912   0.003215
   19             0.000643   0.000344   0.006777   0.005933   0.000366
   20             0.000199   0.000038   0.002182   0.000693   0.008883

               ----- POPULATIONS IN EACH AO -----
                             MULLIKEN      LOWDIN
              1  C  1  S      1.98505     1.97507
              2  C  1  S      0.39850     0.42569
              3  C  1  X      0.50808     0.49178
              4  C  1  Y      0.59370     0.55059
              5  C  1  Z      0.57954     0.54728
              6  C  1  S      0.95962     0.58212
              7  C  1  X      0.55836     0.61184
              8  C  1  Y      0.46454     0.55619
              9  C  1  Z      0.40060     0.54308
             10  H  2  S      0.46962     0.45764
             11  H  2  S      0.32639     0.43701
             12  C  3  S      1.98459     1.97407
             13  C  3  S      0.41103     0.42864
             14  C  3  X      0.59802     0.55629
             15  C  3  Y      0.52435     0.50206
             16  C  3  Z      0.51451     0.49077
             17  C  3  S      0.80612     0.55284
             18  C  3  X      0.38223     0.50216
             19  C  3  Y      0.29130     0.47491
             20  C  3  Z      0.42567     0.53693
             21  C  4  S      1.98454     1.97394
             22  C  4  S      0.40807     0.42666
             23  C  4  X      0.49273     0.46851
             24  C  4  Y      0.60312     0.56854
             25  C  4  Z      0.54682     0.52096
             26  C  4  S      0.80739     0.55575
             27  C  4  X      0.15676     0.39743
             28  C  4  Y      0.47898     0.56563
             29  C  4  Z      0.52716     0.58794
             30  O  5  S      1.98462     1.97808
             31  O  5  S      0.41667     0.56831
             32  O  5  X      0.68414     0.66662
             33  O  5  Y      0.68667     0.67702
             34  O  5  Z      0.78580     0.78619
             35  O  5  S      1.49310     0.99617
             36  O  5  X      0.79375     0.81308
             37  O  5  Y      0.83979     0.85912
             38  O  5  Z      0.95030     0.96119
             39  H  6  S      0.48051     0.47210
             40  H  6  S      0.30856     0.43043
             41  C  7  S      1.98371     1.97416
             42  C  7  S      0.43865     0.43892
             43  C  7  X      0.61733     0.57542
             44  C  7  Y      0.55073     0.52281
             45  C  7  Z      0.41182     0.39102
             46  C  7  S      0.62289     0.54697
             47  C  7  X      0.37213     0.47640
             48  C  7  Y      0.12665     0.40281
             49  C  7  Z      0.41999     0.47762
             50  O  8  S      1.98473     1.97893
             51  O  8  S      0.42542     0.57813
             52  O  8  X      0.59551     0.57243
             53  O  8  Y      0.69796     0.67946
             54  O  8  Z      0.84145     0.84499
             55  O  8  S      1.51195     1.03146
             56  O  8  X      0.69651     0.74874
             57  O  8  Y      0.81527     0.85284
             58  O  8  Z      0.98752     0.99605
             59  H  9  S      0.47919     0.47146
             60  H  9  S      0.33534     0.44627
             61  O 10  S      1.98520     1.97957
             62  O 10  S      0.43126     0.58491
             63  O 10  X      0.76612     0.75651
             64  O 10  Y      0.69907     0.68657
             65  O 10  Z      0.66537     0.65797
             66  O 10  S      1.51064     1.03751
             67  O 10  X      0.84964     0.90033
             68  O 10  Y      0.78574     0.84067
             69  O 10  Z      0.81402     0.82400
             70  H 11  S      0.48552     0.48127
             71  H 11  S      0.31156     0.45420
             72  O 12  S      1.98497     1.97891
             73  O 12  S      0.42614     0.58135
             74  O 12  X      0.70962     0.69467
             75  O 12  Y      0.69510     0.68516
             76  O 12  Z      0.74378     0.74254
             77  O 12  S      1.48979     1.01089
             78  O 12  X      0.80280     0.82713
             79  O 12  Y      0.81027     0.85524
             80  O 12  Z      0.90626     0.90833
             81  H 13  S      0.34764     0.35824
             82  H 13  S      0.25539     0.38227
             83  H 14  S      0.42334     0.43169
             84  H 14  S      0.21835     0.31780
             85  C 15  S      1.98470     1.97447
             86  C 15  S      0.41268     0.42867
             87  C 15  X      0.49371     0.46970
             88  C 15  Y      0.58131     0.54176
             89  C 15  Z      0.53727     0.50681
             90  C 15  S      0.82210     0.55401
             91  C 15  X      0.47760     0.54275
             92  C 15  Y      0.37184     0.49381
             93  C 15  Z      0.24733     0.44899
             94  H 16  S      0.47298     0.46044
             95  H 16  S      0.33824     0.43599
             96  O 17  S      1.98468     1.97828
             97  O 17  S      0.41795     0.57125
             98  O 17  X      0.74879     0.74571
             99  O 17  Y      0.67862     0.66219
            100  O 17  Z      0.72520     0.71984
            101  O 17  S      1.49463     1.00359
            102  O 17  X      0.91124     0.91884
            103  O 17  Y      0.78389     0.80413
            104  O 17  Z      0.88202     0.90626
            105  H 18  S      0.48222     0.47569
            106  H 18  S      0.30540     0.43183
            107  H 19  S      0.34297     0.34850
            108  H 19  S      0.26043     0.38417
            109  H 20  S      0.35298     0.36372
            110  H 20  S      0.24558     0.37331

          ----- MULLIKEN ATOMIC OVERLAP POPULATIONS -----
          (OFF-DIAGONAL ELEMENTS NEED TO BE MULTIPLIED BY 2)

             1           2           3           4           5

    1    5.3603425
    2    0.3625262   0.4897257
    3   -0.0000425   0.0004140   5.1230949
    4   -0.0000044   0.0000434   0.3571367   5.1782109
    5   -0.0026694   0.0133719   0.2634017  -0.0491867   8.2111036
    6    0.0000710  -0.0002173   0.3719939  -0.0614560  -0.0346568
    7   -0.0000304  -0.0000014   0.0000631   0.0000169   0.0005365
    8   -0.0000000   0.0000001  -0.0671287   0.2935098  -0.0018446
    9    0.0000000  -0.0000003  -0.0754332   0.3361131   0.0015937
   10    0.0000007   0.0000078   0.0001885   0.0002868  -0.0228075
   11    0.0000001   0.0000000   0.0000001   0.0000009  -0.0000362
   12   -0.0000148  -0.0000007  -0.0000023  -0.0000000  -0.0000087
   13    0.0000130  -0.0001820  -0.0350921  -0.0020851   0.1798047
   14   -0.0000000   0.0000001   0.0034189  -0.0471239   0.0000165
   15    0.4809018  -0.0494851   0.0000460   0.0000019  -0.0000986
   16    0.3624324  -0.0210260   0.0000002   0.0000000   0.0000247
   17   -0.0514703  -0.0036174   0.0005091  -0.0000110  -0.0282354
   18   -0.0629315   0.0027563   0.0000009   0.0000000  -0.0000392
   19    0.0009535   0.0000223  -0.0000109  -0.0000023   0.0004417
   20   -0.0020934   0.0016767  -0.0047466   0.0001263   0.1041290

             6           7           8           9          10

    6    0.5085812
    7   -0.0000001   4.5731462
    8    0.0013709   0.0001781   8.1075165
    9    0.0017056   0.0000003  -0.0383594   0.5909306
   10   -0.0000251   0.3902550  -0.0003725  -0.0000023   8.1451473
   11   -0.0000000   0.3337680  -0.0000034  -0.0000000  -0.0610345
   12    0.0000000   0.2761294   0.0000000   0.0000000  -0.0483899
   13    0.0025516  -0.0083256   0.0119029   0.0004786   0.1014973
   14   -0.0001222   0.0000043   0.2495985  -0.0024690   0.0003559
   15    0.0000038   0.0003493   0.0000000  -0.0000000  -0.0000141
   16   -0.0000005   0.0000002   0.0000000  -0.0000000   0.0000000
   17    0.0000350   0.0011605   0.0000000   0.0000002  -0.0002452
   18    0.0000000   0.0000123   0.0000000   0.0000000  -0.0000003
   19   -0.0000016  -0.0250195  -0.0000038  -0.0000001   0.0011360
   20   -0.0007666   0.0016490  -0.0000511  -0.0000272   0.0010793

            11          12          13          14          15

   11    0.5891007
   12   -0.0688739   8.2628096
   13    0.0010624  -0.0009181   0.3586381
   14   -0.0000001   0.0000000  -0.0002695   0.4382887
   15    0.0000032   0.0011549   0.0002581   0.0000000   4.9329943
   16    0.0000000   0.0000004  -0.0000009   0.0000000  -0.0347860
   17   -0.0000451  -0.0296431   0.0029777   0.0000001   0.2605517
   18    0.0000003   0.0000825   0.0000090   0.0000000   0.3808256
   19    0.0030979   0.1748482   0.0016703  -0.0000001  -0.0098035
   20    0.0000433   0.0015573  -0.0109650  -0.0000072  -0.0343619

            16          17          18          19          20

   16    0.5042823
   17    0.0016147   8.2134717
   18   -0.0013951  -0.0368958   0.5038690
   19   -0.0000383   0.1167250  -0.0011134   0.3484114
   20    0.0001097   0.1801412   0.0024440  -0.0079058   0.3665289

          TOTAL MULLIKEN AND LOWDIN ATOMIC POPULATIONS
       ATOM         MULL.POP.    CHARGE          LOW.POP.     CHARGE
    1 C             6.447984   -0.447984         6.283642   -0.283642
    2 H             0.796014    0.203986         0.894650    0.105350
    3 C             5.937812    0.062188         6.018695   -0.018695
    4 C             6.005577   -0.005577         6.065346   -0.065346
    5 O             8.634841   -0.634841         8.305785   -0.305785
    6 H             0.789067    0.210933         0.902536    0.097464
    7 C             5.543892    0.456108         5.806121    0.193879
    8 O             8.556313   -0.556313         8.283048   -0.283048
    9 H             0.814531    0.185469         0.917735    0.082265
   10 O             8.507063   -0.507063         8.268031   -0.268031
   11 H             0.797084    0.202916         0.935466    0.064534
   12 O             8.568731   -0.568731         8.284237   -0.284237
   13 H             0.603026    0.396974         0.740511    0.259489
   14 H             0.641691    0.358309         0.749491    0.250509
   15 C             5.928541    0.071459         5.960974    0.039026
   16 H             0.811218    0.188782         0.896426    0.103574
   17 O             8.627023   -0.627023         8.310092   -0.310092
   18 H             0.787625    0.212375         0.907517    0.092483
   19 H             0.603407    0.396593         0.732665    0.267335
   20 H             0.598560    0.401440         0.737032    0.262968

          -------------------------------
          BOND ORDER AND VALENCE ANALYSIS     BOND ORDER THRESHOLD=0.050
          -------------------------------

                   BOND                       BOND                       BOND
  ATOM PAIR DIST  ORDER      ATOM PAIR DIST  ORDER      ATOM PAIR DIST  ORDER
    1   2  1.084  0.912        1  15  1.330  1.828        1  16  1.082  0.924
    1  17  2.420  0.088        3   4  1.332  1.714        3   5  1.398  0.927
    3   6  1.081  0.906        3   8  2.376  0.063        4   5  2.414  0.085
    4   8  1.408  0.964        4   9  1.086  0.881        5  13  1.055  0.569
    5  20  1.469  0.247        7  10  1.252  1.604        7  11  1.093  0.842
    7  12  1.319  1.242        8  14  0.995  0.814       10  12  2.312  0.178
   10  13  1.512  0.238       12  19  1.082  0.543       15  17  1.407  0.924
   15  18  1.083  0.909       17  19  1.437  0.272       17  20  1.059  0.570

                       TOTAL       BONDED        FREE
      ATOM            VALENCE     VALENCE     VALENCE
    1 C                 3.754       3.754       0.000
    2 H                 0.944       0.944       0.000
    3 C                 3.628       3.628       0.000
    4 C                 3.650       3.650      -0.000
    5 O                 1.983       1.983      -0.000
    6 H                 0.915       0.915      -0.000
    7 C                 3.718       3.718      -0.000
    8 O                 1.926       1.926      -0.000
    9 H                 0.914       0.914      -0.000
   10 O                 2.105       2.105       0.000
   11 H                 0.906       0.906       0.000
   12 O                 2.028       2.028      -0.000
   13 H                 0.858       0.858      -0.000
   14 H                 0.844       0.844      -0.000
   15 C                 3.655       3.655      -0.000
   16 H                 0.933       0.933      -0.000
   17 O                 1.987       1.987      -0.000
   18 H                 0.914       0.914       0.000
   19 H                 0.851       0.851       0.000
   20 H                 0.842       0.842       0.000

          ---------------------
          ELECTROSTATIC MOMENTS
          ---------------------

 POINT   1           X           Y           Z (BOHR)    CHARGE
                 0.834697    0.668502   -1.674819       -0.00 (A.U.)
         DX          DY          DZ         /D/  (DEBYE)
    -0.392832    2.139978    0.368054    2.206646
 ...... END OF PROPERTY EVALUATION ......
 CPU     0: STEP CPU TIME=     0.04 TOTAL CPU TIME=       1153.5 (     19.2 MIN)
 TOTAL WALL CLOCK TIME=       1162.4 SECONDS, CPU UTILIZATION IS    99.24%
  $VIB   
          IVIB=   0 IATOM=   0 ICOORD=   0 E=     -569.1860724836
  4.951392796E-05 2.180930178E-05-4.823132258E-05 1.815913194E-05-5.163644437E-05
 -3.311052108E-05-2.378916668E-05-3.628714156E-05 3.152244515E-05 2.057455562E-05
  2.625778714E-05-2.914599675E-05 1.900532340E-05 2.010740158E-06-5.959440018E-07
 -2.035144147E-05-1.520871661E-06 6.574882544E-07-2.139284229E-05-2.171405246E-05
 -1.568579265E-05-1.296795013E-06-2.971363774E-05-1.179279460E-05-1.411835959E-05
  7.887919963E-06-4.209528964E-06 2.437776163E-06 2.925259427E-05 1.084424279E-05
  7.128941305E-06-2.602793118E-06 6.877065970E-06 1.200528483E-05-5.968485317E-06
  1.006292201E-05-1.327392420E-06-1.686478524E-05 5.415118850E-06 2.295347009E-05
  4.737973843E-05 6.415621091E-06-7.083960526E-05 1.116755891E-05 6.671233650E-05
  3.068069747E-06-1.888896040E-05-2.498150250E-06 8.604677040E-06 1.641750846E-05
 -6.795718582E-06-1.243021224E-05 3.198958176E-05 1.281511058E-05 4.429472187E-06
  2.221891924E-06-6.636816299E-06-2.334815318E-06-1.119745093E-05 7.380234571E-06
 -3.928318534E-01 2.139978362E+00 3.680538682E-01
 ......END OF GEOMETRY SEARCH......
 CPU     0: STEP CPU TIME=     0.01 TOTAL CPU TIME=       1153.5 (     19.2 MIN)
 TOTAL WALL CLOCK TIME=       1162.4 SECONDS, CPU UTILIZATION IS    99.24%
               792678  WORDS OF DYNAMIC MEMORY USED
 EXECUTION OF GAMESS TERMINATED NORMALLY Fri May 22 15:19:42 2020
 DDI: 263640 bytes (0.3 MB / 0 MWords) used by master data server.
Note: The following floating-point exceptions are signalling: IEEE_UNDERFLOW_FLAGNote: The following floating-point exceptions are signalling: IEEE_UNDERFLOW_FLAGNote: The following floating-point exceptions are signalling: IEEE_UNDERFLOW_FLAG IEEE_DENORMAL
Note: The following floating-point exceptions are signalling: IEEE_UNDERFLOW_FLAGNote: The following floating-point exceptions are signalling: IEEE_UNDERFLOW_FLAGNote: The following floating-point exceptions are signalling:
 ----------------------------------------
 CPU timing information for all processes
 ========================================
 0: 1141.963 + 11.560 = 1153.523
 1: 1143.872 + 3.594 = 1147.467
 2: 1144.353 + 4.631 = 1148.984
 3: 1142.500 + 3.518 = 1146.19
 4: 1143.140 + 4.553 = 1147.694
 5: 1142.11 + 2.913 = 1144.925
 6: 1143.64 + 3.857 = 1146.922
 7: 1141.61 + 2.901 = 1143.963
 ----------------------------------------
 IEEE_DENORMAL
 IEEE_DENORMAL
 IEEE_DENORMAL
 IEEE_DENORMAL
 IEEE_UNDERFLOW_FLAG IEEE_DENORMALNote: The following floating-point exceptions are signalling: IEEE_UNDERFLOW_FLAGNote: The following floating-point exceptions are signalling: IEEE_UNDERFLOW_FLAG
 IEEE_DENORMAL
 IEEE_DENORMAL
 ddikick.x: exited gracefully.
unset echo
----- accounting info -----
Files used on the master node pietdev were:
-rwxr-xr-x 1 piet piet     1153 mei 22 15:00 /home/piet/scr/c-d-ribose_geoopt.F05*
-rw-r--r-- 1 piet piet 57344000 mei 22 15:19 /home/piet/scr/c-d-ribose_geoopt.F10
-rw-r--r-- 1 piet piet  5206144 mei 22 15:19 /home/piet/scr/c-d-ribose_geoopt.F22
-rw-r--r-- 1 piet piet  5206144 mei 22 15:19 /home/piet/scr/c-d-ribose_geoopt.F22.001
-rw-r--r-- 1 piet piet  5206144 mei 22 15:19 /home/piet/scr/c-d-ribose_geoopt.F22.002
-rw-r--r-- 1 piet piet  5206144 mei 22 15:19 /home/piet/scr/c-d-ribose_geoopt.F22.003
-rw-r--r-- 1 piet piet  5206144 mei 22 15:19 /home/piet/scr/c-d-ribose_geoopt.F22.004
-rw-r--r-- 1 piet piet  5206144 mei 22 15:19 /home/piet/scr/c-d-ribose_geoopt.F22.005
-rw-r--r-- 1 piet piet  5206144 mei 22 15:19 /home/piet/scr/c-d-ribose_geoopt.F22.006
-rw-r--r-- 1 piet piet  5206144 mei 22 15:19 /home/piet/scr/c-d-ribose_geoopt.F22.007
ls: No match.
ls: No match.
ls: No match.
vr 22 mei 2020 15:19:45 CEST
0.100u 0.025s 19:25.53 0.0%	0+0k 8+8io 0pf+0w
