----- GAMESS execution script 'rungms' -----
This job is running on host pietdev
under operating system Linux at za 16 mei 2020 14:24:24 CEST
Available scratch disk space (Kbyte units) at beginning of the job is
Filesystem     1K-blocks     Used Available Use% Mounted on
/dev/sda2      244568380 30215108 201860216  14% /
GAMESS temporary binary files will be written to /home/piet/scr
GAMESS supplementary output files will be written to /home/piet/gamess/scr
Copying input file arginineH_1__fukui_acid.inp to your run's scratch directory...
cp arginineH_1__fukui_acid.inp /home/piet/scr/arginineH_1__fukui_acid.F05
unset echo
 
Assuming a single but multicore node.
 
/home/piet/gamess/ddikick.x /home/piet/gamess/gamess.03.x arginineH_1__fukui_acid -ddi 1 6 pietdev:cpus=6 -scr /home/piet/scr

 Distributed Data Interface kickoff program.
 Initiating 6 compute processes on 1 nodes to run the following command:
 /home/piet/gamess/gamess.03.x arginineH_1__fukui_acid 

          ******************************************************
          *         GAMESS VERSION = 30 SEP 2019 (R2)          *
          *             FROM IOWA STATE UNIVERSITY             *
          * M.W.SCHMIDT, K.K.BALDRIDGE, J.A.BOATZ, S.T.ELBERT, *
          *   M.S.GORDON, J.H.JENSEN, S.KOSEKI, N.MATSUNAGA,   *
          *          K.A.NGUYEN, S.J.SU, T.L.WINDUS,           *
          *       TOGETHER WITH M.DUPUIS, J.A.MONTGOMERY       *
          *         J.COMPUT.CHEM.  14, 1347-1363(1993)        *
          **************** 64 BIT LINUX VERSION ****************

  SINCE 1993, STUDENTS AND POSTDOCS WORKING AT IOWA STATE UNIVERSITY
  AND ALSO IN THEIR VARIOUS JOBS AFTER LEAVING ISU HAVE MADE IMPORTANT
  CONTRIBUTIONS TO THE CODE:
     IVANA ADAMOVIC, CHRISTINE AIKENS, YURI ALEXEEV, POOJA ARORA,
     ANDREY ASADCHEV, ROB BELL, PRADIPTA BANDYOPADHYAY, JONATHAN BENTZ,
     COLLEEN BERTONI, BRETT BODE, KURT BRORSEN, CALEB CARLIN, GALINA CHABAN,
     WEI CHEN, CHEOL HO CHOI, PAUL DAY, ALBERT DEFUSCO, NUWAN DESILVA,
     TIM DUDLEY, DMITRI FEDOROV, ALEX FINDLATER, GRAHAM FLETCHER, 
     MARK FREITAG, KURT GLAESEMANN, EMILIE B GUIDEZ, ANASTASIA GUNINA, 
     DAN KEMP, SAROM SOK LEANG, GRANT MERRILL,
     NORIYUKI MINEZAWA, JONATHAN MULLIN,
     TAKESHI NAGATA, SEAN NEDD, HEATHER NETZLOFF, BOSILJKA NJEGIC, RYAN OLSON,
     MIKE PAK, BUU PHAM, DAVID POOLE,
     SPENCER PRUITT, LUKE ROSKOP, TOSAPORN SATTASATHUCHANA,
     JIM SHOEMAKER, LYUDMILA SLIPCHENKO,
     TONY SMITH, JIE SONG, TETSUYA TAKETSUGU, SIMON WEBB,
     JORGE LUIS GALVEZ VALLEJO, PENG XU, SOOHAENG YOO,
     FEDERICO ZAHARIEV

  ADDITIONAL CODE HAS BEEN PROVIDED BY COLLABORATORS IN OTHER GROUPS:
     IOWA STATE UNIVERSITY:
          JOE IVANIC, AARON WEST, LAIMUTIS BYTAUTAS, KLAUS RUEDENBERG
     UNIVERSITY OF TOKYO: KIMIHIKO HIRAO, TAKAHITO NAKAJIMA,
          TAKAO TSUNEDA, MUNEAKI KAMIYA, SUSUMU YANAGISAWA,
          KIYOSHI YAGI, MAHITO CHIBA, SEIKEN TOKURA, NAOAKI KAWAKAMI
     UNIVERSITY OF AARHUS: FRANK JENSEN
     UNIVERSITY OF IOWA: VISVALDAS KAIRYS, HUI LI
     NATIONAL INST. OF STANDARDS AND TECHNOLOGY: WALT STEVENS, DAVID GARMER
     UNIVERSITY OF PISA: BENEDETTA MENNUCCI, JACOPO TOMASI
     UNIVERSITY OF MEMPHIS: HENRY KURTZ, PRAKASHAN KORAMBATH
     UNIVERSITY OF ALBERTA: TOBY ZENG, MARIUSZ KLOBUKOWSKI
     UNIVERSITY OF NEW ENGLAND: MARK SPACKMAN
     MIE UNIVERSITY: HIROAKI UMEDA
     NAT. INST. OF ADVANCED INDUSTRIAL SCIENCE AND TECHNOLOGY: KAZUO KITAURA
     MICHIGAN STATE UNIVERSITY:
          KAROL KOWALSKI, MARTA WLOCH, JEFFREY GOUR, JESSE LUTZ,
          WEI LI, JUN SHEN, J. EMILIANO DEUSTUA, PIOTR PIECUCH
     UNIVERSITY OF MINNESOTA:
          ANDREW SAND, PRACHI SHARMA, YINAN SHU
     UNIVERSITY OF SILESIA: MONIKA MUSIAL, STANISLAW KUCHARSKI
     FACULTES UNIVERSITAIRES NOTRE-DAME DE LA PAIX:
          OLIVIER QUINET, BENOIT CHAMPAGNE
     UNIVERSITY OF CALIFORNIA - SANTA BARBARA: BERNARD KIRTMAN
     INSTITUTE FOR MOLECULAR SCIENCE:
          KAZUYA ISHIMURA, MICHIO KATOUDA, AND SHIGERU NAGASE
     UNIVERSITY OF NOTRE DAME: ANNA POMOGAEVA, DAN CHIPMAN
     KYUSHU UNIVERSITY:
          HARUYUKI NAKANO,
          FENG LONG GU, JACEK KORCHOWIEC, MARCIN MAKOWSKI, AND YURIKO AOKI,
          HIROTOSHI MORI AND EISAKU MIYOSHI
     PENNSYLVANIA STATE UNIVERSITY:
          TZVETELIN IORDANOV, CHET SWALINA, JONATHAN SKONE,
          SHARON HAMMES-SCHIFFER
     WASEDA UNIVERSITY:
          MASATO KOBAYASHI, TOMOKO AKAMA, TSUGUKI TOUMA,
          TAKESHI YOSHIKAWA, YASUHIRO IKABATA, JUNJI SEINO,
          YUYA NAKAJIMA, HIROMI NAKAI
     NANJING UNIVERSITY: SHUHUA LI
     UNIVERSITY OF NEBRASKA:
          PEIFENG SU, DEJUN SI, NANDUN THELLAMUREGE, YALI WANG, HUI LI
     UNIVERSITY OF ZURICH: ROBERTO PEVERATI, KIM BALDRIDGE
     N. COPERNICUS UNIVERSITY AND JACKSON STATE UNIVERSITY:
          MARIA BARYSZ
     UNIVERSITY OF COPENHAGEN: Jimmy Kromann, CASPER STEINMANN
     TOKYO INSTITUTE OF TECHNOLOGY: HIROYA NAKATA
     NAGOYA UNIVERSITY: YOSHIO NISHIMOTO, STEPHAN IRLE
     MOSCOW STATE UNIVERSITY: VLADIMIR MIRONOV
     A.N.NESMEYANOV INSTITUTE OF ORGANOELEMENT COMPOUNDS OF RUSSIAN ACADEMY OF SCIENCES:
          IGOR S. GERASIMOV
     JOHANNES KEPLER UNIVERSITY LINZ:
          CHRISTIAN FRIEDL


 PARALLEL VERSION RUNNING ON        6 PROCESSORS IN        1 NODES.

 EXECUTION OF GAMESS BEGUN Sat May 16 14:24:24 2020

            ECHO OF THE FIRST FEW INPUT CARDS -
 INPUT CARD> $BASIS GBASIS=N21 NGAUSS=3 $END                                                
 INPUT CARD> $CONTRL SCFTYP=UHF MAXIT=60 MULT=2 ICHARG=0 $END                               
 INPUT CARD> $SYSTEM MEMDDI=1000 MWORDS=30 $END                                             
 INPUT CARD> $SCF DIRSCF=.TRUE. $END                                                        
 INPUT CARD> $STATPT OPTTOL=0.0001 NSTEP=999 $END                                           
 INPUT CARD> $DATA                                                                          
 INPUT CARD>                                                                                
 INPUT CARD>C1                                                                              
 INPUT CARD>C 6.0000000 2.2343888172 0.5225300418 0.4812673728                              
 INPUT CARD>H 1.0000000 -4.9383131871 0.6684573026 1.6505337536                             
 INPUT CARD>H 1.0000000 -2.7305933126 1.0830822712 0.8358536821                             
 INPUT CARD>H 1.0000000 3.1668025760 0.1311235830 0.0629654246                              
 INPUT CARD>H 1.0000000 2.2152644344 1.6058479018 0.3168347902                              
 INPUT CARD>H 1.0000000 -5.9990882628 -0.2042933219 0.5962822612                            
 INPUT CARD>H 1.0000000 -3.4244059048 -1.5365298887 -1.4590507951                           
 INPUT CARD>H 1.0000000 -1.4874992692 -1.3802685480 -0.1215527305                           
 INPUT CARD>H 1.0000000 -1.4987714813 -0.0919817883 -1.3658524211                           
 INPUT CARD>H 1.0000000 -0.3683892125 1.4607320196 0.2370349894                             
 INPUT CARD>H 1.0000000 -0.3515367359 0.1765066120 1.4704251406                             
 INPUT CARD>H 1.0000000 -4.9834223368 -1.9036075913 -0.7971782504                           
 INPUT CARD>H 1.0000000 1.0431042619 0.0293335440 -1.2682858640                             
 INPUT CARD>N 7.0000000 -5.0528601892 0.0678596209 0.8409570816                             
 INPUT CARD>N 7.0000000 -4.1452740962 -1.3323159773 -0.7761953240                           
 INPUT CARD>C 6.0000000 -3.9932602292 -0.3419233595 0.1183540864                            
 INPUT CARD>C 6.0000000 -1.5225549010 -0.2975193949 -0.2879498322                           
 INPUT CARD>C 6.0000000 -0.3151757906 0.3746334330 0.3921248069                             
 INPUT CARD>C 6.0000000 1.0181920903 -0.1547467320 -0.1863788350                            
 INPUT CARD>H 1.0000000 2.2401444514 0.3354438277 1.5610372246                              
 INPUT CARD>H 1.0000000 1.0726281150 -1.2404719015 -0.0336235259                            
 INPUT CARD>N 7.0000000 -2.7958798369 0.2249583458 0.2935969641                             
 INPUT CARD> $END                                                                           
   30000000 WORDS OF MEMORY AVAILABLE

     BASIS OPTIONS
     -------------
     GBASIS=N21          IGAUSS=       3      POLAR=NONE    
     NDFUNC=       0     NFFUNC=       0     DIFFSP=       F
     NPFUNC=       0      DIFFS=       F     BASNAM=        


     RUN TITLE
     ---------
                                                                                 

 THE POINT GROUP OF THE MOLECULE IS C1      
 THE ORDER OF THE PRINCIPAL AXIS IS     0

 ATOM      ATOMIC                      COORDINATES (BOHR)
           CHARGE         X                   Y                   Z
 C           6.0     4.2223826145        0.9874385994        0.9094634614
 H           1.0    -9.3320587652        1.2632011364        3.1190565278
 H           1.0    -5.1600731447        2.0467287147        1.5795344250
 H           1.0     5.9843891259        0.2477876424        0.1189873992
 H           1.0     4.1862427714        3.0346125124        0.5987309369
 H           1.0   -11.3366329929       -0.3860583995        1.1268100850
 H           1.0    -6.4711888308       -2.9036204616       -2.7572062049
 H           1.0    -2.8109660257       -2.6083293452       -0.2297013537
 H           1.0    -2.8322674179       -0.1738203757       -2.5810868155
 H           1.0    -0.6961546685        2.7603832585        0.4479311795
 H           1.0    -0.6643081055        0.3335491317        2.7787006012
 H           1.0    -9.4173026976       -3.5972967357       -1.5064484566
 H           1.0     1.9711812316        0.0554323604       -2.3967127571
 N           7.0    -9.5485212119        0.1282360891        1.5891784517
 N           7.0    -7.8334321858       -2.5177121262       -1.4667964753
 C           6.0    -7.5461676309       -0.6461414583        0.2236567928
 C           6.0    -2.8772115642       -0.5622301324       -0.5441462811
 C           6.0    -0.5955958822        0.7079545342        0.7410084380
 C           6.0     1.9241040535       -0.2924289210       -0.3522049281
 H           1.0     4.2332591861        0.6338969186        2.9499326111
 H           1.0     2.0269732241       -2.3441519893       -0.0635392507
 N           7.0    -5.2834467863        0.4251096322        0.5548178130

          INTERNUCLEAR DISTANCES (ANGS.)
          ------------------------------

                1 C          2 H          3 H          4 H          5 H     

   1 C       0.0000000    7.2688467    5.0090915    1.0943359 *  1.0958930 *
   2 H       7.2688467    0.0000000    2.3894862 *  8.2765936    7.3369699  
   3 H       5.0090915    2.3894862 *  0.0000000    6.0235255    5.0004173  
   4 H       1.0943359 *  8.2765936    6.0235255    0.0000000    1.7733263 *
   5 H       1.0958930 *  7.3369699    5.0004173    1.7733263 *  0.0000000  
   6 H       8.2662958    1.7315841 *  3.5210495    9.1875180    8.4160735  
   7 H       6.3266516    4.1016338    3.5511027    6.9671824    6.6958337  
   8 H       4.2233264    4.3869904    2.9206176 *  4.8970275    4.7769796  
   9 H       4.2102212    4.6375964    2.7831044 *  4.8845550    4.4168003  
  10 H       2.7774675 *  4.8486991    2.4660112 *  3.7809707    2.5889559 *
  11 H       2.7901929 *  4.6165975    2.6238275 *  3.7896852    3.1563041  
  12 H       7.7212282    3.5508938    4.0819540    8.4442965    8.0856907  
  13 H       2.1733242 *  6.6862053    4.4473119    2.5085226 *  2.5242750 *
  14 N       7.3102736    1.0145211 *  2.5344874 *  8.2566415    7.4475330  
  15 N       6.7617871    3.2436120    3.2301970    7.5041529    7.0911192  
  16 C       6.2978249    2.0643567 *  2.0346436 *  7.1758861    6.5099144  
  17 C       3.9215816    4.0445314    2.1513605 *  4.7219646    4.2379081  
  18 C       2.5554059 *  4.8003463    2.5559806 *  3.5059687    2.8150818 *
  19 C       1.5438879 *  6.2874373    4.0780598    2.1818390 *  2.1876699 *
  20 H       1.0958729 *  7.1867351    5.0786896    1.7733192 *  1.7783659 *
  21 H       2.1732410 *  6.5277723    4.5408576    2.5052286 *  3.0870658  
  22 N       5.0425561    2.5744882 *  1.0171929 *  5.9678788    5.1979768  

                6 H          7 H          8 H          9 H         10 H     

   1 C       8.2662958    6.3266516    4.2233264    4.2102212    2.7774675 *
   2 H       1.7315841 *  4.1016338    4.3869904    4.6375964    4.8486991  
   3 H       3.5210495    3.5511027    2.9206176 *  2.7831044 *  2.4660112 *
   4 H       9.1875180    6.9671824    4.8970275    4.8845550    3.7809707  
   5 H       8.4160735    6.6958337    4.7769796    4.4168003    2.5889559 *
   6 H       0.0000000    3.5536231    4.7172704    4.9107471    5.8826983  
   7 H       3.5536231    0.0000000    2.3590095 *  2.4090399 *  4.6042941  
   8 H       4.7172704    2.3590095 *  0.0000000    1.7911146 *  3.0744555  
   9 H       4.9107471    2.4090399 *  1.7911146 *  0.0000000    2.5015860 *
  10 H       5.8826983    4.6042941    3.0744555    2.5015860 *  0.0000000  
  11 H       5.7274752    4.5780835    2.4996706 *  3.0712707    1.7806657 *
  12 H       2.4209458 *  1.7330186 *  3.5988653    3.9683964    5.8040425  
  13 H       7.2885987    4.7378230    3.1154340    2.5466388 *  2.5114152 *
  14 N       1.0145347 *  3.2428329    3.9667744    4.1865384    4.9243359  
  15 N       2.5676364 *  1.0137287 *  2.7376310 *  2.9816272 *  4.8054773  
  16 C       2.0665680 *  2.0588555 *  2.7229679 *  2.9133853 *  4.0501039  
  17 C       4.5639795    2.5541460 *  1.0960213 *  1.0975816 *  2.1677536 *
  18 C       5.7169658    4.0922742    2.1720700 *  2.1700490 *  1.0984055 *
  19 C       7.0609657    4.8234527    2.7900888 *  2.7803243 *  2.1706355 *
  20 H       8.3130635    6.6867292    4.4350993    4.7674803    3.1342788  
  21 H       7.1749300    4.7268180    2.5654487 *  3.1154389    3.0734817  
  22 N       3.2459852    2.5631348 *  2.1120990 *  2.1299562 *  2.7245269 *

               11 H         12 H         13 H         14 N         15 N     

   1 C       2.7901929 *  7.7212282    2.1733242 *  7.3102736    6.7617871  
   2 H       4.6165975    3.5508938    6.6862053    1.0145211 *  3.2436120  
   3 H       2.6238275 *  4.0819540    4.4473119    2.5344874 *  3.2301970  
   4 H       3.7896852    8.4442965    2.5085226 *  8.2566415    7.5041529  
   5 H       3.1563041    8.0856907    2.5242750 *  7.4475330    7.0911192  
   6 H       5.7274752    2.4209458 *  7.2885987    1.0145347 *  2.5676364 *
   7 H       4.5780835    1.7330186 *  4.7378230    3.2428329    1.0137287 *
   8 H       2.4996706 *  3.5988653    3.1154340    3.9667744    2.7376310 *
   9 H       3.0712707    3.9683964    2.5466388 *  4.1865384    2.9816272 *
  10 H       1.7806657 *  5.8040425    2.5114152 *  4.9243359    4.8054773  
  11 H       0.0000000    5.5608690    3.0768850    4.7445207    4.6600743  
  12 H       5.5608690    0.0000000    6.3464342    2.5641747 *  1.0145476 *
  13 H       3.0768850    6.3464342    0.0000000    6.4506723    5.3866049  
  14 N       4.7445207    2.5641747 *  6.4506723    0.0000000    2.3236579 *
  15 N       4.6600743    1.0145476 *  5.3866049    2.3236579 *  0.0000000  
  16 C       3.9190580    2.0633657 *  5.2369427    1.3464135 *  1.3432068 *
  17 C       2.1651482 *  3.8492124    2.7659535 *  3.7243775    2.8614408 *
  18 C       1.0969539 *  5.3289164    2.1728139 *  4.7687749    4.3529647  
  19 C       2.1750598 *  6.2810004    1.0977381 *  6.1613836    5.3287837  
  20 H       2.5981307 *  7.9217705    3.0873416    7.3333508    7.0012605  
  21 H       2.5096287 *  6.1399114    1.7713466 *  6.3244154    5.2712761  
  22 N       2.7133163 *  3.2412846    4.1491621    2.3277121 *  2.3217286 *

               16 C         17 C         18 C         19 C         20 H     

   1 C       6.2978249    3.9215816    2.5554059 *  1.5438879 *  1.0958729 *
   2 H       2.0643567 *  4.0445314    4.8003463    6.2874373    7.1867351  
   3 H       2.0346436 *  2.1513605 *  2.5559806 *  4.0780598    5.0786896  
   4 H       7.1758861    4.7219646    3.5059687    2.1818390 *  1.7733192 *
   5 H       6.5099144    4.2379081    2.8150818 *  2.1876699 *  1.7783659 *
   6 H       2.0665680 *  4.5639795    5.7169658    7.0609657    8.3130635  
   7 H       2.0588555 *  2.5541460 *  4.0922742    4.8234527    6.6867292  
   8 H       2.7229679 *  1.0960213 *  2.1720700 *  2.7900888 *  4.4350993  
   9 H       2.9133853 *  1.0975816 *  2.1700490 *  2.7803243 *  4.7674803  
  10 H       4.0501039    2.1677536 *  1.0984055 *  2.1706355 *  3.1342788  
  11 H       3.9190580    2.1651482 *  1.0969539 *  2.1750598 *  2.5981307 *
  12 H       2.0633657 *  3.8492124    5.3289164    6.2810004    7.9217705  
  13 H       5.2369427    2.7659535 *  2.1728139 *  1.0977381 *  3.0873416  
  14 N       1.3464135 *  3.7243775    4.7687749    6.1613836    7.3333508  
  15 N       1.3432068 *  2.8614408 *  4.3529647    5.3287837    7.0012605  
  16 C       0.0000000    2.5042842 *  3.7572209    5.0241966    6.4339331  
  17 C       2.5042842 *  0.0000000    1.5401478 *  2.5467815 *  4.2399649  
  18 C       3.7572209    1.5401478 *  0.0000000    1.5468613 *  2.8102586 *
  19 C       5.0241966    2.5467815 *  1.5468613 *  0.0000000    2.1879025 *
  20 H       6.4339331    4.2399649    2.8102586 *  2.1879025 *  0.0000000  
  21 H       5.1472042    2.7728715 *  2.1715954 *  1.0977689 *  2.5277555 *
  22 N       1.3363326 *  1.4941673 *  2.4871677 *  3.8628613    5.1942422  

               21 H         22 N     

   1 C       2.1732410 *  5.0425561  
   2 H       6.5277723    2.5744882 *
   3 H       4.5408576    1.0171929 *
   4 H       2.5052286 *  5.9678788  
   5 H       3.0870658    5.1979768  
   6 H       7.1749300    3.2459852  
   7 H       4.7268180    2.5631348 *
   8 H       2.5654487 *  2.1120990 *
   9 H       3.1154389    2.1299562 *
  10 H       3.0734817    2.7245269 *
  11 H       2.5096287 *  2.7133163 *
  12 H       6.1399114    3.2412846  
  13 H       1.7713466 *  4.1491621  
  14 N       6.3244154    2.3277121 *
  15 N       5.2712761    2.3217286 *
  16 C       5.1472042    1.3363326 *
  17 C       2.7728715 *  1.4941673 *
  18 C       2.1715954 *  2.4871677 *
  19 C       1.0977689 *  3.8628613  
  20 H       2.5277555 *  5.1942422  
  21 H       0.0000000    4.1496883  
  22 N       4.1496883    0.0000000  

  * ... LESS THAN  3.000


     ATOMIC BASIS SET
     ----------------
 THE CONTRACTED PRIMITIVE FUNCTIONS HAVE BEEN UNNORMALIZED
 THE CONTRACTED BASIS FUNCTIONS ARE NOW NORMALIZED TO UNITY

  SHELL TYPE  PRIMITIVE        EXPONENT          CONTRACTION COEFFICIENT(S)

 C         

      1   S       1           172.2560000    0.061766907377
      1   S       2            25.9109000    0.358794042852
      1   S       3             5.5333500    0.700713083689

      2   L       4             3.6649800   -0.395895162119    0.236459946619
      2   L       5             0.7705450    1.215834355681    0.860618805716

      3   L       6             0.1958570    1.000000000000    1.000000000000

 H         

      4   S       7             5.4471780    0.156284978695
      4   S       8             0.8245472    0.904690876670

      5   S       9             0.1831916    1.000000000000

 H         

      6   S      10             5.4471780    0.156284978695
      6   S      11             0.8245472    0.904690876670

      7   S      12             0.1831916    1.000000000000

 H         

      8   S      13             5.4471780    0.156284978695
      8   S      14             0.8245472    0.904690876670

      9   S      15             0.1831916    1.000000000000

 H         

     10   S      16             5.4471780    0.156284978695
     10   S      17             0.8245472    0.904690876670

     11   S      18             0.1831916    1.000000000000

 H         

     12   S      19             5.4471780    0.156284978695
     12   S      20             0.8245472    0.904690876670

     13   S      21             0.1831916    1.000000000000

 H         

     14   S      22             5.4471780    0.156284978695
     14   S      23             0.8245472    0.904690876670

     15   S      24             0.1831916    1.000000000000

 H         

     16   S      25             5.4471780    0.156284978695
     16   S      26             0.8245472    0.904690876670

     17   S      27             0.1831916    1.000000000000

 H         

     18   S      28             5.4471780    0.156284978695
     18   S      29             0.8245472    0.904690876670

     19   S      30             0.1831916    1.000000000000

 H         

     20   S      31             5.4471780    0.156284978695
     20   S      32             0.8245472    0.904690876670

     21   S      33             0.1831916    1.000000000000

 H         

     22   S      34             5.4471780    0.156284978695
     22   S      35             0.8245472    0.904690876670

     23   S      36             0.1831916    1.000000000000

 H         

     24   S      37             5.4471780    0.156284978695
     24   S      38             0.8245472    0.904690876670

     25   S      39             0.1831916    1.000000000000

 H         

     26   S      40             5.4471780    0.156284978695
     26   S      41             0.8245472    0.904690876670

     27   S      42             0.1831916    1.000000000000

 N         

     28   S      43           242.7660000    0.059865700508
     28   S      44            36.4851000    0.352955002994
     28   S      45             7.8144900    0.706513005993

     29   L      46             5.4252200   -0.413300077430    0.237972016222
     29   L      47             1.1491500    1.224417266851    0.858953058551

     30   L      48             0.2832050    1.000000000000    1.000000000000

 N         

     31   S      49           242.7660000    0.059865700508
     31   S      50            36.4851000    0.352955002994
     31   S      51             7.8144900    0.706513005993

     32   L      52             5.4252200   -0.413300077430    0.237972016222
     32   L      53             1.1491500    1.224417266851    0.858953058551

     33   L      54             0.2832050    1.000000000000    1.000000000000

 C         

     34   S      55           172.2560000    0.061766907377
     34   S      56            25.9109000    0.358794042852
     34   S      57             5.5333500    0.700713083689

     35   L      58             3.6649800   -0.395895162119    0.236459946619
     35   L      59             0.7705450    1.215834355681    0.860618805716

     36   L      60             0.1958570    1.000000000000    1.000000000000

 C         

     37   S      61           172.2560000    0.061766907377
     37   S      62            25.9109000    0.358794042852
     37   S      63             5.5333500    0.700713083689

     38   L      64             3.6649800   -0.395895162119    0.236459946619
     38   L      65             0.7705450    1.215834355681    0.860618805716

     39   L      66             0.1958570    1.000000000000    1.000000000000

 C         

     40   S      67           172.2560000    0.061766907377
     40   S      68            25.9109000    0.358794042852
     40   S      69             5.5333500    0.700713083689

     41   L      70             3.6649800   -0.395895162119    0.236459946619
     41   L      71             0.7705450    1.215834355681    0.860618805716

     42   L      72             0.1958570    1.000000000000    1.000000000000

 C         

     43   S      73           172.2560000    0.061766907377
     43   S      74            25.9109000    0.358794042852
     43   S      75             5.5333500    0.700713083689

     44   L      76             3.6649800   -0.395895162119    0.236459946619
     44   L      77             0.7705450    1.215834355681    0.860618805716

     45   L      78             0.1958570    1.000000000000    1.000000000000

 H         

     46   S      79             5.4471780    0.156284978695
     46   S      80             0.8245472    0.904690876670

     47   S      81             0.1831916    1.000000000000

 H         

     48   S      82             5.4471780    0.156284978695
     48   S      83             0.8245472    0.904690876670

     49   S      84             0.1831916    1.000000000000

 N         

     50   S      85           242.7660000    0.059865700508
     50   S      86            36.4851000    0.352955002994
     50   S      87             7.8144900    0.706513005993

     51   L      88             5.4252200   -0.413300077430    0.237972016222
     51   L      89             1.1491500    1.224417266851    0.858953058551

     52   L      90             0.2832050    1.000000000000    1.000000000000

 TOTAL NUMBER OF BASIS SET SHELLS             =   52
 NUMBER OF CARTESIAN GAUSSIAN BASIS FUNCTIONS =  100
 NUMBER OF ELECTRONS                          =   65
 CHARGE OF MOLECULE                           =    0
 SPIN MULTIPLICITY                            =    2
 NUMBER OF OCCUPIED ORBITALS (ALPHA)          =   33
 NUMBER OF OCCUPIED ORBITALS (BETA )          =   32
 TOTAL NUMBER OF ATOMS                        =   22
 THE NUCLEAR REPULSION ENERGY IS      386.1217747557

     $CONTRL OPTIONS
     ---------------
 SCFTYP=UHF          RUNTYP=ENERGY       EXETYP=RUN     
 MPLEVL=       0     CITYP =NONE         CCTYP =NONE         VBTYP =NONE    
 DFTTYP=NONE         TDDFT =NONE    
 MULT  =       2     ICHARG=       0     NZVAR =       0     COORD =UNIQUE  
 PP    =NONE         RELWFN=NONE         LOCAL =NONE         NUMGRD=       F
 ISPHER=      -1     NOSYM =       0     MAXIT =      60     UNITS =ANGS    
 PLTORB=       F     MOLPLT=       F     AIMPAC=       F     FRIEND=        
 NPRINT=       7     IREST =       0     GEOM  =INPUT   
 NORMF =       0     NORMP =       0     ITOL  =      20     ICUT  =       9
 INTTYP=BEST         GRDTYP=BEST         QMTTOL= 1.0E-06

     $SYSTEM OPTIONS
     ---------------
  REPLICATED MEMORY=    30000000 WORDS (ON EVERY NODE).
 DISTRIBUTED MEMDDI=        1000 MILLION WORDS IN AGGREGATE,
 MEMDDI DISTRIBUTED OVER   6 PROCESSORS IS   166666666 WORDS/PROCESSOR.
 TOTAL MEMORY REQUESTED ON EACH PROCESSOR=   196666666 WORDS.
 TIMLIM=      525600.00 MINUTES, OR     365.0 DAYS.
 PARALL= T  BALTYP=  DLB     KDIAG=    0  COREFL= F
 MXSEQ2=     300 MXSEQ3=     150  mem10=         0

          ----------------
          PROPERTIES INPUT
          ----------------

     MOMENTS            FIELD           POTENTIAL          DENSITY
 IEMOM =       1   IEFLD =       0   IEPOT =       0   IEDEN =       0
 WHERE =COMASS     WHERE =NUCLEI     WHERE =NUCLEI     WHERE =NUCLEI  
 OUTPUT=BOTH       OUTPUT=BOTH       OUTPUT=BOTH       OUTPUT=BOTH    
 IEMINT=       0   IEFINT=       0                     IEDINT=       0
                                                       MORB  =       0
          EXTRAPOLATION IN EFFECT
          SOSCF IN EFFECT
          DIIS or SOSCF will be reset if energy rises
 ORBITAL PRINTING OPTION: NPREO=     1   100     2     1

     -------------------------------
     INTEGRAL TRANSFORMATION OPTIONS
     -------------------------------
     NWORD  =            0
     CUTOFF = 1.0E-09     MPTRAN =       0
     DIRTRF =       T     AOINTS =DUP     

          ----------------------
          INTEGRAL INPUT OPTIONS
          ----------------------
 NOPK  =       1 NORDER=       0 SCHWRZ=       T

     ------------------------------------------
     THE POINT GROUP IS C1 , NAXIS= 0, ORDER= 1
     ------------------------------------------

     DIMENSIONS OF THE SYMMETRY SUBSPACES ARE
 A   =  100

 ..... DONE SETTING UP THE RUN .....
 CPU     0: STEP CPU TIME=     0.02 TOTAL CPU TIME=          0.0 (      0.0 MIN)
 TOTAL WALL CLOCK TIME=          0.0 SECONDS, CPU UTILIZATION IS    66.67%

          ********************
          1 ELECTRON INTEGRALS
          ********************
 ...... END OF ONE-ELECTRON INTEGRALS ......
 CPU     0: STEP CPU TIME=     0.01 TOTAL CPU TIME=          0.0 (      0.0 MIN)
 TOTAL WALL CLOCK TIME=          0.1 SECONDS, CPU UTILIZATION IS    60.00%

          -------------
          GUESS OPTIONS
          -------------
          GUESS =HUCKEL            NORB  =       0          NORDER=       0
          MIX   =       F          PRTMO =       F          PUNMO =       F
          TOLZ  = 1.0E-08          TOLE  = 1.0E-05
          SYMDEN=       F          PURIFY=       F

 INITIAL GUESS ORBITALS GENERATED BY HUCKEL   ROUTINE.
 HUCKEL GUESS REQUIRES    100122 WORDS.

 SYMMETRIES FOR INITIAL GUESS ORBITALS FOLLOW.  ALPHA SET(S).
    33 ORBITALS ARE OCCUPIED (    8 CORE ORBITALS).
     9=A       10=A       11=A       12=A       13=A       14=A       15=A   
    16=A       17=A       18=A       19=A       20=A       21=A       22=A   
    23=A       24=A       25=A       26=A       27=A       28=A       29=A   
    30=A       31=A       32=A       33=A       34=A       35=A       36=A   
    37=A       38=A       39=A       40=A       41=A       42=A       43=A   

 SYMMETRIES FOR INITIAL GUESS ORBITALS FOLLOW.   BETA SET(S).
    32 ORBITALS ARE OCCUPIED (    8 CORE ORBITALS).
     9=A       10=A       11=A       12=A       13=A       14=A       15=A   
    16=A       17=A       18=A       19=A       20=A       21=A       22=A   
    23=A       24=A       25=A       26=A       27=A       28=A       29=A   
    30=A       31=A       32=A       33=A       34=A       35=A       36=A   
    37=A       38=A       39=A       40=A       41=A       42=A   
 ...... END OF INITIAL ORBITAL SELECTION ......
 CPU     0: STEP CPU TIME=     0.03 TOTAL CPU TIME=          0.1 (      0.0 MIN)
 TOTAL WALL CLOCK TIME=          0.1 SECONDS, CPU UTILIZATION IS    75.00%

                    ----------------------
                    AO INTEGRAL TECHNOLOGY
                    ----------------------
     S,P,L SHELL ROTATED AXIS INTEGRALS, REPROGRAMMED BY
        KAZUYA ISHIMURA (IMS) AND JOSE SIERRA (SYNSTAR).
     S,P,D,L SHELL ROTATED AXIS INTEGRALS PROGRAMMED BY
        KAZUYA ISHIMURA (INSTITUTE FOR MOLECULAR SCIENCE).
     S,P,D,F,G SHELL TO TOTAL QUARTET ANGULAR MOMENTUM SUM 5,
        ERIC PROGRAM BY GRAHAM FLETCHER (ELORET AND NASA ADVANCED
        SUPERCOMPUTING DIVISION, AMES RESEARCH CENTER).
     S,P,D,F,G,L SHELL GENERAL RYS QUADRATURE PROGRAMMED BY
        MICHEL DUPUIS (PACIFIC NORTHWEST NATIONAL LABORATORY).

          --------------------
          2 ELECTRON INTEGRALS
          --------------------

 DIRECT SCF METHOD SKIPS INTEGRAL STORAGE ON DISK.
 DIRECT TRANSFORMATION SKIPS AO INTEGRAL STORAGE ON DISK.
  ...... END OF TWO-ELECTRON INTEGRALS .....
 CPU     0: STEP CPU TIME=     0.02 TOTAL CPU TIME=          0.1 (      0.0 MIN)
 TOTAL WALL CLOCK TIME=          0.1 SECONDS, CPU UTILIZATION IS    80.00%

          ---------------------------
                  UHF SCF CALCULATION
          ---------------------------

     NUCLEAR ENERGY =       386.1217747557
     MAXIT = 60     NPUNCH=  2     MULT=  2
     EXTRAP=T  DAMP=F  SHIFT=F  RSTRCT=F  DIIS=F  SOSCF=T
     DENSITY MATRIX CONV=  2.00E-05
     SOSCF WILL OPTIMIZE    2211 ALPHA AND    2176 BETA ROTATION ANGLES.
     SOGTOL= 2.500E-01
     MEMORY REQUIRED FOR UHF/ROHF ITERS=    179421 WORDS.

 DIRECT SCF CALCULATION, SCHWRZ=T   FDIFF=T
 SCHWARZ INEQUALITY OVERHEAD:      4596 INTEGRALS, T=        0.00

                                                                                NONZERO     BLOCKS
 ITER EX      TOTAL ENERGY        E CHANGE  DENSITY CHANGE    ORB. GRAD       INTEGRALS    SKIPPED
   1  0     -357.9338448151  -357.9338448151   0.581314326   0.000000000        6838006     505587
          ---------------START SECOND ORDER SCF---------------
   2  1     -358.6843437166    -0.7504989014   0.144292385   0.034162213        6796075     518993
   3  2     -358.7176645230    -0.0333208064   0.063167857   0.009469733        6661334     543771
   4  3     -358.7215171586    -0.0038526356   0.005820639   0.002647879        6545984     560397
   5  4     -358.7216621278    -0.0001449692   0.003726686   0.001014241        6187076     596351
   6  5     -358.7217056842    -0.0000435564   0.001173889   0.000536152        6141952     600159
   7  6     -358.7217092628    -0.0000035786   0.000663450   0.000130378        5760111     633056
   8  7     -358.7217101272    -0.0000008644   0.000251671   0.000048683        5648545     641569
   9  8     -358.7217102685    -0.0000001412   0.000152117   0.000029759        5391011     661746
  10  9     -358.7217103068    -0.0000000383   0.000059949   0.000009501        5181774     677770
  11 10     -358.7217103137    -0.0000000069   0.000022808   0.000005220        4978642     690854
  12 11     -358.7217103144    -0.0000000007   0.000008785   0.000001982        4702401     709832
  13 12     -358.7217103146    -0.0000000002   0.000005833   0.000001029        4388524     731281

          -----------------
          DENSITY CONVERGED
          -----------------
     TIME TO FORM FOCK OPERATORS=       1.3 SECONDS (       0.1 SEC/ITER)
     FOCK TIME ON FIRST ITERATION=       0.1, LAST ITERATION=       0.1
     TIME TO SOLVE SCF EQUATIONS=       0.1 SECONDS (       0.0 SEC/ITER)

 FINAL UHF ENERGY IS     -358.7217103146 AFTER  13 ITERATIONS

          --------------------
          SPIN SZ   =    0.500
          S-SQUARED =    0.759
          --------------------

  ----- ALPHA SET ----- 

          ------------
          EIGENVECTORS
          ------------

                      1          2          3          4          5
                  -15.4356   -15.4297   -15.4284   -11.1921   -11.1661
                     A          A          A          A          A   
    1  C  1  S   -0.000034  -0.000026  -0.000007  -0.002846  -0.009761
    2  C  1  S   -0.000154  -0.000158  -0.000024  -0.001379  -0.003306
    3  C  1  X   -0.000188   0.000064  -0.000069   0.000351  -0.000594
    4  C  1  Y    0.000036  -0.000025   0.000014  -0.000071  -0.000154
    5  C  1  Z    0.000030  -0.000017   0.000005  -0.000084  -0.000148
    6  C  1  S    0.001958   0.000515   0.000526   0.004213   0.022158
    7  C  1  X   -0.000136  -0.000521   0.000043  -0.003308  -0.009981
    8  C  1  Y   -0.000953   0.000108  -0.000305  -0.000117  -0.005123
    9  C  1  Z   -0.000818  -0.000019  -0.000221   0.000006  -0.005006
   10  H  2  S    0.001762   0.001800  -0.001918  -0.000077   0.000106
   11  H  2  S    0.000753   0.005685   0.001249   0.000725  -0.000086
   12  H  3  S    0.001099   0.001897  -0.001720  -0.001696  -0.000550
   13  H  3  S    0.005532   0.000782   0.000970  -0.000040   0.000848
   14  H  4  S   -0.000195   0.000008  -0.000058  -0.000053  -0.001076
   15  H  4  S   -0.000438   0.000185  -0.000166   0.001034  -0.000166
   16  H  5  S   -0.000011  -0.000084   0.000014  -0.000437  -0.001343
   17  H  5  S    0.000200  -0.000059   0.000057  -0.000199   0.000452
   18  H  6  S   -0.002100   0.001041   0.002084  -0.000283  -0.000096
   19  H  6  S    0.000319   0.005530   0.001991   0.000762   0.000047
   20  H  7  S    0.002109  -0.002063   0.001054   0.000614   0.000066
   21  H  7  S    0.000497  -0.001340   0.006242  -0.000631   0.000247
   22  H  8  S   -0.001313  -0.000230  -0.000232   0.000616   0.000086
   23  H  8  S   -0.001535   0.000306  -0.000563   0.014840  -0.001306
   24  H  9  S   -0.001284  -0.000064  -0.000061   0.000507   0.000108
   25  H  9  S   -0.000421   0.000771  -0.001660   0.014894  -0.001208
   26  H 10  S    0.000653  -0.000281   0.000228  -0.001309  -0.001365
   27  H 10  S   -0.000462  -0.000225   0.000021   0.001243   0.000190
   28  H 11  S    0.000409  -0.000152   0.000154  -0.001377  -0.001364
   29  H 11  S    0.000155   0.000235  -0.000047   0.001086   0.000324
   30  H 12  S   -0.002173   0.001538   0.001673  -0.000381  -0.000110
   31  H 12  S   -0.000058   0.000338   0.005814  -0.000109  -0.000022
   32  H 13  S   -0.000301   0.000041  -0.000122  -0.000126   0.001064
   33  H 13  S   -0.000133   0.000065   0.000118  -0.001574   0.014458
   34  N 14  S   -0.029352   0.975340   0.141725  -0.000136  -0.000002
   35  N 14  S   -0.004076   0.101949   0.013857  -0.001134  -0.000043
   36  N 14  X    0.000138   0.001341  -0.000786  -0.000204  -0.000000
   37  N 14  Y    0.000709  -0.000342  -0.000458   0.000103   0.000030
   38  N 14  Z    0.000694  -0.000768  -0.000279   0.000215   0.000023
   39  N 14  S    0.008359  -0.072814  -0.005514   0.006170   0.000213
   40  N 14  X   -0.002068  -0.013222   0.005593   0.002533  -0.000163
   41  N 14  Y   -0.006143   0.003698   0.005364  -0.001198  -0.000260
   42  N 14  Z   -0.005901   0.007571   0.004116  -0.002169  -0.000172
   43  N 15  S   -0.013566  -0.142373   0.975595   0.000056   0.000001
   44  N 15  S   -0.001764  -0.015796   0.101830   0.000306   0.000004
   45  N 15  X    0.000889  -0.000879   0.000061   0.000058   0.000056
   46  N 15  Y   -0.000224  -0.000634   0.001035  -0.000061   0.000003
   47  N 15  Z   -0.000542  -0.000198   0.000936  -0.000013  -0.000046
   48  N 15  S    0.002686   0.015471  -0.072027  -0.002656   0.000067
   49  N 15  X   -0.008715   0.008596  -0.000650  -0.002181  -0.000475
   50  N 15  Y   -0.000167   0.004229  -0.010839  -0.000946  -0.000034
   51  N 15  Z    0.003141   0.000472  -0.010057  -0.000407   0.000258
   52  C 16  S   -0.000190  -0.000197  -0.000268  -0.003873   0.005245
   53  C 16  S   -0.001313  -0.001267  -0.001954  -0.001085   0.000590
   54  C 16  X    0.000350   0.000237  -0.000063  -0.000676   0.000172
   55  C 16  Y    0.000026   0.000043  -0.000081   0.000286   0.000139
   56  C 16  Z   -0.000028  -0.000005  -0.000044   0.000322   0.000053
   57  C 16  S    0.020774   0.019453   0.023489   0.002192   0.001429
   58  C 16  X    0.030256  -0.024279  -0.007467   0.008849   0.001482
   59  C 16  Y    0.010746   0.013898  -0.023064  -0.002289   0.000800
   60  C 16  Z    0.001107   0.020942  -0.019742  -0.004524   0.000174
   61  C 17  S   -0.000632  -0.000038  -0.000148   0.987808   0.005209
   62  C 17  S   -0.002572  -0.000661  -0.000574   0.102727  -0.000062
   63  C 17  X   -0.001287   0.001441  -0.000669   0.000081  -0.000655
   64  C 17  Y    0.000236  -0.000068   0.000201   0.000041   0.000067
   65  C 17  Z    0.000302  -0.000276   0.000328   0.000115   0.000060
   66  C 17  S    0.018936  -0.003675   0.007201  -0.083507  -0.001899
   67  C 17  X   -0.006921  -0.003217  -0.001082  -0.005355  -0.000031
   68  C 17  Y    0.003713  -0.002232   0.002072  -0.003054  -0.001725
   69  C 17  Z    0.004945  -0.000898   0.001127  -0.003461  -0.001620
   70  C 18  S    0.000202  -0.000119   0.000070  -0.004039  -0.043358
   71  C 18  S    0.000865  -0.000670   0.000312  -0.002736  -0.007096
   72  C 18  X    0.000096   0.000021   0.000026  -0.000173   0.000390
   73  C 18  Y    0.000147  -0.000078   0.000099   0.000091   0.000100
   74  C 18  Z    0.000077   0.000036   0.000078   0.000038   0.000112
   75  C 18  S   -0.005428   0.004021  -0.002411   0.021528   0.026694
   76  C 18  X    0.004014  -0.001726   0.001515  -0.011377   0.011518
   77  C 18  Y    0.000634  -0.000533   0.000179  -0.006057  -0.004946
   78  C 18  Z    0.000560  -0.001462   0.000512  -0.005744  -0.005531
   79  C 19  S   -0.000041   0.000010  -0.000004  -0.005397   0.987013
   80  C 19  S   -0.000273   0.000007  -0.000017  -0.001359   0.104505
   81  C 19  X    0.000493   0.000112   0.000125   0.000911   0.000012
   82  C 19  Y    0.000107   0.000039   0.000028   0.000291   0.000186
   83  C 19  Z    0.000168  -0.000006   0.000049   0.000299   0.000193
   84  C 19  S   -0.000587  -0.000534  -0.000309   0.000083  -0.093117
   85  C 19  X   -0.002619  -0.000074  -0.000732  -0.002287   0.001691
   86  C 19  Y   -0.001016  -0.000420  -0.000201  -0.001940  -0.004894
   87  C 19  Z   -0.001348   0.000004  -0.000359  -0.002116  -0.005087
   88  H 20  S   -0.000004  -0.000066   0.000007  -0.000453  -0.001340
   89  H 20  S    0.000052   0.000009  -0.000005  -0.000204   0.000418
   90  H 21  S   -0.000263  -0.000014  -0.000062  -0.000115   0.001069
   91  H 21  S    0.000106  -0.000156   0.000102  -0.001450   0.014456
   92  N 22  S    0.985761   0.026925   0.017554  -0.000200  -0.000017
   93  N 22  S    0.104758   0.002164   0.001197  -0.000600  -0.000198
   94  N 22  X   -0.000770  -0.000347   0.001202   0.000144  -0.000513
   95  N 22  Y   -0.001106   0.000654  -0.000231  -0.000601  -0.000071
   96  N 22  Z   -0.000814   0.000726  -0.000544  -0.000480  -0.000040
   97  N 22  S   -0.079942   0.001447   0.002824   0.008315  -0.000008
   98  N 22  X    0.008198   0.003200  -0.007633   0.007246   0.003242
   99  N 22  Y    0.009540  -0.005724   0.003464   0.001904   0.000544
  100  N 22  Z    0.005466  -0.006267   0.005114   0.000607   0.000161

                      6          7          8          9         10
                  -11.1637   -11.1627   -11.1566    -1.2541    -1.1381
                     A          A          A          A          A   
    1  C  1  S   -0.020772  -0.003181   0.987257  -0.000489  -0.010514
    2  C  1  S   -0.003148  -0.000619   0.101636   0.001796   0.012383
    3  C  1  X    0.000801  -0.000038  -0.000154  -0.000550  -0.006703
    4  C  1  Y   -0.000025  -0.000038   0.000060  -0.000124  -0.002324
    5  C  1  Z   -0.000041  -0.000022   0.000062  -0.000130  -0.002213
    6  C  1  S    0.003540   0.001948  -0.080333  -0.006499   0.013961
    7  C  1  X   -0.001052  -0.000807   0.004154   0.003762   0.004279
    8  C  1  Y    0.000081  -0.000076   0.001656   0.001587   0.002585
    9  C  1  Z    0.000099  -0.000329   0.001632   0.001791   0.002179
   10  H  2  S   -0.000028  -0.000590  -0.000011   0.041049  -0.050968
   11  H  2  S    0.000278   0.001458   0.000021   0.002855  -0.013115
   12  H  3  S   -0.000201  -0.001232  -0.000048   0.051820   0.076665
   13  H  3  S   -0.000229   0.001742   0.000479   0.003938   0.019322
   14  H  4  S   -0.000294  -0.000045   0.000175   0.000437   0.004481
   15  H  4  S    0.001227  -0.000055   0.013742  -0.000151  -0.001593
   16  H  5  S   -0.000023  -0.000127   0.000295   0.000628   0.005170
   17  H  5  S   -0.001417  -0.000195   0.014332   0.000126  -0.000151
   18  H  6  S   -0.000094  -0.000725  -0.000029   0.041059  -0.053108
   19  H  6  S    0.000274   0.001480   0.000096   0.002113  -0.016655
   20  H  7  S   -0.000017  -0.000425  -0.000022   0.041736  -0.037012
   21  H  7  S    0.001388   0.000169   0.000380   0.005771  -0.007252
   22  H  8  S   -0.001173  -0.000973  -0.000408   0.017103   0.037565
   23  H  8  S    0.000366  -0.000238  -0.000003   0.001470  -0.004322
   24  H  9  S   -0.001260  -0.000286  -0.000432   0.014620   0.037580
   25  H  9  S    0.000409   0.000364   0.000019  -0.002679  -0.006595
   26  H 10  S    0.001007  -0.000104  -0.000179   0.004350   0.022890
   27  H 10  S    0.014542   0.000069  -0.000989  -0.000445  -0.001868
   28  H 11  S    0.000946   0.000154  -0.000181   0.004223   0.023033
   29  H 11  S    0.014414   0.001037  -0.001035  -0.002632  -0.002282
   30  H 12  S    0.000064  -0.000836   0.000017   0.042339  -0.040013
   31  H 12  S   -0.000068   0.001721  -0.000004   0.003918  -0.009542
   32  H 13  S   -0.001281   0.000073  -0.001132   0.001443   0.012129
   33  H 13  S    0.001293   0.000129   0.001062   0.000083   0.000599
   34  N 14  S   -0.000058   0.000151  -0.000015  -0.102112   0.106698
   35  N 14  S   -0.000439   0.000010  -0.000129   0.094063  -0.092763
   36  N 14  X   -0.000058  -0.000821  -0.000026   0.037912  -0.002001
   37  N 14  Y    0.000043   0.000361   0.000010  -0.013989   0.013098
   38  N 14  Z    0.000047   0.000576   0.000016  -0.025297   0.013038
   39  N 14  S    0.002506   0.003396   0.000728   0.282109  -0.354098
   40  N 14  X    0.001051   0.000222   0.000304   0.029615  -0.011076
   41  N 14  Y   -0.000546  -0.000312  -0.000106  -0.010584   0.029647
   42  N 14  Z   -0.000796  -0.000295  -0.000191  -0.019268   0.033771
   43  N 15  S    0.000028   0.000112   0.000007  -0.105414   0.079295
   44  N 15  S    0.000192  -0.000365   0.000039   0.095409  -0.072247
   45  N 15  X   -0.000062  -0.000074  -0.000020   0.006678   0.015552
   46  N 15  Y   -0.000085  -0.000815  -0.000027   0.035999  -0.007769
   47  N 15  Z   -0.000139  -0.000668  -0.000037   0.031824  -0.011308
   48  N 15  S   -0.001934   0.005495  -0.000415   0.304039  -0.240006
   49  N 15  X   -0.000640   0.000257  -0.000128   0.009694   0.037875
   50  N 15  Y   -0.000079   0.000642   0.000011   0.033765  -0.007890
   51  N 15  Z    0.000460   0.000282   0.000119   0.029229  -0.020351
   52  C 16  S   -0.023052   0.985400   0.002669  -0.141748   0.025000
   53  C 16  S   -0.002521   0.093480   0.000120   0.170018  -0.028418
   54  C 16  X   -0.000062   0.000626  -0.000103   0.009394   0.125701
   55  C 16  Y    0.000130  -0.000013   0.000039   0.002196   0.046651
   56  C 16  Z    0.000228  -0.000087   0.000064  -0.000314   0.006506
   57  C 16  S    0.001500  -0.037040  -0.000217   0.134493  -0.036319
   58  C 16  X    0.003587  -0.000770   0.000790  -0.010113  -0.067957
   59  C 16  Y   -0.001008   0.000731  -0.000338   0.006489  -0.007064
   60  C 16  Z   -0.002260   0.000798  -0.000550   0.008408   0.013389
   61  C 17  S    0.003240   0.003793   0.002650  -0.039281  -0.092601
   62  C 17  S   -0.002221  -0.000481  -0.000925   0.042576   0.093206
   63  C 17  X    0.000140   0.001317  -0.000349  -0.029821  -0.028610
   64  C 17  Y   -0.000041   0.000440  -0.000007   0.008512   0.024165
   65  C 17  Z    0.000010  -0.000022   0.000001   0.012093   0.026116
   66  C 17  S    0.023626   0.000750   0.005308   0.067392   0.197170
   67  C 17  X    0.011362  -0.006478   0.003824   0.016127  -0.001196
   68  C 17  Y    0.006426  -0.002698   0.000956   0.003414  -0.001595
   69  C 17  Z    0.006259  -0.000092   0.000884  -0.003038  -0.002732
   70  C 18  S    0.986590   0.023075   0.020303  -0.011636  -0.053676
   71  C 18  S    0.104552   0.001875   0.001315   0.012001   0.050984
   72  C 18  X    0.000086  -0.000576  -0.001007  -0.007807  -0.020323
   73  C 18  Y   -0.000192   0.000020  -0.000319  -0.003188  -0.011203
   74  C 18  Z   -0.000294   0.000278  -0.000321  -0.003407  -0.011452
   75  C 18  S   -0.092799   0.003162  -0.002439   0.014907   0.127913
   76  C 18  X    0.000698   0.000942   0.003518  -0.007604  -0.010928
   77  C 18  Y    0.005074  -0.001136   0.002326   0.004520  -0.000537
   78  C 18  Z    0.005623  -0.003113   0.002436   0.007868  -0.001851
   79  C 19  S    0.042358  -0.004232   0.009869  -0.003069  -0.025893
   80  C 19  S    0.002108  -0.000096  -0.000884   0.002683   0.026432
   81  C 19  X   -0.000639   0.000323   0.000056  -0.003684  -0.013371
   82  C 19  Y   -0.000030   0.000139  -0.000053   0.000051   0.003967
   83  C 19  Z   -0.000007   0.000049  -0.000050   0.000196   0.004223
   84  C 19  S    0.017194  -0.002733   0.017565   0.014569   0.058962
   85  C 19  X   -0.011882  -0.000134   0.009421   0.003682   0.007779
   86  C 19  Y    0.003882  -0.001566   0.005111   0.005376   0.004053
   87  C 19  Z    0.004168  -0.000732   0.004967   0.004524   0.005037
   88  H 20  S   -0.000039  -0.000090   0.000296   0.000591   0.005195
   89  H 20  S   -0.001363  -0.000073   0.014311   0.000052   0.000073
   90  H 21  S   -0.001276  -0.000022  -0.001129   0.001532   0.012011
   91  H 21  S    0.001384  -0.000354   0.001111   0.000533  -0.000113
   92  N 22  S    0.000083   0.000204   0.000003  -0.122894  -0.148245
   93  N 22  S    0.000320   0.000287  -0.000020   0.108679   0.128217
   94  N 22  X   -0.000437   0.000730  -0.000023  -0.041914   0.023727
   95  N 22  Y   -0.000188   0.000177   0.000046  -0.020644  -0.000719
   96  N 22  Z   -0.000165   0.000006   0.000026  -0.007180  -0.005084
   97  N 22  S   -0.003231   0.001912   0.000009   0.361443   0.486011
   98  N 22  X   -0.000226  -0.000201  -0.000007  -0.030889  -0.003538
   99  N 22  Y    0.001118   0.001633  -0.000258  -0.029926  -0.024623
  100  N 22  Z    0.000916   0.001010  -0.000195  -0.016145  -0.018993

                     11         12         13         14         15
                   -1.1107    -1.0614    -0.9674    -0.8591    -0.7959
                     A          A          A          A          A   
    1  C  1  S    0.000283  -0.096960  -0.133863  -0.110320  -0.052240
    2  C  1  S   -0.000600   0.097710   0.125619   0.099467   0.045997
    3  C  1  X    0.000427  -0.038610  -0.006145   0.057199   0.040479
    4  C  1  Y   -0.000009  -0.016690  -0.009452   0.023264   0.048952
    5  C  1  Z    0.000005  -0.016273  -0.009631   0.022503   0.049240
    6  C  1  S   -0.000357   0.229943   0.388072   0.377042   0.203318
    7  C  1  X   -0.001497   0.001359  -0.005273   0.015339   0.004402
    8  C  1  Y    0.000705   0.000074  -0.004542   0.006696   0.021979
    9  C  1  Z    0.000392  -0.000185  -0.004227   0.006070   0.022117
   10  H  2  S   -0.079083   0.017824  -0.022306   0.035071   0.000447
   11  H  2  S   -0.023915   0.005115  -0.008119   0.017758   0.003285
   12  H  3  S   -0.014396  -0.032671   0.031958  -0.016278   0.060986
   13  H  3  S   -0.007067  -0.011764   0.010680  -0.006400   0.035485
   14  H  4  S   -0.000031   0.044029   0.075519   0.083289   0.033369
   15  H  4  S    0.000896  -0.003783   0.013489   0.028502   0.013210
   16  H  5  S   -0.000319   0.046926   0.071958   0.076475   0.055641
   17  H  5  S   -0.000224   0.001128   0.007475   0.021571   0.028772
   18  H  6  S   -0.076193   0.021540  -0.030821   0.048278  -0.006335
   19  H  6  S   -0.021277   0.007312  -0.012882   0.025064  -0.001281
   20  H  7  S    0.088605   0.012732  -0.015274   0.029022   0.003381
   21  H  7  S    0.021724   0.001695  -0.008744   0.021218  -0.002232
   22  H  8  S    0.002285   0.020149  -0.058738   0.076498  -0.075199
   23  H  8  S    0.004339   0.000201  -0.001759   0.016144  -0.035857
   24  H  9  S    0.001710   0.020716  -0.059622   0.077778  -0.071372
   25  H  9  S    0.004348   0.000988  -0.003106   0.018601  -0.035751
   26  H 10  S   -0.001660   0.056103  -0.048106  -0.045494   0.105057
   27  H 10  S   -0.000610  -0.001195  -0.000643  -0.010631   0.049777
   28  H 11  S   -0.001303   0.055760  -0.048254  -0.045095   0.102836
   29  H 11  S    0.000639  -0.001364  -0.000832  -0.009253   0.046425
   30  H 12  S    0.085368   0.015067  -0.017863   0.023316   0.030021
   31  H 12  S    0.024253   0.005709  -0.009474   0.016288   0.016661
   32  H 13  S   -0.000071   0.066640   0.026739  -0.050905  -0.100718
   33  H 13  S    0.000298  -0.001765  -0.000660  -0.011241  -0.045680
   34  N 14  S    0.148949  -0.033304   0.033821  -0.033712   0.003026
   35  N 14  S   -0.131419   0.029622  -0.030116   0.029790  -0.003078
   36  N 14  X   -0.009806  -0.010093   0.029381  -0.067147   0.007225
   37  N 14  Y   -0.008364  -0.003844   0.001376   0.010835   0.003641
   38  N 14  Z   -0.004524  -0.000426  -0.007979   0.031144   0.000933
   39  N 14  S   -0.486894   0.110197  -0.115252   0.118897  -0.006143
   40  N 14  X   -0.041325  -0.007290   0.023608  -0.055490   0.009929
   41  N 14  Y   -0.008640  -0.008662   0.006997   0.003854   0.002316
   42  N 14  Z    0.003665  -0.006671  -0.000261   0.020702  -0.001324
   43  N 15  S   -0.166820  -0.022817   0.018661  -0.016601  -0.013601
   44  N 15  S    0.147287   0.019946  -0.015515   0.012721   0.011697
   45  N 15  X    0.009691  -0.008463   0.010302  -0.003711  -0.027932
   46  N 15  Y    0.003524  -0.004470   0.015758  -0.038354  -0.025886
   47  N 15  Z   -0.000317  -0.001566   0.011122  -0.034371  -0.015157
   48  N 15  S    0.546058   0.078793  -0.073597   0.075498   0.048299
   49  N 15  X    0.022755  -0.012614   0.012068  -0.001495  -0.026956
   50  N 15  Y    0.026962  -0.000737   0.006454  -0.021408  -0.022318
   51  N 15  Z    0.016404   0.003435   0.000867  -0.017955  -0.013092
   52  C 16  S    0.000623   0.014082  -0.038688   0.065202   0.011512
   53  C 16  S   -0.000358  -0.015735   0.044204  -0.075115  -0.013661
   54  C 16  X    0.047305  -0.057787   0.065201  -0.036524  -0.015168
   55  C 16  Y   -0.102877  -0.025672   0.034057  -0.030873   0.013879
   56  C 16  Z   -0.112848  -0.005777   0.009045  -0.012849   0.013203
   57  C 16  S    0.003093  -0.027296   0.077905  -0.148736  -0.026377
   58  C 16  X   -0.017044   0.007413   0.002450  -0.009663   0.001421
   59  C 16  Y    0.039231   0.003702  -0.004449   0.004957   0.002384
   60  C 16  Z    0.042838   0.001942  -0.006103   0.009480  -0.000264
   61  C 17  S   -0.001074  -0.037206   0.107868  -0.111973   0.063753
   62  C 17  S    0.000658   0.040730  -0.103087   0.102273  -0.057418
   63  C 17  X    0.001937   0.061178  -0.055931  -0.039967   0.036456
   64  C 17  Y   -0.004289   0.006305  -0.009393  -0.021864   0.074530
   65  C 17  Z   -0.004023   0.004693  -0.007647  -0.023662   0.070825
   66  C 17  S   -0.014223   0.072674  -0.298226   0.365805  -0.242739
   67  C 17  X   -0.011403  -0.001506  -0.019230  -0.004110  -0.006190
   68  C 17  Y   -0.011976  -0.005186   0.004673  -0.017686   0.037630
   69  C 17  Z   -0.007894  -0.004445   0.003494  -0.015720   0.035087
   70  C 18  S    0.001346  -0.118241   0.095351   0.069108  -0.105356
   71  C 18  S   -0.003464   0.113795  -0.085372  -0.060617   0.089275
   72  C 18  X    0.000826   0.036384   0.065056  -0.085105  -0.032818
   73  C 18  Y   -0.000332  -0.017863   0.015038  -0.013272   0.080300
   74  C 18  Z    0.000030  -0.019771   0.014602  -0.012222   0.081490
   75  C 18  S    0.010861   0.300184  -0.291565  -0.227809   0.415450
   76  C 18  X   -0.006135  -0.001829  -0.003346  -0.019414  -0.014189
   77  C 18  Y   -0.003001  -0.009321   0.008157  -0.003704   0.034682
   78  C 18  Z   -0.005616  -0.011230   0.011184  -0.005752   0.033945
   79  C 19  S    0.000664  -0.141182  -0.054909   0.078726   0.103482
   80  C 19  S   -0.000459   0.135168   0.047587  -0.067045  -0.088760
   81  C 19  X    0.000285  -0.010823   0.088468   0.077126  -0.022362
   82  C 19  Y   -0.000144   0.022587   0.012053   0.014939   0.074792
   83  C 19  Z   -0.000247   0.023361   0.010554   0.013110   0.076998
   84  C 19  S   -0.003013   0.353726   0.170708  -0.277345  -0.401064
   85  C 19  X    0.001176   0.001480   0.000671   0.025012  -0.002477
   86  C 19  Y   -0.000734   0.005890   0.004803   0.001008   0.031563
   87  C 19  Z    0.000427   0.006472   0.003768   0.001423   0.033039
   88  H 20  S   -0.000287   0.046941   0.071864   0.076401   0.055648
   89  H 20  S   -0.000028   0.001178   0.007246   0.021671   0.028908
   90  H 21  S   -0.000153   0.066508   0.026963  -0.051196  -0.100953
   91  H 21  S   -0.000427  -0.002088   0.000026  -0.011962  -0.046122
   92  N 22  S    0.019597   0.062935  -0.051525   0.010533  -0.014801
   93  N 22  S   -0.017108  -0.053759   0.043526  -0.009551   0.012774
   94  N 22  X    0.009208   0.031135  -0.087049   0.125698  -0.003247
   95  N 22  Y   -0.014623  -0.000216   0.005096  -0.010971   0.068459
   96  N 22  Z   -0.016704  -0.003179   0.015636  -0.032729   0.056368
   97  N 22  S   -0.064870  -0.215020   0.191461  -0.047588   0.061288
   98  N 22  X    0.026662   0.017988  -0.060376   0.098302   0.001844
   99  N 22  Y   -0.023693   0.006764   0.000083  -0.011278   0.061819
  100  N 22  Z   -0.029492   0.002900   0.008832  -0.028412   0.050687

                     16         17         18         19         20
                   -0.7880    -0.7000    -0.6714    -0.6527    -0.6140
                     A          A          A          A          A   
    1  C  1  S   -0.031837  -0.001448  -0.007390   0.001251  -0.002721
    2  C  1  S    0.028604   0.001449   0.005914  -0.000966   0.001836
    3  C  1  X    0.031240  -0.007232   0.029823  -0.002223   0.023768
    4  C  1  Y    0.024421   0.014662   0.005782  -0.078991  -0.073096
    5  C  1  Z    0.024723   0.019583   0.010479   0.067193   0.088003
    6  C  1  S    0.120952   0.008726   0.034606  -0.006494   0.015670
    7  C  1  X    0.012244  -0.007149   0.018969  -0.000883   0.015731
    8  C  1  Y    0.010231   0.008699   0.001432  -0.055690  -0.057359
    9  C  1  Z    0.010883   0.012404   0.004892   0.048217   0.065521
   10  H  2  S   -0.082398   0.131936   0.051210  -0.000577  -0.083220
   11  H  2  S   -0.055187   0.083365   0.036979   0.000476  -0.062310
   12  H  3  S   -0.119629  -0.099917   0.025109  -0.014298   0.066174
   13  H  3  S   -0.073363  -0.056745   0.019622  -0.011608   0.047371
   14  H  4  S    0.025683  -0.009995   0.017195  -0.000482   0.010400
   15  H  4  S    0.009972  -0.007435   0.011299  -0.000152   0.008448
   16  H  5  S    0.031547   0.008195   0.006933  -0.058264  -0.056123
   17  H  5  S    0.015251   0.006963   0.003630  -0.046910  -0.047784
   18  H  6  S   -0.059878  -0.017480  -0.180268   0.013428   0.034774
   19  H  6  S   -0.041140  -0.015331  -0.121750   0.010817   0.022976
   20  H  7  S   -0.086894   0.133755   0.031295  -0.030344   0.107668
   21  H  7  S   -0.048937   0.082768   0.022730  -0.021640   0.080823
   22  H  8  S    0.050886   0.023012   0.054166   0.087222  -0.015971
   23  H  8  S    0.019772   0.024533   0.033289   0.067981  -0.014288
   24  H  9  S    0.040885  -0.003469   0.040281  -0.111627   0.055092
   25  H  9  S    0.015048   0.004480   0.021298  -0.088983   0.047827
   26  H 10  S    0.014820   0.020567  -0.030224  -0.104967  -0.044530
   27  H 10  S    0.002092   0.006735  -0.022920  -0.079496  -0.031957
   28  H 11  S    0.017968   0.033724  -0.018581   0.110574   0.021393
   29  H 11  S    0.003481   0.016595  -0.012825   0.082068   0.013910
   30  H 12  S   -0.092082  -0.095555   0.094056   0.024858  -0.083187
   31  H 12  S   -0.059604  -0.064029   0.056204   0.019212  -0.063368
   32  H 13  S   -0.044570  -0.028370  -0.005088  -0.089237  -0.072588
   33  H 13  S   -0.017725  -0.018595  -0.000121  -0.068773  -0.055216
   34  N 14  S    0.034318  -0.014533   0.007741   0.000290  -0.003260
   35  N 14  S   -0.028642   0.011906  -0.007292   0.000121   0.002167
   36  N 14  X    0.111482  -0.028816   0.271970  -0.019287  -0.012479
   37  N 14  Y   -0.065359   0.129103   0.055902  -0.028435   0.007026
   38  N 14  Z   -0.097311   0.159700   0.034611   0.023195  -0.161645
   39  N 14  S   -0.135767   0.050785  -0.017581  -0.003779   0.019122
   40  N 14  X    0.082609  -0.022167   0.266369  -0.019726  -0.009347
   41  N 14  Y   -0.052450   0.126725   0.058701  -0.028046   0.008802
   42  N 14  Z   -0.075892   0.153134   0.034550   0.020800  -0.157845
   43  N 15  S    0.048632  -0.003554  -0.008192   0.000304   0.001931
   44  N 15  S   -0.039314   0.003242   0.007893  -0.000722  -0.000977
   45  N 15  X    0.025002   0.202785  -0.071481  -0.027567   0.097151
   46  N 15  Y    0.143532  -0.005733  -0.145978  -0.029497   0.074066
   47  N 15  Z    0.131306  -0.102949  -0.083957   0.046416  -0.153718
   48  N 15  S   -0.195904   0.010504   0.014590   0.003292  -0.014106
   49  N 15  X    0.017242   0.199804  -0.072664  -0.026192   0.092236
   50  N 15  Y    0.109146  -0.006969  -0.144652  -0.026702   0.069992
   51  N 15  Z    0.102031  -0.100497  -0.082786   0.045857  -0.152050
   52  C 16  S   -0.123250   0.006594  -0.011331   0.005462  -0.004072
   53  C 16  S    0.143466  -0.007140   0.012650  -0.006225   0.004092
   54  C 16  X   -0.026914   0.207828  -0.052554   0.021611  -0.094306
   55  C 16  Y   -0.035810   0.045397   0.121554  -0.066547   0.167289
   56  C 16  Z   -0.017470  -0.014372   0.185834   0.048072  -0.102794
   57  C 16  S    0.306914  -0.020352   0.025417  -0.014505   0.012029
   58  C 16  X   -0.003033   0.049956  -0.010117   0.012632  -0.045722
   59  C 16  Y   -0.014427   0.004540   0.014122  -0.037737   0.103415
   60  C 16  Z   -0.008464  -0.007249   0.051488   0.041039  -0.096831
   61  C 17  S   -0.041685   0.014728  -0.027752   0.002747  -0.002064
   62  C 17  S    0.039548  -0.013896   0.022745  -0.001642   0.000055
   63  C 17  X    0.043806  -0.001964   0.101355  -0.020659   0.065604
   64  C 17  Y   -0.044299  -0.055990  -0.057704  -0.120825   0.022170
   65  C 17  Z   -0.031627  -0.021392  -0.039659   0.152494  -0.078274
   66  C 17  S    0.149573  -0.049052   0.140033  -0.017832   0.026882
   67  C 17  X    0.037332  -0.019331   0.061919  -0.008486   0.031529
   68  C 17  Y   -0.016474  -0.037554  -0.029381  -0.089350   0.021790
   69  C 17  Z   -0.011921  -0.016283  -0.017383   0.107611  -0.062156
   70  C 18  S   -0.024353  -0.025904   0.005377   0.000680  -0.000987
   71  C 18  S    0.022601   0.020461  -0.003442  -0.000373   0.000503
   72  C 18  X   -0.028903   0.043847  -0.026576  -0.000564  -0.006265
   73  C 18  Y   -0.003116   0.011838  -0.051295  -0.142373  -0.066896
   74  C 18  Z    0.002057   0.031020  -0.036525   0.151636   0.016906
   75  C 18  S    0.076855   0.110489  -0.036740  -0.001570   0.004581
   76  C 18  X    0.008718   0.031975  -0.003888  -0.002415  -0.002462
   77  C 18  Y   -0.001347   0.001602  -0.033184  -0.108682  -0.055226
   78  C 18  Z    0.004141   0.016769  -0.021981   0.117287   0.016273
   79  C 19  S    0.051964   0.013194   0.011319  -0.003270   0.006088
   80  C 19  S   -0.043448  -0.010845  -0.008614   0.002495  -0.004628
   81  C 19  X   -0.009685  -0.028022  -0.015876   0.011476  -0.017547
   82  C 19  Y    0.023645   0.024505  -0.017447  -0.128763  -0.103843
   83  C 19  Z    0.025976   0.036278  -0.007312   0.121345   0.086983
   84  C 19  S   -0.199926  -0.061522  -0.046601   0.014956  -0.026616
   85  C 19  X   -0.001950  -0.014327  -0.013244   0.008024  -0.013658
   86  C 19  Y    0.010077   0.014269  -0.014507  -0.096575  -0.085870
   87  C 19  Z    0.009753   0.020861  -0.007642   0.092515   0.069234
   88  H 20  S    0.031821   0.011416   0.010736   0.051199   0.068212
   89  H 20  S    0.015142   0.009106   0.006429   0.041799   0.056741
   90  H 21  S   -0.043594  -0.020937   0.002302   0.095823   0.071100
   91  H 21  S   -0.016238  -0.012573   0.005385   0.071819   0.057296
   92  N 22  S    0.061220   0.012805   0.025464  -0.007792   0.010551
   93  N 22  S   -0.049296  -0.009768  -0.018305   0.005642  -0.007146
   94  N 22  X   -0.084360  -0.125399  -0.084054   0.036492  -0.050096
   95  N 22  Y   -0.118731  -0.128142   0.038831  -0.081935   0.161880
   96  N 22  Z   -0.062974  -0.063540   0.087402   0.069150  -0.036100
   97  N 22  S   -0.250124  -0.039680  -0.109209   0.034095  -0.048287
   98  N 22  X   -0.069642  -0.124358  -0.104641   0.039085  -0.057466
   99  N 22  Y   -0.096378  -0.122140   0.050447  -0.078111   0.165116
  100  N 22  Z   -0.051062  -0.059322   0.099436   0.060409  -0.026471

                     21         22         23         24         25
                   -0.5934    -0.5855    -0.5660    -0.5622    -0.5473
                     A          A          A          A          A   
    1  C  1  S    0.001787   0.001219  -0.001716  -0.004115   0.000575
    2  C  1  S   -0.000382  -0.000521   0.000242   0.002145   0.000247
    3  C  1  X   -0.125740  -0.044821   0.218667   0.019257  -0.040790
    4  C  1  Y    0.082359  -0.100509  -0.075904   0.149266   0.071046
    5  C  1  Z    0.076430   0.127666  -0.062851   0.068970  -0.140149
    6  C  1  S   -0.010504  -0.008176   0.022348   0.031885  -0.009391
    7  C  1  X   -0.093776  -0.032888   0.169970   0.008917  -0.029614
    8  C  1  Y    0.066165  -0.079656  -0.070571   0.118071   0.064444
    9  C  1  Z    0.061937   0.104321  -0.059204   0.050535  -0.117019
   10  H  2  S   -0.096342   0.119785  -0.019077   0.066054   0.069557
   11  H  2  S   -0.079139   0.095066  -0.016528   0.067018   0.057037
   12  H  3  S   -0.054955  -0.028427  -0.061555   0.114320  -0.037975
   13  H  3  S   -0.047730  -0.015809  -0.053957   0.096268  -0.026009
   14  H  4  S   -0.114599  -0.036041   0.169831  -0.043154  -0.004582
   15  H  4  S   -0.099577  -0.031888   0.153357  -0.038717  -0.005503
   16  H  5  S    0.048887  -0.081616  -0.049595   0.098328   0.066601
   17  H  5  S    0.041217  -0.070283  -0.040972   0.086543   0.058551
   18  H  6  S    0.096661  -0.065107   0.086612   0.027110  -0.063323
   19  H  6  S    0.083510  -0.048051   0.080554   0.026593  -0.050164
   20  H  7  S   -0.022012  -0.121004  -0.057203  -0.070440  -0.064540
   21  H  7  S   -0.011600  -0.094085  -0.047251  -0.063937  -0.051757
   22  H  8  S    0.049237  -0.093495  -0.020115   0.049521   0.042231
   23  H  8  S    0.039534  -0.078932  -0.015406   0.038723   0.023711
   24  H  9  S    0.042841   0.097476   0.000050  -0.010641  -0.041712
   25  H  9  S    0.034168   0.076874  -0.001027  -0.012061  -0.038197
   26  H 10  S   -0.007912   0.023456   0.018145  -0.090287  -0.052921
   27  H 10  S   -0.006702   0.018709   0.004708  -0.076122  -0.040073
   28  H 11  S   -0.007765  -0.020241   0.009973  -0.044194   0.097718
   29  H 11  S   -0.006339  -0.015527  -0.002630  -0.038873   0.076841
   30  H 12  S    0.122992   0.070026   0.099523  -0.021174   0.049987
   31  H 12  S    0.104723   0.052001   0.086393  -0.021295   0.037422
   32  H 13  S   -0.042572  -0.079213   0.027337   0.007441   0.014329
   33  H 13  S   -0.037142  -0.064540   0.029240   0.006783   0.009473
   34  N 14  S    0.001310   0.006637   0.010251   0.015986   0.001723
   35  N 14  S   -0.001362  -0.005515  -0.009623  -0.014337  -0.000998
   36  N 14  X   -0.096946   0.023692  -0.139147  -0.107556   0.042542
   37  N 14  Y   -0.058369   0.101858   0.025902   0.070762   0.182322
   38  N 14  Z   -0.105240   0.141036  -0.009517   0.093869  -0.022880
   39  N 14  S   -0.002062  -0.029699  -0.038115  -0.061990  -0.010700
   40  N 14  X   -0.092323   0.022618  -0.133480  -0.100713   0.041399
   41  N 14  Y   -0.058525   0.099066   0.026996   0.072006   0.188261
   42  N 14  Z   -0.104663   0.140832  -0.010584   0.090661  -0.025287
   43  N 15  S    0.014302  -0.006261   0.005562  -0.014772  -0.002551
   44  N 15  S   -0.011798   0.005275  -0.003389   0.013294   0.001703
   45  N 15  X   -0.128946  -0.134613  -0.118491  -0.018585  -0.146327
   46  N 15  Y   -0.141123   0.032327  -0.068103   0.110718   0.099987
   47  N 15  Z   -0.066601   0.112935  -0.009470   0.110569  -0.049975
   48  N 15  S   -0.062367   0.027541  -0.034203   0.056629   0.014622
   49  N 15  X   -0.128672  -0.132659  -0.121610  -0.023225  -0.149271
   50  N 15  Y   -0.137396   0.033387  -0.071019   0.107548   0.103834
   51  N 15  Z   -0.063392   0.112734  -0.012202   0.109123  -0.051967
   52  C 16  S    0.009603  -0.000059  -0.006259   0.000044   0.001191
   53  C 16  S   -0.010619   0.000339   0.007053  -0.000975  -0.001388
   54  C 16  X    0.078054   0.038612   0.167902   0.061094  -0.061089
   55  C 16  Y    0.129089  -0.048684   0.094597  -0.082279   0.145037
   56  C 16  Z    0.065253  -0.076874  -0.021152  -0.133425  -0.185453
   57  C 16  S   -0.036569  -0.001824   0.009656  -0.006383  -0.002424
   58  C 16  X    0.022247   0.010869   0.062433   0.028458  -0.049008
   59  C 16  Y    0.048153  -0.010695   0.035568  -0.036552   0.129347
   60  C 16  Z    0.013614  -0.032524  -0.032122  -0.069248  -0.140618
   61  C 17  S   -0.000567  -0.003674   0.008983   0.003825  -0.009320
   62  C 17  S   -0.000254   0.003582  -0.008171  -0.005173   0.008037
   63  C 17  X   -0.042229  -0.047108   0.104965   0.163216  -0.067575
   64  C 17  Y   -0.093037   0.121047   0.020850  -0.070203  -0.047959
   65  C 17  Z   -0.085840  -0.125613  -0.005136   0.000340   0.056107
   66  C 17  S    0.022620   0.009322  -0.022788   0.014141   0.035314
   67  C 17  X   -0.025032  -0.024193   0.075516   0.104292  -0.037273
   68  C 17  Y   -0.060947   0.103510   0.033148  -0.049941  -0.035368
   69  C 17  Z   -0.057186  -0.101019   0.006874   0.009530   0.041933
   70  C 18  S    0.003586   0.003583  -0.030900  -0.002010   0.004045
   71  C 18  S   -0.000936  -0.001914   0.023321   0.002283  -0.002193
   72  C 18  X    0.143209   0.033179  -0.083506   0.027565  -0.000457
   73  C 18  Y   -0.003226   0.039386  -0.014111  -0.149863  -0.050551
   74  C 18  Z   -0.005519  -0.019712  -0.024567  -0.096905   0.137264
   75  C 18  S   -0.031661  -0.020007   0.128903  -0.009150  -0.016930
   76  C 18  X    0.104978   0.027956  -0.039683   0.024669   0.005515
   77  C 18  Y   -0.002178   0.032393  -0.013080  -0.122895  -0.053019
   78  C 18  Z   -0.001325  -0.017895  -0.020185  -0.075755   0.125102
   79  C 19  S   -0.006649  -0.005137   0.024170   0.007964  -0.004806
   80  C 19  S    0.004685   0.004298  -0.018086  -0.005850   0.004072
   81  C 19  X   -0.066557   0.000606  -0.026880  -0.143125   0.060054
   82  C 19  Y    0.093146  -0.064447  -0.092376   0.013690   0.042030
   83  C 19  Z    0.087453   0.114295  -0.084551  -0.020418  -0.006938
   84  C 19  S    0.022203   0.018526  -0.108909  -0.037306   0.018214
   85  C 19  X   -0.053356   0.001421  -0.014700  -0.112662   0.047682
   86  C 19  Y    0.074899  -0.056261  -0.080671   0.009317   0.038510
   87  C 19  Z    0.068274   0.096229  -0.075079  -0.021082  -0.007967
   88  H 20  S    0.040972   0.097920  -0.034361   0.031665  -0.107668
   89  H 20  S    0.034067   0.083525  -0.027740   0.028025  -0.096997
   90  H 21  S   -0.050123   0.057730   0.034778  -0.021847  -0.023935
   91  H 21  S   -0.042525   0.043662   0.035418  -0.016620  -0.019445
   92  N 22  S   -0.021244  -0.002650  -0.008043   0.002349   0.001470
   93  N 22  S    0.017349   0.001326   0.008982   0.000568  -0.002343
   94  N 22  X   -0.114401   0.008584  -0.183055  -0.085247   0.028472
   95  N 22  Y   -0.071622   0.014071  -0.068140   0.130267   0.020082
   96  N 22  Z   -0.052189  -0.116287  -0.046016   0.104938  -0.133418
   97  N 22  S    0.092457   0.011587   0.033680  -0.015724  -0.005864
   98  N 22  X   -0.120057   0.010542  -0.199832  -0.102712   0.030892
   99  N 22  Y   -0.071995   0.007065  -0.068109   0.141686   0.016873
  100  N 22  Z   -0.051393  -0.117628  -0.042764   0.115915  -0.138817

                     26         27         28         29         30
                   -0.5124    -0.5010    -0.4684    -0.4651    -0.4574
                     A          A          A          A          A   
    1  C  1  S    0.004902   0.002352  -0.017073  -0.000783   0.018689
    2  C  1  S   -0.005650  -0.002236   0.015605   0.000398  -0.014924
    3  C  1  X    0.043807   0.030594  -0.053788  -0.034505   0.230594
    4  C  1  Y    0.138991   0.170113  -0.109466   0.109975   0.017649
    5  C  1  Z    0.165826  -0.129033  -0.143995  -0.080524  -0.000624
    6  C  1  S   -0.008816  -0.006285   0.059914   0.002453  -0.068115
    7  C  1  X    0.025290   0.023907  -0.026497  -0.034386   0.212786
    8  C  1  Y    0.116842   0.153007  -0.095495   0.108022   0.006229
    9  C  1  Z    0.141599  -0.120272  -0.128913  -0.077593  -0.012269
   10  H  2  S   -0.006268  -0.019163  -0.002466   0.002373   0.009559
   11  H  2  S   -0.015251  -0.020097  -0.004576   0.003090   0.006831
   12  H  3  S   -0.109023  -0.008057  -0.034301   0.002426   0.016228
   13  H  3  S   -0.106994  -0.012420  -0.045284   0.006285   0.025590
   14  H  4  S   -0.064867   0.008843   0.057959  -0.030720   0.140426
   15  H  4  S   -0.059455   0.010116   0.052595  -0.032283   0.157161
   16  H  5  S    0.078204   0.141527  -0.055169   0.106109  -0.007753
   17  H  5  S    0.080875   0.141655  -0.073808   0.123614   0.002115
   18  H  6  S   -0.027651   0.008466  -0.002466   0.004507  -0.036676
   19  H  6  S   -0.026818   0.004712  -0.002963   0.006013  -0.039805
   20  H  7  S    0.026725   0.021167   0.013518  -0.006901   0.001971
   21  H  7  S    0.022200   0.020530   0.009839  -0.007629   0.004755
   22  H  8  S   -0.098558  -0.129290  -0.064103   0.065324   0.051536
   23  H  8  S   -0.096185  -0.113822  -0.080950   0.074829   0.063271
   24  H  9  S   -0.101227   0.114233  -0.056899  -0.052956  -0.017699
   25  H  9  S   -0.097288   0.112537  -0.075941  -0.065502  -0.010174
   26  H 10  S   -0.040404  -0.098325  -0.088443   0.154372   0.030422
   27  H 10  S   -0.043862  -0.091813  -0.114217   0.174821   0.034677
   28  H 11  S   -0.054872   0.098157  -0.115635  -0.130626  -0.030060
   29  H 11  S   -0.054542   0.088804  -0.138789  -0.139720  -0.035921
   30  H 12  S    0.010607  -0.006963  -0.005331   0.003485  -0.008023
   31  H 12  S    0.010905  -0.002955  -0.004752   0.002096  -0.007882
   32  H 13  S    0.059770  -0.064076  -0.130425  -0.145527  -0.030081
   33  H 13  S    0.053727  -0.057603  -0.154694  -0.159096  -0.037990
   34  N 14  S   -0.009997  -0.003602  -0.002371   0.002460  -0.008413
   35  N 14  S    0.009046   0.002659   0.002076  -0.001902   0.007923
   36  N 14  X    0.056900   0.011719   0.007839  -0.014268   0.058926
   37  N 14  Y    0.021268  -0.103894   0.000593   0.039957  -0.011602
   38  N 14  Z   -0.043955   0.041362  -0.006824  -0.020490  -0.001695
   39  N 14  S    0.036311   0.018041   0.008550  -0.011960   0.031789
   40  N 14  X    0.051868   0.011578   0.006689  -0.014823   0.057526
   41  N 14  Y    0.022306  -0.115395   0.000517   0.047544  -0.015312
   42  N 14  Z   -0.044155   0.048109  -0.006997  -0.024527  -0.000441
   43  N 15  S    0.004088   0.003226  -0.001305  -0.000826   0.001321
   44  N 15  S   -0.004213  -0.002253   0.000971   0.000560  -0.002431
   45  N 15  X   -0.013098   0.054628   0.007303  -0.014992  -0.006295
   46  N 15  Y   -0.013575  -0.070867   0.003897   0.016658   0.017672
   47  N 15  Z   -0.083856   0.034613  -0.030179  -0.008240  -0.002073
   48  N 15  S   -0.012370  -0.016979   0.006045   0.004193   0.006098
   49  N 15  X   -0.010710   0.058978   0.007197  -0.016694  -0.002009
   50  N 15  Y   -0.010273  -0.074703   0.005370   0.017335   0.024362
   51  N 15  Z   -0.089469   0.038737  -0.034924  -0.010195   0.001538
   52  C 16  S   -0.002940  -0.001160  -0.002671  -0.001711   0.017061
   53  C 16  S    0.003517   0.001422   0.002823   0.002155  -0.018747
   54  C 16  X   -0.025634   0.022710   0.004015   0.007652  -0.095565
   55  C 16  Y    0.070774  -0.061317   0.011638   0.019271  -0.024294
   56  C 16  Z    0.011340   0.092446   0.006183  -0.022376  -0.007165
   57  C 16  S    0.018625   0.003658   0.012007   0.005326  -0.051274
   58  C 16  X   -0.018082   0.021368   0.002150   0.000224  -0.053264
   59  C 16  Y    0.055059  -0.057593   0.009307   0.014675   0.002088
   60  C 16  Z    0.000720   0.070795   0.004406  -0.017156   0.005316
   61  C 17  S    0.001153   0.006055  -0.014200  -0.003487   0.024267
   62  C 17  S    0.003967  -0.004406   0.013743   0.002362  -0.018802
   63  C 17  X   -0.024156  -0.010739   0.075321   0.019427  -0.184922
   64  C 17  Y    0.158397   0.148548   0.113659  -0.062822  -0.105930
   65  C 17  Z    0.168815  -0.132738   0.107526   0.053771  -0.034830
   66  C 17  S   -0.050646  -0.033293   0.040145   0.020520  -0.118748
   67  C 17  X   -0.010306  -0.013001   0.052856   0.019248  -0.159320
   68  C 17  Y    0.128030   0.136816   0.099115  -0.064248  -0.102877
   69  C 17  Z    0.135786  -0.124464   0.096411   0.057506  -0.036365
   70  C 18  S   -0.005458  -0.004014  -0.020562   0.005865  -0.011191
   71  C 18  S    0.004648   0.002619   0.018295  -0.004370   0.005084
   72  C 18  X   -0.073164   0.011921   0.032192  -0.049095   0.278781
   73  C 18  Y   -0.077349  -0.120045  -0.157987   0.172050   0.034701
   74  C 18  Z   -0.098431   0.107153  -0.195718  -0.122912  -0.031918
   75  C 18  S    0.019996   0.022402   0.072235  -0.028352   0.066050
   76  C 18  X   -0.050217   0.011535   0.027540  -0.044062   0.235130
   77  C 18  Y   -0.068583  -0.115659  -0.146604   0.172431   0.030275
   78  C 18  Z   -0.087971   0.100815  -0.186008  -0.124833  -0.033955
   79  C 19  S   -0.000975   0.001765  -0.016230   0.002309  -0.005160
   80  C 19  S    0.000821  -0.001405   0.015697  -0.002172   0.003386
   81  C 19  X   -0.121382  -0.032800  -0.027149   0.050368  -0.262685
   82  C 19  Y   -0.092725  -0.104875   0.152494  -0.192085  -0.008095
   83  C 19  Z   -0.101603   0.065855   0.207148   0.141788   0.034126
   84  C 19  S    0.010448  -0.007969   0.044174  -0.004883   0.019116
   85  C 19  X   -0.089188  -0.025335  -0.010611   0.041716  -0.226837
   86  C 19  Y   -0.079868  -0.099199   0.139044  -0.189155  -0.010659
   87  C 19  Z   -0.089215   0.062888   0.192182   0.144005   0.030058
   88  H 20  S    0.099463  -0.122710  -0.087076  -0.084375  -0.022906
   89  H 20  S    0.100920  -0.119013  -0.110128  -0.099374  -0.017571
   90  H 21  S    0.051971   0.082127  -0.084533   0.174704   0.005959
   91  H 21  S    0.046695   0.075558  -0.105409   0.194775   0.006764
   92  N 22  S   -0.012737  -0.003137  -0.008443   0.004705  -0.017783
   93  N 22  S    0.008040   0.002103   0.006694  -0.002947   0.010517
   94  N 22  X    0.088725  -0.004387   0.028759  -0.015912   0.121169
   95  N 22  Y   -0.122167   0.017898  -0.043565  -0.017407   0.022072
   96  N 22  Z   -0.098574  -0.049946  -0.011583   0.037259  -0.047698
   97  N 22  S    0.059041   0.015544   0.033856  -0.022821   0.086873
   98  N 22  X    0.107726  -0.001600   0.030142  -0.019804   0.150274
   99  N 22  Y   -0.139123   0.015751  -0.049620  -0.014042   0.019654
  100  N 22  Z   -0.115620  -0.052485  -0.016079   0.037719  -0.063858

                     31         32         33         34         35
                   -0.3922    -0.3703    -0.0998     0.2593     0.2652
                     A          A          A          A          A   
    1  C  1  S    0.000060   0.003302  -0.001334  -0.053005  -0.046887
    2  C  1  S   -0.000201  -0.002281   0.000771   0.017871   0.009486
    3  C  1  X    0.003077   0.020407  -0.004442   0.044863   0.045389
    4  C  1  Y   -0.000633   0.008776  -0.001838   0.025405   0.036699
    5  C  1  Z    0.000538  -0.003154  -0.000852   0.028325   0.028991
    6  C  1  S    0.000004  -0.016213   0.010888   0.705542   0.689953
    7  C  1  X    0.002478   0.022283  -0.006702   0.271704   0.180220
    8  C  1  Y    0.000374   0.006493  -0.001188   0.152769   0.208144
    9  C  1  Z    0.000123  -0.002814  -0.003985   0.159275   0.182301
   10  H  2  S   -0.011247   0.000050  -0.020410   0.026622  -0.027253
   11  H  2  S   -0.020468   0.009262  -0.066543   0.473557  -0.350756
   12  H  3  S    0.005820  -0.005285   0.018877   0.030898   0.004924
   13  H  3  S    0.018489  -0.004696   0.070801   0.489064  -0.312437
   14  H  4  S    0.002321   0.011246  -0.002362  -0.011665  -0.008021
   15  H  4  S    0.003047   0.015448  -0.007195  -0.415110  -0.312182
   16  H  5  S   -0.001260   0.004160  -0.000336   0.007671   0.002386
   17  H  5  S   -0.002643   0.008205  -0.005295  -0.368625  -0.411152
   18  H  6  S    0.000645   0.011299   0.021881   0.018226  -0.006028
   19  H  6  S   -0.007936   0.022984   0.072919   0.434420  -0.306144
   20  H  7  S   -0.009641  -0.003729   0.017736   0.027133  -0.023255
   21  H  7  S   -0.020550  -0.003319   0.051445   0.386281  -0.367035
   22  H  8  S   -0.007155  -0.088245   0.040452  -0.009596   0.010204
   23  H  8  S    0.026819  -0.135358   0.116865  -0.152860  -0.470487
   24  H  9  S   -0.011950   0.120103  -0.047124  -0.009295   0.013168
   25  H  9  S   -0.027754   0.174213  -0.144737  -0.052286  -0.572025
   26  H 10  S   -0.009101  -0.014375  -0.001519  -0.002821   0.011238
   27  H 10  S   -0.010413  -0.045353   0.043117  -0.271816  -0.590719
   28  H 11  S   -0.000760   0.019583   0.006926  -0.004833   0.014423
   29  H 11  S   -0.004202   0.063148  -0.035853  -0.344949  -0.475730
   30  H 12  S    0.003875  -0.010418  -0.020136   0.027709  -0.017670
[...]
    5             0.108750   0.028446   0.046025   0.003770   0.001016
    6             0.002468   0.000485   0.000197   0.001615   0.004717
    7             0.000741   0.000968   0.000137   0.001337   0.000792
    8             0.092301   0.000893   0.025975   0.002904   0.040421
    9             0.000114   0.000507   0.015087   0.020556   0.037584
   10             0.052563   0.017606   0.086324   0.013183   0.030899
   11             0.013151   0.069810   0.023090   0.013221   0.034747
   12             0.001138   0.000590   0.000010   0.000967   0.000232
   13             0.000042   0.149957   0.018496   0.003826   0.014935
   14             0.015027   0.061153   0.005746   0.092215   0.137480
   15             0.023193   0.058335   0.010645   0.056828   0.121004
   16             0.015258   0.048710   0.004682   0.055542   0.095137
   17             0.142559   0.005641   0.092210   0.119129   0.113093
   18             0.099167   0.089431   0.207776   0.194485   0.121046
   19             0.079582   0.204168   0.210805   0.164834   0.080142
   20             0.004946   0.074774   0.008951   0.000440   0.002745
   21             0.027600   0.056862   0.101151   0.012416   0.008754
   22             0.106099   0.036898   0.012966   0.045430   0.073253

                     31         32

                  1.000000   1.000000

    1             0.000006   0.000641
    2             0.000453   0.000349
    3             0.000465   0.000033
    4             0.000003   0.000258
    5             0.000002   0.000054
    6             0.000240   0.000532
    7             0.000423   0.000101
    8             0.000601   0.025439
    9             0.000397   0.045324
   10             0.000239   0.000756
   11             0.000002   0.002331
   12             0.000119   0.000605
   13            -0.000000   0.000125
   14             0.424789   0.184298
   15             0.558317   0.079833
   16             0.001314   0.003664
   17             0.001735   0.019585
   18             0.000297   0.005041
   19             0.000074   0.002087
   20             0.000000   0.000088
   21             0.000047   0.000108
   22             0.010476   0.628748

     ATOMIC SPIN POPULATION (ALPHA MINUS BETA)
       ATOM         MULL.POP.                    LOW.POP.
    1 C            -0.000056                    -0.000034
    2 H            -0.007712                    -0.004613
    3 H            -0.007127                    -0.004365
    4 H            -0.000013                    -0.000013
    5 H             0.000012                     0.000004
    6 H            -0.006840                    -0.004014
    7 H            -0.009756                    -0.006132
    8 H             0.010093                     0.007135
    9 H             0.014258                     0.010803
   10 H            -0.000208                    -0.000150
   11 H            -0.000344                    -0.000186
   12 H            -0.008294                    -0.005103
   13 H             0.000089                     0.000078
   14 N             0.025837                     0.070921
   15 N             0.037116                     0.079937
   16 C             0.947764                     0.794402
   17 C            -0.022880                    -0.013790
   18 C             0.002881                     0.001870
   19 C            -0.001069                    -0.000724
   20 H             0.000020                     0.000020
   21 H             0.000130                     0.000143
   22 N             0.026098                     0.073813


          ********* ALL ELECTRONS ********

               ----- POPULATIONS IN EACH AO -----
                             MULLIKEN      LOWDIN
              1  C  1  S      1.98826     1.97648
              2  C  1  S      0.35173     0.41352
              3  C  1  X      0.53305     0.50949
              4  C  1  Y      0.53762     0.50599
              5  C  1  Z      0.53793     0.50628
              6  C  1  S      1.12070     0.58332
              7  C  1  X      0.45143     0.56486
              8  C  1  Y      0.52685     0.59733
              9  C  1  Z      0.52855     0.59793
             10  H  2  S      0.43754     0.44475
             11  H  2  S      0.25060     0.36473
             12  H  3  S      0.43796     0.44977
             13  H  3  S      0.24754     0.36120
             14  H  4  S      0.46837     0.47114
             15  H  4  S      0.33285     0.44202
             16  H  5  S      0.46722     0.46990
             17  H  5  S      0.33640     0.44426
             18  H  6  S      0.43707     0.44427
             19  H  6  S      0.25003     0.36415
             20  H  7  S      0.43744     0.44398
             21  H  7  S      0.23607     0.35946
             22  H  8  S      0.47609     0.48532
             23  H  8  S      0.32330     0.44120
             24  H  9  S      0.47995     0.49137
             25  H  9  S      0.34045     0.45261
             26  H 10  S      0.46729     0.47717
             27  H 10  S      0.33113     0.44196
             28  H 11  S      0.46649     0.47602
             29  H 11  S      0.32157     0.43739
             30  H 12  S      0.43713     0.44429
             31  H 12  S      0.24977     0.36414
             32  H 13  S      0.46800     0.47807
             33  H 13  S      0.32812     0.44011
             34  N 14  S      1.98715     1.97678
             35  N 14  S      0.35002     0.44619
             36  N 14  X      0.55367     0.52971
             37  N 14  Y      0.71847     0.72839
             38  N 14  Z      0.63406     0.62618
             39  N 14  S      1.30284     0.71492
             40  N 14  X      0.65197     0.66365
             41  N 14  Y      0.96339     0.93225
             42  N 14  Z      0.80665     0.79705
             43  N 15  S      1.98718     1.97678
             44  N 15  S      0.35007     0.44599
             45  N 15  X      0.59124     0.57510
             46  N 15  Y      0.66047     0.65848
             47  N 15  Z      0.65655     0.65341
             48  N 15  S      1.30187     0.71329
             49  N 15  X      0.77246     0.74304
             50  N 15  Y      0.82352     0.82506
             51  N 15  Z      0.82695     0.82337
             52  C 16  S      1.98441     1.97330
             53  C 16  S      0.39589     0.37542
             54  C 16  X      0.53614     0.51780
             55  C 16  Y      0.57818     0.56924
             56  C 16  Z      0.58646     0.57824
             57  C 16  S      0.35931     0.45857
             58  C 16  X     -0.00815     0.41329
             59  C 16  Y      0.24995     0.50519
             60  C 16  Z      0.28124     0.51609
             61  C 17  S      1.98862     1.97583
             62  C 17  S      0.35416     0.41029
             63  C 17  X      0.47281     0.46300
             64  C 17  Y      0.54468     0.51402
             65  C 17  Z      0.53588     0.50432
             66  C 17  S      1.02123     0.56324
             67  C 17  X      0.26243     0.45532
             68  C 17  Y      0.47936     0.56580
             69  C 17  Z      0.46214     0.56141
             70  C 18  S      1.98941     1.97631
             71  C 18  S      0.34435     0.41343
             72  C 18  X      0.52730     0.51576
             73  C 18  Y      0.53529     0.50779
             74  C 18  Z      0.53756     0.51036
             75  C 18  S      1.12035     0.56676
             76  C 18  X      0.33419     0.51151
             77  C 18  Y      0.51825     0.58226
             78  C 18  Z      0.51839     0.58262
             79  C 19  S      1.98923     1.97625
             80  C 19  S      0.34296     0.40971
             81  C 19  X      0.52118     0.50724
             82  C 19  Y      0.53707     0.50894
             83  C 19  Z      0.53674     0.50873
             84  C 19  S      1.11690     0.56701
             85  C 19  X      0.34705     0.52163
             86  C 19  Y      0.51822     0.58147
             87  C 19  Z      0.51485     0.58055
             88  H 20  S      0.46714     0.46980
             89  H 20  S      0.33571     0.44393
             90  H 21  S      0.46795     0.47810
             91  H 21  S      0.32739     0.43971
             92  N 22  S      1.98782     1.97686
             93  N 22  S      0.34415     0.44730
             94  N 22  X      0.55131     0.54258
             95  N 22  Y      0.61616     0.60900
             96  N 22  Z      0.72196     0.73572
             97  N 22  S      1.32138     0.70373
             98  N 22  X      0.64954     0.65905
             99  N 22  Y      0.78540     0.76152
            100  N 22  Z      0.94701     0.90995

          ----- MULLIKEN ATOMIC OVERLAP POPULATIONS -----
          (OFF-DIAGONAL ELEMENTS NEED TO BE MULTIPLIED BY 2)

             1           2           3           4           5

    1    5.3484681
    2   -0.0000000   0.3974877
    3   -0.0000032   0.0017669   0.4039252
    4    0.3790453   0.0000000   0.0000000   0.5146062
    5    0.3765357   0.0000000  -0.0000003  -0.0257111   0.5216148
    6    0.0000000  -0.0251229   0.0000915  -0.0000000  -0.0000000
    7    0.0000000  -0.0000960   0.0000394   0.0000000  -0.0000000
    8   -0.0000217  -0.0000174   0.0028770   0.0000001  -0.0000002
    9   -0.0000824   0.0000108   0.0006899   0.0000017   0.0000063
   10   -0.0007129  -0.0000014   0.0025334  -0.0000312   0.0022309
   11   -0.0009848   0.0000034   0.0006282  -0.0000209   0.0000428
   12   -0.0000000   0.0000653  -0.0001004   0.0000000   0.0000000
   13   -0.0418397   0.0000000   0.0000016  -0.0014910  -0.0017785
   14   -0.0000000   0.3445624  -0.0003188   0.0000000  -0.0000000
   15    0.0000000   0.0021188   0.0020501   0.0000000  -0.0000000
   16    0.0000003  -0.0324956  -0.0359481  -0.0000000   0.0000000
   17    0.0034818   0.0000277  -0.0357939  -0.0000630  -0.0000359
   18   -0.0749950  -0.0000058  -0.0043703   0.0033555  -0.0014648
   19    0.2522263   0.0000000   0.0000771  -0.0411733  -0.0443565
   20    0.3768359  -0.0000000   0.0000001  -0.0257668  -0.0263775
   21   -0.0418104  -0.0000000   0.0000018  -0.0015296   0.0029155
   22   -0.0000192  -0.0001721   0.3473458   0.0000001   0.0000000

             6           7           8           9          10

    6    0.3976255
    7    0.0000623   0.3824254
    8    0.0000038   0.0004398   0.5505272
    9   -0.0000000  -0.0008455  -0.0475617   0.5944894
   10    0.0000000   0.0000003   0.0034622  -0.0041813   0.5292289
   11    0.0000000  -0.0000019  -0.0039116   0.0037248  -0.0273297
   12    0.0012701  -0.0238674  -0.0000559   0.0000186   0.0000000
   13    0.0000000  -0.0000003  -0.0000464   0.0025418  -0.0018991
   14    0.3451417   0.0020673   0.0000025  -0.0000600   0.0000004
   15   -0.0002125   0.3444638   0.0003062   0.0004930  -0.0000027
   16   -0.0338713  -0.0313019   0.0043097   0.0023206  -0.0000771
   17   -0.0000810   0.0017442   0.3706986   0.3717599  -0.0442502
   18    0.0000006   0.0000720  -0.0370235  -0.0518773   0.3813479
   19   -0.0000000  -0.0000021  -0.0013992   0.0017333  -0.0448716
   20    0.0000000   0.0000000   0.0000056  -0.0000004   0.0000491
   21    0.0000000  -0.0000002   0.0022241  -0.0000173   0.0031236
   22    0.0021955  -0.0016902  -0.0454283  -0.0527698  -0.0002045

            11          12          13          14          15

   11    0.5154728
   12    0.0000001   0.3955515
   13    0.0030332   0.0000000   0.5238064
   14   -0.0000027  -0.0003880  -0.0000000   7.2068727
   15    0.0000025   0.3446190  -0.0000000  -0.0514932   7.2220834
   16   -0.0001054  -0.0324707   0.0000003   0.1682286   0.1577452
   17   -0.0436344   0.0001026  -0.0007214   0.0012941  -0.0008132
   18    0.3786540  -0.0000020  -0.0465695  -0.0000233   0.0001394
   19   -0.0405920  -0.0000000   0.3850550   0.0000000   0.0000006
   20    0.0021392   0.0000000   0.0029161   0.0000000  -0.0000000
   21   -0.0019452   0.0000000  -0.0268748   0.0000000  -0.0000003
   22    0.0028923   0.0021592  -0.0000138  -0.0476523  -0.0511921

            16          17          18          19          20

   16    4.6929016
   17   -0.0550511   5.0986628
   18    0.0023508   0.2648931   5.4610368
   19   -0.0000514  -0.0741044   0.2424759   5.4462748
   20    0.0000000  -0.0000325  -0.0013692  -0.0444552   0.5206391
   21    0.0000001  -0.0006204  -0.0467688   0.3853794  -0.0017397
   22    0.1569379   0.2638678  -0.0447673   0.0019805  -0.0000002

            21          22

   21    0.5230181
   22   -0.0000145   7.3912895

          TOTAL MULLIKEN AND LOWDIN ATOMIC POPULATIONS
       ATOM         MULL.POP.    CHARGE          LOW.POP.     CHARGE
    1 C             6.576124   -0.576124         6.255189   -0.255189
    2 H             0.688132    0.311868         0.809478    0.190522
    3 H             0.685493    0.314507         0.810963    0.189037
    4 H             0.801222    0.198778         0.913160    0.086840
    5 H             0.803621    0.196379         0.914155    0.085845
    6 H             0.687103    0.312897         0.808421    0.191579
    7 H             0.673509    0.326491         0.803431    0.196569
    8 H             0.799391    0.200609         0.926516    0.073484
    9 H             0.820394    0.179606         0.943979    0.056021
   10 H             0.798415    0.201585         0.919132    0.080868
   11 H             0.788065    0.211935         0.913407    0.086593
   12 H             0.686902    0.313098         0.808429    0.191571
   13 H             0.796120    0.203880         0.918178    0.081822
   14 N             7.968231   -0.968231         7.415114   -0.415114
   15 N             7.970308   -0.970308         7.414520   -0.414520
   16 C             4.963423    1.036577         5.907125    0.092875
   17 C             6.121331   -0.121331         6.013223   -0.013223
   18 C             6.425089   -0.425089         6.166791   -0.166791
   19 C             6.424197   -0.424197         6.161539   -0.161539
   20 H             0.802844    0.197156         0.913731    0.086269
   21 H             0.795342    0.204658         0.917809    0.082191
   22 N             7.924744   -0.924744         7.345712   -0.345712

          -------------------------------
          BOND ORDER AND VALENCE ANALYSIS     BOND ORDER THRESHOLD=0.050
          -------------------------------

                   BOND                       BOND                       BOND
  ATOM PAIR DIST  ORDER      ATOM PAIR DIST  ORDER      ATOM PAIR DIST  ORDER
    1   4  1.094  0.932        1   5  1.096  0.929        1  19  1.544  0.920
    1  20  1.096  0.928        2  14  1.015  0.872        3  22  1.017  0.864
    6  14  1.015  0.871        7  15  1.014  0.862        8  17  1.096  0.903
    9  17  1.098  0.900       10  18  1.098  0.920       11  18  1.097  0.918
   12  15  1.015  0.872       13  19  1.098  0.922       14  16  1.346  0.814
   15  16  1.343  0.820       16  22  1.336  0.806       17  18  1.540  0.922
   17  22  1.494  0.887       18  19  1.547  0.902       19  21  1.098  0.922

                       TOTAL       BONDED        FREE
      ATOM            VALENCE     VALENCE     VALENCE
    1 C                 3.673       3.673       0.000
    2 H                 0.881       0.880       0.000
    3 H                 0.875       0.875       0.000
    4 H                 0.918       0.918       0.000
    5 H                 0.918       0.918       0.000
    6 H                 0.880       0.880       0.000
    7 H                 0.871       0.871       0.000
    8 H                 0.913       0.913       0.000
    9 H                 0.911       0.911       0.000
   10 H                 0.914       0.914       0.000
   11 H                 0.912       0.912       0.000
   12 H                 0.880       0.880       0.000
   13 H                 0.912       0.912       0.000
   14 N                 2.609       2.596       0.013
   15 N                 2.611       2.597       0.014
   16 C                 3.039       2.414       0.625
   17 C                 3.572       3.572       0.000
   18 C                 3.607       3.607       0.000
   19 C                 3.611       3.611       0.000
   20 H                 0.918       0.918       0.000
   21 H                 0.911       0.911       0.000
   22 N                 2.615       2.602       0.013

          -----------------------------------------
          ATOMIC SPIN DENSITY AT THE NUCLEUS (A.U.)
          -----------------------------------------
                            SPIN DENS    ALPHA DENS     BETA DENS
    1  C            6.0    -0.0000066      46.98964      46.98965
    2  H            1.0    -0.0027925       0.17176       0.17456
    3  H            1.0    -0.0029429       0.17230       0.17524
    4  H            1.0    -0.0000094       0.18359       0.18360
    5  H            1.0    -0.0000002       0.18308       0.18308
    6  H            1.0    -0.0026167       0.17163       0.17425
    7  H            1.0    -0.0032667       0.17151       0.17477
    8  H            1.0     0.0020087       0.18793       0.18592
    9  H            1.0     0.0032903       0.19026       0.18697
   10  H            1.0    -0.0001863       0.18356       0.18375
   11  H            1.0    -0.0000666       0.18331       0.18338
   12  H            1.0    -0.0030793       0.17143       0.17451
   13  H            1.0     0.0000325       0.18399       0.18396
   14  N            7.0    -0.0037670      76.47975      76.48352
   15  N            7.0     0.0017149      76.48410      76.48239
   16  C            6.0     0.1612518      46.86365      46.70240
   17  C            6.0    -0.0087279      46.98773      46.99646
   18  C            6.0     0.0003266      47.04006      47.03974
   19  C            6.0    -0.0006165      47.02685      47.02746
   20  H            1.0     0.0000060       0.18305       0.18304
   21  H            1.0     0.0000773       0.18400       0.18392
   22  N            7.0     0.0024044      76.53789      76.53548

          ---------------------
          ELECTROSTATIC MOMENTS
          ---------------------

 POINT   1           X           Y           Z (BOHR)    CHARGE
                -3.499962   -0.230992    0.210355       -0.00 (A.U.)
         DX          DY          DZ         /D/  (DEBYE)
     0.055948    0.029071    0.104585    0.122120
 ...... END OF PROPERTY EVALUATION ......
 CPU     0: STEP CPU TIME=     0.03 TOTAL CPU TIME=          1.6 (      0.0 MIN)
 TOTAL WALL CLOCK TIME=          2.1 SECONDS, CPU UTILIZATION IS    72.09%
               580000  WORDS OF DYNAMIC MEMORY USED
 EXECUTION OF GAMESS TERMINATED NORMALLY Sat May 16 14:24:26 2020
 DDI: 263640 bytes (0.3 MB / 0 MWords) used by master data server.
Note: The following floating-point exceptions are signalling: IEEE_DENORMALNote: The following floating-point exceptions are signalling: IEEE_DENORMALNote: The following floating-point exceptions are signalling: IEEE_DENORMALNote: The following floating-point exceptions are signalling: IEEE_DENORMAL

 ----------------------------------------
 CPU timing information for all processes
 ========================================
 0: 1.443 + 0.116 = 1.559
 1: 1.345 + 0.12 = 1.357
 2: 1.351 + 0.12 = 1.363
 3: 1.377 + 0.11 = 1.389
 4: 1.383 + 0.24 = 1.408
 5: 1.374 + 0.11 = 1.386
 ----------------------------------------



Note: The following floating-point exceptions are signalling: IEEE_DENORMALNote: The following floating-point exceptions are signalling: IEEE_DENORMAL

 ddikick.x: exited gracefully.
unset echo
----- accounting info -----
Files used on the master node pietdev were:
-rwxr-xr-x 1 piet piet     1355 mei 16 14:24 /home/piet/scr/arginineH_1__fukui_acid.F05*
-rw-r--r-- 1 piet piet 68812800 mei 16 14:24 /home/piet/scr/arginineH_1__fukui_acid.F10
ls: No match.
ls: No match.
ls: No match.
za 16 mei 2020 14:24:29 CEST
0.100u 0.038s 0:05.30 2.4%	0+0k 0+8io 0pf+0w
