----- GAMESS execution script 'rungms' -----
This job is running on host pietdev
under operating system Linux at za 16 mei 2020 14:16:54 CEST
Available scratch disk space (Kbyte units) at beginning of the job is
Filesystem     1K-blocks     Used Available Use% Mounted on
/dev/sda2      244568380 30210328 201864996  14% /
GAMESS temporary binary files will be written to /home/piet/scr
GAMESS supplementary output files will be written to /home/piet/gamess/scr
Copying input file arginineH_1__charge_chelpg.inp to your run's scratch directory...
cp arginineH_1__charge_chelpg.inp /home/piet/scr/arginineH_1__charge_chelpg.F05
unset echo
 
Assuming a single but multicore node.
 
/home/piet/gamess/ddikick.x /home/piet/gamess/gamess.03.x arginineH_1__charge_chelpg -ddi 1 6 pietdev:cpus=6 -scr /home/piet/scr

 Distributed Data Interface kickoff program.
 Initiating 6 compute processes on 1 nodes to run the following command:
 /home/piet/gamess/gamess.03.x arginineH_1__charge_chelpg 

          ******************************************************
          *         GAMESS VERSION = 30 SEP 2019 (R2)          *
          *             FROM IOWA STATE UNIVERSITY             *
          * M.W.SCHMIDT, K.K.BALDRIDGE, J.A.BOATZ, S.T.ELBERT, *
          *   M.S.GORDON, J.H.JENSEN, S.KOSEKI, N.MATSUNAGA,   *
          *          K.A.NGUYEN, S.J.SU, T.L.WINDUS,           *
          *       TOGETHER WITH M.DUPUIS, J.A.MONTGOMERY       *
          *         J.COMPUT.CHEM.  14, 1347-1363(1993)        *
          **************** 64 BIT LINUX VERSION ****************

  SINCE 1993, STUDENTS AND POSTDOCS WORKING AT IOWA STATE UNIVERSITY
  AND ALSO IN THEIR VARIOUS JOBS AFTER LEAVING ISU HAVE MADE IMPORTANT
  CONTRIBUTIONS TO THE CODE:
     IVANA ADAMOVIC, CHRISTINE AIKENS, YURI ALEXEEV, POOJA ARORA,
     ANDREY ASADCHEV, ROB BELL, PRADIPTA BANDYOPADHYAY, JONATHAN BENTZ,
     COLLEEN BERTONI, BRETT BODE, KURT BRORSEN, CALEB CARLIN, GALINA CHABAN,
     WEI CHEN, CHEOL HO CHOI, PAUL DAY, ALBERT DEFUSCO, NUWAN DESILVA,
     TIM DUDLEY, DMITRI FEDOROV, ALEX FINDLATER, GRAHAM FLETCHER, 
     MARK FREITAG, KURT GLAESEMANN, EMILIE B GUIDEZ, ANASTASIA GUNINA, 
     DAN KEMP, SAROM SOK LEANG, GRANT MERRILL,
     NORIYUKI MINEZAWA, JONATHAN MULLIN,
     TAKESHI NAGATA, SEAN NEDD, HEATHER NETZLOFF, BOSILJKA NJEGIC, RYAN OLSON,
     MIKE PAK, BUU PHAM, DAVID POOLE,
     SPENCER PRUITT, LUKE ROSKOP, TOSAPORN SATTASATHUCHANA,
     JIM SHOEMAKER, LYUDMILA SLIPCHENKO,
     TONY SMITH, JIE SONG, TETSUYA TAKETSUGU, SIMON WEBB,
     JORGE LUIS GALVEZ VALLEJO, PENG XU, SOOHAENG YOO,
     FEDERICO ZAHARIEV

  ADDITIONAL CODE HAS BEEN PROVIDED BY COLLABORATORS IN OTHER GROUPS:
     IOWA STATE UNIVERSITY:
          JOE IVANIC, AARON WEST, LAIMUTIS BYTAUTAS, KLAUS RUEDENBERG
     UNIVERSITY OF TOKYO: KIMIHIKO HIRAO, TAKAHITO NAKAJIMA,
          TAKAO TSUNEDA, MUNEAKI KAMIYA, SUSUMU YANAGISAWA,
          KIYOSHI YAGI, MAHITO CHIBA, SEIKEN TOKURA, NAOAKI KAWAKAMI
     UNIVERSITY OF AARHUS: FRANK JENSEN
     UNIVERSITY OF IOWA: VISVALDAS KAIRYS, HUI LI
     NATIONAL INST. OF STANDARDS AND TECHNOLOGY: WALT STEVENS, DAVID GARMER
     UNIVERSITY OF PISA: BENEDETTA MENNUCCI, JACOPO TOMASI
     UNIVERSITY OF MEMPHIS: HENRY KURTZ, PRAKASHAN KORAMBATH
     UNIVERSITY OF ALBERTA: TOBY ZENG, MARIUSZ KLOBUKOWSKI
     UNIVERSITY OF NEW ENGLAND: MARK SPACKMAN
     MIE UNIVERSITY: HIROAKI UMEDA
     NAT. INST. OF ADVANCED INDUSTRIAL SCIENCE AND TECHNOLOGY: KAZUO KITAURA
     MICHIGAN STATE UNIVERSITY:
          KAROL KOWALSKI, MARTA WLOCH, JEFFREY GOUR, JESSE LUTZ,
          WEI LI, JUN SHEN, J. EMILIANO DEUSTUA, PIOTR PIECUCH
     UNIVERSITY OF MINNESOTA:
          ANDREW SAND, PRACHI SHARMA, YINAN SHU
     UNIVERSITY OF SILESIA: MONIKA MUSIAL, STANISLAW KUCHARSKI
     FACULTES UNIVERSITAIRES NOTRE-DAME DE LA PAIX:
          OLIVIER QUINET, BENOIT CHAMPAGNE
     UNIVERSITY OF CALIFORNIA - SANTA BARBARA: BERNARD KIRTMAN
     INSTITUTE FOR MOLECULAR SCIENCE:
          KAZUYA ISHIMURA, MICHIO KATOUDA, AND SHIGERU NAGASE
     UNIVERSITY OF NOTRE DAME: ANNA POMOGAEVA, DAN CHIPMAN
     KYUSHU UNIVERSITY:
          HARUYUKI NAKANO,
          FENG LONG GU, JACEK KORCHOWIEC, MARCIN MAKOWSKI, AND YURIKO AOKI,
          HIROTOSHI MORI AND EISAKU MIYOSHI
     PENNSYLVANIA STATE UNIVERSITY:
          TZVETELIN IORDANOV, CHET SWALINA, JONATHAN SKONE,
          SHARON HAMMES-SCHIFFER
     WASEDA UNIVERSITY:
          MASATO KOBAYASHI, TOMOKO AKAMA, TSUGUKI TOUMA,
          TAKESHI YOSHIKAWA, YASUHIRO IKABATA, JUNJI SEINO,
          YUYA NAKAJIMA, HIROMI NAKAI
     NANJING UNIVERSITY: SHUHUA LI
     UNIVERSITY OF NEBRASKA:
          PEIFENG SU, DEJUN SI, NANDUN THELLAMUREGE, YALI WANG, HUI LI
     UNIVERSITY OF ZURICH: ROBERTO PEVERATI, KIM BALDRIDGE
     N. COPERNICUS UNIVERSITY AND JACKSON STATE UNIVERSITY:
          MARIA BARYSZ
     UNIVERSITY OF COPENHAGEN: Jimmy Kromann, CASPER STEINMANN
     TOKYO INSTITUTE OF TECHNOLOGY: HIROYA NAKATA
     NAGOYA UNIVERSITY: YOSHIO NISHIMOTO, STEPHAN IRLE
     MOSCOW STATE UNIVERSITY: VLADIMIR MIRONOV
     A.N.NESMEYANOV INSTITUTE OF ORGANOELEMENT COMPOUNDS OF RUSSIAN ACADEMY OF SCIENCES:
          IGOR S. GERASIMOV
     JOHANNES KEPLER UNIVERSITY LINZ:
          CHRISTIAN FRIEDL


 PARALLEL VERSION RUNNING ON        6 PROCESSORS IN        1 NODES.

 EXECUTION OF GAMESS BEGUN Sat May 16 14:16:54 2020

            ECHO OF THE FIRST FEW INPUT CARDS -
 INPUT CARD> $BASIS GBASIS=N21 NGAUSS=3 $END                                                
 INPUT CARD> $CONTRL SCFTYP=RHF DFTTYP=B3LYP MAXIT=60 MULT=1 ICHARG=1 $END                  
 INPUT CARD> $SYSTEM MEMDDI=1000 MWORDS=30 $END                                             
 INPUT CARD> $SCF DIRSCF=.TRUE. $END                                                        
 INPUT CARD> $ELPOT  IEPOT=1 WHERE=PDC $END                                                 
 INPUT CARD> $PDC PTSEL=CHELPG CONSTR=CHARGE $END                                           
 INPUT CARD> $DATA                                                                          
 INPUT CARD>                                                                                
 INPUT CARD>C1                                                                              
 INPUT CARD>C 6.0000000 2.2343888172 0.5225300418 0.4812673728                              
 INPUT CARD>H 1.0000000 -4.9383131871 0.6684573026 1.6505337536                             
 INPUT CARD>H 1.0000000 -2.7305933126 1.0830822712 0.8358536821                             
 INPUT CARD>H 1.0000000 3.1668025760 0.1311235830 0.0629654246                              
 INPUT CARD>H 1.0000000 2.2152644344 1.6058479018 0.3168347902                              
 INPUT CARD>H 1.0000000 -5.9990882628 -0.2042933219 0.5962822612                            
 INPUT CARD>H 1.0000000 -3.4244059048 -1.5365298887 -1.4590507951                           
 INPUT CARD>H 1.0000000 -1.4874992692 -1.3802685480 -0.1215527305                           
 INPUT CARD>H 1.0000000 -1.4987714813 -0.0919817883 -1.3658524211                           
 INPUT CARD>H 1.0000000 -0.3683892125 1.4607320196 0.2370349894                             
 INPUT CARD>H 1.0000000 -0.3515367359 0.1765066120 1.4704251406                             
 INPUT CARD>H 1.0000000 -4.9834223368 -1.9036075913 -0.7971782504                           
 INPUT CARD>H 1.0000000 1.0431042619 0.0293335440 -1.2682858640                             
 INPUT CARD>N 7.0000000 -5.0528601892 0.0678596209 0.8409570816                             
 INPUT CARD>N 7.0000000 -4.1452740962 -1.3323159773 -0.7761953240                           
 INPUT CARD>C 6.0000000 -3.9932602292 -0.3419233595 0.1183540864                            
 INPUT CARD>C 6.0000000 -1.5225549010 -0.2975193949 -0.2879498322                           
 INPUT CARD>C 6.0000000 -0.3151757906 0.3746334330 0.3921248069                             
 INPUT CARD>C 6.0000000 1.0181920903 -0.1547467320 -0.1863788350                            
 INPUT CARD>H 1.0000000 2.2401444514 0.3354438277 1.5610372246                              
 INPUT CARD>H 1.0000000 1.0726281150 -1.2404719015 -0.0336235259                            
 INPUT CARD>N 7.0000000 -2.7958798369 0.2249583458 0.2935969641                             
 INPUT CARD> $END                                                                           
   30000000 WORDS OF MEMORY AVAILABLE

     BASIS OPTIONS
     -------------
     GBASIS=N21          IGAUSS=       3      POLAR=NONE    
     NDFUNC=       0     NFFUNC=       0     DIFFSP=       F
     NPFUNC=       0      DIFFS=       F     BASNAM=        


     RUN TITLE
     ---------
                                                                                 

 THE POINT GROUP OF THE MOLECULE IS C1      
 THE ORDER OF THE PRINCIPAL AXIS IS     0

 ATOM      ATOMIC                      COORDINATES (BOHR)
           CHARGE         X                   Y                   Z
 C           6.0     4.2223826145        0.9874385994        0.9094634614
 H           1.0    -9.3320587652        1.2632011364        3.1190565278
 H           1.0    -5.1600731447        2.0467287147        1.5795344250
 H           1.0     5.9843891259        0.2477876424        0.1189873992
 H           1.0     4.1862427714        3.0346125124        0.5987309369
 H           1.0   -11.3366329929       -0.3860583995        1.1268100850
 H           1.0    -6.4711888308       -2.9036204616       -2.7572062049
 H           1.0    -2.8109660257       -2.6083293452       -0.2297013537
 H           1.0    -2.8322674179       -0.1738203757       -2.5810868155
 H           1.0    -0.6961546685        2.7603832585        0.4479311795
 H           1.0    -0.6643081055        0.3335491317        2.7787006012
 H           1.0    -9.4173026976       -3.5972967357       -1.5064484566
 H           1.0     1.9711812316        0.0554323604       -2.3967127571
 N           7.0    -9.5485212119        0.1282360891        1.5891784517
 N           7.0    -7.8334321858       -2.5177121262       -1.4667964753
 C           6.0    -7.5461676309       -0.6461414583        0.2236567928
 C           6.0    -2.8772115642       -0.5622301324       -0.5441462811
 C           6.0    -0.5955958822        0.7079545342        0.7410084380
 C           6.0     1.9241040535       -0.2924289210       -0.3522049281
 H           1.0     4.2332591861        0.6338969186        2.9499326111
 H           1.0     2.0269732241       -2.3441519893       -0.0635392507
 N           7.0    -5.2834467863        0.4251096322        0.5548178130

          INTERNUCLEAR DISTANCES (ANGS.)
          ------------------------------

                1 C          2 H          3 H          4 H          5 H     

   1 C       0.0000000    7.2688467    5.0090915    1.0943359 *  1.0958930 *
   2 H       7.2688467    0.0000000    2.3894862 *  8.2765936    7.3369699  
   3 H       5.0090915    2.3894862 *  0.0000000    6.0235255    5.0004173  
   4 H       1.0943359 *  8.2765936    6.0235255    0.0000000    1.7733263 *
   5 H       1.0958930 *  7.3369699    5.0004173    1.7733263 *  0.0000000  
   6 H       8.2662958    1.7315841 *  3.5210495    9.1875180    8.4160735  
   7 H       6.3266516    4.1016338    3.5511027    6.9671824    6.6958337  
   8 H       4.2233264    4.3869904    2.9206176 *  4.8970275    4.7769796  
   9 H       4.2102212    4.6375964    2.7831044 *  4.8845550    4.4168003  
  10 H       2.7774675 *  4.8486991    2.4660112 *  3.7809707    2.5889559 *
  11 H       2.7901929 *  4.6165975    2.6238275 *  3.7896852    3.1563041  
  12 H       7.7212282    3.5508938    4.0819540    8.4442965    8.0856907  
  13 H       2.1733242 *  6.6862053    4.4473119    2.5085226 *  2.5242750 *
  14 N       7.3102736    1.0145211 *  2.5344874 *  8.2566415    7.4475330  
  15 N       6.7617871    3.2436120    3.2301970    7.5041529    7.0911192  
  16 C       6.2978249    2.0643567 *  2.0346436 *  7.1758861    6.5099144  
  17 C       3.9215816    4.0445314    2.1513605 *  4.7219646    4.2379081  
  18 C       2.5554059 *  4.8003463    2.5559806 *  3.5059687    2.8150818 *
  19 C       1.5438879 *  6.2874373    4.0780598    2.1818390 *  2.1876699 *
  20 H       1.0958729 *  7.1867351    5.0786896    1.7733192 *  1.7783659 *
  21 H       2.1732410 *  6.5277723    4.5408576    2.5052286 *  3.0870658  
  22 N       5.0425561    2.5744882 *  1.0171929 *  5.9678788    5.1979768  

                6 H          7 H          8 H          9 H         10 H     

   1 C       8.2662958    6.3266516    4.2233264    4.2102212    2.7774675 *
   2 H       1.7315841 *  4.1016338    4.3869904    4.6375964    4.8486991  
   3 H       3.5210495    3.5511027    2.9206176 *  2.7831044 *  2.4660112 *
   4 H       9.1875180    6.9671824    4.8970275    4.8845550    3.7809707  
   5 H       8.4160735    6.6958337    4.7769796    4.4168003    2.5889559 *
   6 H       0.0000000    3.5536231    4.7172704    4.9107471    5.8826983  
   7 H       3.5536231    0.0000000    2.3590095 *  2.4090399 *  4.6042941  
   8 H       4.7172704    2.3590095 *  0.0000000    1.7911146 *  3.0744555  
   9 H       4.9107471    2.4090399 *  1.7911146 *  0.0000000    2.5015860 *
  10 H       5.8826983    4.6042941    3.0744555    2.5015860 *  0.0000000  
  11 H       5.7274752    4.5780835    2.4996706 *  3.0712707    1.7806657 *
  12 H       2.4209458 *  1.7330186 *  3.5988653    3.9683964    5.8040425  
  13 H       7.2885987    4.7378230    3.1154340    2.5466388 *  2.5114152 *
  14 N       1.0145347 *  3.2428329    3.9667744    4.1865384    4.9243359  
  15 N       2.5676364 *  1.0137287 *  2.7376310 *  2.9816272 *  4.8054773  
  16 C       2.0665680 *  2.0588555 *  2.7229679 *  2.9133853 *  4.0501039  
  17 C       4.5639795    2.5541460 *  1.0960213 *  1.0975816 *  2.1677536 *
  18 C       5.7169658    4.0922742    2.1720700 *  2.1700490 *  1.0984055 *
  19 C       7.0609657    4.8234527    2.7900888 *  2.7803243 *  2.1706355 *
  20 H       8.3130635    6.6867292    4.4350993    4.7674803    3.1342788  
  21 H       7.1749300    4.7268180    2.5654487 *  3.1154389    3.0734817  
  22 N       3.2459852    2.5631348 *  2.1120990 *  2.1299562 *  2.7245269 *

               11 H         12 H         13 H         14 N         15 N     

   1 C       2.7901929 *  7.7212282    2.1733242 *  7.3102736    6.7617871  
   2 H       4.6165975    3.5508938    6.6862053    1.0145211 *  3.2436120  
   3 H       2.6238275 *  4.0819540    4.4473119    2.5344874 *  3.2301970  
   4 H       3.7896852    8.4442965    2.5085226 *  8.2566415    7.5041529  
   5 H       3.1563041    8.0856907    2.5242750 *  7.4475330    7.0911192  
   6 H       5.7274752    2.4209458 *  7.2885987    1.0145347 *  2.5676364 *
   7 H       4.5780835    1.7330186 *  4.7378230    3.2428329    1.0137287 *
   8 H       2.4996706 *  3.5988653    3.1154340    3.9667744    2.7376310 *
   9 H       3.0712707    3.9683964    2.5466388 *  4.1865384    2.9816272 *
  10 H       1.7806657 *  5.8040425    2.5114152 *  4.9243359    4.8054773  
  11 H       0.0000000    5.5608690    3.0768850    4.7445207    4.6600743  
  12 H       5.5608690    0.0000000    6.3464342    2.5641747 *  1.0145476 *
  13 H       3.0768850    6.3464342    0.0000000    6.4506723    5.3866049  
  14 N       4.7445207    2.5641747 *  6.4506723    0.0000000    2.3236579 *
  15 N       4.6600743    1.0145476 *  5.3866049    2.3236579 *  0.0000000  
  16 C       3.9190580    2.0633657 *  5.2369427    1.3464135 *  1.3432068 *
  17 C       2.1651482 *  3.8492124    2.7659535 *  3.7243775    2.8614408 *
  18 C       1.0969539 *  5.3289164    2.1728139 *  4.7687749    4.3529647  
  19 C       2.1750598 *  6.2810004    1.0977381 *  6.1613836    5.3287837  
  20 H       2.5981307 *  7.9217705    3.0873416    7.3333508    7.0012605  
  21 H       2.5096287 *  6.1399114    1.7713466 *  6.3244154    5.2712761  
  22 N       2.7133163 *  3.2412846    4.1491621    2.3277121 *  2.3217286 *

               16 C         17 C         18 C         19 C         20 H     

   1 C       6.2978249    3.9215816    2.5554059 *  1.5438879 *  1.0958729 *
   2 H       2.0643567 *  4.0445314    4.8003463    6.2874373    7.1867351  
   3 H       2.0346436 *  2.1513605 *  2.5559806 *  4.0780598    5.0786896  
   4 H       7.1758861    4.7219646    3.5059687    2.1818390 *  1.7733192 *
   5 H       6.5099144    4.2379081    2.8150818 *  2.1876699 *  1.7783659 *
   6 H       2.0665680 *  4.5639795    5.7169658    7.0609657    8.3130635  
   7 H       2.0588555 *  2.5541460 *  4.0922742    4.8234527    6.6867292  
   8 H       2.7229679 *  1.0960213 *  2.1720700 *  2.7900888 *  4.4350993  
   9 H       2.9133853 *  1.0975816 *  2.1700490 *  2.7803243 *  4.7674803  
  10 H       4.0501039    2.1677536 *  1.0984055 *  2.1706355 *  3.1342788  
  11 H       3.9190580    2.1651482 *  1.0969539 *  2.1750598 *  2.5981307 *
  12 H       2.0633657 *  3.8492124    5.3289164    6.2810004    7.9217705  
  13 H       5.2369427    2.7659535 *  2.1728139 *  1.0977381 *  3.0873416  
  14 N       1.3464135 *  3.7243775    4.7687749    6.1613836    7.3333508  
  15 N       1.3432068 *  2.8614408 *  4.3529647    5.3287837    7.0012605  
  16 C       0.0000000    2.5042842 *  3.7572209    5.0241966    6.4339331  
  17 C       2.5042842 *  0.0000000    1.5401478 *  2.5467815 *  4.2399649  
  18 C       3.7572209    1.5401478 *  0.0000000    1.5468613 *  2.8102586 *
  19 C       5.0241966    2.5467815 *  1.5468613 *  0.0000000    2.1879025 *
  20 H       6.4339331    4.2399649    2.8102586 *  2.1879025 *  0.0000000  
  21 H       5.1472042    2.7728715 *  2.1715954 *  1.0977689 *  2.5277555 *
  22 N       1.3363326 *  1.4941673 *  2.4871677 *  3.8628613    5.1942422  

               21 H         22 N     

   1 C       2.1732410 *  5.0425561  
   2 H       6.5277723    2.5744882 *
   3 H       4.5408576    1.0171929 *
   4 H       2.5052286 *  5.9678788  
   5 H       3.0870658    5.1979768  
   6 H       7.1749300    3.2459852  
   7 H       4.7268180    2.5631348 *
   8 H       2.5654487 *  2.1120990 *
   9 H       3.1154389    2.1299562 *
  10 H       3.0734817    2.7245269 *
  11 H       2.5096287 *  2.7133163 *
  12 H       6.1399114    3.2412846  
  13 H       1.7713466 *  4.1491621  
  14 N       6.3244154    2.3277121 *
  15 N       5.2712761    2.3217286 *
  16 C       5.1472042    1.3363326 *
  17 C       2.7728715 *  1.4941673 *
  18 C       2.1715954 *  2.4871677 *
  19 C       1.0977689 *  3.8628613  
  20 H       2.5277555 *  5.1942422  
  21 H       0.0000000    4.1496883  
  22 N       4.1496883    0.0000000  

  * ... LESS THAN  3.000


     ATOMIC BASIS SET
     ----------------
 THE CONTRACTED PRIMITIVE FUNCTIONS HAVE BEEN UNNORMALIZED
 THE CONTRACTED BASIS FUNCTIONS ARE NOW NORMALIZED TO UNITY

  SHELL TYPE  PRIMITIVE        EXPONENT          CONTRACTION COEFFICIENT(S)

 C         

      1   S       1           172.2560000    0.061766907377
      1   S       2            25.9109000    0.358794042852
      1   S       3             5.5333500    0.700713083689

      2   L       4             3.6649800   -0.395895162119    0.236459946619
      2   L       5             0.7705450    1.215834355681    0.860618805716

      3   L       6             0.1958570    1.000000000000    1.000000000000

 H         

      4   S       7             5.4471780    0.156284978695
      4   S       8             0.8245472    0.904690876670

      5   S       9             0.1831916    1.000000000000

 H         

      6   S      10             5.4471780    0.156284978695
      6   S      11             0.8245472    0.904690876670

      7   S      12             0.1831916    1.000000000000

 H         

      8   S      13             5.4471780    0.156284978695
      8   S      14             0.8245472    0.904690876670

      9   S      15             0.1831916    1.000000000000

 H         

     10   S      16             5.4471780    0.156284978695
     10   S      17             0.8245472    0.904690876670

     11   S      18             0.1831916    1.000000000000

 H         

     12   S      19             5.4471780    0.156284978695
     12   S      20             0.8245472    0.904690876670

     13   S      21             0.1831916    1.000000000000

 H         

     14   S      22             5.4471780    0.156284978695
     14   S      23             0.8245472    0.904690876670

     15   S      24             0.1831916    1.000000000000

 H         

     16   S      25             5.4471780    0.156284978695
     16   S      26             0.8245472    0.904690876670

     17   S      27             0.1831916    1.000000000000

 H         

     18   S      28             5.4471780    0.156284978695
     18   S      29             0.8245472    0.904690876670

     19   S      30             0.1831916    1.000000000000

 H         

     20   S      31             5.4471780    0.156284978695
     20   S      32             0.8245472    0.904690876670

     21   S      33             0.1831916    1.000000000000

 H         

     22   S      34             5.4471780    0.156284978695
     22   S      35             0.8245472    0.904690876670

     23   S      36             0.1831916    1.000000000000

 H         

     24   S      37             5.4471780    0.156284978695
     24   S      38             0.8245472    0.904690876670

     25   S      39             0.1831916    1.000000000000

 H         

     26   S      40             5.4471780    0.156284978695
     26   S      41             0.8245472    0.904690876670

     27   S      42             0.1831916    1.000000000000

 N         

     28   S      43           242.7660000    0.059865700508
     28   S      44            36.4851000    0.352955002994
     28   S      45             7.8144900    0.706513005993

     29   L      46             5.4252200   -0.413300077430    0.237972016222
     29   L      47             1.1491500    1.224417266851    0.858953058551

     30   L      48             0.2832050    1.000000000000    1.000000000000

 N         

     31   S      49           242.7660000    0.059865700508
     31   S      50            36.4851000    0.352955002994
     31   S      51             7.8144900    0.706513005993

     32   L      52             5.4252200   -0.413300077430    0.237972016222
     32   L      53             1.1491500    1.224417266851    0.858953058551

     33   L      54             0.2832050    1.000000000000    1.000000000000

 C         

     34   S      55           172.2560000    0.061766907377
     34   S      56            25.9109000    0.358794042852
     34   S      57             5.5333500    0.700713083689

     35   L      58             3.6649800   -0.395895162119    0.236459946619
     35   L      59             0.7705450    1.215834355681    0.860618805716

     36   L      60             0.1958570    1.000000000000    1.000000000000

 C         

     37   S      61           172.2560000    0.061766907377
     37   S      62            25.9109000    0.358794042852
     37   S      63             5.5333500    0.700713083689

     38   L      64             3.6649800   -0.395895162119    0.236459946619
     38   L      65             0.7705450    1.215834355681    0.860618805716

     39   L      66             0.1958570    1.000000000000    1.000000000000

 C         

     40   S      67           172.2560000    0.061766907377
     40   S      68            25.9109000    0.358794042852
     40   S      69             5.5333500    0.700713083689

     41   L      70             3.6649800   -0.395895162119    0.236459946619
     41   L      71             0.7705450    1.215834355681    0.860618805716

     42   L      72             0.1958570    1.000000000000    1.000000000000

 C         

     43   S      73           172.2560000    0.061766907377
     43   S      74            25.9109000    0.358794042852
     43   S      75             5.5333500    0.700713083689

     44   L      76             3.6649800   -0.395895162119    0.236459946619
     44   L      77             0.7705450    1.215834355681    0.860618805716

     45   L      78             0.1958570    1.000000000000    1.000000000000

 H         

     46   S      79             5.4471780    0.156284978695
     46   S      80             0.8245472    0.904690876670

     47   S      81             0.1831916    1.000000000000

 H         

     48   S      82             5.4471780    0.156284978695
     48   S      83             0.8245472    0.904690876670

     49   S      84             0.1831916    1.000000000000

 N         

     50   S      85           242.7660000    0.059865700508
     50   S      86            36.4851000    0.352955002994
     50   S      87             7.8144900    0.706513005993

     51   L      88             5.4252200   -0.413300077430    0.237972016222
     51   L      89             1.1491500    1.224417266851    0.858953058551

     52   L      90             0.2832050    1.000000000000    1.000000000000

 TOTAL NUMBER OF BASIS SET SHELLS             =   52
 NUMBER OF CARTESIAN GAUSSIAN BASIS FUNCTIONS =  100
 NUMBER OF ELECTRONS                          =   64
 CHARGE OF MOLECULE                           =    1
 SPIN MULTIPLICITY                            =    1
 NUMBER OF OCCUPIED ORBITALS (ALPHA)          =   32
 NUMBER OF OCCUPIED ORBITALS (BETA )          =   32
 TOTAL NUMBER OF ATOMS                        =   22
 THE NUCLEAR REPULSION ENERGY IS      386.1217747557

 SELECTED MURRAY-HANDY-LAMING RADIAL GRID

 LEGACY BECKE'S FUZZY CELL METHOD

 SELECTED ORIGINAL BECKE'S PARTITION FUNCTION

     LEBEDEV GRID-BASED DFT OPTIONS
     ------------------------------
     DFTTYP=B3LYP   
     NRAD  =      96     NLEB  =     302
     NRAD0 =      24     NLEB0 =     110
     SWOFF =    5.00E-03 (PURE SCF -> DFT)
     SWITCH=    3.00E-04 (COARSE -> TIGHT GRID)
     THRESH=    0.00E+00 GTHRE=    1.00E+00

 GRIMME'S EMPIRICAL DISPERSION CORRECTION= F

     $CONTRL OPTIONS
     ---------------
 SCFTYP=RHF          RUNTYP=ENERGY       EXETYP=RUN     
 MPLEVL=       0     CITYP =NONE         CCTYP =NONE         VBTYP =NONE    
 DFTTYP=B3LYP        TDDFT =NONE    
 MULT  =       1     ICHARG=       1     NZVAR =       0     COORD =UNIQUE  
 PP    =NONE         RELWFN=NONE         LOCAL =NONE         NUMGRD=       F
 ISPHER=      -1     NOSYM =       0     MAXIT =      60     UNITS =ANGS    
 PLTORB=       F     MOLPLT=       F     AIMPAC=       F     FRIEND=        
 NPRINT=       7     IREST =       0     GEOM  =INPUT   
 NORMF =       0     NORMP =       0     ITOL  =      20     ICUT  =       9
 INTTYP=BEST         GRDTYP=BEST         QMTTOL= 1.0E-06

     $SYSTEM OPTIONS
     ---------------
  REPLICATED MEMORY=    30000000 WORDS (ON EVERY NODE).
 DISTRIBUTED MEMDDI=        1000 MILLION WORDS IN AGGREGATE,
 MEMDDI DISTRIBUTED OVER   6 PROCESSORS IS   166666666 WORDS/PROCESSOR.
 TOTAL MEMORY REQUESTED ON EACH PROCESSOR=   196666666 WORDS.
 TIMLIM=      525600.00 MINUTES, OR     365.0 DAYS.
 PARALL= T  BALTYP=  DLB     KDIAG=    0  COREFL= F
 MXSEQ2=     300 MXSEQ3=     150  mem10=         0

     INPUT FOR POTENTIAL-DERIVED CHARGES 
     -----------------------------------
     VDWSCL=    1.00   RMAX=    3.00   DELR=    0.80
     VDWINC=    0.20 PTDENS=    0.28
     LAYER =       4  NFREQ=      30 MAXPDC=   10000
     CONSTR=CHARGE    UNITS=ANGS      PTSEL=CHELPG  
     CENTER=  0.0000  0.0000  0.0000
     DPOLE =  0.0000  0.0000  0.0000
     QPOLE =  0.0000  0.0000  0.0000  0.0000  0.0000  0.0000


          ----------------
          PROPERTIES INPUT
          ----------------

     MOMENTS            FIELD           POTENTIAL          DENSITY
 IEMOM =       1   IEFLD =       0   IEPOT =       1   IEDEN =       0
 WHERE =COMASS     WHERE =NUCLEI     WHERE =PDC        WHERE =NUCLEI  
 OUTPUT=BOTH       OUTPUT=BOTH       OUTPUT=BOTH       OUTPUT=BOTH    
 IEMINT=       0   IEFINT=       0                     IEDINT=       0
                                                       MORB  =       0
          EXTRAPOLATION IN EFFECT
          DIIS IN EFFECT
 ORBITAL PRINTING OPTION: NPREO=     1   100     2     1

     -------------------------------
     INTEGRAL TRANSFORMATION OPTIONS
     -------------------------------
     NWORD  =            0
     CUTOFF = 1.0E-09     MPTRAN =       0
     DIRTRF =       T     AOINTS =DUP     

          ----------------------
          INTEGRAL INPUT OPTIONS
          ----------------------
 NOPK  =       1 NORDER=       0 SCHWRZ=       T

     ------------------------------------------
     THE POINT GROUP IS C1 , NAXIS= 0, ORDER= 1
     ------------------------------------------

     DIMENSIONS OF THE SYMMETRY SUBSPACES ARE
 A   =  100

 ..... DONE SETTING UP THE RUN .....
 CPU     0: STEP CPU TIME=     0.02 TOTAL CPU TIME=          0.0 (      0.0 MIN)
 TOTAL WALL CLOCK TIME=          0.0 SECONDS, CPU UTILIZATION IS   100.00%

          ********************
          1 ELECTRON INTEGRALS
          ********************
 ...... END OF ONE-ELECTRON INTEGRALS ......
 CPU     0: STEP CPU TIME=     0.01 TOTAL CPU TIME=          0.0 (      0.0 MIN)
 TOTAL WALL CLOCK TIME=          0.0 SECONDS, CPU UTILIZATION IS    75.00%

          -------------
          GUESS OPTIONS
          -------------
          GUESS =HUCKEL            NORB  =       0          NORDER=       0
          MIX   =       F          PRTMO =       F          PUNMO =       F
          TOLZ  = 1.0E-08          TOLE  = 1.0E-05
          SYMDEN=       F          PURIFY=       F

 INITIAL GUESS ORBITALS GENERATED BY HUCKEL   ROUTINE.
 HUCKEL GUESS REQUIRES    100122 WORDS.

 SYMMETRIES FOR INITIAL GUESS ORBITALS FOLLOW.   BOTH SET(S).
    32 ORBITALS ARE OCCUPIED (    8 CORE ORBITALS).
     9=A       10=A       11=A       12=A       13=A       14=A       15=A   
    16=A       17=A       18=A       19=A       20=A       21=A       22=A   
    23=A       24=A       25=A       26=A       27=A       28=A       29=A   
    30=A       31=A       32=A       33=A       34=A       35=A       36=A   
    37=A       38=A       39=A       40=A       41=A       42=A   
 ...... END OF INITIAL ORBITAL SELECTION ......
 CPU     0: STEP CPU TIME=     0.03 TOTAL CPU TIME=          0.1 (      0.0 MIN)
 TOTAL WALL CLOCK TIME=          0.1 SECONDS, CPU UTILIZATION IS   100.00%

                    ----------------------
                    AO INTEGRAL TECHNOLOGY
                    ----------------------
     S,P,L SHELL ROTATED AXIS INTEGRALS, REPROGRAMMED BY
        KAZUYA ISHIMURA (IMS) AND JOSE SIERRA (SYNSTAR).
     S,P,D,L SHELL ROTATED AXIS INTEGRALS PROGRAMMED BY
        KAZUYA ISHIMURA (INSTITUTE FOR MOLECULAR SCIENCE).
     S,P,D,F,G SHELL TO TOTAL QUARTET ANGULAR MOMENTUM SUM 5,
        ERIC PROGRAM BY GRAHAM FLETCHER (ELORET AND NASA ADVANCED
        SUPERCOMPUTING DIVISION, AMES RESEARCH CENTER).
     S,P,D,F,G,L SHELL GENERAL RYS QUADRATURE PROGRAMMED BY
        MICHEL DUPUIS (PACIFIC NORTHWEST NATIONAL LABORATORY).

          --------------------
          2 ELECTRON INTEGRALS
          --------------------

 DIRECT SCF METHOD SKIPS INTEGRAL STORAGE ON DISK.
 DIRECT TRANSFORMATION SKIPS AO INTEGRAL STORAGE ON DISK.
  ...... END OF TWO-ELECTRON INTEGRALS .....
 CPU     0: STEP CPU TIME=     0.01 TOTAL CPU TIME=          0.1 (      0.0 MIN)
 TOTAL WALL CLOCK TIME=          0.1 SECONDS, CPU UTILIZATION IS    87.50%

          --------------------------
             R-B3LYP SCF CALCULATION
          --------------------------

     NUCLEAR ENERGY =       386.1217747557
     MAXIT =   60     NPUNCH=    2
     EXTRAP=T  DAMP=F  SHIFT=F  RSTRCT=F  DIIS=T  DEM=F  SOSCF=F
         DENSITY MATRIX CONVERGENCE THRESHOLD=  2.00E-05
     COARSE -> FINE DFT GRID SWITCH THRESHOLD=  3.00E-04 (SWITCH IN $DFT)
                   HF -> DFT SWITCH THRESHOLD=  5.00E-03 (SWOFF IN $DFT)
     MEMORY REQUIRED FOR RHF ITERS=    837169 WORDS.

 DIRECT SCF CALCULATION, SCHWRZ=T   FDIFF=T,  DIRTHR=  0.00E+00 NITDIR=10
 SCHWARZ INEQUALITY OVERHEAD:      4596 INTEGRALS, T=        0.00

 DFT CODE IS SWITCHING FROM THE FINE GRID NRAD= 96,  NLEB=  302
                      TO THE COARSE GRID NRAD0= 24, NLEB0=  110

     EXCHANGE FUNCTIONAL   =B88&HFX   
     CORRELATION FUNCTIONAL=LYP88&VWN5
     DFT THRESHOLD         =.627E-08
     GRID CHANGE THRESHOLD =.300E-03
 FOR AN EULER-MACLAURIN QUADRATURE USING  96 RADIAL POINTS:
 SMALLEST GAUSSIAN PRIMITIVE EXPONENT=        0.1831915800 OF TYPE -S-
 ON ATOM NUMBER   2 HAS RADIAL NORMALIZATION=  1.000000
  LARGEST GAUSSIAN PRIMITIVE EXPONENT=      242.7660000000 OF TYPE -S-
 ON ATOM NUMBER  14 HAS RADIAL NORMALIZATION=  1.000000
 DFT IS SWITCHED OFF, PERFORMING PURE SCF UNTIL SWOFF THRESHOLD IS REACHED.

                                                                                   NONZERO     BLOCKS
 ITER EX DEM     TOTAL ENERGY        E CHANGE  DENSITY CHANGE    DIIS ERROR      INTEGRALS    SKIPPED
   1  0  0     -357.8108763093  -357.8108763093   0.676592366   0.821221262        6859623     495121
          * * *   INITIATING DIIS PROCEDURE   * * *
   2  1  0     -358.6358930376    -0.8250167283   0.117069593   0.088653774        6831604     507513
   3  2  0     -358.6743110158    -0.0384179782   0.045549381   0.017505311        6734644     531879
   4  3  0     -358.6781949986    -0.0038839828   0.015158303   0.008563390        6553777     560133
   5  4  0     -358.6786438412    -0.0004488426   0.002828172   0.002094072        6426661     573722
 CONVERGED TO SWOFF, SO DFT CALCULATION IS NOW SWITCHED ON.
          * * *   INITIATING DIIS PROCEDURE   * * *
   6  5  0     -360.7801142574    -2.1014704162   0.095244614   0.098683476        6863331     492957
   7  6  0     -360.8062424046    -0.0261281472   0.045001421   0.032051835        6765984     527932
   8  7  0     -360.8105659710    -0.0043235663   0.022027690   0.022819657        6665493     542047
   9  8  0     -360.8142018886    -0.0036359176   0.004793972   0.004345107        6532286     560651
  10  9  0     -360.8142798873    -0.0000779987   0.000999820   0.001151878        6157736     601565
  11 10  0     -360.8142816419    -0.0000017547   0.000251369   0.000681909        5850822     626102
 DFT CODE IS SWITCHING BACK TO THE FINE GRID
          * * *   INITIATING DIIS PROCEDURE   * * *
  12 11  0     -360.8163639619    -0.0020823199   0.003936749   0.000894840        6866578     491014
  13 12  0     -360.8163772227    -0.0000132608   0.000449927   0.000295611        6210197     596149
  14 13  0     -360.8163771929     0.0000000297   0.000295067   0.000322581        5728363     635280
  15 14  0     -360.8163777078    -0.0000005148   0.000022686   0.000014530        5514977     653835
  16 15  0     -360.8163777089    -0.0000000011   0.000009209   0.000008588        4841999     699869
  17 16  0     -360.8163777095    -0.0000000006   0.000002662   0.000003469        4488444     725470

          -----------------
          DENSITY CONVERGED
          -----------------
     TIME TO FORM FOCK OPERATORS=      13.9 SECONDS (       0.8 SEC/ITER)
     FOCK TIME ON FIRST ITERATION=       0.1, LAST ITERATION=       1.9
     TIME TO SOLVE SCF EQUATIONS=       0.2 SECONDS (       0.0 SEC/ITER)

 FINAL R-B3LYP ENERGY IS     -360.8163777095 AFTER  17 ITERATIONS
 DFT EXCHANGE + CORRELATION ENERGY =       -42.4169549597
 TOTAL ELECTRON NUMBER             =        64.0001694647

          ------------
          EIGENVECTORS
          ------------

                      1          2          3          4          5
                  -14.4688   -14.4674   -14.4661   -10.4567   -10.3194
                     A          A          A          A          A   
    1  C  1  S   -0.000036  -0.000001  -0.000032  -0.000126  -0.001126
    2  C  1  S   -0.000165   0.000017  -0.000184  -0.000319  -0.001340
    3  C  1  X   -0.000206  -0.000105   0.000035  -0.000068   0.000392
    4  C  1  Y    0.000039   0.000025  -0.000020  -0.000042  -0.000076
    5  C  1  Z    0.000033   0.000013  -0.000015  -0.000023  -0.000092
    6  C  1  S    0.002115   0.000504   0.000832   0.001950   0.004604
    7  C  1  X   -0.000145   0.000206  -0.000549  -0.000902  -0.003704
    8  C  1  Y   -0.001028  -0.000414  -0.000039  -0.000118  -0.000160
    9  C  1  Z   -0.000888  -0.000275  -0.000138  -0.000400  -0.000017
   10  H  2  S    0.002049  -0.002502   0.001235  -0.000681  -0.000096
   11  H  2  S    0.000552  -0.000491   0.006410   0.001699   0.000852
   12  H  3  S    0.001151  -0.002398   0.001494  -0.001379  -0.001935
   13  H  3  S    0.005985   0.001109   0.001447   0.002034  -0.000030
   14  H  4  S   -0.000211  -0.000075  -0.000022  -0.000050  -0.000064
   15  H  4  S   -0.000475  -0.000261   0.000118  -0.000057   0.001180
   16  H  5  S   -0.000012   0.000041  -0.000086  -0.000146  -0.000490
   17  H  5  S    0.000216   0.000092  -0.000032  -0.000130  -0.000183
   18  H  6  S   -0.002510   0.001759   0.001540  -0.000825  -0.000332
   19  H  6  S    0.000034   0.000307   0.006467   0.001730   0.000900
   20  H  7  S    0.002340   0.001791  -0.001750  -0.000501   0.000712
   21  H  7  S    0.000141   0.007007   0.000658   0.000257  -0.000686
   22  H  8  S   -0.001418  -0.000245  -0.000395  -0.001060   0.000271
   23  H  8  S   -0.001682  -0.000798   0.000056  -0.000340   0.016627
   24  H  9  S   -0.001389  -0.000121  -0.000159  -0.000291   0.000159
   25  H  9  S   -0.000373  -0.002036   0.000244   0.000304   0.016668
   26  H 10  S    0.000711   0.000373  -0.000188  -0.000146  -0.001438
   27  H 10  S   -0.000515   0.000067  -0.000256  -0.000325   0.001418
   28  H 11  S    0.000449   0.000236  -0.000088   0.000145  -0.001520
   29  H 11  S    0.000168  -0.000119   0.000242   0.000759   0.001235
   30  H 12  S   -0.002578   0.000994   0.002043  -0.000951  -0.000443
   31  H 12  S   -0.000477   0.005974   0.002260   0.002003  -0.000139
   32  H 13  S   -0.000323  -0.000160  -0.000014   0.000113  -0.000143
   33  H 13  S   -0.000148   0.000096   0.000101   0.000209  -0.001725
   34  N 14  S   -0.068310  -0.157503   0.970022   0.000290  -0.000156
   35  N 14  S   -0.008776  -0.018921   0.109552  -0.000296  -0.001320
   36  N 14  X    0.000151  -0.001301   0.001351  -0.001142  -0.000242
   37  N 14  Y    0.000840  -0.000317  -0.000555   0.000488   0.000121
   38  N 14  Z    0.000825   0.000023  -0.000991   0.000795   0.000253
   39  N 14  S    0.012129   0.018951  -0.079306   0.004463   0.007273
   40  N 14  X   -0.002261   0.010220  -0.012410   0.000577   0.002978
   41  N 14  Y   -0.007333   0.004061   0.005406  -0.000459  -0.001388
   42  N 14  Z   -0.007106   0.001461   0.009145  -0.000539  -0.002529
   43  N 15  S   -0.073691   0.970492   0.152157   0.000247   0.000068
   44  N 15  S   -0.008703   0.110071   0.016201  -0.000723   0.000380
   45  N 15  X    0.001013   0.000421  -0.000865  -0.000114   0.000071
   46  N 15  Y   -0.000320   0.001466  -0.000319  -0.001120  -0.000072
   47  N 15  Z   -0.000675   0.001171   0.000090  -0.000938  -0.000021
   48  N 15  S    0.007905  -0.081986  -0.007239   0.006880  -0.003221
   49  N 15  X   -0.009880  -0.004072   0.008425   0.000355  -0.002557
   50  N 15  Y    0.000522  -0.013010   0.000913   0.001040  -0.001148
   51  N 15  Z    0.004245  -0.010721  -0.002636   0.000594  -0.000503
   52  C 16  S   -0.000187  -0.000235  -0.000311   0.984901   0.000827
   53  C 16  S   -0.001356  -0.001819  -0.002180   0.101016  -0.000748
   54  C 16  X    0.000237  -0.000135   0.000363   0.000645  -0.000765
   55  C 16  Y   -0.000039   0.000018  -0.000014  -0.000034   0.000331
   56  C 16  Z   -0.000054   0.000066  -0.000090  -0.000113   0.000377
   57  C 16  S    0.020782   0.019788   0.029625  -0.044063   0.002335
   58  C 16  X    0.035002   0.001974  -0.026669  -0.000966   0.010322
   59  C 16  Y    0.013289  -0.028480   0.007758   0.000806  -0.002834
   60  C 16  Z    0.002095  -0.027878   0.015831   0.000929  -0.005414
   61  C 17  S   -0.000690  -0.000181  -0.000127  -0.000989   0.986593
   62  C 17  S   -0.002835  -0.000541  -0.001043  -0.001047   0.113532
   63  C 17  X   -0.001315  -0.001259   0.001256   0.001462  -0.000373
   64  C 17  Y    0.000210   0.000251   0.000004   0.000492   0.000033
   65  C 17  Z    0.000272   0.000458  -0.000171  -0.000025   0.000166
   66  C 17  S    0.020396   0.009950  -0.000478   0.000802  -0.093745
   67  C 17  X   -0.007469  -0.000508  -0.004176  -0.007510  -0.005765
   68  C 17  Y    0.003944   0.003135  -0.001487  -0.003084  -0.003324
   69  C 17  Z    0.005374   0.001769  -0.000318  -0.000191  -0.003822
   70  C 18  S    0.000218   0.000125  -0.000093  -0.000274  -0.005686
   71  C 18  S    0.000941   0.000596  -0.000562  -0.000672  -0.003318
   72  C 18  X    0.000093   0.000028   0.000035  -0.000628   0.000034
   73  C 18  Y    0.000155   0.000141  -0.000042   0.000026   0.000226
   74  C 18  Z    0.000081   0.000076   0.000068   0.000317   0.000164
   75  C 18  S   -0.005842  -0.004172   0.003190   0.005914   0.023864
   76  C 18  X    0.004357   0.002402  -0.001117   0.001141  -0.012626
   77  C 18  Y    0.000699   0.000396  -0.000476  -0.001355  -0.006723
   78  C 18  Z    0.000589   0.001052  -0.001355  -0.003573  -0.006345
   79  C 19  S   -0.000044  -0.000010   0.000007   0.000171  -0.001815
   80  C 19  S   -0.000293  -0.000035  -0.000014   0.000456  -0.001115
   81  C 19  X    0.000537   0.000126   0.000189   0.000376   0.001010
   82  C 19  Y    0.000116   0.000023   0.000057   0.000156   0.000329
   83  C 19  Z    0.000181   0.000064   0.000019   0.000055   0.000340
   84  C 19  S   -0.000651  -0.000194  -0.000704  -0.003933  -0.000096
   85  C 19  X   -0.002820  -0.000902  -0.000467   0.000165  -0.002591
   86  C 19  Y   -0.001106  -0.000133  -0.000570  -0.001844  -0.002159
   87  C 19  Z   -0.001457  -0.000462  -0.000190  -0.000921  -0.002372
   88  H 20  S   -0.000003   0.000028  -0.000068  -0.000104  -0.000509
   89  H 20  S    0.000059  -0.000006   0.000011   0.000003  -0.000193
   90  H 21  S   -0.000286  -0.000076  -0.000050   0.000007  -0.000128
   91  H 21  S    0.000115   0.000169  -0.000126  -0.000334  -0.001578
   92  N 22  S    0.980271   0.061967   0.078876   0.000351  -0.000093
   93  N 22  S    0.113038   0.006664   0.008133  -0.000005  -0.000702
   94  N 22  X   -0.001252   0.001326  -0.000038   0.001095  -0.000017
   95  N 22  Y   -0.001291  -0.000531   0.000553   0.000334  -0.000609
   96  N 22  Z   -0.000814  -0.000866   0.000553   0.000058  -0.000473
   97  N 22  S   -0.089605  -0.002326  -0.001917   0.002904   0.008986
   98  N 22  X    0.009815  -0.008646   0.001303  -0.000744   0.007905
   99  N 22  Y    0.010532   0.006133  -0.004415   0.001586   0.002367
  100  N 22  Z    0.005814   0.007813  -0.004661   0.001052   0.000896

                      6          7          8          9         10
                  -10.2555   -10.2316   -10.2036    -1.2003    -1.0892
                     A          A          A          A          A   
    1  C  1  S   -0.003059  -0.012090   0.986242   0.000111  -0.000636
    2  C  1  S   -0.001346  -0.004095   0.112257   0.000915   0.001733
    3  C  1  X    0.000911  -0.000395  -0.000274   0.000060  -0.000703
    4  C  1  Y   -0.000023  -0.000057   0.000054   0.000043  -0.000212
    5  C  1  Z   -0.000040  -0.000053   0.000060   0.000025  -0.000178
    6  C  1  S    0.001175   0.024829  -0.090605  -0.006704  -0.005982
    7  C  1  X   -0.000526  -0.011194   0.004701   0.003193   0.003051
    8  C  1  Y    0.000430  -0.005683   0.001825   0.001276   0.002253
    9  C  1  Z    0.000433  -0.005548   0.001795   0.001517   0.001895
   10  H  2  S   -0.000048   0.000119  -0.000009   0.040068  -0.049590
   11  H  2  S    0.000356  -0.000084   0.000010   0.001279  -0.009635
   12  H  3  S   -0.000250  -0.000615  -0.000049   0.045637   0.085660
   13  H  3  S   -0.000239   0.000934   0.000550   0.000558   0.015101
   14  H  4  S   -0.000267  -0.001190  -0.000178   0.000180   0.000508
   15  H  4  S    0.001636  -0.000075   0.015349   0.000194   0.000075
   16  H  5  S    0.000062  -0.001478  -0.000046   0.000315   0.000547
   17  H  5  S   -0.001356   0.000437   0.016111   0.000178  -0.000170
   18  H  6  S   -0.000124  -0.000111  -0.000028   0.040045  -0.053685
   19  H  6  S    0.000346   0.000065   0.000097   0.000610  -0.012608
   20  H  7  S   -0.000030   0.000071  -0.000024   0.040531  -0.035335
   21  H  7  S    0.001541   0.000388   0.000405   0.003936  -0.005009
   22  H  8  S   -0.001330   0.000009  -0.000433   0.011349   0.024064
   23  H  8  S    0.000591  -0.001514  -0.000043   0.001850  -0.004938
   24  H  9  S   -0.001404   0.000023  -0.000460   0.008839   0.023701
   25  H  9  S    0.000661  -0.001407  -0.000018  -0.002919  -0.008767
   26  H 10  S    0.000822  -0.001435  -0.000233   0.001329   0.007030
   27  H 10  S    0.016259   0.001219  -0.001409  -0.000323  -0.001233
   28  H 11  S    0.000757  -0.001440  -0.000234   0.001199   0.007367
   29  H 11  S    0.016152   0.001354  -0.001459  -0.002772  -0.002047
   30  H 12  S    0.000052  -0.000114   0.000021   0.041343  -0.040104
   31  H 12  S   -0.000022  -0.000037  -0.000010   0.001877  -0.006626
   32  H 13  S   -0.001492   0.000725  -0.001221   0.000303   0.002066
   33  H 13  S    0.000572   0.016297   0.001271   0.000140   0.001296
   34  N 14  S   -0.000060  -0.000007  -0.000016  -0.106032   0.107698
   35  N 14  S   -0.000489  -0.000077  -0.000135   0.097617  -0.097734
   36  N 14  X   -0.000088  -0.000001  -0.000025   0.047313  -0.001368
   37  N 14  Y    0.000058   0.000035   0.000009  -0.017926   0.019559
   38  N 14  Z    0.000068   0.000027   0.000014  -0.032134   0.020855
   39  N 14  S    0.002889   0.000392   0.000754   0.296221  -0.352834
   40  N 14  X    0.001185  -0.000112   0.000317   0.043023  -0.009023
   41  N 14  Y   -0.000623  -0.000326  -0.000107  -0.016666   0.037818
   42  N 14  Z   -0.000902  -0.000245  -0.000196  -0.029451   0.042526
   43  N 15  S    0.000034   0.000002   0.000007  -0.108994   0.078608
   44  N 15  S    0.000197   0.000018   0.000042   0.099233  -0.074094
   45  N 15  X   -0.000076   0.000058  -0.000021   0.007199   0.023438
   46  N 15  Y   -0.000119   0.000001  -0.000026   0.045123  -0.008443
   47  N 15  Z   -0.000172  -0.000060  -0.000037   0.040346  -0.016479
   48  N 15  S   -0.001996  -0.000082  -0.000450   0.314054  -0.238406
   49  N 15  X   -0.000691  -0.000575  -0.000134   0.009151   0.047810
   50  N 15  Y   -0.000060  -0.000042   0.000011   0.045586  -0.009743
   51  N 15  Z    0.000522   0.000326   0.000126   0.040592  -0.026943
   52  C 16  S    0.000099  -0.000085   0.000057  -0.150606   0.009603
   53  C 16  S   -0.000369   0.000069  -0.000134   0.185621  -0.011369
   54  C 16  X   -0.000058   0.000184  -0.000114   0.004277   0.174667
   55  C 16  Y    0.000144   0.000165   0.000043   0.000172   0.068173
   56  C 16  Z    0.000254   0.000076   0.000068  -0.000754   0.011195
   57  C 16  S    0.000692   0.001858  -0.000134   0.121953  -0.013206
   58  C 16  X    0.003995   0.001904   0.000822  -0.006141  -0.062070
   59  C 16  Y   -0.001096   0.000825  -0.000358   0.005815  -0.007004
   60  C 16  Z   -0.002503   0.000042  -0.000576   0.006674   0.011619
   61  C 17  S    0.004835   0.001811   0.000797  -0.027037  -0.067568
   62  C 17  S   -0.002364  -0.000669  -0.001206   0.029694   0.068900
   63  C 17  X    0.000010  -0.000744  -0.000405  -0.028031  -0.046243
   64  C 17  Y   -0.000172   0.000074  -0.000012   0.005839   0.021136
   65  C 17  Z   -0.000130   0.000073  -0.000003   0.009335   0.023831
   66  C 17  S    0.026149  -0.000049   0.005701   0.040389   0.128732
   67  C 17  X    0.012609   0.000923   0.004108   0.015632  -0.001124
   68  C 17  Y    0.007193  -0.001470   0.000982   0.004274  -0.002168
   69  C 17  Z    0.007088  -0.001383   0.000901  -0.003433  -0.004626
   70  C 18  S    0.986759   0.013589   0.003106  -0.004948  -0.020784
   71  C 18  S    0.115726  -0.001239  -0.000600   0.005090   0.018762
   72  C 18  X   -0.000272   0.000201  -0.001138  -0.003823  -0.016164
   73  C 18  Y   -0.000237   0.000195  -0.000359  -0.001599  -0.005009
   74  C 18  Z   -0.000317   0.000211  -0.000361  -0.001784  -0.004813
   75  C 18  S   -0.105865   0.023393  -0.000772  -0.001051   0.042802
   76  C 18  X    0.000311   0.013007   0.004142  -0.008822  -0.013691
   77  C 18  Y    0.005972  -0.005139   0.002523   0.005317   0.003080
   78  C 18  Z    0.006538  -0.005740   0.002635   0.009213   0.002786
   79  C 19  S   -0.014472   0.986663   0.011366  -0.000860  -0.004346
   80  C 19  S   -0.004455   0.115344  -0.000837  -0.000051   0.004475
   81  C 19  X   -0.000462  -0.000244  -0.000146  -0.001957  -0.005260
   82  C 19  Y   -0.000132   0.000165  -0.000183  -0.000315   0.000316
   83  C 19  Z   -0.000118   0.000182  -0.000177  -0.000209   0.000313
   84  C 19  S    0.025163  -0.103569   0.018768   0.012159   0.013204
   85  C 19  X   -0.013204   0.001270   0.010812   0.001485   0.004982
   86  C 19  Y    0.004639  -0.005157   0.005606   0.005508   0.004232
   87  C 19  Z    0.004997  -0.005365   0.005434   0.004594   0.005200
   88  H 20  S    0.000045  -0.001476  -0.000045   0.000272   0.000561
   89  H 20  S   -0.001290   0.000401   0.016087   0.000094   0.000082
   90  H 21  S   -0.001491   0.000732  -0.001218   0.000410   0.001995
   91  H 21  S    0.000659   0.016307   0.001325   0.000630   0.000592
   92  N 22  S    0.000093  -0.000012   0.000002  -0.114831  -0.172067
   93  N 22  S    0.000357  -0.000202  -0.000025   0.102575   0.155880
   94  N 22  X   -0.000464  -0.000612  -0.000025  -0.056547  -0.011382
   95  N 22  Y   -0.000209  -0.000087   0.000055  -0.024218  -0.007621
   96  N 22  Z   -0.000182  -0.000052   0.000032  -0.007532  -0.005422
   97  N 22  S   -0.003489  -0.000258   0.000023   0.335774   0.552860
   98  N 22  X   -0.000231   0.003591   0.000002  -0.048873  -0.029221
   99  N 22  Y    0.001283   0.000658  -0.000309  -0.033640  -0.031722
  100  N 22  Z    0.001037   0.000223  -0.000233  -0.015317  -0.020158

                     11         12         13         14         15
                   -1.0802    -0.9335    -0.8657    -0.8200    -0.7869
                     A          A          A          A          A   
    1  C  1  S   -0.000067  -0.040441  -0.106807   0.060695   0.079529
    2  C  1  S   -0.000261   0.042461   0.104755  -0.057872  -0.075508
    3  C  1  X    0.000288  -0.024759  -0.036441   0.007686  -0.004635
    4  C  1  Y   -0.000099  -0.008597  -0.017428   0.006226   0.004816
    5  C  1  Z   -0.000079  -0.008240  -0.017084   0.006262   0.004955
    6  C  1  S    0.000196   0.079364   0.265088  -0.167665  -0.234032
    7  C  1  X   -0.001773   0.003380  -0.006197   0.005071  -0.000205
    8  C  1  Y    0.000963   0.002127  -0.002668   0.001377   0.002874
    9  C  1  Z    0.000603   0.001649  -0.002192   0.001638   0.002678
   10  H  2  S   -0.075853   0.023815  -0.041596  -0.092403  -0.067285
   11  H  2  S   -0.016121   0.007351  -0.018818  -0.050826  -0.031097
   12  H  3  S   -0.014121  -0.013867  -0.012413  -0.112682   0.119044
   13  H  3  S   -0.005435  -0.002489  -0.010024  -0.056731   0.059494
   14  H  4  S    0.000147   0.015842   0.049009  -0.032083  -0.047841
   15  H  4  S    0.001080  -0.005357  -0.000353  -0.004622  -0.008018
   16  H  5  S   -0.000189   0.018290   0.051088  -0.031173  -0.043349
   17  H  5  S   -0.000278   0.000027   0.000985  -0.001535  -0.003706
   18  H  6  S   -0.072539   0.037123  -0.057623  -0.044795  -0.069719
   19  H  6  S   -0.014537   0.012342  -0.025691  -0.028402  -0.033060
   20  H  7  S    0.084427   0.015559  -0.034405  -0.105228  -0.041450
   21  H  7  S    0.012732   0.007623  -0.021793  -0.047098  -0.023999
   22  H  8  S    0.002404   0.061030  -0.048613   0.047791  -0.052708
   23  H  8  S    0.003505  -0.003260   0.001541   0.007231  -0.018301
   24  H  9  S    0.001901   0.061854  -0.049902   0.041638  -0.042984
   25  H  9  S    0.004534  -0.002858   0.001078   0.006059  -0.014914
   26  H 10  S   -0.001032   0.062392   0.019205   0.013542   0.057812
   27  H 10  S   -0.000648  -0.005067   0.003127  -0.004170   0.013215
   28  H 11  S   -0.000645   0.062181   0.018787   0.014754   0.055404
   29  H 11  S    0.000883  -0.004771   0.002366  -0.003359   0.010262
   30  H 12  S    0.081201   0.020274  -0.033733  -0.101008   0.093875
   31  H 12  S    0.016324   0.009668  -0.018811  -0.054150   0.044425
   32  H 13  S    0.000290   0.041133   0.060893  -0.016616  -0.011918
   33  H 13  S    0.000319  -0.001258  -0.003112   0.000372  -0.003350
   34  N 14  S    0.150158  -0.035122   0.038259   0.033310   0.029228
   35  N 14  S   -0.138236   0.033867  -0.035998  -0.031335  -0.023898
   36  N 14  X   -0.025625  -0.041588   0.085310   0.090269   0.133457
   37  N 14  Y   -0.005670  -0.002380  -0.014811  -0.082639  -0.050165
   38  N 14  Z    0.002047   0.008753  -0.037987  -0.114452  -0.089408
   39  N 14  S   -0.481014   0.114459  -0.133847  -0.118543  -0.118979
   40  N 14  X   -0.056033  -0.032862   0.062597   0.059143   0.099278
   41  N 14  Y   -0.007242  -0.006995  -0.005518  -0.063671  -0.036904
   42  N 14  Z    0.008750   0.001455  -0.022311  -0.085808  -0.066289
   43  N 15  S   -0.166963  -0.017188   0.022282   0.057279  -0.014941
   44  N 15  S    0.153996   0.015549  -0.020284  -0.050432   0.012358
   45  N 15  X    0.014121  -0.014705   0.010595   0.017291  -0.142455
   46  N 15  Y    0.017253  -0.020677   0.050690   0.168257  -0.068628
   47  N 15  Z    0.010830  -0.013064   0.043823   0.158499   0.005640
   48  N 15  S    0.535392   0.066141  -0.085276  -0.221461   0.060146
   49  N 15  X    0.027393  -0.012869   0.007553   0.008119  -0.122457
   50  N 15  Y    0.038326  -0.010032   0.030398   0.115853  -0.053371
   51  N 15  Z    0.025121  -0.003219   0.024597   0.112551   0.009088
   52  C 16  S    0.001414   0.046791  -0.072125  -0.105425  -0.007683
   53  C 16  S   -0.001241  -0.057165   0.090742   0.134616   0.009437
   54  C 16  X    0.058591  -0.076460   0.040024  -0.061411  -0.146137
   55  C 16  Y   -0.126458  -0.042680   0.033740  -0.071593   0.051187
   56  C 16  Z   -0.138785  -0.013336   0.016440  -0.041809   0.091175
   57  C 16  S    0.003556  -0.093322   0.158237   0.253347   0.019758
   58  C 16  X   -0.016299  -0.015683   0.008546  -0.012662  -0.060410
   59  C 16  Y    0.037074  -0.001165   0.002626  -0.032377   0.023511
   60  C 16  Z    0.040361   0.005220  -0.001295  -0.022661   0.039993
   61  C 17  S   -0.003013  -0.125946   0.095005  -0.059426   0.045138
   62  C 17  S    0.002843   0.125658  -0.089452   0.057770  -0.042839
   63  C 17  X    0.001301   0.044731   0.043629   0.027749   0.083276
   64  C 17  Y   -0.003243   0.021555  -0.009008  -0.026178   0.060474
   65  C 17  Z   -0.003033   0.020042  -0.007201  -0.017142   0.046483
   66  C 17  S   -0.015945   0.309923  -0.283907   0.186997  -0.155478
   67  C 17  X   -0.013590  -0.002716   0.013017   0.024157   0.036309
   68  C 17  Y   -0.014538  -0.005483   0.003722  -0.006599   0.037153
   69  C 17  Z   -0.009437  -0.003587   0.002201  -0.002728   0.028589
   70  C 18  S   -0.000267  -0.137924  -0.034483  -0.031745  -0.085018
   71  C 18  S   -0.002435   0.131893   0.034671   0.030458   0.078572
   72  C 18  X    0.000236  -0.016366   0.088115  -0.030840  -0.015701
   73  C 18  Y   -0.000526  -0.025824   0.002595  -0.013258   0.017245
   74  C 18  Z   -0.000140  -0.027343   0.001028  -0.011259   0.014201
   75  C 18  S    0.018798   0.346162   0.080526   0.084256   0.271892
   76  C 18  X   -0.008162  -0.008753   0.005485   0.009265  -0.018479
   77  C 18  Y   -0.004024  -0.008489  -0.000488  -0.003824   0.008889
   78  C 18  Z   -0.007166  -0.011929   0.001895  -0.002005   0.007363
   79  C 19  S   -0.000016  -0.090622  -0.128532   0.033982   0.017241
   80  C 19  S    0.000320   0.089397   0.120140  -0.030758  -0.017315
   81  C 19  X   -0.000001  -0.034994   0.020395  -0.039188  -0.063581
   82  C 19  Y   -0.000005   0.014193   0.020548  -0.007758   0.001083
   83  C 19  Z   -0.000118   0.015162   0.020926  -0.006662   0.001867
   84  C 19  S   -0.002104   0.203526   0.346360  -0.100739  -0.046059
   85  C 19  X    0.001956   0.003375  -0.008919  -0.002350  -0.012740
   86  C 19  Y   -0.000702   0.002136   0.006854  -0.002637   0.002288
   87  C 19  Z    0.000615   0.003452   0.005979  -0.003433   0.002942
   88  H 20  S   -0.000152   0.018347   0.051069  -0.031134  -0.043397
   89  H 20  S   -0.000051   0.000240   0.000749  -0.001753  -0.003542
   90  H 21  S    0.000176   0.040926   0.061086  -0.016388  -0.012378
   91  H 21  S   -0.000466  -0.002100  -0.002244   0.001029  -0.003948
   92  N 22  S    0.019195   0.029765   0.009789   0.057421  -0.012667
   93  N 22  S   -0.017548  -0.027238  -0.008496  -0.052824   0.010370
   94  N 22  X    0.015142   0.127671  -0.150131  -0.026770  -0.000087
   95  N 22  Y   -0.019011   0.003039  -0.011596  -0.117276   0.162774
   96  N 22  Z   -0.020596  -0.017245   0.020256  -0.072213   0.122467
   97  N 22  S   -0.061972  -0.116103  -0.023218  -0.221565   0.057996
   98  N 22  X    0.034407   0.085234  -0.110561  -0.017402  -0.005963
   99  N 22  Y   -0.028368   0.002901  -0.005122  -0.088701   0.135165
  100  N 22  Z   -0.034554  -0.011361   0.017543  -0.055364   0.102845

                     16         17         18         19         20
                   -0.7675    -0.7372    -0.7010    -0.6851    -0.6758
                     A          A          A          A          A   
    1  C  1  S   -0.094852  -0.045485   0.096214  -0.000582   0.024137
    2  C  1  S    0.089828   0.042423  -0.089735   0.000206  -0.022642
    3  C  1  X    0.016101   0.018596  -0.055673   0.001585  -0.015489
    4  C  1  Y    0.001015   0.002635  -0.048464  -0.000169  -0.022963
    5  C  1  Z    0.000512   0.002429  -0.048464  -0.002491  -0.025512
    6  C  1  S    0.288212   0.149669  -0.332964   0.002978  -0.088143
    7  C  1  X    0.003186   0.006623  -0.005658   0.000139   0.000090
    8  C  1  Y   -0.001312  -0.002179  -0.020799  -0.000250  -0.010822
    9  C  1  Z   -0.001891  -0.001992  -0.021019  -0.001576  -0.012694
   10  H  2  S   -0.109217   0.008732  -0.057329  -0.146314   0.133454
   11  H  2  S   -0.055329  -0.000502  -0.035479  -0.095501   0.096396
   12  H  3  S    0.075070  -0.053900  -0.007073   0.056315   0.119323
   13  H  3  S    0.034228  -0.033167  -0.012045   0.028576   0.087141
   14  H  4  S    0.060159   0.033285  -0.066716   0.001355  -0.013861
   15  H  4  S    0.012510   0.007453  -0.022605   0.001011  -0.004582
   16  H  5  S    0.055441   0.028008  -0.079929   0.000421  -0.025188
   17  H  5  S    0.007481   0.004814  -0.029608  -0.000203  -0.012405
   18  H  6  S    0.053233  -0.163593   0.063771   0.054964  -0.138487
   19  H  6  S    0.028505  -0.093437   0.044360   0.026623  -0.100274
   20  H  7  S   -0.111050   0.044691  -0.031312   0.190071   0.000100
   21  H  7  S   -0.052191   0.037622  -0.013370   0.123672  -0.002059
   22  H  8  S    0.000812   0.082582   0.028295  -0.007600  -0.015694
   23  H  8  S   -0.008329   0.030598   0.020340  -0.004841  -0.011885
   24  H  9  S    0.010037   0.075202   0.029038   0.032955   0.017689
   25  H  9  S   -0.002945   0.023710   0.020018   0.029065   0.013396
   26  H 10  S   -0.045749  -0.048316  -0.076148  -0.000939  -0.037824
   27  H 10  S   -0.003251  -0.017512  -0.036618   0.004584  -0.012151
   28  H 11  S   -0.047449  -0.045593  -0.075144  -0.016124  -0.051691
   29  H 11  S   -0.005260  -0.014260  -0.035153  -0.009744  -0.022771
   30  H 12  S    0.045070   0.079873   0.072055  -0.141323  -0.119817
   31  H 12  S    0.025707   0.040169   0.050206  -0.089024  -0.090598
   32  H 13  S   -0.005432  -0.004559   0.107643   0.006258   0.050590
   33  H 13  S   -0.000195   0.002711   0.039633   0.003619   0.022636
   34  N 14  S    0.009857   0.008988   0.001559  -0.008726  -0.000427
   35  N 14  S   -0.006750  -0.006888  -0.000987   0.007259   0.000832
   36  N 14  X   -0.047909   0.283272  -0.075619  -0.000168   0.147752
   37  N 14  Y   -0.118960   0.018226  -0.049701  -0.094952   0.106215
   38  N 14  Z   -0.137875  -0.012269  -0.061374  -0.224860   0.139844
   39  N 14  S   -0.047288  -0.030420  -0.009231   0.049270  -0.000249
   40  N 14  X   -0.050109   0.236192  -0.063541   0.001715   0.124185
   41  N 14  Y   -0.100544   0.019762  -0.042179  -0.081522   0.089956
   42  N 14  Z   -0.113903  -0.004094  -0.052296  -0.198217   0.119457
   43  N 15  S    0.011720  -0.005449   0.005077   0.004905  -0.015022
   44  N 15  S   -0.009464   0.002540  -0.004347  -0.004254   0.012063
   45  N 15  X   -0.145188  -0.057967  -0.094320   0.231718   0.108345
   46  N 15  Y    0.035772  -0.147565  -0.067737   0.041795   0.173679
   47  N 15  Z    0.112681  -0.097679  -0.008398  -0.204107   0.091492
   48  N 15  S   -0.046942   0.023094  -0.026906  -0.026780   0.085467
   49  N 15  X   -0.124404  -0.050765  -0.079509   0.198208   0.093855
   50  N 15  Y    0.027435  -0.119350  -0.056768   0.035935   0.156985
   51  N 15  Z    0.093713  -0.073385  -0.005938  -0.179681   0.085752
   52  C 16  S    0.008390  -0.012731   0.010797  -0.001563   0.002736
   53  C 16  S   -0.010968   0.016273  -0.014498   0.001963  -0.003711
   54  C 16  X   -0.179118  -0.088805   0.020121  -0.127886  -0.141051
   55  C 16  Y   -0.089606   0.131955   0.038420   0.127939  -0.145167
   56  C 16  Z   -0.033988   0.192714   0.023781  -0.002757  -0.100373
   57  C 16  S   -0.021482   0.028824  -0.039939   0.007440  -0.004110
   58  C 16  X   -0.083920  -0.017086  -0.015725  -0.033973  -0.024323
   59  C 16  Y   -0.033837   0.043808   0.000913   0.066347  -0.016574
   60  C 16  Z   -0.008717   0.072479   0.001346  -0.043930  -0.012829
   61  C 17  S   -0.025114  -0.078548  -0.008500  -0.003457  -0.007192
   62  C 17  S    0.024107   0.071853   0.007631   0.001887   0.006321
   63  C 17  X   -0.081621   0.005259  -0.025962   0.021069  -0.008126
   64  C 17  Y    0.024409  -0.068719  -0.053432   0.017044   0.037524
   65  C 17  Z    0.011496  -0.058473  -0.055346  -0.049258  -0.015442
   66  C 17  S    0.088635   0.304635   0.048467   0.020596   0.027634
   67  C 17  X   -0.016422   0.003888   0.004813  -0.005329  -0.000123
   68  C 17  Y    0.016246  -0.030951  -0.028748   0.006070   0.016831
   69  C 17  Z    0.009973  -0.025782  -0.030390  -0.038084  -0.017643
   70  C 18  S    0.079293   0.055072   0.065552   0.007900   0.044488
   71  C 18  S   -0.070730  -0.048559  -0.058055  -0.008129  -0.039671
   72  C 18  X   -0.023021  -0.028833   0.079273  -0.002695  -0.001895
   73  C 18  Y    0.002212  -0.035391  -0.071605   0.004749  -0.022531
   74  C 18  Z   -0.000611  -0.032005  -0.074736  -0.019948  -0.045689
   75  C 18  S   -0.268518  -0.202094  -0.265813  -0.020303  -0.167720
   76  C 18  X   -0.008787   0.013363   0.033784  -0.007714  -0.012201
   77  C 18  Y    0.009660  -0.014864  -0.034740   0.000879  -0.008941
   78  C 18  Z    0.007539  -0.012920  -0.035484  -0.012008  -0.023960
   79  C 19  S    0.008803   0.013961  -0.122328  -0.002015  -0.046485
   80  C 19  S   -0.008551  -0.011300   0.110747   0.001595   0.041611
   81  C 19  X    0.080958   0.037650  -0.027981   0.002373   0.014526
   82  C 19  Y    0.006219  -0.006672  -0.073002  -0.000435  -0.035342
   83  C 19  Z    0.003518  -0.006885  -0.074215  -0.008882  -0.044748
   84  C 19  S   -0.024894  -0.052943   0.445948   0.009178   0.179227
   85  C 19  X    0.017302   0.007349  -0.024404  -0.001799  -0.000271
   86  C 19  Y    0.002379  -0.007384  -0.030816  -0.000328  -0.016336
   87  C 19  Z    0.002645  -0.007994  -0.031449  -0.005076  -0.020364
   88  H 20  S    0.055304   0.028097  -0.079983  -0.001097  -0.026737
   89  H 20  S    0.007737   0.004603  -0.029747  -0.000962  -0.013217
   90  H 21  S   -0.006046  -0.003975   0.107732   0.000727   0.045320
   91  H 21  S   -0.001039   0.003101   0.039849   0.000343   0.018640
   92  N 22  S   -0.033098   0.033696  -0.019922   0.009191   0.010697
   93  N 22  S    0.024912  -0.028454   0.015210  -0.007391  -0.009349
   94  N 22  X    0.172016  -0.015765  -0.030869   0.006636   0.155546
   95  N 22  Y    0.084100  -0.045363  -0.018309   0.124501   0.168907
   96  N 22  Z    0.018496  -0.001861  -0.017635   0.003204   0.062264
   97  N 22  S    0.140866  -0.152735   0.099413  -0.045682  -0.063035
   98  N 22  X    0.132247  -0.028963  -0.040061   0.005109   0.146510
   99  N 22  Y    0.058011  -0.027507  -0.024304   0.118330   0.148721
  100  N 22  Z    0.006960   0.009499  -0.021104   0.007910   0.052348

                     21         22         23         24         25
                   -0.6399    -0.6189    -0.5951    -0.5504    -0.5453
                     A          A          A          A          A   
    1  C  1  S    0.013390  -0.022220  -0.004355  -0.007255  -0.010801
    2  C  1  S   -0.011926   0.018927   0.003524   0.005998   0.008779
    3  C  1  X   -0.017568   0.046009   0.010924   0.086070   0.143305
    4  C  1  Y   -0.028053   0.006223   0.049147   0.072547  -0.117612
    5  C  1  Z   -0.000541   0.035202  -0.035387  -0.131567   0.026075
    6  C  1  S   -0.055524   0.097369   0.020086   0.032218   0.049505
    7  C  1  X   -0.006103   0.020807   0.004655   0.060075   0.099295
    8  C  1  Y   -0.012985  -0.002093   0.029396   0.047204  -0.090373
    9  C  1  Z    0.001977   0.014480  -0.023151  -0.096946   0.012518
   10  H  2  S   -0.042616  -0.002499  -0.037737   0.006151  -0.011189
   11  H  2  S   -0.031365   0.011952  -0.026765   0.004031  -0.016259
   12  H  3  S   -0.006255   0.122760   0.038320  -0.032694  -0.050190
   13  H  3  S   -0.007559   0.090865   0.026023  -0.029872  -0.055644
   14  H  4  S   -0.011647   0.027939   0.005972   0.065078   0.103278
   15  H  4  S   -0.004060   0.012925   0.003519   0.047297   0.076630
   16  H  5  S   -0.024214   0.014134   0.034840   0.061269  -0.070032
   17  H  5  S   -0.014500   0.003289   0.027073   0.048855  -0.058662
   18  H  6  S   -0.003728   0.059885   0.042475  -0.000301   0.014751
   19  H  6  S   -0.009308   0.049135   0.030712   0.002212   0.012184
   20  H  7  S    0.074372  -0.026088   0.031468  -0.005211   0.012768
   21  H  7  S    0.047332  -0.018408   0.024574  -0.017385  -0.002420
   22  H  8  S    0.063904   0.146837  -0.042537   0.046683  -0.144468
   23  H  8  S    0.059497   0.101494  -0.018541   0.027379  -0.120173
   24  H  9  S   -0.148952   0.017695   0.079725  -0.138156   0.013269
   25  H  9  S   -0.100743   0.004759   0.057243  -0.113963   0.005527
   26  H 10  S   -0.051401  -0.079701   0.076872   0.023567  -0.050957
   27  H 10  S   -0.037376  -0.054961   0.055239   0.013807  -0.052630
   28  H 11  S    0.060361   0.010536  -0.094109  -0.066189  -0.002340
   29  H 11  S    0.047476   0.011326  -0.062883  -0.058908  -0.009320
   30  H 12  S   -0.059590  -0.014350  -0.030028   0.004411  -0.001940
   31  H 12  S   -0.041549  -0.010533  -0.019427   0.001590   0.000509
   32  H 13  S   -0.007682  -0.042287   0.056154   0.131856  -0.017425
   33  H 13  S   -0.012582  -0.021158   0.045441   0.101213  -0.008107
   34  N 14  S   -0.009888   0.016095   0.001131   0.002081  -0.000066
   35  N 14  S    0.009053  -0.014230  -0.001310  -0.001406  -0.000082
   36  N 14  X    0.052589  -0.116244  -0.029797  -0.013840  -0.010596
   37  N 14  Y   -0.118121   0.009376  -0.167948   0.086830  -0.042934
   38  N 14  Z   -0.010049   0.023042   0.069729  -0.049307   0.022361
   39  N 14  S    0.046570  -0.077296  -0.003747  -0.013896  -0.000539
   40  N 14  X    0.046552  -0.103517  -0.025118  -0.016313  -0.012484
   41  N 14  Y   -0.108913   0.012952  -0.162664   0.092009  -0.044904
   42  N 14  Z   -0.009662   0.020351   0.071501  -0.052742   0.027660
   43  N 15  S    0.002055  -0.007570   0.000739  -0.003457  -0.001199
   44  N 15  S   -0.001996   0.006145  -0.000247   0.002641   0.001868
   45  N 15  X    0.134531   0.005995   0.115411  -0.036138   0.031732
   46  N 15  Y   -0.058174   0.044998  -0.103112   0.053495  -0.036289
   47  N 15  Z   -0.001674   0.060531   0.093879  -0.060011  -0.001135
   48  N 15  S   -0.008157   0.038082  -0.006397   0.019010   0.001470
   49  N 15  X    0.122349   0.003965   0.108595  -0.036964   0.028274
   50  N 15  Y   -0.057747   0.042944  -0.100442   0.051154  -0.039021
   51  N 15  Z   -0.001326   0.060781   0.093683  -0.066809  -0.006457
   52  C 16  S    0.007378  -0.005197  -0.002385  -0.006672  -0.013559
   53  C 16  S   -0.009527   0.005355   0.003356   0.008356   0.018499
   54  C 16  X   -0.045280   0.072857   0.071978   0.008415   0.065370
   55  C 16  Y   -0.117399  -0.032201  -0.165750   0.072696  -0.004566
   56  C 16  Z    0.152485  -0.042534   0.178670  -0.062163   0.043798
   57  C 16  S   -0.012647   0.001647   0.005213   0.033066   0.060032
   58  C 16  X    0.010487   0.017796   0.053348  -0.003183   0.039079
   59  C 16  Y   -0.095365  -0.010912  -0.143148   0.061813  -0.012911
   60  C 16  Z    0.104911  -0.001233   0.148570  -0.050684   0.033274
   61  C 17  S    0.019973  -0.029663  -0.000273  -0.008233  -0.007370
   62  C 17  S   -0.016218   0.022264  -0.000619   0.010046   0.010640
   63  C 17  X   -0.073629   0.215815   0.060405   0.084979   0.127447
   64  C 17  Y   -0.101321  -0.193928   0.057655  -0.022960   0.233367
   65  C 17  Z    0.211181  -0.020501  -0.110688   0.216367   0.040398
   66  C 17  S   -0.102256   0.167494   0.007165   0.021841   0.007945
   67  C 17  X   -0.041077   0.116608   0.029026   0.078704   0.109733
   68  C 17  Y   -0.089226  -0.126822   0.048689  -0.023895   0.190466
   69  C 17  Z    0.140292   0.009210  -0.084305   0.178464   0.026742
   70  C 18  S    0.005535   0.004971   0.000601  -0.001953  -0.008289
   71  C 18  S   -0.005622  -0.003576  -0.001091   0.002550   0.007591
   72  C 18  X    0.007703  -0.035589  -0.007278  -0.142994  -0.202114
   73  C 18  Y   -0.066743  -0.136942   0.105773   0.011366  -0.096484
   74  C 18  Z    0.103984  -0.005629  -0.137083  -0.103022  -0.037299
   75  C 18  S   -0.012031  -0.034081  -0.001439  -0.005846   0.021039
   76  C 18  X   -0.014380  -0.002063  -0.007674  -0.093081  -0.133305
   77  C 18  Y   -0.043395  -0.089302   0.083457   0.022582  -0.071576
   78  C 18  Z    0.067631   0.001374  -0.105151  -0.078472  -0.017704
   79  C 19  S   -0.021650   0.030409   0.006807   0.006197   0.012349
   80  C 19  S    0.018335  -0.026155  -0.006175  -0.005781  -0.011205
   81  C 19  X    0.016205  -0.026431  -0.012651   0.026124   0.036963
   82  C 19  Y   -0.048484  -0.044017   0.087780   0.062712  -0.206303
   83  C 19  Z    0.029172   0.029556  -0.088301  -0.211891  -0.023120
   84  C 19  S    0.090547  -0.123675  -0.026105  -0.016655  -0.040241
   85  C 19  X    0.010294  -0.025986  -0.010986   0.017383   0.027339
   86  C 19  Y   -0.025656  -0.037995   0.059784   0.053615  -0.155309
   87  C 19  Z    0.024422   0.011680  -0.062707  -0.159442  -0.011452
   88  H 20  S   -0.005943   0.033960  -0.023012  -0.083699   0.036612
   89  H 20  S   -0.000196   0.019452  -0.020726  -0.069546   0.028330
   90  H 21  S    0.044832   0.007117  -0.064425  -0.062070   0.116832
   91  H 21  S    0.025383   0.015488  -0.047494  -0.043752   0.092189
   92  N 22  S   -0.011953   0.023279   0.004456   0.003460   0.004718
   93  N 22  S    0.009331  -0.018070  -0.003105  -0.002144  -0.003000
   94  N 22  X    0.140256  -0.184143  -0.039636  -0.001963  -0.035399
   95  N 22  Y   -0.116429   0.135677  -0.012673  -0.062213  -0.037638
   96  N 22  Z    0.120234   0.188341   0.131804   0.031675  -0.028984
   97  N 22  S    0.052529  -0.107816  -0.020489  -0.017717  -0.021195
   98  N 22  X    0.141706  -0.197447  -0.038740   0.006344  -0.018676
   99  N 22  Y   -0.112293   0.133727  -0.009014  -0.061643  -0.028889
  100  N 22  Z    0.108284   0.187325   0.126792   0.035521  -0.028541

                     26         27         28         29         30
                   -0.5079    -0.4881    -0.4572    -0.4550    -0.4465
                     A          A          A          A          A   
    1  C  1  S    0.006995   0.000106   0.016917  -0.002367  -0.005715
    2  C  1  S   -0.005464   0.000114  -0.018703   0.002219   0.007597
    3  C  1  X    0.055786  -0.016361   0.282198  -0.056236   0.130611
    4  C  1  Y   -0.150769  -0.170388   0.110393   0.017732  -0.163846
    5  C  1  Z   -0.163401   0.160441   0.115782  -0.008570  -0.177473
    6  C  1  S   -0.040139  -0.002619  -0.039723   0.006660   0.017608
    7  C  1  X    0.043761  -0.011090   0.198973  -0.043551   0.123374
    8  C  1  Y   -0.108827  -0.133008   0.074069   0.017271  -0.129877
    9  C  1  Z   -0.118735   0.127509   0.077990  -0.005638  -0.141588
   10  H  2  S   -0.001132   0.002232   0.002503  -0.010563   0.001237
   11  H  2  S    0.001864   0.004573  -0.000039  -0.017190  -0.001141
   12  H  3  S    0.028952   0.003271   0.015945   0.001067   0.005543
   13  H  3  S    0.051396   0.013283   0.031924   0.013048  -0.005997
   14  H  4  S    0.104193  -0.009938   0.098472  -0.035797   0.188466
   15  H  4  S    0.091734  -0.008792   0.104427  -0.035066   0.175459
   16  H  5  S   -0.087365  -0.130803   0.048249   0.017039  -0.101453
   17  H  5  S   -0.069897  -0.111288   0.063114   0.013995  -0.109704
   18  H  6  S    0.006670   0.000358  -0.013241   0.003343  -0.008440
   19  H  6  S    0.008232   0.002285  -0.018965  -0.010586  -0.013975
   20  H  7  S   -0.009780  -0.004766  -0.001420  -0.008627   0.002295
   21  H  7  S    0.004268  -0.007524   0.006374  -0.019695  -0.000258
   22  H  8  S    0.071406   0.078998   0.040573  -0.017643   0.009121
   23  H  8  S    0.078161   0.088667   0.074602   0.018381   0.005361
   24  H  9  S    0.060931  -0.069990  -0.022778  -0.004941  -0.038709
   25  H  9  S    0.065500  -0.083341  -0.006859  -0.022646  -0.058214
   26  H 10  S    0.111895   0.168154   0.056362  -0.014765  -0.037936
   27  H 10  S    0.108641   0.154233   0.070968  -0.014498  -0.061226
   28  H 11  S    0.113368  -0.168377   0.025396  -0.001679  -0.060396
   29  H 11  S    0.106512  -0.149470   0.027176  -0.002840  -0.094333
   30  H 12  S    0.007038   0.000044   0.004279   0.002619  -0.001105
   31  H 12  S    0.006819  -0.002840   0.005421  -0.008127  -0.000694
   32  H 13  S    0.035617  -0.048359   0.065185  -0.007481  -0.104564
   33  H 13  S    0.039927  -0.046380   0.072788  -0.007559  -0.121887
   34  N 14  S    0.003416   0.001772  -0.006231  -0.005221  -0.004542
   35  N 14  S   -0.003378  -0.001140   0.004606   0.003194   0.003627
   36  N 14  X   -0.012948  -0.010086   0.021074  -0.024085   0.014904
   37  N 14  Y    0.005124   0.066912   0.003652   0.267055  -0.009488
   38  N 14  Z   -0.000636  -0.044663  -0.012711  -0.213093   0.000194
   39  N 14  S   -0.013845  -0.011866   0.039590   0.037657   0.026734
   40  N 14  X   -0.010342  -0.011373   0.022698  -0.034893   0.015302
   41  N 14  Y    0.006359   0.078095   0.002924   0.321752  -0.011311
   42  N 14  Z   -0.001680  -0.052985  -0.016628  -0.254878   0.000634
   43  N 15  S    0.002727  -0.001794   0.003978  -0.005698   0.000577
   44  N 15  S   -0.002524   0.000758  -0.003519   0.003304  -0.000400
   45  N 15  X   -0.005482  -0.018431   0.024679   0.156794   0.025029
   46  N 15  Y   -0.011494   0.029576  -0.056090  -0.239860  -0.038517
   47  N 15  Z    0.030570  -0.019460   0.055382   0.254308   0.033704
   48  N 15  S   -0.014384   0.013727  -0.021428   0.043099  -0.003412
   49  N 15  X   -0.004590  -0.018407   0.034695   0.187801   0.032694
   50  N 15  Y   -0.011545   0.031033  -0.066838  -0.291234  -0.047847
   51  N 15  Z    0.037878  -0.022520   0.069100   0.304494   0.040881
   52  C 16  S   -0.000238   0.000687   0.010362  -0.002511   0.006162
   53  C 16  S    0.000074  -0.001235  -0.013795   0.003692  -0.007817
   54  C 16  X    0.007026  -0.007135  -0.041335   0.003634  -0.025529
   55  C 16  Y    0.000201   0.015398  -0.010106   0.001417  -0.006524
   56  C 16  Z   -0.000997  -0.019191  -0.007861   0.000373  -0.006166
   57  C 16  S   -0.005673  -0.002022  -0.042836   0.017288  -0.027035
   58  C 16  X    0.004127  -0.007432  -0.015606   0.035751  -0.014649
   59  C 16  Y   -0.002101   0.015961  -0.009254   0.021143  -0.006635
   60  C 16  Z   -0.001553  -0.011414  -0.015052   0.007595  -0.009097
   61  C 17  S    0.002770  -0.002569   0.036192  -0.005010   0.005711
   62  C 17  S   -0.005776   0.002047  -0.031542   0.004478  -0.003123
   63  C 17  X   -0.063279  -0.000976  -0.125486   0.018412  -0.013699
   64  C 17  Y   -0.112707  -0.082090  -0.098306   0.040773  -0.018967
   65  C 17  Z   -0.105718   0.073496  -0.040508   0.017925   0.023909
   66  C 17  S   -0.006693   0.013651  -0.189436   0.015418  -0.037664
   67  C 17  X   -0.075777   0.001737  -0.105585  -0.000268  -0.029226
   68  C 17  Y   -0.091015  -0.061440  -0.097059   0.038663  -0.019232
   69  C 17  Z   -0.085772   0.057464  -0.059688   0.012020   0.008222
   70  C 18  S    0.004193   0.004132  -0.015317   0.004169  -0.033556
   71  C 18  S   -0.009206  -0.003326   0.007869  -0.003561   0.027901
   72  C 18  X   -0.062130  -0.003805   0.136000  -0.041676   0.176092
   73  C 18  Y    0.190312   0.204272   0.058341  -0.016541  -0.090792
   74  C 18  Z    0.202800  -0.187527   0.027490  -0.000297  -0.119796
   75  C 18  S    0.021609  -0.021200   0.102997  -0.014940   0.177810
   76  C 18  X   -0.073554  -0.005280   0.092754  -0.030945   0.152352
   77  C 18  Y    0.140707   0.179681   0.030163  -0.010837  -0.096693
   78  C 18  Z    0.151032  -0.161580   0.007762  -0.003935  -0.118022
   79  C 19  S    0.003901  -0.002130   0.019264  -0.003605  -0.004048
   80  C 19  S   -0.005186   0.001712  -0.019187   0.003451   0.008416
   81  C 19  X    0.204167   0.015605  -0.244981   0.039587  -0.113132
   82  C 19  Y   -0.049037  -0.046368  -0.147898   0.002086   0.142596
   83  C 19  Z   -0.059300   0.060074  -0.143746   0.015215   0.159987
   84  C 19  S    0.000328   0.011470  -0.083371   0.015215  -0.018745
   85  C 19  X    0.144569   0.010256  -0.190196   0.030120  -0.049252
   86  C 19  Y   -0.033982  -0.043343  -0.127831  -0.000184   0.107034
   87  C 19  Z   -0.041108   0.056180  -0.124634   0.015669   0.119299
   88  H 20  S   -0.093707   0.127482   0.054693  -0.006542  -0.108874
   89  H 20  S   -0.074882   0.107358   0.068677  -0.007911  -0.118064
   90  H 21  S    0.032784   0.043897   0.069662   0.005266  -0.093098
   91  H 21  S    0.037672   0.041679   0.081494   0.000290  -0.106054
   92  N 22  S    0.018198   0.002035  -0.012207   0.012508  -0.013552
   93  N 22  S   -0.014443  -0.000993   0.007938  -0.006874   0.010858
   94  N 22  X   -0.057084   0.014064   0.040963   0.011947   0.032762
   95  N 22  Y    0.039163  -0.048364   0.045909   0.031080   0.039570
   96  N 22  Z    0.017635   0.074001  -0.086482  -0.030765  -0.068334
   97  N 22  S   -0.095844  -0.014417   0.070613  -0.092155   0.070816
   98  N 22  X   -0.063644   0.014056   0.050398   0.017501   0.027362
   99  N 22  Y    0.043605  -0.056580   0.041959   0.041340   0.043203
  100  N 22  Z    0.024119   0.079902  -0.108746  -0.035097  -0.084037

                     31         32         33         34         35
                   -0.4395    -0.4307    -0.1436    -0.0920    -0.0517
                     A          A          A          A          A   
    1  C  1  S   -0.000622   0.004670  -0.001538   0.003207   0.008961
    2  C  1  S    0.000516  -0.004191   0.001024  -0.003660  -0.004770
    3  C  1  X   -0.022797   0.077103  -0.005063  -0.001595   0.019769
    4  C  1  Y    0.178075   0.030819  -0.002107  -0.002891   0.010960
[...]
    689    4.88278   -4.06079   -2.08675        -7.396420       7.482969       0.086549
    690    4.88278   -4.06079   -0.57497        -7.765390       7.854771       0.089381
    691    4.88278   -4.06079    0.93682        -7.771087       7.859362       0.088275
    692    4.88278   -4.06079    2.44860        -7.419011       7.503541       0.084530
    693    4.88278   -4.06079    3.96038        -6.868639       6.949581       0.080942
    694    4.88278   -4.06079    5.47216        -6.266707       6.343725       0.077018
    695    4.88278   -2.54901   -5.11031        -6.664792       6.746680       0.081888
    696    4.88278   -2.54901   -3.59853        -7.492426       7.578878       0.086453
    697    4.88278   -2.54901   -2.08675        -8.374135       8.465010       0.090875
    698    4.88278   -2.54901   -0.57497        -9.055131       9.150477       0.095346
    699    4.88278   -2.54901    0.93682        -9.111566       9.203867       0.092301
    700    4.88278   -2.54901    2.44860        -8.507256       8.594122       0.086866
    701    4.88278   -2.54901    3.96038        -7.628291       7.713432       0.085141
    702    4.88278   -2.54901    5.47216        -6.766451       6.847605       0.081154
    703    4.88278   -2.54901    6.98394        -6.025075       6.100704       0.075629
    704    4.88278   -1.03723   -6.62209        -6.144872       6.223035       0.078163
    705    4.88278   -1.03723   -5.11031        -6.971913       7.056118       0.084205
    706    4.88278   -1.03723   -3.59853        -8.023402       8.113243       0.089840
    707    4.88278   -1.03723   -2.08675        -9.319532       9.417369       0.097837
    708    4.88278   -1.03723    5.47216        -7.192509       7.279978       0.087468
    709    4.88278   -1.03723    6.98394        -6.269316       6.347664       0.078348
    710    4.88278    0.47455   -6.62209        -6.184788       6.262915       0.078128
    711    4.88278    0.47455   -5.11031        -7.048966       7.133412       0.084447
    712    4.88278    0.47455   -3.59853        -8.187834       8.278056       0.090221
    713    4.88278    0.47455    6.98394        -6.359880       6.439335       0.079455
    714    4.88278    0.47455    8.49572        -5.609168       5.681424       0.072256
    715    4.88278    1.98633   -6.62209        -6.063140       6.139602       0.076462
    716    4.88278    1.98633   -5.11031        -6.861819       6.943808       0.081990
    717    4.88278    1.98633   -3.59853        -7.881106       7.967308       0.086202
    718    4.88278    1.98633   -2.08675        -9.226479       9.316940       0.090461
    719    4.88278    1.98633    5.47216        -7.217723       7.304439       0.086715
    720    4.88278    1.98633    6.98394        -6.255178       6.332857       0.077679
    721    4.88278    3.49811   -5.11031        -6.480940       6.559390       0.078450
    722    4.88278    3.49811   -3.59853        -7.275323       7.357770       0.082448
    723    4.88278    3.49811   -2.08675        -8.207369       8.294571       0.087202
    724    4.88278    3.49811    3.96038        -7.723820       7.806193       0.082374
    725    4.88278    3.49811    5.47216        -6.758758       6.837987       0.079229
    726    4.88278    3.49811    6.98394        -5.983895       6.058355       0.074460
    727    4.88278    5.00989   -3.59853        -6.584982       6.663709       0.078727
    728    4.88278    5.00989   -2.08675        -7.170078       7.254009       0.083931
    729    4.88278    5.00989    2.44860        -7.440963       7.527467       0.086504
    730    4.88278    5.00989    3.96038        -6.835716       6.914533       0.078817
    731    4.88278    5.00989    5.47216        -6.201014       6.276100       0.075086
    732    4.88278    6.52167   -3.59853        -5.931174       6.005295       0.074122
    733    4.88278    6.52167   -2.08675        -6.299347       6.377103       0.077756
    734    4.88278    6.52167   -0.57497        -6.555309       6.636558       0.081249
    735    4.88278    6.52167    0.93682        -6.607739       6.689648       0.081909
    736    4.88278    6.52167    2.44860        -6.423148       6.501715       0.078566
    737    4.88278    6.52167    3.96038        -6.072227       6.146938       0.074711
    738    4.88278    8.03345   -0.57497        -5.750391       5.823773       0.073383
    739    4.88278    8.03345    0.93682        -5.775368       5.848981       0.073614
    740    4.88278    8.03345    2.44860        -5.662542       5.734762       0.072220
    741    6.39456   -5.57257   -0.57497        -6.111791       6.186922       0.075130
    742    6.39456   -5.57257    0.93682        -6.118520       6.193174       0.074654
    743    6.39456   -4.06079   -2.08675        -6.563165       6.641624       0.078459
    744    6.39456   -4.06079   -0.57497        -6.827218       6.907108       0.079890
    745    6.39456   -4.06079    0.93682        -6.849123       6.928018       0.078894
    746    6.39456   -4.06079    2.44860        -6.617675       6.694136       0.076461
    747    6.39456   -4.06079    3.96038        -6.218386       6.292181       0.073794
    748    6.39456   -2.54901   -3.59853        -6.630566       6.709467       0.078901
    749    6.39456   -2.54901   -2.08675        -7.230537       7.314129       0.083593
    750    6.39456   -2.54901   -0.57497        -7.682422       7.769881       0.087458
    751    6.39456   -2.54901    0.93682        -7.752891       7.836936       0.084045
    752    6.39456   -2.54901    2.44860        -7.386462       7.465219       0.078757
    753    6.39456   -2.54901    3.96038        -6.786352       6.862994       0.076642
    754    6.39456   -2.54901    5.47216        -6.148258       6.221918       0.073660
    755    6.39456   -2.54901    6.98394        -5.564579       5.634112       0.069533
    756    6.39456   -1.03723   -5.11031        -6.260972       6.337040       0.076068
    757    6.39456   -1.03723   -3.59853        -7.000272       7.081612       0.081340
    758    6.39456   -1.03723    3.96038        -7.327928       7.408615       0.080688
    759    6.39456   -1.03723    5.47216        -6.469611       6.546369       0.076758
    760    6.39456   -1.03723    6.98394        -5.762390       5.833796       0.071407
    761    6.39456    0.47455   -5.11031        -6.325887       6.401859       0.075973
    762    6.39456    0.47455   -3.59853        -7.128599       7.209585       0.080987
    763    6.39456    0.47455    5.47216        -6.612468       6.691022       0.078554
    764    6.39456    0.47455    6.98394        -5.835671       5.907727       0.072056
    765    6.39456    1.98633   -5.11031        -6.198778       6.273067       0.074290
    766    6.39456    1.98633   -3.59853        -6.943710       7.021705       0.077995
    767    6.39456    1.98633   -2.08675        -7.848846       7.930638       0.081792
    768    6.39456    1.98633    3.96038        -7.426970       7.507692       0.080721
    769    6.39456    1.98633    5.47216        -6.489711       6.565737       0.076027
    770    6.39456    1.98633    6.98394        -5.754547       5.825414       0.070867
    771    6.39456    3.49811   -3.59853        -6.524115       6.599122       0.075007
    772    6.39456    3.49811   -2.08675        -7.188482       7.265936       0.077454
    773    6.39456    3.49811    2.44860        -7.578147       7.657150       0.079004
    774    6.39456    3.49811    3.96038        -6.858100       6.933085       0.074985
    775    6.39456    3.49811    5.47216        -6.150636       6.222944       0.072308
    776    6.39456    3.49811    6.98394        -5.538173       5.606737       0.068564
    777    6.39456    5.00989   -3.59853        -6.007365       6.079361       0.071996
    778    6.39456    5.00989   -2.08675        -6.454162       6.529316       0.075155
    779    6.39456    5.00989   -0.57497        -6.800849       6.879795       0.078946
    780    6.39456    5.00989    0.93682        -6.891444       6.971508       0.080064
    781    6.39456    5.00989    2.44860        -6.651495       6.727280       0.075786
    782    6.39456    5.00989    3.96038        -6.210311       6.282472       0.072160
    783    6.39456    5.00989    5.47216        -5.714604       5.783790       0.069187
    784    6.39456    6.52167   -2.08675        -5.787580       5.858552       0.070972
    785    6.39456    6.52167   -0.57497        -5.989025       6.062068       0.073043
    786    6.39456    6.52167    0.93682        -6.030292       6.103617       0.073325
    787    6.39456    6.52167    2.44860        -5.888801       5.960210       0.071409
    788    6.39456    6.52167    3.96038        -5.610916       5.679677       0.068761
    789    6.39456    8.03345   -0.57497        -5.346430       5.414039       0.067608
    790    6.39456    8.03345    0.93682        -5.367789       5.435539       0.067750
    791    7.90634   -4.06079   -2.08675        -5.816872       5.888224       0.071352
    792    7.90634   -4.06079   -0.57497        -5.999418       6.071904       0.072486
    793    7.90634   -4.06079    0.93682        -6.019195       6.090973       0.071778
    794    7.90634   -4.06079    2.44860        -5.866962       5.936802       0.069840
    795    7.90634   -2.54901   -3.59853        -5.862136       5.933957       0.071820
    796    7.90634   -2.54901   -2.08675        -6.257705       6.333455       0.075751
    797    7.90634   -2.54901   -0.57497        -6.534492       6.613052       0.078560
    798    7.90634   -2.54901    0.93682        -6.578636       6.655320       0.076684
    799    7.90634   -2.54901    2.44860        -6.362911       6.435538       0.072628
    800    7.90634   -2.54901    3.96038        -5.979578       6.049350       0.069772
    801    7.90634   -2.54901    5.47216        -5.536184       5.603233       0.067050
    802    7.90634   -1.03723   -3.59853        -6.110365       6.184215       0.073850
    803    7.90634   -1.03723   -2.08675        -6.625276       6.706439       0.081163
    804    7.90634   -1.03723    2.44860        -6.819741       6.894785       0.075044
    805    7.90634   -1.03723    3.96038        -6.306863       6.378165       0.071302
    806    7.90634   -1.03723    5.47216        -5.757800       5.826351       0.068551
    807    7.90634    0.47455   -5.11031        -5.654429       5.723631       0.069202
    808    7.90634    0.47455   -3.59853        -6.196309       6.270037       0.073727
    809    7.90634    0.47455   -2.08675        -6.780633       6.862702       0.082068
    810    7.90634    0.47455    2.44860        -7.056148       7.131739       0.075590
    811    7.90634    0.47455    3.96038        -6.457958       6.529629       0.071671
    812    7.90634    0.47455    5.47216        -5.847475       5.916465       0.068990
    813    7.90634    0.47455    6.98394        -5.303055       5.368448       0.065393
    814    7.90634    1.98633   -3.59853        -6.080446       6.151874       0.071429
    815    7.90634    1.98633   -2.08675        -6.620999       6.696453       0.075454
    816    7.90634    1.98633    2.44860        -6.891124       6.964037       0.072913
    817    7.90634    1.98633    3.96038        -6.341370       6.411809       0.070439
    818    7.90634    1.98633    5.47216        -5.764274       5.832226       0.067952
    819    7.90634    1.98633    6.98394        -5.242076       5.306719       0.064643
    820    7.90634    3.49811   -3.59853        -5.800001       5.868704       0.068703
    821    7.90634    3.49811   -2.08675        -6.229236       6.300183       0.070947
    822    7.90634    3.49811   -0.57497        -6.562447       6.634656       0.072209
    823    7.90634    3.49811    0.93682        -6.649363       6.721334       0.071971
    824    7.90634    3.49811    2.44860        -6.424940       6.495309       0.070369
    825    7.90634    3.49811    3.96038        -6.004887       6.073267       0.068380
    826    7.90634    3.49811    5.47216        -5.531051       5.597056       0.066005
    827    7.90634    5.00989   -2.08675        -5.747456       5.815509       0.068053
    828    7.90634    5.00989   -0.57497        -5.969390       6.038791       0.069401
    829    7.90634    5.00989    0.93682        -6.019747       6.089192       0.069444
    830    7.90634    5.00989    2.44860        -5.869018       5.937078       0.068060
    831    7.90634    5.00989    3.96038        -5.572695       5.638732       0.066037
    832    7.90634    6.52167   -0.57497        -5.414424       5.480410       0.065986
    833    7.90634    6.52167    0.93682        -5.442703       5.508767       0.066064
    834    7.90634    6.52167    2.44860        -5.340253       5.405264       0.065011
    835    9.41812   -4.06079   -0.57497        -5.298592       5.364193       0.065601
    836    9.41812   -4.06079    0.93682        -5.312609       5.377800       0.065191
    837    9.41812   -2.54901   -2.08675        -5.462593       5.530206       0.067613
    838    9.41812   -2.54901   -0.57497        -5.629258       5.698295       0.069037
    839    9.41812   -2.54901    0.93682        -5.654119       5.722395       0.068276
    840    9.41812   -2.54901    2.44860        -5.525706       5.591775       0.066069
    841    9.41812   -1.03723   -3.59853        -5.368138       5.434584       0.066446
    842    9.41812   -1.03723   -2.08675        -5.678073       5.748044       0.069972
    843    9.41812   -1.03723   -0.57497        -5.892456       5.964993       0.072536
    844    9.41812   -1.03723    0.93682        -5.931487       6.002733       0.071246
    845    9.41812   -1.03723    2.44860        -5.774142       5.841846       0.067704
    846    9.41812   -1.03723    3.96038        -5.481058       5.545900       0.064841
    847    9.41812    0.47455   -3.59853        -5.422013       5.488428       0.066415
    848    9.41812    0.47455   -2.08675        -5.758600       5.828694       0.070094
    849    9.41812    0.47455   -0.57497        -6.001233       6.074239       0.073005
    850    9.41812    0.47455    0.93682        -6.051368       6.122971       0.071603
    851    9.41812    0.47455    2.44860        -5.879759       5.947562       0.067802
    852    9.41812    0.47455    3.96038        -5.560702       5.625674       0.064972
    853    9.41812    1.98633   -3.59853        -5.347137       5.412122       0.064986
    854    9.41812    1.98633   -2.08675        -5.667730       5.735363       0.067633
    855    9.41812    1.98633   -0.57497        -5.896723       5.966035       0.069312
    856    9.41812    1.98633    0.93682        -5.946858       6.015393       0.068535
    857    9.41812    1.98633    2.44860        -5.789415       5.855695       0.066281
    858    9.41812    1.98633    3.96038        -5.487664       5.551759       0.064095
    859    9.41812    3.49811   -2.08675        -5.433979       5.498737       0.064758
    860    9.41812    3.49811   -0.57497        -5.621258       5.686990       0.065732
    861    9.41812    3.49811    0.93682        -5.661426       5.726898       0.065472
    862    9.41812    3.49811    2.44860        -5.533907       5.598152       0.064246
    863    9.41812    5.00989    0.93682        -5.290069       5.353022       0.062953
    864   10.92991   -1.03723   -2.08675        -4.960298       5.022157       0.061859
    865   10.92991   -1.03723   -0.57497        -5.083527       5.146385       0.062858
    866   10.92991   -1.03723    0.93682        -5.103164       5.165604       0.062440
    867   10.92991   -1.03723    2.44860        -5.011628       5.072575       0.060948
    868   10.92991    0.47455   -2.08675        -5.005250       5.067136       0.061886
    869   10.92991    0.47455   -0.57497        -5.138190       5.201119       0.062929
    870   10.92991    0.47455    0.93682        -5.161618       5.224136       0.062518
    871   10.92991    0.47455    2.44860        -5.066022       5.127040       0.061018
    872   10.92991    1.98633   -0.57497        -5.076748       5.138356       0.061609
    873   10.92991    1.98633    0.93682        -5.100478       5.161806       0.061328

 NET CHARGES:
 -------------------------------------
 ATOM                CHARGE    E.S.D.
 -------------------------------------
 C                  -0.2064    0.3075
 H                   0.4563    0.0193
 H                   0.3526    0.0220
 H                   0.0810    0.0226
 H                   0.0557    0.0205
 H                   0.4657    0.0174
 H                   0.4224    0.0232
 H                   0.1106    0.0544
 H                   0.1084    0.0531
 H                   0.0437    0.0307
 H                   0.0421    0.0302
 H                   0.4433    0.0162
 H                   0.0045    0.0188
 N                  -0.9492    0.1648
 N                  -0.8492    0.1639
 C                   0.8777    0.2485
 C                  -0.1061    0.8052
 C                   0.0027    0.4482
 C                   0.0856    0.2785
 H                   0.0586    0.0200
 H                   0.0018    0.0220
 N                  -0.5017    0.2881
 -------------------------------------

 RMS DEVIATION IS            0.829 KCAL/MOLE
 RELATIVE RMS DEVIATION IS   1.131 %

 MULTIPOLE MOMENTS:
 ---------------------------------------------------------
 STATUS  ACTUAL VALUE       QUANTITY        FITTED VALUE 
 ---------------------------------------------------------
 FIXED       1.0000       TOTAL CHARGE         1.0000
             7.9556 D    DIPOLE MOMENT         7.9875 D
 FREE       -7.9040 D          DX             -7.9367 D
 FREE       -0.9041 D          DY             -0.8985 D
 FREE       -0.0104 D          DZ             -0.0125 D
 FREE        0.0000 BU         QXX            32.6443 BU
 FREE        0.0000 BU         QYY           -15.8449 BU
 FREE        0.0000 BU         QZZ           -16.7994 BU
 FREE        0.0000 BU         QXY             7.2807 BU
 FREE        0.0000 BU         QXZ            -3.2379 BU
 FREE        0.0000 BU         QYZ            10.6512 BU
 ---------------------------------------------------------
 ...... END OF PROPERTY EVALUATION ......
 CPU     0: STEP CPU TIME=     0.16 TOTAL CPU TIME=         15.1 (      0.3 MIN)
 TOTAL WALL CLOCK TIME=         22.3 SECONDS, CPU UTILIZATION IS    67.53%
               837469  WORDS OF DYNAMIC MEMORY USED
 EXECUTION OF GAMESS TERMINATED NORMALLY Sat May 16 14:17:17 2020
 DDI: 263640 bytes (0.3 MB / 0 MWords) used by master data server.
Note: The following floating-point exceptions are signalling:Note: The following floating-point exceptions are signalling:Note: The following floating-point exceptions are signalling: IEEE_UNDERFLOW_FLAG IEEE_UNDERFLOW_FLAG IEEE_DENORMALNote: The following floating-point exceptions are signalling: IEEE_UNDERFLOW_FLAG IEEE_UNDERFLOW_FLAG IEEE_DENORMALNote: The following floating-point exceptions are signalling:
 ----------------------------------------
 CPU timing information for all processes
 ========================================
 0: 14.856 + 0.232 = 15.88
 1: 13.907 + 0.85 = 13.992
 2: 13.281 + 0.65 = 13.346
 3: 14.290 + 0.73 = 14.363
 4: 13.740 + 0.89 = 13.830
 5: 13.137 + 0.45 = 13.182
 ----------------------------------------
 IEEE_DENORMAL

 IEEE_DENORMAL

 IEEE_UNDERFLOW_FLAG IEEE_DENORMALNote: The following floating-point exceptions are signalling:
 IEEE_UNDERFLOW_FLAG IEEE_DENORMAL
 ddikick.x: exited gracefully.
unset echo
----- accounting info -----
Files used on the master node pietdev were:
-rwxr-xr-x 1 piet piet     1400 mei 16 14:16 /home/piet/scr/arginineH_1__charge_chelpg.F05*
-rw-r--r-- 1 piet piet 50790400 mei 16 14:17 /home/piet/scr/arginineH_1__charge_chelpg.F10
ls: No match.
ls: No match.
ls: No match.
za 16 mei 2020 14:17:20 CEST
0.138u 0.036s 0:25.53 0.6%	0+0k 0+8io 0pf+0w
