----- GAMESS execution script 'rungms' -----
This job is running on host pietdev
under operating system Linux at za 16 mei 2020 14:27:56 CEST
Available scratch disk space (Kbyte units) at beginning of the job is
Filesystem     1K-blocks     Used Available Use% Mounted on
/dev/sda2      244568380 30215532 201859792  14% /
GAMESS temporary binary files will be written to /home/piet/scr
GAMESS supplementary output files will be written to /home/piet/gamess/scr
Copying input file arginineH_1__fukui_base.inp to your run's scratch directory...
cp arginineH_1__fukui_base.inp /home/piet/scr/arginineH_1__fukui_base.F05
unset echo
 
Assuming a single but multicore node.
 
/home/piet/gamess/ddikick.x /home/piet/gamess/gamess.03.x arginineH_1__fukui_base -ddi 1 6 pietdev:cpus=6 -scr /home/piet/scr

 Distributed Data Interface kickoff program.
 Initiating 6 compute processes on 1 nodes to run the following command:
 /home/piet/gamess/gamess.03.x arginineH_1__fukui_base 

          ******************************************************
          *         GAMESS VERSION = 30 SEP 2019 (R2)          *
          *             FROM IOWA STATE UNIVERSITY             *
          * M.W.SCHMIDT, K.K.BALDRIDGE, J.A.BOATZ, S.T.ELBERT, *
          *   M.S.GORDON, J.H.JENSEN, S.KOSEKI, N.MATSUNAGA,   *
          *          K.A.NGUYEN, S.J.SU, T.L.WINDUS,           *
          *       TOGETHER WITH M.DUPUIS, J.A.MONTGOMERY       *
          *         J.COMPUT.CHEM.  14, 1347-1363(1993)        *
          **************** 64 BIT LINUX VERSION ****************

  SINCE 1993, STUDENTS AND POSTDOCS WORKING AT IOWA STATE UNIVERSITY
  AND ALSO IN THEIR VARIOUS JOBS AFTER LEAVING ISU HAVE MADE IMPORTANT
  CONTRIBUTIONS TO THE CODE:
     IVANA ADAMOVIC, CHRISTINE AIKENS, YURI ALEXEEV, POOJA ARORA,
     ANDREY ASADCHEV, ROB BELL, PRADIPTA BANDYOPADHYAY, JONATHAN BENTZ,
     COLLEEN BERTONI, BRETT BODE, KURT BRORSEN, CALEB CARLIN, GALINA CHABAN,
     WEI CHEN, CHEOL HO CHOI, PAUL DAY, ALBERT DEFUSCO, NUWAN DESILVA,
     TIM DUDLEY, DMITRI FEDOROV, ALEX FINDLATER, GRAHAM FLETCHER, 
     MARK FREITAG, KURT GLAESEMANN, EMILIE B GUIDEZ, ANASTASIA GUNINA, 
     DAN KEMP, SAROM SOK LEANG, GRANT MERRILL,
     NORIYUKI MINEZAWA, JONATHAN MULLIN,
     TAKESHI NAGATA, SEAN NEDD, HEATHER NETZLOFF, BOSILJKA NJEGIC, RYAN OLSON,
     MIKE PAK, BUU PHAM, DAVID POOLE,
     SPENCER PRUITT, LUKE ROSKOP, TOSAPORN SATTASATHUCHANA,
     JIM SHOEMAKER, LYUDMILA SLIPCHENKO,
     TONY SMITH, JIE SONG, TETSUYA TAKETSUGU, SIMON WEBB,
     JORGE LUIS GALVEZ VALLEJO, PENG XU, SOOHAENG YOO,
     FEDERICO ZAHARIEV

  ADDITIONAL CODE HAS BEEN PROVIDED BY COLLABORATORS IN OTHER GROUPS:
     IOWA STATE UNIVERSITY:
          JOE IVANIC, AARON WEST, LAIMUTIS BYTAUTAS, KLAUS RUEDENBERG
     UNIVERSITY OF TOKYO: KIMIHIKO HIRAO, TAKAHITO NAKAJIMA,
          TAKAO TSUNEDA, MUNEAKI KAMIYA, SUSUMU YANAGISAWA,
          KIYOSHI YAGI, MAHITO CHIBA, SEIKEN TOKURA, NAOAKI KAWAKAMI
     UNIVERSITY OF AARHUS: FRANK JENSEN
     UNIVERSITY OF IOWA: VISVALDAS KAIRYS, HUI LI
     NATIONAL INST. OF STANDARDS AND TECHNOLOGY: WALT STEVENS, DAVID GARMER
     UNIVERSITY OF PISA: BENEDETTA MENNUCCI, JACOPO TOMASI
     UNIVERSITY OF MEMPHIS: HENRY KURTZ, PRAKASHAN KORAMBATH
     UNIVERSITY OF ALBERTA: TOBY ZENG, MARIUSZ KLOBUKOWSKI
     UNIVERSITY OF NEW ENGLAND: MARK SPACKMAN
     MIE UNIVERSITY: HIROAKI UMEDA
     NAT. INST. OF ADVANCED INDUSTRIAL SCIENCE AND TECHNOLOGY: KAZUO KITAURA
     MICHIGAN STATE UNIVERSITY:
          KAROL KOWALSKI, MARTA WLOCH, JEFFREY GOUR, JESSE LUTZ,
          WEI LI, JUN SHEN, J. EMILIANO DEUSTUA, PIOTR PIECUCH
     UNIVERSITY OF MINNESOTA:
          ANDREW SAND, PRACHI SHARMA, YINAN SHU
     UNIVERSITY OF SILESIA: MONIKA MUSIAL, STANISLAW KUCHARSKI
     FACULTES UNIVERSITAIRES NOTRE-DAME DE LA PAIX:
          OLIVIER QUINET, BENOIT CHAMPAGNE
     UNIVERSITY OF CALIFORNIA - SANTA BARBARA: BERNARD KIRTMAN
     INSTITUTE FOR MOLECULAR SCIENCE:
          KAZUYA ISHIMURA, MICHIO KATOUDA, AND SHIGERU NAGASE
     UNIVERSITY OF NOTRE DAME: ANNA POMOGAEVA, DAN CHIPMAN
     KYUSHU UNIVERSITY:
          HARUYUKI NAKANO,
          FENG LONG GU, JACEK KORCHOWIEC, MARCIN MAKOWSKI, AND YURIKO AOKI,
          HIROTOSHI MORI AND EISAKU MIYOSHI
     PENNSYLVANIA STATE UNIVERSITY:
          TZVETELIN IORDANOV, CHET SWALINA, JONATHAN SKONE,
          SHARON HAMMES-SCHIFFER
     WASEDA UNIVERSITY:
          MASATO KOBAYASHI, TOMOKO AKAMA, TSUGUKI TOUMA,
          TAKESHI YOSHIKAWA, YASUHIRO IKABATA, JUNJI SEINO,
          YUYA NAKAJIMA, HIROMI NAKAI
     NANJING UNIVERSITY: SHUHUA LI
     UNIVERSITY OF NEBRASKA:
          PEIFENG SU, DEJUN SI, NANDUN THELLAMUREGE, YALI WANG, HUI LI
     UNIVERSITY OF ZURICH: ROBERTO PEVERATI, KIM BALDRIDGE
     N. COPERNICUS UNIVERSITY AND JACKSON STATE UNIVERSITY:
          MARIA BARYSZ
     UNIVERSITY OF COPENHAGEN: Jimmy Kromann, CASPER STEINMANN
     TOKYO INSTITUTE OF TECHNOLOGY: HIROYA NAKATA
     NAGOYA UNIVERSITY: YOSHIO NISHIMOTO, STEPHAN IRLE
     MOSCOW STATE UNIVERSITY: VLADIMIR MIRONOV
     A.N.NESMEYANOV INSTITUTE OF ORGANOELEMENT COMPOUNDS OF RUSSIAN ACADEMY OF SCIENCES:
          IGOR S. GERASIMOV
     JOHANNES KEPLER UNIVERSITY LINZ:
          CHRISTIAN FRIEDL


 PARALLEL VERSION RUNNING ON        6 PROCESSORS IN        1 NODES.

 EXECUTION OF GAMESS BEGUN Sat May 16 14:27:56 2020

            ECHO OF THE FIRST FEW INPUT CARDS -
 INPUT CARD> $BASIS GBASIS=N21 NGAUSS=3 $END                                                
 INPUT CARD> $CONTRL SCFTYP=UHF MAXIT=60 MULT=2 ICHARG=2 $END                               
 INPUT CARD> $SYSTEM MEMDDI=1000 MWORDS=30 $END                                             
 INPUT CARD> $SCF DIRSCF=.TRUE. $END                                                        
 INPUT CARD> $STATPT OPTTOL=0.0001 NSTEP=999 $END                                           
 INPUT CARD> $DATA                                                                          
 INPUT CARD>                                                                                
 INPUT CARD>C1                                                                              
 INPUT CARD>C 6.0000000 2.2343888172 0.5225300418 0.4812673728                              
 INPUT CARD>H 1.0000000 -4.9383131871 0.6684573026 1.6505337536                             
 INPUT CARD>H 1.0000000 -2.7305933126 1.0830822712 0.8358536821                             
 INPUT CARD>H 1.0000000 3.1668025760 0.1311235830 0.0629654246                              
 INPUT CARD>H 1.0000000 2.2152644344 1.6058479018 0.3168347902                              
 INPUT CARD>H 1.0000000 -5.9990882628 -0.2042933219 0.5962822612                            
 INPUT CARD>H 1.0000000 -3.4244059048 -1.5365298887 -1.4590507951                           
 INPUT CARD>H 1.0000000 -1.4874992692 -1.3802685480 -0.1215527305                           
 INPUT CARD>H 1.0000000 -1.4987714813 -0.0919817883 -1.3658524211                           
 INPUT CARD>H 1.0000000 -0.3683892125 1.4607320196 0.2370349894                             
 INPUT CARD>H 1.0000000 -0.3515367359 0.1765066120 1.4704251406                             
 INPUT CARD>H 1.0000000 -4.9834223368 -1.9036075913 -0.7971782504                           
 INPUT CARD>H 1.0000000 1.0431042619 0.0293335440 -1.2682858640                             
 INPUT CARD>N 7.0000000 -5.0528601892 0.0678596209 0.8409570816                             
 INPUT CARD>N 7.0000000 -4.1452740962 -1.3323159773 -0.7761953240                           
 INPUT CARD>C 6.0000000 -3.9932602292 -0.3419233595 0.1183540864                            
 INPUT CARD>C 6.0000000 -1.5225549010 -0.2975193949 -0.2879498322                           
 INPUT CARD>C 6.0000000 -0.3151757906 0.3746334330 0.3921248069                             
 INPUT CARD>C 6.0000000 1.0181920903 -0.1547467320 -0.1863788350                            
 INPUT CARD>H 1.0000000 2.2401444514 0.3354438277 1.5610372246                              
 INPUT CARD>H 1.0000000 1.0726281150 -1.2404719015 -0.0336235259                            
 INPUT CARD>N 7.0000000 -2.7958798369 0.2249583458 0.2935969641                             
 INPUT CARD> $END                                                                           
   30000000 WORDS OF MEMORY AVAILABLE

     BASIS OPTIONS
     -------------
     GBASIS=N21          IGAUSS=       3      POLAR=NONE    
     NDFUNC=       0     NFFUNC=       0     DIFFSP=       F
     NPFUNC=       0      DIFFS=       F     BASNAM=        


     RUN TITLE
     ---------
                                                                                 

 THE POINT GROUP OF THE MOLECULE IS C1      
 THE ORDER OF THE PRINCIPAL AXIS IS     0

 ATOM      ATOMIC                      COORDINATES (BOHR)
           CHARGE         X                   Y                   Z
 C           6.0     4.2223826145        0.9874385994        0.9094634614
 H           1.0    -9.3320587652        1.2632011364        3.1190565278
 H           1.0    -5.1600731447        2.0467287147        1.5795344250
 H           1.0     5.9843891259        0.2477876424        0.1189873992
 H           1.0     4.1862427714        3.0346125124        0.5987309369
 H           1.0   -11.3366329929       -0.3860583995        1.1268100850
 H           1.0    -6.4711888308       -2.9036204616       -2.7572062049
 H           1.0    -2.8109660257       -2.6083293452       -0.2297013537
 H           1.0    -2.8322674179       -0.1738203757       -2.5810868155
 H           1.0    -0.6961546685        2.7603832585        0.4479311795
 H           1.0    -0.6643081055        0.3335491317        2.7787006012
 H           1.0    -9.4173026976       -3.5972967357       -1.5064484566
 H           1.0     1.9711812316        0.0554323604       -2.3967127571
 N           7.0    -9.5485212119        0.1282360891        1.5891784517
 N           7.0    -7.8334321858       -2.5177121262       -1.4667964753
 C           6.0    -7.5461676309       -0.6461414583        0.2236567928
 C           6.0    -2.8772115642       -0.5622301324       -0.5441462811
 C           6.0    -0.5955958822        0.7079545342        0.7410084380
 C           6.0     1.9241040535       -0.2924289210       -0.3522049281
 H           1.0     4.2332591861        0.6338969186        2.9499326111
 H           1.0     2.0269732241       -2.3441519893       -0.0635392507
 N           7.0    -5.2834467863        0.4251096322        0.5548178130

          INTERNUCLEAR DISTANCES (ANGS.)
          ------------------------------

                1 C          2 H          3 H          4 H          5 H     

   1 C       0.0000000    7.2688467    5.0090915    1.0943359 *  1.0958930 *
   2 H       7.2688467    0.0000000    2.3894862 *  8.2765936    7.3369699  
   3 H       5.0090915    2.3894862 *  0.0000000    6.0235255    5.0004173  
   4 H       1.0943359 *  8.2765936    6.0235255    0.0000000    1.7733263 *
   5 H       1.0958930 *  7.3369699    5.0004173    1.7733263 *  0.0000000  
   6 H       8.2662958    1.7315841 *  3.5210495    9.1875180    8.4160735  
   7 H       6.3266516    4.1016338    3.5511027    6.9671824    6.6958337  
   8 H       4.2233264    4.3869904    2.9206176 *  4.8970275    4.7769796  
   9 H       4.2102212    4.6375964    2.7831044 *  4.8845550    4.4168003  
  10 H       2.7774675 *  4.8486991    2.4660112 *  3.7809707    2.5889559 *
  11 H       2.7901929 *  4.6165975    2.6238275 *  3.7896852    3.1563041  
  12 H       7.7212282    3.5508938    4.0819540    8.4442965    8.0856907  
  13 H       2.1733242 *  6.6862053    4.4473119    2.5085226 *  2.5242750 *
  14 N       7.3102736    1.0145211 *  2.5344874 *  8.2566415    7.4475330  
  15 N       6.7617871    3.2436120    3.2301970    7.5041529    7.0911192  
  16 C       6.2978249    2.0643567 *  2.0346436 *  7.1758861    6.5099144  
  17 C       3.9215816    4.0445314    2.1513605 *  4.7219646    4.2379081  
  18 C       2.5554059 *  4.8003463    2.5559806 *  3.5059687    2.8150818 *
  19 C       1.5438879 *  6.2874373    4.0780598    2.1818390 *  2.1876699 *
  20 H       1.0958729 *  7.1867351    5.0786896    1.7733192 *  1.7783659 *
  21 H       2.1732410 *  6.5277723    4.5408576    2.5052286 *  3.0870658  
  22 N       5.0425561    2.5744882 *  1.0171929 *  5.9678788    5.1979768  

                6 H          7 H          8 H          9 H         10 H     

   1 C       8.2662958    6.3266516    4.2233264    4.2102212    2.7774675 *
   2 H       1.7315841 *  4.1016338    4.3869904    4.6375964    4.8486991  
   3 H       3.5210495    3.5511027    2.9206176 *  2.7831044 *  2.4660112 *
   4 H       9.1875180    6.9671824    4.8970275    4.8845550    3.7809707  
   5 H       8.4160735    6.6958337    4.7769796    4.4168003    2.5889559 *
   6 H       0.0000000    3.5536231    4.7172704    4.9107471    5.8826983  
   7 H       3.5536231    0.0000000    2.3590095 *  2.4090399 *  4.6042941  
   8 H       4.7172704    2.3590095 *  0.0000000    1.7911146 *  3.0744555  
   9 H       4.9107471    2.4090399 *  1.7911146 *  0.0000000    2.5015860 *
  10 H       5.8826983    4.6042941    3.0744555    2.5015860 *  0.0000000  
  11 H       5.7274752    4.5780835    2.4996706 *  3.0712707    1.7806657 *
  12 H       2.4209458 *  1.7330186 *  3.5988653    3.9683964    5.8040425  
  13 H       7.2885987    4.7378230    3.1154340    2.5466388 *  2.5114152 *
  14 N       1.0145347 *  3.2428329    3.9667744    4.1865384    4.9243359  
  15 N       2.5676364 *  1.0137287 *  2.7376310 *  2.9816272 *  4.8054773  
  16 C       2.0665680 *  2.0588555 *  2.7229679 *  2.9133853 *  4.0501039  
  17 C       4.5639795    2.5541460 *  1.0960213 *  1.0975816 *  2.1677536 *
  18 C       5.7169658    4.0922742    2.1720700 *  2.1700490 *  1.0984055 *
  19 C       7.0609657    4.8234527    2.7900888 *  2.7803243 *  2.1706355 *
  20 H       8.3130635    6.6867292    4.4350993    4.7674803    3.1342788  
  21 H       7.1749300    4.7268180    2.5654487 *  3.1154389    3.0734817  
  22 N       3.2459852    2.5631348 *  2.1120990 *  2.1299562 *  2.7245269 *

               11 H         12 H         13 H         14 N         15 N     

   1 C       2.7901929 *  7.7212282    2.1733242 *  7.3102736    6.7617871  
   2 H       4.6165975    3.5508938    6.6862053    1.0145211 *  3.2436120  
   3 H       2.6238275 *  4.0819540    4.4473119    2.5344874 *  3.2301970  
   4 H       3.7896852    8.4442965    2.5085226 *  8.2566415    7.5041529  
   5 H       3.1563041    8.0856907    2.5242750 *  7.4475330    7.0911192  
   6 H       5.7274752    2.4209458 *  7.2885987    1.0145347 *  2.5676364 *
   7 H       4.5780835    1.7330186 *  4.7378230    3.2428329    1.0137287 *
   8 H       2.4996706 *  3.5988653    3.1154340    3.9667744    2.7376310 *
   9 H       3.0712707    3.9683964    2.5466388 *  4.1865384    2.9816272 *
  10 H       1.7806657 *  5.8040425    2.5114152 *  4.9243359    4.8054773  
  11 H       0.0000000    5.5608690    3.0768850    4.7445207    4.6600743  
  12 H       5.5608690    0.0000000    6.3464342    2.5641747 *  1.0145476 *
  13 H       3.0768850    6.3464342    0.0000000    6.4506723    5.3866049  
  14 N       4.7445207    2.5641747 *  6.4506723    0.0000000    2.3236579 *
  15 N       4.6600743    1.0145476 *  5.3866049    2.3236579 *  0.0000000  
  16 C       3.9190580    2.0633657 *  5.2369427    1.3464135 *  1.3432068 *
  17 C       2.1651482 *  3.8492124    2.7659535 *  3.7243775    2.8614408 *
  18 C       1.0969539 *  5.3289164    2.1728139 *  4.7687749    4.3529647  
  19 C       2.1750598 *  6.2810004    1.0977381 *  6.1613836    5.3287837  
  20 H       2.5981307 *  7.9217705    3.0873416    7.3333508    7.0012605  
  21 H       2.5096287 *  6.1399114    1.7713466 *  6.3244154    5.2712761  
  22 N       2.7133163 *  3.2412846    4.1491621    2.3277121 *  2.3217286 *

               16 C         17 C         18 C         19 C         20 H     

   1 C       6.2978249    3.9215816    2.5554059 *  1.5438879 *  1.0958729 *
   2 H       2.0643567 *  4.0445314    4.8003463    6.2874373    7.1867351  
   3 H       2.0346436 *  2.1513605 *  2.5559806 *  4.0780598    5.0786896  
   4 H       7.1758861    4.7219646    3.5059687    2.1818390 *  1.7733192 *
   5 H       6.5099144    4.2379081    2.8150818 *  2.1876699 *  1.7783659 *
   6 H       2.0665680 *  4.5639795    5.7169658    7.0609657    8.3130635  
   7 H       2.0588555 *  2.5541460 *  4.0922742    4.8234527    6.6867292  
   8 H       2.7229679 *  1.0960213 *  2.1720700 *  2.7900888 *  4.4350993  
   9 H       2.9133853 *  1.0975816 *  2.1700490 *  2.7803243 *  4.7674803  
  10 H       4.0501039    2.1677536 *  1.0984055 *  2.1706355 *  3.1342788  
  11 H       3.9190580    2.1651482 *  1.0969539 *  2.1750598 *  2.5981307 *
  12 H       2.0633657 *  3.8492124    5.3289164    6.2810004    7.9217705  
  13 H       5.2369427    2.7659535 *  2.1728139 *  1.0977381 *  3.0873416  
  14 N       1.3464135 *  3.7243775    4.7687749    6.1613836    7.3333508  
  15 N       1.3432068 *  2.8614408 *  4.3529647    5.3287837    7.0012605  
  16 C       0.0000000    2.5042842 *  3.7572209    5.0241966    6.4339331  
  17 C       2.5042842 *  0.0000000    1.5401478 *  2.5467815 *  4.2399649  
  18 C       3.7572209    1.5401478 *  0.0000000    1.5468613 *  2.8102586 *
  19 C       5.0241966    2.5467815 *  1.5468613 *  0.0000000    2.1879025 *
  20 H       6.4339331    4.2399649    2.8102586 *  2.1879025 *  0.0000000  
  21 H       5.1472042    2.7728715 *  2.1715954 *  1.0977689 *  2.5277555 *
  22 N       1.3363326 *  1.4941673 *  2.4871677 *  3.8628613    5.1942422  

               21 H         22 N     

   1 C       2.1732410 *  5.0425561  
   2 H       6.5277723    2.5744882 *
   3 H       4.5408576    1.0171929 *
   4 H       2.5052286 *  5.9678788  
   5 H       3.0870658    5.1979768  
   6 H       7.1749300    3.2459852  
   7 H       4.7268180    2.5631348 *
   8 H       2.5654487 *  2.1120990 *
   9 H       3.1154389    2.1299562 *
  10 H       3.0734817    2.7245269 *
  11 H       2.5096287 *  2.7133163 *
  12 H       6.1399114    3.2412846  
  13 H       1.7713466 *  4.1491621  
  14 N       6.3244154    2.3277121 *
  15 N       5.2712761    2.3217286 *
  16 C       5.1472042    1.3363326 *
  17 C       2.7728715 *  1.4941673 *
  18 C       2.1715954 *  2.4871677 *
  19 C       1.0977689 *  3.8628613  
  20 H       2.5277555 *  5.1942422  
  21 H       0.0000000    4.1496883  
  22 N       4.1496883    0.0000000  

  * ... LESS THAN  3.000


     ATOMIC BASIS SET
     ----------------
 THE CONTRACTED PRIMITIVE FUNCTIONS HAVE BEEN UNNORMALIZED
 THE CONTRACTED BASIS FUNCTIONS ARE NOW NORMALIZED TO UNITY

  SHELL TYPE  PRIMITIVE        EXPONENT          CONTRACTION COEFFICIENT(S)

 C         

      1   S       1           172.2560000    0.061766907377
      1   S       2            25.9109000    0.358794042852
      1   S       3             5.5333500    0.700713083689

      2   L       4             3.6649800   -0.395895162119    0.236459946619
      2   L       5             0.7705450    1.215834355681    0.860618805716

      3   L       6             0.1958570    1.000000000000    1.000000000000

 H         

      4   S       7             5.4471780    0.156284978695
      4   S       8             0.8245472    0.904690876670

      5   S       9             0.1831916    1.000000000000

 H         

      6   S      10             5.4471780    0.156284978695
      6   S      11             0.8245472    0.904690876670

      7   S      12             0.1831916    1.000000000000

 H         

      8   S      13             5.4471780    0.156284978695
      8   S      14             0.8245472    0.904690876670

      9   S      15             0.1831916    1.000000000000

 H         

     10   S      16             5.4471780    0.156284978695
     10   S      17             0.8245472    0.904690876670

     11   S      18             0.1831916    1.000000000000

 H         

     12   S      19             5.4471780    0.156284978695
     12   S      20             0.8245472    0.904690876670

     13   S      21             0.1831916    1.000000000000

 H         

     14   S      22             5.4471780    0.156284978695
     14   S      23             0.8245472    0.904690876670

     15   S      24             0.1831916    1.000000000000

 H         

     16   S      25             5.4471780    0.156284978695
     16   S      26             0.8245472    0.904690876670

     17   S      27             0.1831916    1.000000000000

 H         

     18   S      28             5.4471780    0.156284978695
     18   S      29             0.8245472    0.904690876670

     19   S      30             0.1831916    1.000000000000

 H         

     20   S      31             5.4471780    0.156284978695
     20   S      32             0.8245472    0.904690876670

     21   S      33             0.1831916    1.000000000000

 H         

     22   S      34             5.4471780    0.156284978695
     22   S      35             0.8245472    0.904690876670

     23   S      36             0.1831916    1.000000000000

 H         

     24   S      37             5.4471780    0.156284978695
     24   S      38             0.8245472    0.904690876670

     25   S      39             0.1831916    1.000000000000

 H         

     26   S      40             5.4471780    0.156284978695
     26   S      41             0.8245472    0.904690876670

     27   S      42             0.1831916    1.000000000000

 N         

     28   S      43           242.7660000    0.059865700508
     28   S      44            36.4851000    0.352955002994
     28   S      45             7.8144900    0.706513005993

     29   L      46             5.4252200   -0.413300077430    0.237972016222
     29   L      47             1.1491500    1.224417266851    0.858953058551

     30   L      48             0.2832050    1.000000000000    1.000000000000

 N         

     31   S      49           242.7660000    0.059865700508
     31   S      50            36.4851000    0.352955002994
     31   S      51             7.8144900    0.706513005993

     32   L      52             5.4252200   -0.413300077430    0.237972016222
     32   L      53             1.1491500    1.224417266851    0.858953058551

     33   L      54             0.2832050    1.000000000000    1.000000000000

 C         

     34   S      55           172.2560000    0.061766907377
     34   S      56            25.9109000    0.358794042852
     34   S      57             5.5333500    0.700713083689

     35   L      58             3.6649800   -0.395895162119    0.236459946619
     35   L      59             0.7705450    1.215834355681    0.860618805716

     36   L      60             0.1958570    1.000000000000    1.000000000000

 C         

     37   S      61           172.2560000    0.061766907377
     37   S      62            25.9109000    0.358794042852
     37   S      63             5.5333500    0.700713083689

     38   L      64             3.6649800   -0.395895162119    0.236459946619
     38   L      65             0.7705450    1.215834355681    0.860618805716

     39   L      66             0.1958570    1.000000000000    1.000000000000

 C         

     40   S      67           172.2560000    0.061766907377
     40   S      68            25.9109000    0.358794042852
     40   S      69             5.5333500    0.700713083689

     41   L      70             3.6649800   -0.395895162119    0.236459946619
     41   L      71             0.7705450    1.215834355681    0.860618805716

     42   L      72             0.1958570    1.000000000000    1.000000000000

 C         

     43   S      73           172.2560000    0.061766907377
     43   S      74            25.9109000    0.358794042852
     43   S      75             5.5333500    0.700713083689

     44   L      76             3.6649800   -0.395895162119    0.236459946619
     44   L      77             0.7705450    1.215834355681    0.860618805716

     45   L      78             0.1958570    1.000000000000    1.000000000000

 H         

     46   S      79             5.4471780    0.156284978695
     46   S      80             0.8245472    0.904690876670

     47   S      81             0.1831916    1.000000000000

 H         

     48   S      82             5.4471780    0.156284978695
     48   S      83             0.8245472    0.904690876670

     49   S      84             0.1831916    1.000000000000

 N         

     50   S      85           242.7660000    0.059865700508
     50   S      86            36.4851000    0.352955002994
     50   S      87             7.8144900    0.706513005993

     51   L      88             5.4252200   -0.413300077430    0.237972016222
     51   L      89             1.1491500    1.224417266851    0.858953058551

     52   L      90             0.2832050    1.000000000000    1.000000000000

 TOTAL NUMBER OF BASIS SET SHELLS             =   52
 NUMBER OF CARTESIAN GAUSSIAN BASIS FUNCTIONS =  100
 NUMBER OF ELECTRONS                          =   63
 CHARGE OF MOLECULE                           =    2
 SPIN MULTIPLICITY                            =    2
 NUMBER OF OCCUPIED ORBITALS (ALPHA)          =   32
 NUMBER OF OCCUPIED ORBITALS (BETA )          =   31
 TOTAL NUMBER OF ATOMS                        =   22
 THE NUCLEAR REPULSION ENERGY IS      386.1217747557

     $CONTRL OPTIONS
     ---------------
 SCFTYP=UHF          RUNTYP=ENERGY       EXETYP=RUN     
 MPLEVL=       0     CITYP =NONE         CCTYP =NONE         VBTYP =NONE    
 DFTTYP=NONE         TDDFT =NONE    
 MULT  =       2     ICHARG=       2     NZVAR =       0     COORD =UNIQUE  
 PP    =NONE         RELWFN=NONE         LOCAL =NONE         NUMGRD=       F
 ISPHER=      -1     NOSYM =       0     MAXIT =      60     UNITS =ANGS    
 PLTORB=       F     MOLPLT=       F     AIMPAC=       F     FRIEND=        
 NPRINT=       7     IREST =       0     GEOM  =INPUT   
 NORMF =       0     NORMP =       0     ITOL  =      20     ICUT  =       9
 INTTYP=BEST         GRDTYP=BEST         QMTTOL= 1.0E-06

     $SYSTEM OPTIONS
     ---------------
  REPLICATED MEMORY=    30000000 WORDS (ON EVERY NODE).
 DISTRIBUTED MEMDDI=        1000 MILLION WORDS IN AGGREGATE,
 MEMDDI DISTRIBUTED OVER   6 PROCESSORS IS   166666666 WORDS/PROCESSOR.
 TOTAL MEMORY REQUESTED ON EACH PROCESSOR=   196666666 WORDS.
 TIMLIM=      525600.00 MINUTES, OR     365.0 DAYS.
 PARALL= T  BALTYP=  DLB     KDIAG=    0  COREFL= F
 MXSEQ2=     300 MXSEQ3=     150  mem10=         0

          ----------------
          PROPERTIES INPUT
          ----------------

     MOMENTS            FIELD           POTENTIAL          DENSITY
 IEMOM =       1   IEFLD =       0   IEPOT =       0   IEDEN =       0
 WHERE =COMASS     WHERE =NUCLEI     WHERE =NUCLEI     WHERE =NUCLEI  
 OUTPUT=BOTH       OUTPUT=BOTH       OUTPUT=BOTH       OUTPUT=BOTH    
 IEMINT=       0   IEFINT=       0                     IEDINT=       0
                                                       MORB  =       0
          EXTRAPOLATION IN EFFECT
          SOSCF IN EFFECT
          DIIS or SOSCF will be reset if energy rises
 ORBITAL PRINTING OPTION: NPREO=     1   100     2     1

     -------------------------------
     INTEGRAL TRANSFORMATION OPTIONS
     -------------------------------
     NWORD  =            0
     CUTOFF = 1.0E-09     MPTRAN =       0
     DIRTRF =       T     AOINTS =DUP     

          ----------------------
          INTEGRAL INPUT OPTIONS
          ----------------------
 NOPK  =       1 NORDER=       0 SCHWRZ=       T

     ------------------------------------------
     THE POINT GROUP IS C1 , NAXIS= 0, ORDER= 1
     ------------------------------------------

     DIMENSIONS OF THE SYMMETRY SUBSPACES ARE
 A   =  100

 ..... DONE SETTING UP THE RUN .....
 CPU     0: STEP CPU TIME=     0.02 TOTAL CPU TIME=          0.0 (      0.0 MIN)
 TOTAL WALL CLOCK TIME=          0.0 SECONDS, CPU UTILIZATION IS    66.67%

          ********************
          1 ELECTRON INTEGRALS
          ********************
 ...... END OF ONE-ELECTRON INTEGRALS ......
 CPU     0: STEP CPU TIME=     0.01 TOTAL CPU TIME=          0.0 (      0.0 MIN)
 TOTAL WALL CLOCK TIME=          0.0 SECONDS, CPU UTILIZATION IS    75.00%

          -------------
          GUESS OPTIONS
          -------------
          GUESS =HUCKEL            NORB  =       0          NORDER=       0
          MIX   =       F          PRTMO =       F          PUNMO =       F
          TOLZ  = 1.0E-08          TOLE  = 1.0E-05
          SYMDEN=       F          PURIFY=       F

 INITIAL GUESS ORBITALS GENERATED BY HUCKEL   ROUTINE.
 HUCKEL GUESS REQUIRES    100122 WORDS.

 SYMMETRIES FOR INITIAL GUESS ORBITALS FOLLOW.  ALPHA SET(S).
    32 ORBITALS ARE OCCUPIED (    8 CORE ORBITALS).
     9=A       10=A       11=A       12=A       13=A       14=A       15=A   
    16=A       17=A       18=A       19=A       20=A       21=A       22=A   
    23=A       24=A       25=A       26=A       27=A       28=A       29=A   
    30=A       31=A       32=A       33=A       34=A       35=A       36=A   
    37=A       38=A       39=A       40=A       41=A       42=A   

 SYMMETRIES FOR INITIAL GUESS ORBITALS FOLLOW.   BETA SET(S).
    31 ORBITALS ARE OCCUPIED (    8 CORE ORBITALS).
     9=A       10=A       11=A       12=A       13=A       14=A       15=A   
    16=A       17=A       18=A       19=A       20=A       21=A       22=A   
    23=A       24=A       25=A       26=A       27=A       28=A       29=A   
    30=A       31=A       32=A       33=A       34=A       35=A       36=A   
    37=A       38=A       39=A       40=A       41=A   
 ...... END OF INITIAL ORBITAL SELECTION ......
 CPU     0: STEP CPU TIME=     0.03 TOTAL CPU TIME=          0.1 (      0.0 MIN)
 TOTAL WALL CLOCK TIME=          0.1 SECONDS, CPU UTILIZATION IS    85.71%

                    ----------------------
                    AO INTEGRAL TECHNOLOGY
                    ----------------------
     S,P,L SHELL ROTATED AXIS INTEGRALS, REPROGRAMMED BY
        KAZUYA ISHIMURA (IMS) AND JOSE SIERRA (SYNSTAR).
     S,P,D,L SHELL ROTATED AXIS INTEGRALS PROGRAMMED BY
        KAZUYA ISHIMURA (INSTITUTE FOR MOLECULAR SCIENCE).
     S,P,D,F,G SHELL TO TOTAL QUARTET ANGULAR MOMENTUM SUM 5,
        ERIC PROGRAM BY GRAHAM FLETCHER (ELORET AND NASA ADVANCED
        SUPERCOMPUTING DIVISION, AMES RESEARCH CENTER).
     S,P,D,F,G,L SHELL GENERAL RYS QUADRATURE PROGRAMMED BY
        MICHEL DUPUIS (PACIFIC NORTHWEST NATIONAL LABORATORY).

          --------------------
          2 ELECTRON INTEGRALS
          --------------------

 DIRECT SCF METHOD SKIPS INTEGRAL STORAGE ON DISK.
 DIRECT TRANSFORMATION SKIPS AO INTEGRAL STORAGE ON DISK.
  ...... END OF TWO-ELECTRON INTEGRALS .....
 CPU     0: STEP CPU TIME=     0.01 TOTAL CPU TIME=          0.1 (      0.0 MIN)
 TOTAL WALL CLOCK TIME=          0.1 SECONDS, CPU UTILIZATION IS    87.50%

          ---------------------------
                  UHF SCF CALCULATION
          ---------------------------

     NUCLEAR ENERGY =       386.1217747557
     MAXIT = 60     NPUNCH=  2     MULT=  2
     EXTRAP=T  DAMP=F  SHIFT=F  RSTRCT=F  DIIS=F  SOSCF=T
     DENSITY MATRIX CONV=  2.00E-05
     SOSCF WILL OPTIMIZE    2176 ALPHA AND    2139 BETA ROTATION ANGLES.
     SOGTOL= 2.500E-01
     MEMORY REQUIRED FOR UHF/ROHF ITERS=    178917 WORDS.

 DIRECT SCF CALCULATION, SCHWRZ=T   FDIFF=T
 SCHWARZ INEQUALITY OVERHEAD:      4596 INTEGRALS, T=        0.00

                                                                                NONZERO     BLOCKS
 ITER EX      TOTAL ENERGY        E CHANGE  DENSITY CHANGE    ORB. GRAD       INTEGRALS    SKIPPED
   1  0     -357.0990633894  -357.0990633894   0.856936486   0.000000000        6837609     505893
          ---------------START SECOND ORDER SCF---------------
   2  1     -358.0668089609    -0.9677455716   0.157384166   0.062426343        6806943     515820
   3  2     -358.1063936997    -0.0395847388   0.083612397   0.037078752        6770859     527144
   4  3     -358.1539191566    -0.0475254569   0.123655951   0.026651448        6708669     539368
   5  4     -358.1515821586     0.0023369980   0.050044830   0.036170770        6686435     543746
   6  5     -358.1668459569    -0.0152637983   0.055025211   0.025950696        6645550     550306
   7  6     -358.1630495998     0.0037963571   0.050538996   0.017468182        6643217     550714
   8  7     -358.1655493258    -0.0024997261   0.068040849   0.031235083        6615479     552623
   9  8     -358.1567919656     0.0087573602   0.044338462   0.031310598        6664270     546632
  10  9     -358.1728279593    -0.0160359937   0.013137135   0.008693671        6608566     556661
  11 10     -358.1733878465    -0.0005598871   0.008527919   0.004166181        6418353     579342
  12 11     -358.1737137886    -0.0003259422   0.001960886   0.001287702        6291269     591638
  13 12     -358.1737504490    -0.0000366604   0.001986556   0.001090179        6066659     612447
  14 13     -358.1737758344    -0.0000253854   0.006859401   0.000950222        5939372     623256
  15 14     -358.1738256179    -0.0000497835   0.011469135   0.001150836        6159598     603818
  16 15     -358.1738925767    -0.0000669588   0.026942870   0.001694996        6172863     603560
  17 16     -358.1740064791    -0.0001139024   0.009838284   0.002204376        6313062     592084
  18 17     -358.1740989376    -0.0000924584   0.008822230   0.001503298        6190493     603342
  19 18     -358.1741787790    -0.0000798414   0.004558003   0.000460897        6219049     597111
  20 19     -358.1741852101    -0.0000064312   0.001021979   0.000319482        5983829     622318
  21 20     -358.1741880547    -0.0000028445   0.000339229   0.000173303        5775927     636656
  22 21     -358.1741886366    -0.0000005819   0.000129661   0.000072069        5546747     653481
  23 22     -358.1741887707    -0.0000001341   0.000255284   0.000036188        5222981     679159
  24 23     -358.1741888481    -0.0000000774   0.000069325   0.000026588        5265947     675169
  25 24     -358.1741888615    -0.0000000134   0.000028122   0.000010777        4973521     694007
  26 25     -358.1741888639    -0.0000000024   0.000009714   0.000003912        4718861     710010
  27 26     -358.1741888645    -0.0000000006   0.000006165   0.000001877        4450264     729568

          -----------------
          DENSITY CONVERGED
          -----------------
     TIME TO FORM FOCK OPERATORS=       2.4 SECONDS (       0.1 SEC/ITER)
     FOCK TIME ON FIRST ITERATION=       0.1, LAST ITERATION=       0.1
     TIME TO SOLVE SCF EQUATIONS=       0.1 SECONDS (       0.0 SEC/ITER)

 FINAL UHF ENERGY IS     -358.1741888645 AFTER  27 ITERATIONS

          --------------------
          SPIN SZ   =    0.500
          S-SQUARED =    0.870
          --------------------

  ----- ALPHA SET ----- 

          ------------
          EIGENVECTORS
          ------------

                      1          2          3          4          5
                  -16.0721   -16.0005   -15.9201   -11.7797   -11.5881
                     A          A          A          A          A   
    1  C  1  S   -0.000034  -0.000025  -0.000003  -0.000086  -0.000589
    2  C  1  S   -0.000157  -0.000155  -0.000001  -0.000276  -0.001134
    3  C  1  X   -0.000187   0.000058  -0.000074  -0.000060   0.000355
    4  C  1  Y    0.000034  -0.000023   0.000017  -0.000037  -0.000071
    5  C  1  Z    0.000028  -0.000017   0.000007  -0.000020  -0.000085
    6  C  1  S    0.001960   0.000535   0.000426   0.001698   0.003955
    7  C  1  X   -0.000153  -0.000505   0.000111  -0.000783  -0.003282
    8  C  1  Y   -0.000931   0.000088  -0.000304  -0.000101  -0.000090
    9  C  1  Z   -0.000807  -0.000028  -0.000203  -0.000351   0.000038
   10  H  2  S    0.001786   0.001509  -0.002189  -0.000659  -0.000100
   11  H  2  S    0.000920   0.005656   0.000425   0.001503   0.000773
   12  H  3  S    0.001145   0.001608  -0.002004  -0.001267  -0.001764
   13  H  3  S    0.005496   0.000777   0.000779   0.001807  -0.000053
   14  H  4  S   -0.000191   0.000004  -0.000056  -0.000044  -0.000046
   15  H  4  S   -0.000431   0.000170  -0.000181  -0.000052   0.001073
   16  H  5  S   -0.000014  -0.000081   0.000025  -0.000127  -0.000436
   17  H  5  S    0.000191  -0.000055   0.000062  -0.000114  -0.000165
   18  H  6  S   -0.002040   0.001414   0.001955  -0.000737  -0.000296
   19  H  6  S    0.000482   0.005571   0.001212   0.001497   0.000823
   20  H  7  S    0.002065  -0.001951   0.001411  -0.000495   0.000639
   21  H  7  S    0.000582  -0.000450   0.006180   0.000232  -0.000562
   22  H  8  S   -0.001312  -0.000228  -0.000186  -0.000933   0.000626
   23  H  8  S   -0.001549   0.000260  -0.000580  -0.000280   0.014694
   24  H  9  S   -0.001258  -0.000040  -0.000047  -0.000254   0.000522
   25  H  9  S   -0.000416   0.000534  -0.001736   0.000291   0.014736
   26  H 10  S    0.000641  -0.000262   0.000256  -0.000127  -0.001314
   27  H 10  S   -0.000460  -0.000208   0.000059  -0.000292   0.001254
   28  H 11  S    0.000410  -0.000139   0.000166   0.000130  -0.001388
   29  H 11  S    0.000183   0.000220  -0.000084   0.000663   0.001082
   30  H 12  S   -0.002106   0.001817   0.001557  -0.000862  -0.000395
   31  H 12  S    0.000078   0.001181   0.005519   0.001732  -0.000151
   32  H 13  S   -0.000290   0.000031  -0.000122   0.000099  -0.000108
   33  H 13  S   -0.000121   0.000084   0.000107   0.000182  -0.001490
   34  N 14  S   -0.002641   0.985946   0.002191   0.000067  -0.000149
   35  N 14  S   -0.001279   0.103230  -0.000710  -0.000214  -0.001222
   36  N 14  X    0.000146   0.001694  -0.000981  -0.000754  -0.000216
   37  N 14  Y    0.000696  -0.000616  -0.000413   0.000321   0.000107
   38  N 14  Z    0.000675  -0.001009  -0.000171   0.000522   0.000225
   39  N 14  S    0.006239  -0.073147   0.004772   0.004535   0.006740
   40  N 14  X   -0.002399  -0.012581   0.007503   0.000808   0.002775
   41  N 14  Y   -0.005974   0.004688   0.004902  -0.000451  -0.001241
   42  N 14  Z   -0.005629   0.008375   0.003110  -0.000614  -0.002301
   43  N 15  S   -0.000772  -0.002393   0.986138   0.000001   0.000067
   44  N 15  S   -0.000488  -0.001173   0.102741  -0.000637   0.000374
   45  N 15  X    0.000862  -0.000885   0.000266  -0.000069   0.000063
   46  N 15  Y   -0.000234  -0.000482   0.001652  -0.000741  -0.000063
   47  N 15  Z   -0.000537  -0.000056   0.001358  -0.000604  -0.000023
   48  N 15  S    0.002064   0.005065  -0.073880   0.006732  -0.003111
   49  N 15  X   -0.008472   0.008673  -0.001832   0.000399  -0.002352
   50  N 15  Y   -0.000164   0.002683  -0.011730   0.001230  -0.001091
   51  N 15  Z    0.003050  -0.001037  -0.010383   0.000796  -0.000480
   52  C 16  S   -0.000183  -0.000215  -0.000223   0.986377   0.000565
   53  C 16  S   -0.001373  -0.001497  -0.001736   0.091404  -0.000726
   54  C 16  X    0.000362   0.000211  -0.000099   0.000989  -0.000713
   55  C 16  Y    0.000030   0.000036  -0.000116   0.000383   0.000296
   56  C 16  Z   -0.000034  -0.000003  -0.000072   0.000153   0.000343
   57  C 16  S    0.021951   0.022299   0.020698  -0.039901   0.002048
   58  C 16  X    0.029564  -0.026032  -0.004367  -0.001060   0.009380
   59  C 16  Y    0.011021   0.010297  -0.025229   0.000509  -0.002771
   60  C 16  Z    0.001579   0.018057  -0.022810   0.000693  -0.005091
   61  C 17  S   -0.000621  -0.000044  -0.000132  -0.000704   0.987802
   62  C 17  S   -0.002562  -0.000679  -0.000437  -0.000904   0.102709
   63  C 17  X   -0.001225   0.001369  -0.000848   0.001291  -0.001037
   64  C 17  Y    0.000236  -0.000045   0.000215   0.000429   0.000183
   65  C 17  Z    0.000289  -0.000233   0.000370  -0.000031   0.000311
   66  C 17  S    0.018487  -0.003097   0.007405   0.000698  -0.082790
   67  C 17  X   -0.006907  -0.003166  -0.000587  -0.006552  -0.004851
   68  C 17  Y    0.003495  -0.002017   0.002296  -0.002688  -0.002999
   69  C 17  Z    0.004812  -0.000866   0.001150  -0.000135  -0.003456
   70  C 18  S    0.000195  -0.000113   0.000082  -0.000183  -0.001333
   71  C 18  S    0.000838  -0.000642   0.000384  -0.000576  -0.002507
   72  C 18  X    0.000072   0.000020   0.000021  -0.000552  -0.000158
   73  C 18  Y    0.000145  -0.000067   0.000108   0.000020   0.000086
   74  C 18  Z    0.000085   0.000044   0.000071   0.000276   0.000027
   75  C 18  S   -0.005161   0.003787  -0.002829   0.005148   0.021255
   76  C 18  X    0.003994  -0.001593   0.001674   0.001006  -0.011264
   77  C 18  Y    0.000576  -0.000521   0.000226  -0.001165  -0.006008
   78  C 18  Z    0.000432  -0.001388   0.000693  -0.003122  -0.005658
   79  C 19  S   -0.000036   0.000011  -0.000005   0.000120  -0.000836
   80  C 19  S   -0.000249   0.000012  -0.000014   0.000394  -0.000854
   81  C 19  X    0.000492   0.000116   0.000103   0.000327   0.000865
   82  C 19  Y    0.000108   0.000040   0.000021   0.000136   0.000279
   83  C 19  Z    0.000165  -0.000004   0.000047   0.000047   0.000290
   84  C 19  S   -0.000711  -0.000562  -0.000232  -0.003425  -0.000230
   85  C 19  X   -0.002532  -0.000107  -0.000675   0.000144  -0.002097
   86  C 19  Y   -0.001043  -0.000418  -0.000127  -0.001614  -0.001841
   87  C 19  Z   -0.001342  -0.000014  -0.000343  -0.000800  -0.002037
   88  H 20  S   -0.000006  -0.000064   0.000015  -0.000091  -0.000452
   89  H 20  S    0.000049   0.000006  -0.000008   0.000005  -0.000174
   90  H 21  S   -0.000255  -0.000015  -0.000055   0.000006  -0.000095
   91  H 21  S    0.000098  -0.000142   0.000123  -0.000297  -0.001356
   92  N 22  S    0.986088   0.002459   0.000695   0.000129  -0.000174
   93  N 22  S    0.105461  -0.000519  -0.000490   0.000072  -0.000470
   94  N 22  X   -0.001484  -0.000144   0.001264   0.000677   0.000194
   95  N 22  Y   -0.001193   0.000646  -0.000304   0.000154  -0.000638
   96  N 22  Z   -0.000665   0.000664  -0.000636   0.000003  -0.000526
   97  N 22  S   -0.079748   0.003936   0.003608   0.003187   0.008019
   98  N 22  X    0.008799   0.001880  -0.008160  -0.000903   0.006872
   99  N 22  Y    0.009455  -0.005447   0.004178   0.001311   0.002219
  100  N 22  Z    0.005222  -0.005646   0.005951   0.000911   0.000910

                      6          7          8          9         10
                  -11.4735   -11.4184   -11.3674    -1.8235    -1.6946
                     A          A          A          A          A   
    1  C  1  S   -0.001375  -0.002317   0.987523   0.000209   0.000064
    2  C  1  S   -0.001006  -0.002597   0.101707   0.001234  -0.000531
    3  C  1  X    0.000787  -0.000561  -0.000493   0.000206  -0.000046
    4  C  1  Y   -0.000011  -0.000162  -0.000035   0.000052   0.000105
    5  C  1  Z   -0.000025  -0.000157  -0.000023   0.000031   0.000079
    6  C  1  S    0.000967   0.021524  -0.080463  -0.009493   0.003920
    7  C  1  X   -0.000383  -0.009950   0.004436   0.004015  -0.000736
    8  C  1  Y    0.000295  -0.005027   0.001717   0.002092  -0.001949
    9  C  1  Z    0.000293  -0.004906   0.001686   0.002328  -0.001514
   10  H  2  S   -0.000041   0.000107  -0.000010   0.026985   0.073929
   11  H  2  S    0.000306  -0.000080   0.000010  -0.005009   0.002314
   12  H  3  S   -0.000237  -0.000544  -0.000035   0.065410  -0.057235
   13  H  3  S   -0.000176   0.000839   0.000478  -0.009015  -0.001413
   14  H  4  S   -0.000254  -0.001067   0.000216   0.000324  -0.000320
   15  H  4  S    0.001409  -0.000011   0.013600   0.000426  -0.000619
   16  H  5  S    0.000064  -0.001342   0.000323   0.000414  -0.000080
   17  H  5  S   -0.001148   0.000479   0.014319   0.000056   0.000358
   18  H  6  S   -0.000110  -0.000098  -0.000024   0.028966   0.072123
   19  H  6  S    0.000305   0.000052   0.000085  -0.005099   0.002892
   20  H  7  S   -0.000026   0.000063  -0.000022   0.016255   0.020898
   21  H  7  S    0.001372   0.000325   0.000356   0.000213   0.002145
   22  H  8  S   -0.001204   0.000017  -0.000385   0.014041  -0.012939
   23  H  8  S    0.000434  -0.001358  -0.000035   0.001369   0.002807
   24  H  9  S   -0.001270   0.000030  -0.000409   0.011863  -0.013756
   25  H  9  S    0.000498  -0.001262  -0.000015  -0.004570   0.004337
   26  H 10  S    0.001081  -0.001301  -0.000196   0.001103  -0.002186
   27  H 10  S    0.014419   0.000879  -0.001282   0.000212   0.000704
   28  H 11  S    0.001024  -0.001305  -0.000197   0.001090  -0.002708
   29  H 11  S    0.014332   0.001000  -0.001328  -0.003329   0.000417
   30  H 12  S    0.000047  -0.000102   0.000020   0.019245   0.018276
   31  H 12  S   -0.000022  -0.000030  -0.000009  -0.002771  -0.001169
   32  H 13  S   -0.001356   0.001011  -0.001109   0.000441  -0.000931
   33  H 13  S    0.000626   0.014470   0.000956   0.000248  -0.000943
   34  N 14  S   -0.000054  -0.000006  -0.000014  -0.083831  -0.179466
   35  N 14  S   -0.000436  -0.000062  -0.000119   0.079954   0.165417
   36  N 14  X   -0.000077   0.000001  -0.000022   0.040894   0.026514
   37  N 14  Y    0.000051   0.000031   0.000008  -0.010632  -0.019701
   38  N 14  Z    0.000059   0.000023   0.000012  -0.021901  -0.024460
   39  N 14  S    0.002566   0.000305   0.000665   0.241443   0.601199
   40  N 14  X    0.001046  -0.000119   0.000282   0.045088   0.049946
   41  N 14  Y   -0.000551  -0.000284  -0.000091  -0.001501  -0.038972
   42  N 14  Z   -0.000792  -0.000207  -0.000170  -0.013307  -0.052564
   43  N 15  S    0.000031   0.000001   0.000006  -0.055948  -0.051302
   44  N 15  S    0.000178   0.000011   0.000037   0.050288   0.047435
   45  N 15  X   -0.000066   0.000052  -0.000019   0.008364  -0.013072
   46  N 15  Y   -0.000105   0.000002  -0.000023   0.030631   0.017485
   47  N 15  Z   -0.000153  -0.000051  -0.000032   0.026021   0.020308
   48  N 15  S   -0.001787  -0.000033  -0.000399   0.158455   0.148407
   49  N 15  X   -0.000613  -0.000499  -0.000111   0.019397  -0.042920
   50  N 15  Y   -0.000059  -0.000031   0.000010   0.030430   0.014171
   51  N 15  Z    0.000462   0.000288   0.000108   0.022502   0.029153
   52  C 16  S    0.000025  -0.000046   0.000026  -0.126327  -0.053980
   53  C 16  S   -0.000325   0.000069  -0.000123   0.160892   0.068190
   54  C 16  X   -0.000037   0.000163  -0.000103   0.049179  -0.154275
   55  C 16  Y    0.000132   0.000145   0.000036   0.033805  -0.020906
   56  C 16  Z    0.000227   0.000065   0.000059   0.017253   0.028283
   57  C 16  S    0.000644   0.001646  -0.000142   0.043747   0.051802
   58  C 16  X    0.003540   0.001644   0.000704  -0.040258   0.095965
   59  C 16  Y   -0.000978   0.000764  -0.000329  -0.014228   0.003831
   60  C 16  Z   -0.002233   0.000083  -0.000511  -0.002291  -0.024948
   61  C 17  S    0.000448   0.000793   0.000264  -0.035004   0.039916
   62  C 17  S   -0.002476  -0.000670  -0.001126   0.040829  -0.041268
   63  C 17  X    0.000178  -0.000677  -0.000351  -0.035357   0.027381
   64  C 17  Y   -0.000047   0.000064  -0.000009   0.009922  -0.013703
   65  C 17  Z   -0.000008   0.000062  -0.000000   0.013524  -0.014591
   66  C 17  S    0.024003  -0.000360   0.005135   0.035037  -0.051995
   67  C 17  X    0.011286   0.000717   0.003651   0.027113   0.003016
   68  C 17  Y    0.006493  -0.001423   0.000888   0.003618   0.009313
   69  C 17  Z    0.006409  -0.001346   0.000815  -0.006452   0.008040
   70  C 18  S    0.988019   0.001523   0.001292  -0.005581   0.009357
   71  C 18  S    0.104793  -0.002279  -0.000691   0.005837  -0.007168
   72  C 18  X   -0.000697   0.000369  -0.001025  -0.004968   0.009043
   73  C 18  Y   -0.000364   0.000096  -0.000320  -0.001945   0.002590
   74  C 18  Z   -0.000423   0.000104  -0.000321  -0.002172   0.002206
   75  C 18  S   -0.093824   0.022229  -0.000852  -0.001362  -0.028134
   76  C 18  X    0.000731   0.011616   0.003560  -0.011078   0.009884
   77  C 18  Y    0.005438  -0.004679   0.002307   0.005999   0.000635
   78  C 18  Z    0.005927  -0.005223   0.002413   0.010887   0.002702
   79  C 19  S   -0.002414   0.987989   0.001567  -0.000673   0.001068
   80  C 19  S   -0.002707   0.104463  -0.001675  -0.000005  -0.001899
   81  C 19  X   -0.000623  -0.000538   0.000048  -0.002410   0.002097
   82  C 19  Y   -0.000030   0.000231  -0.000059  -0.000480   0.000002
   83  C 19  Z   -0.000010   0.000258  -0.000056  -0.000384   0.000109
   84  C 19  S    0.021690  -0.091953   0.017840   0.013357  -0.001457
   85  C 19  X   -0.011762   0.001551   0.009663   0.004215  -0.005662
   86  C 19  Y    0.004114  -0.004654   0.005070   0.007149  -0.001703
   87  C 19  Z    0.004433  -0.004852   0.004920   0.006129  -0.003063
   88  H 20  S    0.000050  -0.001340   0.000324   0.000351  -0.000108
   89  H 20  S   -0.001091   0.000446   0.014299   0.000043   0.000057
   90  H 21  S   -0.001356   0.001017  -0.001106   0.000562  -0.000821
   91  H 21  S    0.000704   0.014479   0.001004   0.000743  -0.000007
   92  N 22  S    0.000090  -0.000016   0.000002  -0.180917   0.127434
   93  N 22  S    0.000329  -0.000193  -0.000020   0.167963  -0.117772
   94  N 22  X   -0.000435  -0.000539  -0.000015  -0.061515  -0.013095
   95  N 22  Y   -0.000185  -0.000074   0.000050  -0.021941  -0.000990
   96  N 22  Z   -0.000165  -0.000043   0.000030  -0.003692   0.003901
   97  N 22  S   -0.003263  -0.000142   0.000019   0.597585  -0.459742
   98  N 22  X   -0.000241   0.003239  -0.000048  -0.073971   0.010040
   99  N 22  Y    0.001166   0.000554  -0.000285  -0.043566   0.029350
  100  N 22  Z    0.000953   0.000169  -0.000211  -0.016815   0.023742

                     11         12         13         14         15
                   -1.6102    -1.4149    -1.3065    -1.2801    -1.2313
                     A          A          A          A          A   
    1  C  1  S    0.000042  -0.014109  -0.061600   0.050939  -0.055388
    2  C  1  S   -0.000319   0.017049   0.063055  -0.049625   0.053257
    3  C  1  X    0.000321  -0.011673  -0.031223   0.021573  -0.014659
    4  C  1  Y   -0.000026  -0.003589  -0.012488   0.009305  -0.008490
    5  C  1  Z   -0.000021  -0.003379  -0.012111   0.009045  -0.008352
    6  C  1  S    0.000163   0.017341   0.137542  -0.127371   0.147368
    7  C  1  X   -0.001205   0.005948   0.000855   0.006543  -0.005256
    8  C  1  Y    0.000429   0.003281  -0.000867   0.000907  -0.001915
    9  C  1  Z    0.000287   0.002718  -0.000260   0.001422  -0.001573
   10  H  2  S   -0.050248   0.025843  -0.047916  -0.014153   0.140185
   11  H  2  S   -0.004886   0.005698  -0.019083  -0.012352   0.044194
   12  H  3  S   -0.028680  -0.006323  -0.076251  -0.162817  -0.069626
   13  H  3  S   -0.003079   0.001238  -0.024970  -0.041001  -0.010628
   14  H  4  S    0.000046   0.005342   0.025212  -0.021753   0.026851
   15  H  4  S    0.000770  -0.004245  -0.005367   0.001494   0.000765
   16  H  5  S   -0.000170   0.006496   0.028485  -0.023566   0.026901
   17  H  5  S   -0.000083  -0.000487  -0.000725   0.001196  -0.000143
   18  H  6  S   -0.044827   0.043413  -0.064312   0.001616   0.054961
   19  H  6  S   -0.005431   0.006557  -0.019194  -0.005353   0.020439
   20  H  7  S    0.088225   0.018952  -0.047164  -0.040845   0.090688
   21  H  7  S    0.007096   0.007031  -0.017621  -0.008536   0.029215
   22  H  8  S   -0.000139   0.075575   0.005333   0.070388  -0.003362
   23  H  8  S    0.004315  -0.009467   0.006938   0.013687   0.009760
   24  H  9  S   -0.001411   0.078726  -0.000636   0.061504  -0.010249
   25  H  9  S    0.005330  -0.005742   0.001797   0.008751   0.004303
   26  H 10  S   -0.001912   0.046490   0.047382  -0.029997  -0.011947
   27  H 10  S   -0.000501  -0.007910  -0.002610  -0.006988  -0.002860
   28  H 11  S   -0.001768   0.046837   0.047687  -0.028605  -0.011246
   29  H 11  S    0.000502  -0.006329  -0.004067  -0.006304  -0.001820
   30  H 12  S    0.085448   0.020366  -0.052787  -0.079052  -0.009830
   31  H 12  S    0.009544   0.008715  -0.022032  -0.026224   0.003563
   32  H 13  S   -0.000086   0.021267   0.051491  -0.034148   0.028030
   33  H 13  S   -0.000043  -0.001150  -0.004792   0.002970   0.000078
   34  N 14  S    0.097044  -0.038436   0.035322   0.000076  -0.035102
   35  N 14  S   -0.090189   0.037794  -0.033450  -0.000444   0.031144
   36  N 14  X   -0.007144  -0.062628   0.122783   0.005854  -0.157136
   37  N 14  Y   -0.017667  -0.002691  -0.027016  -0.020321   0.143631
   38  N 14  Z   -0.016086   0.016994  -0.060159  -0.018439   0.203623
   39  N 14  S   -0.336245   0.128811  -0.134028  -0.005236   0.143005
   40  N 14  X   -0.042160  -0.054013   0.099532  -0.002464  -0.123335
   41  N 14  Y   -0.020951  -0.008168  -0.016102  -0.016778   0.130311
   42  N 14  Z   -0.010356   0.008066  -0.042003  -0.012271   0.181129
   43  N 15  S   -0.194088  -0.022765   0.043517   0.051865  -0.022871
   44  N 15  S    0.175608   0.019465  -0.038245  -0.045528   0.020664
   45  N 15  X    0.011188  -0.009946   0.018729   0.056500   0.104101
   46  N 15  Y    0.037118  -0.018612   0.064493   0.082637  -0.049389
   47  N 15  Z    0.029797  -0.013033   0.056316   0.060775  -0.095521
   48  N 15  S    0.622725   0.093606  -0.167923  -0.192173   0.087577
   49  N 15  X    0.019331  -0.006249   0.012542   0.050332   0.105864
   50  N 15  Y    0.060102  -0.004836   0.038698   0.059163  -0.033885
   51  N 15  Z    0.048595  -0.000577   0.033645   0.041661  -0.081807
   52  C 16  S   -0.044977   0.058827  -0.092173  -0.054875   0.053390
   53  C 16  S    0.056731  -0.073841   0.120948   0.073694  -0.070766
   54  C 16  X    0.015036  -0.081718   0.036523   0.062642   0.237730
   55  C 16  Y   -0.134653  -0.062964   0.041051  -0.025381   0.025001
   56  C 16  Z   -0.133562  -0.029110   0.031286  -0.030023  -0.048388
   57  C 16  S    0.073291  -0.099952   0.185904   0.118495  -0.134462
   58  C 16  X    0.001059  -0.016549   0.007457   0.011722   0.047363
   59  C 16  Y    0.039350   0.007536  -0.002338  -0.007955   0.000513
   60  C 16  Z    0.037065   0.013173  -0.002297  -0.006258  -0.014866
   61  C 17  S    0.007170  -0.153688   0.009163  -0.082259   0.025614
   62  C 17  S   -0.007478   0.150631  -0.004279   0.075425  -0.024039
   63  C 17  X    0.005571   0.017728   0.072257  -0.052014  -0.031305
   64  C 17  Y   -0.007617   0.023537  -0.014294  -0.049354  -0.027645
   65  C 17  Z   -0.007040   0.022035  -0.006064  -0.034162  -0.018454
   66  C 17  S   -0.030045   0.387220  -0.027490   0.266026  -0.090141
   67  C 17  X   -0.006124  -0.012812   0.022626   0.005092  -0.021656
   68  C 17  Y   -0.009267  -0.011390   0.010031  -0.013881  -0.016457
   69  C 17  Z   -0.006025  -0.005125   0.006555  -0.011898  -0.014503
   70  C 18  S    0.003160  -0.107597  -0.096663   0.048601   0.017988
   71  C 18  S   -0.004766   0.102706   0.092869  -0.044482  -0.016295
   72  C 18  X    0.003388  -0.038601   0.050960  -0.039826   0.049478
   73  C 18  Y    0.000361  -0.023849  -0.012913  -0.009316  -0.002145
   74  C 18  Z    0.000553  -0.024108  -0.013445  -0.006329  -0.001492
   75  C 18  S    0.003736   0.274449   0.245403  -0.157368  -0.058997
   76  C 18  X   -0.004916  -0.007201  -0.005471   0.018451   0.008024
   77  C 18  Y   -0.001862  -0.009091  -0.003043   0.002360  -0.003719
   78  C 18  Z   -0.003421  -0.013502   0.001780   0.006449  -0.002248
   79  C 19  S    0.000473  -0.046155  -0.112315   0.074211  -0.055192
   80  C 19  S   -0.000646   0.048966   0.104706  -0.068640   0.050526
   81  C 19  X    0.000563  -0.028720  -0.018070  -0.002673   0.023713
   82  C 19  Y   -0.000103   0.007330   0.017183  -0.013823   0.006393
   83  C 19  Z   -0.000160   0.008008   0.018514  -0.013731   0.006394
   84  C 19  S   -0.000496   0.087402   0.299472  -0.198456   0.160128
   85  C 19  X    0.000084   0.013543  -0.014678   0.010135  -0.005251
   86  C 19  Y   -0.000156   0.000647   0.007518  -0.001188   0.002548
   87  C 19  Z    0.000421   0.002031   0.006222  -0.003170   0.002241
   88  H 20  S   -0.000149   0.006572   0.028492  -0.023589   0.026934
   89  H 20  S   -0.000002  -0.000267  -0.001086   0.000741  -0.000315
   90  H 21  S   -0.000149   0.021040   0.051784  -0.033797   0.028309
   91  H 21  S   -0.000316  -0.002115  -0.003805   0.003961   0.000373
   92  N 22  S    0.041182   0.012431   0.041786   0.033775  -0.008938
   93  N 22  S   -0.038129  -0.009028  -0.037754  -0.030523   0.008067
   94  N 22  X   -0.004651   0.210381  -0.174477  -0.012997  -0.091600
   95  N 22  Y   -0.031307  -0.005478  -0.097868  -0.245826  -0.119392
   96  N 22  Z   -0.028420  -0.037243  -0.024416  -0.167052  -0.080846
   97  N 22  S   -0.155748  -0.077420  -0.170306  -0.155267   0.052067
   98  N 22  X    0.026169   0.172029  -0.161155  -0.001103  -0.086595
   99  N 22  Y   -0.033826  -0.008618  -0.080564  -0.235228  -0.123153
  100  N 22  Z   -0.037918  -0.034915  -0.015992  -0.162355  -0.082039

                     16         17         18         19         20
                   -1.1904    -1.1531    -1.1294    -1.0975    -1.0668
                     A          A          A          A          A   
    1  C  1  S   -0.091461   0.101247   0.006810  -0.024740  -0.021304
    2  C  1  S    0.086516  -0.094096  -0.006161   0.022610   0.018782
    3  C  1  X   -0.010917  -0.003986  -0.001585   0.006303   0.010125
    4  C  1  Y   -0.009588   0.006076   0.000418   0.004294   0.003806
    5  C  1  Z   -0.009655   0.006161   0.001989   0.003756   0.005156
    6  C  1  S    0.259565  -0.306356  -0.022068   0.081258   0.074650
    7  C  1  X   -0.007432   0.005397  -0.000688  -0.001844  -0.000847
    8  C  1  Y   -0.002452   0.003669   0.000205   0.001995   0.001122
    9  C  1  Z   -0.002823   0.003257   0.002142   0.001398   0.001782
   10  H  2  S   -0.095327  -0.016107   0.011877   0.148078  -0.073247
   11  H  2  S   -0.030605  -0.003236   0.006579   0.068238  -0.030735
   12  H  3  S    0.013002   0.014079  -0.019803   0.052281   0.062490
   13  H  3  S    0.001862   0.007384  -0.004170   0.033011   0.023186
   14  H  4  S    0.048975  -0.060218  -0.004841   0.015756   0.015328
   15  H  4  S    0.004761  -0.009110  -0.000661   0.003931   0.005107
   16  H  5  S    0.047157  -0.054844  -0.003895   0.016420   0.013992
   17  H  5  S    0.001214  -0.003971   0.000329   0.003378   0.003258
   18  H  6  S    0.131584   0.119953   0.027515  -0.121891   0.026898
   19  H  6  S    0.037063   0.040198   0.011347  -0.054593   0.003213
   20  H  7  S   -0.076899  -0.017343  -0.054906  -0.059315   0.183578
   21  H  7  S   -0.028853  -0.013420  -0.025768  -0.032721   0.084430
   22  H  8  S   -0.030224  -0.062228   0.012253  -0.045280   0.048546
   23  H  8  S   -0.009960  -0.022411   0.020114  -0.026496   0.026349
   24  H  9  S   -0.018914  -0.044994  -0.103999  -0.018520  -0.011277
   25  H  9  S    0.000060  -0.010109  -0.053902  -0.006575  -0.004585
   26  H 10  S   -0.035633   0.073966   0.007064   0.013990  -0.014084
   27  H 10  S   -0.001223   0.014741  -0.002328   0.009392  -0.005041
   28  H 11  S   -0.038118   0.069822   0.034156   0.006013   0.002963
   29  H 11  S   -0.002321   0.011030   0.016843   0.004509   0.007132
   30  H 12  S   -0.041272  -0.063588   0.021702  -0.119292  -0.187421
   31  H 12  S   -0.012065  -0.022294   0.009744  -0.060337  -0.087244
   32  H 13  S    0.028040  -0.016868  -0.008601  -0.011640  -0.012721
   33  H 13  S    0.001754  -0.003990  -0.003518  -0.003851  -0.003707
   34  N 14  S   -0.005732  -0.004798   0.001045   0.002402  -0.008241
   35  N 14  S    0.005905   0.003435   0.000117  -0.003445   0.006041
   36  N 14  X   -0.201729  -0.227795  -0.052457   0.128957   0.004919
   37  N 14  Y   -0.115690   0.001443  -0.088491   0.125190  -0.070920
   38  N 14  Z   -0.125087  -0.017531   0.098328   0.200510  -0.111768
   39  N 14  S    0.020536   0.027064  -0.010006  -0.009793   0.045111
   40  N 14  X   -0.202214  -0.217445  -0.053631   0.136871   0.004108
   41  N 14  Y   -0.118688  -0.005742  -0.084600   0.130353  -0.071107
   42  N 14  Z   -0.126676  -0.025081   0.090429   0.203497  -0.116914
   43  N 15  S    0.028051   0.010480   0.001208   0.005130   0.002261
   44  N 15  S   -0.023884  -0.007654  -0.001311  -0.005284  -0.002750
   45  N 15  X   -0.023199   0.056556  -0.032200   0.084453   0.321952
   46  N 15  Y    0.103762   0.102130  -0.029266   0.205318   0.075607
   47  N 15  Z    0.098802   0.038769   0.105828   0.154913  -0.128159
   48  N 15  S   -0.109017  -0.052101  -0.002310  -0.026272  -0.008705
   49  N 15  X   -0.024736   0.052269  -0.034553   0.084682   0.334431
   50  N 15  Y    0.086736   0.087381  -0.028475   0.186537   0.078246
   51  N 15  Z    0.083209   0.026489   0.098607   0.137187  -0.134375
   52  C 16  S   -0.002776  -0.007657   0.002493  -0.023780  -0.005438
   53  C 16  S    0.004839   0.010194  -0.003145   0.030949   0.006872
   54  C 16  X   -0.044843   0.109479   0.063420  -0.064539  -0.060289
   55  C 16  Y   -0.103767  -0.039664  -0.152501  -0.182829  -0.005316
   56  C 16  Z   -0.120190  -0.142651   0.072155  -0.148171   0.026323
   57  C 16  S    0.018762   0.024466  -0.000490   0.094333   0.022348
   58  C 16  X   -0.014955   0.031241   0.025895   0.000282   0.012888
   59  C 16  Y   -0.023778  -0.011986  -0.084585  -0.051477  -0.003545
   60  C 16  Z   -0.038185  -0.065278   0.073021  -0.047253   0.006469
   61  C 17  S    0.028334   0.051675   0.032381   0.015064  -0.009042
   62  C 17  S   -0.023983  -0.044230  -0.026422  -0.011926   0.006018
   63  C 17  X   -0.089376   0.071810  -0.011378  -0.022315   0.032748
   64  C 17  Y    0.016284   0.062784  -0.042178   0.064905  -0.060336
   65  C 17  Z   -0.001638   0.033200   0.138741   0.024126   0.023860
   66  C 17  S   -0.127868  -0.206738  -0.156635  -0.086489   0.057920
   67  C 17  X   -0.014635   0.034842   0.012807  -0.000215  -0.015349
   68  C 17  Y   -0.001252   0.038744  -0.028324   0.030042  -0.054929
   69  C 17  Z   -0.007109   0.023202   0.077371   0.005950   0.011381
   70  C 18  S    0.064460  -0.104386  -0.021596  -0.002135   0.008115
   71  C 18  S   -0.055168   0.089550   0.018601   0.001817  -0.008715
   72  C 18  X    0.039175  -0.002823  -0.002275  -0.019977  -0.017967
   73  C 18  Y    0.004457   0.026928  -0.004396   0.024323  -0.014851
   74  C 18  Z   -0.000206   0.021184   0.039527   0.013132   0.011492
   75  C 18  S   -0.218203   0.368276   0.083243   0.021916  -0.011403
   76  C 18  X    0.008964  -0.020749  -0.011907  -0.013434  -0.012497
   77  C 18  Y    0.004249   0.011671  -0.003370   0.012374  -0.011241
   78  C 18  Z    0.000504   0.008747   0.020813   0.004632   0.001027
   79  C 19  S   -0.051213   0.024203   0.004266   0.014971   0.014823
   80  C 19  S    0.047036  -0.024023  -0.004180  -0.012286  -0.012284
   81  C 19  X    0.062624  -0.082231  -0.005648   0.019055   0.014007
   82  C 19  Y    0.007201   0.001456   0.000253   0.011475   0.001009
   83  C 19  Z    0.005148   0.002201   0.010090   0.008391   0.007696
   84  C 19  S    0.155205  -0.069480  -0.013703  -0.058310  -0.057273
   85  C 19  X    0.005361  -0.014319   0.002012   0.012079   0.005978
   86  C 19  Y    0.003046   0.002937   0.002123   0.004482  -0.002010
   87  C 19  Z    0.003671   0.003232   0.005042   0.003687   0.002444
   88  H 20  S    0.047108  -0.054961  -0.002800   0.016079   0.015014
   89  H 20  S    0.001560  -0.003809  -0.000304   0.003540   0.003739
   90  H 21  S    0.027428  -0.017817  -0.001660  -0.013737  -0.007906
   91  H 21  S    0.001444  -0.004145  -0.001255  -0.004703  -0.001866
   92  N 22  S   -0.032871  -0.003878  -0.016602   0.009193   0.018801
   93  N 22  S    0.026262   0.003050   0.013219  -0.009064  -0.013616
   94  N 22  X    0.106181  -0.110004   0.084019   0.145153   0.034297
   95  N 22  Y    0.021154   0.061685  -0.257066   0.105499   0.030853
   96  N 22  Z   -0.078595  -0.047876   0.284981  -0.019987   0.184926
   97  N 22  S    0.154687   0.028782   0.087966  -0.044741  -0.106519
   98  N 22  X    0.123875  -0.099532   0.100983   0.168864   0.033411
   99  N 22  Y    0.004413   0.061683  -0.264836   0.105227   0.048217
  100  N 22  Z   -0.092120  -0.046367   0.268108  -0.022918   0.201403

                     21         22         23         24         25
                   -1.0554    -1.0345    -0.9910    -0.9353    -0.8717
                     A          A          A          A          A   
    1  C  1  S    0.093725  -0.073383   0.002738  -0.000695   0.018397
    2  C  1  S   -0.085261   0.065679  -0.002425   0.000531  -0.014652
    3  C  1  X   -0.042077   0.048174  -0.001257   0.004182  -0.104530
    4  C  1  Y   -0.037739   0.028689  -0.011859   0.021237   0.034326
    5  C  1  Z   -0.037566   0.028761   0.003559  -0.028797   0.007280
    6  C  1  S   -0.326204   0.266076  -0.010648   0.001729  -0.081533
    7  C  1  X    0.001280   0.009134   0.000801   0.003094  -0.066869
    8  C  1  Y   -0.014769   0.008664  -0.005565   0.011482   0.031022
    9  C  1  Z   -0.015089   0.008920   0.001125  -0.016026   0.011542
   10  H  2  S    0.024085   0.020883   0.027489   0.003792   0.002791
   11  H  2  S    0.018213   0.018389   0.017491   0.004990   0.004905
   12  H  3  S    0.072829   0.072856  -0.004461  -0.015357   0.043014
   13  H  3  S    0.032162   0.033597   0.004223  -0.007061   0.052677
   14  H  4  S   -0.061507   0.055535  -0.000834   0.004304  -0.075472
   15  H  4  S   -0.018553   0.017583  -0.000492   0.002534  -0.047276
   16  H  5  S   -0.073452   0.057426  -0.009017   0.015905   0.010429
   17  H  5  S   -0.023976   0.018861  -0.005548   0.011429   0.010258
   18  H  6  S    0.006621   0.050644  -0.017975   0.005840  -0.007964
   19  H  6  S    0.002890   0.027636  -0.008265   0.003166  -0.006225
   20  H  7  S   -0.034407  -0.076109  -0.038394  -0.008180  -0.012113
   21  H  7  S   -0.017854  -0.040026  -0.023077  -0.005957  -0.006675
   22  H  8  S    0.066499   0.103466   0.104335  -0.120387   0.098842
   23  H  8  S    0.033739   0.043611   0.054211  -0.074180   0.085614
   24  H  9  S    0.055856   0.093049  -0.117687   0.106240   0.063013
   25  H  9  S    0.027887   0.036105  -0.068228   0.061280   0.054645
   26  H 10  S   -0.082337  -0.009279  -0.059065   0.081330   0.099709
   27  H 10  S   -0.037285  -0.004485  -0.038934   0.051860   0.081428
   28  H 11  S   -0.079061  -0.005069   0.042386  -0.105818   0.053049
   29  H 11  S   -0.033772  -0.001409   0.029634  -0.065862   0.050858
   30  H 12  S   -0.025622   0.022334   0.017160  -0.002336   0.003870
   31  H 12  S   -0.014310   0.008841   0.005949  -0.004177   0.001213
   32  H 13  S    0.095907  -0.059140  -0.010919   0.057136  -0.025081
   33  H 13  S    0.034551  -0.018259  -0.006731   0.036680  -0.017954
   34  N 14  S    0.005426   0.014485   0.003309   0.003503  -0.001351
   35  N 14  S   -0.005495  -0.013827  -0.002579  -0.002139   0.001040
   36  N 14  X   -0.034137  -0.126767  -0.019537  -0.037566   0.007860
   37  N 14  Y   -0.007509   0.026127   0.307104   0.211757   0.050013
   38  N 14  Z    0.063445   0.057764  -0.173025  -0.143571  -0.039287
   39  N 14  S   -0.017243  -0.052152  -0.022060  -0.026098   0.007773
   40  N 14  X   -0.027707  -0.120350  -0.022540  -0.046977   0.010640
   41  N 14  Y   -0.005401   0.028696   0.327698   0.237454   0.062290
   42  N 14  Z    0.061741   0.054941  -0.184206  -0.162403  -0.048363
   43  N 15  S    0.000529  -0.001169  -0.004177  -0.005060   0.003296
   44  N 15  S   -0.000225   0.002510   0.002084   0.002473  -0.003865
   45  N 15  X    0.008602  -0.067467  -0.085250  -0.012934  -0.000519
   46  N 15  Y    0.055346   0.038189   0.085283   0.033401  -0.020615
   47  N 15  Z    0.078790   0.100488  -0.028571  -0.004399   0.051498
   48  N 15  S   -0.009587  -0.011903   0.027011   0.035163  -0.008617
   49  N 15  X    0.007008  -0.078606  -0.088669  -0.014369   0.005055
   50  N 15  Y    0.049749   0.028375   0.086564   0.041456  -0.025303
   51  N 15  Z    0.073375   0.096247  -0.026503  -0.003026   0.061288
   52  C 16  S   -0.001619  -0.011199  -0.000311  -0.004771   0.012851
   53  C 16  S    0.001484   0.014288  -0.000171   0.006790  -0.016284
   54  C 16  X    0.002487   0.098785  -0.044132   0.009011  -0.047030
   55  C 16  Y   -0.085662  -0.043487   0.085499   0.008349  -0.035014
   56  C 16  Z   -0.038866  -0.058855  -0.129102  -0.022240   0.002276
   57  C 16  S   -0.001062   0.015223   0.005713   0.017545  -0.051788
   58  C 16  X    0.003083   0.026918  -0.035792  -0.000327  -0.024022
   59  C 16  Y   -0.051227  -0.045150   0.098599   0.035545  -0.025399
   60  C 16  Z   -0.012383  -0.035152  -0.094006  -0.002545   0.007665
   61  C 17  S   -0.024720  -0.059699  -0.004306  -0.004453   0.026849
   62  C 17  S    0.018791   0.047467   0.003740   0.004475  -0.026271
   63  C 17  X    0.031645   0.149484  -0.003483   0.013595  -0.192057
   64  C 17  Y   -0.091189  -0.101946  -0.136526   0.161480  -0.203205
   65  C 17  Z   -0.077505  -0.089402   0.159652  -0.110999  -0.164782
   66  C 17  S    0.162906   0.347405   0.014969   0.014449  -0.123151
   67  C 17  X    0.005872   0.043247   0.009541   0.020125  -0.210062
   68  C 17  Y   -0.056815  -0.042418  -0.125515   0.157504  -0.209107
   69  C 17  Z   -0.043948  -0.029430   0.146191  -0.115212  -0.167357
   70  C 18  S    0.063288   0.001690   0.007290   0.007611  -0.010626
   71  C 18  S   -0.051674  -0.000880  -0.005117  -0.005874   0.005673
   72  C 18  X    0.065002  -0.064674  -0.006674  -0.025329   0.222445
   73  C 18  Y   -0.087121  -0.021688  -0.082268   0.117844   0.158671
   74  C 18  Z   -0.086555  -0.014856   0.064223  -0.140690   0.101682
   75  C 18  S   -0.274717  -0.018117  -0.036669  -0.039851   0.125019
   76  C 18  X    0.049710  -0.007562   0.001467  -0.015704   0.121887
   77  C 18  Y   -0.049209  -0.008009  -0.047681   0.092473   0.108029
   78  C 18  Z   -0.050384  -0.005017   0.039799  -0.101250   0.046012
   79  C 19  S   -0.105421   0.074667  -0.006915  -0.003308  -0.007887
   80  C 19  S    0.090883  -0.062847   0.006164   0.002812   0.005105
   81  C 19  X   -0.036673   0.021259   0.005204   0.006033  -0.022757
   82  C 19  Y   -0.071107   0.028020  -0.035495   0.058766   0.125531
   83  C 19  Z   -0.071007   0.029831   0.019057  -0.079677   0.071664
   84  C 19  S    0.398543  -0.287081   0.026857   0.017017   0.022197
   85  C 19  X   -0.033004   0.009594   0.002008   0.001886  -0.007998
   86  C 19  Y   -0.036301   0.008772  -0.024770   0.044902   0.092997
   87  C 19  Z   -0.035504   0.009833   0.014726  -0.056683   0.054611
   88  H 20  S   -0.073382   0.057754   0.001733  -0.019148  -0.011102
   89  H 20  S   -0.024033   0.019025   0.001812  -0.014302  -0.005183
   90  H 21  S    0.096713  -0.058047   0.027468  -0.040930  -0.066694
   91  H 21  S    0.034620  -0.018021   0.014352  -0.027024  -0.049485
   92  N 22  S    0.005844   0.031577   0.000561   0.002179  -0.004259
   93  N 22  S   -0.004188  -0.022834  -0.000396  -0.000783   0.002302
   94  N 22  X   -0.028135  -0.210250   0.039961   0.045329   0.038804
   95  N 22  Y    0.081193   0.104210  -0.040202  -0.165119   0.024014
   96  N 22  Z    0.116513   0.153050   0.042170   0.214458   0.031847
   97  N 22  S   -0.034176  -0.174394  -0.006427  -0.016241   0.024334
   98  N 22  X   -0.059245  -0.282160   0.044332   0.059866   0.038396
   99  N 22  Y    0.093480   0.139933  -0.047995  -0.196467   0.022253
  100  N 22  Z    0.132131   0.195283   0.044542   0.247477   0.037306

                     26         27         28         29         30
                   -0.8597    -0.8316    -0.8042    -0.7816    -0.7264
                     A          A          A          A          A   
    1  C  1  S   -0.002828   0.002047   0.006447   0.000079   0.006203
    2  C  1  S    0.002245  -0.001292  -0.005081  -0.000048  -0.008911
    3  C  1  X    0.014512  -0.026790   0.080169   0.006800   0.310214
    4  C  1  Y    0.088778   0.004326  -0.127522  -0.157613   0.086502
    5  C  1  Z   -0.089603   0.017790  -0.138711   0.147243   0.082841
    6  C  1  S    0.013521  -0.011391  -0.033253  -0.000183   0.048456
    7  C  1  X    0.009178  -0.017873   0.073838   0.005539   0.228529
    8  C  1  Y    0.062956   0.003239  -0.099941  -0.118537   0.039885
    9  C  1  Z   -0.066221   0.016192  -0.108415   0.110006   0.037100
   10  H  2  S    0.002072   0.016055   0.000300   0.000596   0.002489
   11  H  2  S   -0.000287   0.016875   0.000876  -0.000689   0.002924
   12  H  3  S    0.000800  -0.008774   0.006975   0.002847   0.009902
   13  H  3  S    0.001960  -0.011807   0.021817   0.010465   0.021481
   14  H  4  S    0.011090  -0.021139   0.104655   0.003940   0.138355
   15  H  4  S    0.006892  -0.014722   0.075342   0.002902   0.118300
   16  H  5  S    0.066458   0.000071  -0.074469  -0.119922   0.042242
   17  H  5  S    0.047860   0.000730  -0.055345  -0.100500   0.050626
   18  H  6  S   -0.003713  -0.006937   0.004198  -0.000995  -0.007127
   19  H  6  S   -0.001296   0.003786   0.005178  -0.000364  -0.006684
   20  H  7  S    0.000712  -0.002599  -0.005886  -0.001076  -0.000254
   21  H  7  S   -0.000766   0.002048  -0.001747  -0.002017   0.000156
   22  H  8  S    0.123985  -0.009643   0.035813   0.069290   0.004501
   23  H  8  S    0.089917  -0.037914   0.040195   0.081955   0.017944
   24  H  9  S   -0.149291   0.042045   0.038988  -0.069618   0.008841
   25  H  9  S   -0.113712   0.044586   0.046736  -0.082907   0.024730
   26  H 10  S    0.085569  -0.001656   0.100039   0.160206   0.026007
   27  H 10  S    0.060902  -0.000712   0.092977   0.142693   0.030977
   28  H 11  S   -0.107727   0.007673   0.104566  -0.158261   0.025673
   29  H 11  S   -0.082056   0.008835   0.095797  -0.140955   0.032483
   30  H 12  S    0.002228   0.003095   0.005380   0.001105   0.001085
   31  H 12  S    0.002993   0.005790   0.004328   0.001203   0.001059
   32  H 13  S    0.119278  -0.018476   0.072889  -0.097244   0.052459
   33  H 13  S    0.088569  -0.016608   0.065578  -0.074630   0.056000
   34  N 14  S   -0.000759   0.006037   0.002702  -0.000210  -0.002634
   35  N 14  S    0.000291  -0.002493  -0.002427   0.000062   0.002403
   36  N 14  X    0.012650   0.013002  -0.007962   0.002417   0.011575
   37  N 14  Y   -0.070445  -0.154561  -0.013097  -0.009935   0.004170
   38  N 14  Z    0.053968   0.143295   0.014554   0.007559  -0.006909
   39  N 14  S    0.007192  -0.048644  -0.012166   0.002093   0.012458
   40  N 14  X    0.017722   0.020700  -0.007006   0.003657   0.014449
   41  N 14  Y   -0.084552  -0.198596  -0.016689  -0.011542   0.005045
   42  N 14  Z    0.065974   0.189125   0.018937   0.009711  -0.009094
   43  N 15  S    0.001643   0.001511   0.002082   0.000758   0.001756
   44  N 15  S   -0.000447  -0.000254  -0.001535  -0.000493  -0.001843
   45  N 15  X   -0.018207  -0.174986  -0.022228  -0.005539  -0.009395
   46  N 15  Y    0.021117   0.264073   0.018631   0.004808   0.006976
   47  N 15  Z   -0.033393  -0.262814  -0.012570  -0.006942  -0.004329
   48  N 15  S   -0.015052  -0.011935  -0.012312  -0.005424  -0.005570
   49  N 15  X   -0.020678  -0.210256  -0.027926  -0.005584  -0.008176
   50  N 15  Y    0.020519   0.330883   0.022818   0.003682   0.011025
   51  N 15  Z   -0.040828  -0.328111  -0.016496  -0.009324  -0.005998
   52  C 16  S    0.000577   0.003037  -0.002569   0.000470   0.008641
   53  C 16  S   -0.001570  -0.003855   0.003566  -0.000829  -0.011021
   54  C 16  X   -0.007055  -0.031731   0.010878  -0.002853  -0.029152
   55  C 16  Y    0.027199   0.083677   0.012911   0.007874  -0.013856
   56  C 16  Z   -0.021499  -0.093078  -0.006028  -0.006681  -0.002679
   57  C 16  S   -0.000255  -0.022782   0.005513  -0.000547  -0.035671
   58  C 16  X   -0.008328  -0.083560   0.000308  -0.003408  -0.020672
   59  C 16  Y    0.010703   0.091566   0.005825   0.001222  -0.007727
   60  C 16  Z   -0.030236  -0.106665  -0.011792  -0.008404  -0.002171
   61  C 17  S   -0.004336  -0.000586   0.000441  -0.000734   0.036780
   62  C 17  S    0.004042   0.000329  -0.003643   0.000638  -0.028291
   63  C 17  X    0.031057  -0.025549  -0.052436   0.001471  -0.090420
   64  C 17  Y   -0.129716  -0.007137  -0.051825  -0.064427  -0.063083
   65  C 17  Z    0.174638  -0.051317  -0.054311   0.062151  -0.067097
   66  C 17  S    0.023306   0.010444   0.006645   0.004040  -0.212688
   67  C 17  X    0.034483  -0.013655  -0.062448   0.002325  -0.096492
   68  C 17  Y   -0.130683  -0.002220  -0.048668  -0.059750  -0.087330
   69  C 17  Z    0.182240  -0.050696  -0.051320   0.059689  -0.091270
   70  C 18  S    0.000028   0.000621   0.012188   0.000153  -0.025689
   71  C 18  S    0.000530   0.000438  -0.013760  -0.000260   0.013820
   72  C 18  X   -0.032857   0.045349  -0.141915  -0.006554   0.135966
   73  C 18  Y    0.101988   0.002656   0.175582   0.186067   0.008237
   74  C 18  Z   -0.139479   0.011765   0.190699  -0.176123   0.005910
   75  C 18  S   -0.013144  -0.003932  -0.033836  -0.001230   0.176915
   76  C 18  X   -0.015715   0.032715  -0.174363  -0.005598   0.118567
   77  C 18  Y    0.120583  -0.007160   0.163222   0.196522  -0.014672
   78  C 18  Z   -0.142213   0.018287   0.179782  -0.185514  -0.018188
   79  C 19  S    0.002089  -0.001615  -0.003513   0.000194   0.029340
   80  C 19  S   -0.001356   0.001027  -0.001173  -0.000103  -0.023393
   81  C 19  X   -0.004091  -0.012646   0.200064   0.005649  -0.262960
   82  C 19  Y    0.144685   0.016050  -0.102088  -0.121416  -0.136293
   83  C 19  Z   -0.166375   0.033533  -0.115787   0.113700  -0.134709
   84  C 19  S   -0.009464   0.005131   0.081105  -0.000499  -0.163529
   85  C 19  X   -0.003623  -0.007831   0.120252   0.005216  -0.236934
   86  C 19  Y    0.107380   0.018293  -0.068329  -0.136294  -0.151550
   87  C 19  Z   -0.125781   0.023085  -0.079755   0.128583  -0.151609
   88  H 20  S   -0.064497   0.009715  -0.079689   0.115810   0.042920
   89  H 20  S   -0.047236   0.006534  -0.059634   0.097377   0.051059
   90  H 21  S   -0.108758  -0.007201   0.068069   0.099561   0.051526
   91  H 21  S   -0.080610  -0.002622   0.062449   0.076727   0.055160
   92  N 22  S   -0.000100  -0.009296   0.015396   0.000858  -0.014441
   93  N 22  S    0.000110   0.004199  -0.012507  -0.000157   0.009305
   94  N 22  X   -0.021780   0.006847  -0.044242  -0.004219   0.045640
   95  N 22  Y    0.058054  -0.088633   0.004844   0.010112  -0.013829
   96  N 22  Z   -0.087760   0.106597   0.019810  -0.015614  -0.000291
   97  N 22  S    0.001622   0.078813  -0.086305  -0.006910   0.096785
   98  N 22  X   -0.030767  -0.000283  -0.058616  -0.006992   0.070323
   99  N 22  Y    0.075202  -0.124941   0.010701   0.015522  -0.031520
  100  N 22  Z   -0.112013   0.139279   0.034252  -0.027242  -0.008621

                     31         32         33         34         35
                   -0.7125    -0.7040    -0.2266    -0.1553    -0.1085
                     A          A          A          A          A   
    1  C  1  S    0.006156   0.000116  -0.001029  -0.001431  -0.006466
    2  C  1  S   -0.008960  -0.000163   0.000635   0.001520   0.002899
    3  C  1  X   -0.116138  -0.005231  -0.003896   0.002921  -0.013015
    4  C  1  Y    0.194263   0.205125  -0.001459   0.003026  -0.007454
    5  C  1  Z    0.209006  -0.193559  -0.001052   0.002809  -0.007009
    6  C  1  S   -0.008128  -0.000069   0.008380   0.001163   0.056246
    7  C  1  X   -0.142077  -0.005787  -0.005223   0.022593  -0.016895
    8  C  1  Y    0.173700   0.200044  -0.000951   0.011282  -0.019571
    9  C  1  Z    0.187866  -0.188963  -0.003677   0.009230  -0.020587
   10  H  2  S   -0.000911   0.000034  -0.021337   0.041423  -0.060544
   11  H  2  S   -0.001580  -0.000326  -0.050002   0.649029  -0.413696
[...]
    2             0.000001   0.000130   0.000047   0.000010   0.000001
    3             0.001581   0.000014   0.000188   0.000258   0.000086
    4             0.050374   0.000154   0.000082   0.076313   0.150454
    5             0.023538   0.030294   0.032635   0.011531   0.060950
    6             0.000063   0.000195   0.000102   0.000206   0.000046
    7             0.000073   0.000446   0.000438   0.000019   0.000004
    8             0.006926   0.003204   0.013002   0.000919   0.000390
    9             0.005760   0.000224   0.020087   0.000315   0.000834
   10             0.043718   0.044451   0.055458   0.003399   0.008241
   11             0.043795   0.025660   0.074348   0.002494   0.008873
   12             0.000107   0.000113   0.000072   0.000014   0.000005
   13             0.024794   0.014694   0.025134   0.013936   0.041941
   14             0.004674   0.205267   0.152207   0.001225   0.000132
   15             0.007909   0.364180   0.175739   0.000164   0.000034
   16             0.001240   0.028357   0.021988   0.001813   0.000487
   17             0.024338   0.003792   0.022571   0.056607   0.000853
   18             0.308684   0.085081   0.156787   0.056491   0.124466
   19             0.215911   0.052329   0.073715   0.378617   0.134988
   20             0.025939   0.019491   0.040314   0.012719   0.066081
   21             0.023233   0.018809   0.021755   0.013369   0.039781
   22             0.008559   0.026173   0.003506   0.008461   0.002274

                     31

                  1.000000

    1             0.298273
    2             0.000000
    3             0.000008
    4             0.000015
    5             0.136593
    6             0.000000
    7            -0.000000
    8             0.000760
    9             0.000818
   10             0.015787
   11             0.015383
   12             0.000000
   13             0.099434
   14             0.000076
   15             0.000044
   16             0.000012
   17            -0.000008
   18             0.012883
   19             0.185976
   20             0.131187
   21             0.102684
   22             0.000075

     ATOMIC SPIN POPULATION (ALPHA MINUS BETA)
       ATOM         MULL.POP.                    LOW.POP.
    1 C            -0.000148                    -0.000003
    2 H            -0.032475                    -0.022683
    3 H            -0.058958                    -0.041197
    4 H             0.000284                     0.000232
    5 H             0.000054                     0.000033
    6 H            -0.033089                    -0.023347
    7 H             0.005214                     0.003142
    8 H             0.038955                     0.031538
    9 H             0.064130                     0.052679
   10 H            -0.001203                    -0.000821
   11 H            -0.000194                    -0.000285
   12 H             0.006015                     0.003670
   13 H             0.000066                     0.000118
   14 N             0.537451                     0.467523
   15 N            -0.085661                    -0.085271
   16 C            -0.353719                    -0.237964
   17 C            -0.120384                    -0.063818
   18 C             0.014638                     0.009918
   19 C            -0.001073                    -0.001051
   20 H             0.000132                     0.000132
   21 H             0.000108                     0.000164
   22 N             1.019857                     0.907292


          ********* ALL ELECTRONS ********

               ----- POPULATIONS IN EACH AO -----
                             MULLIKEN      LOWDIN
              1  C  1  S      1.98822     1.97642
              2  C  1  S      0.35130     0.41245
              3  C  1  X      0.52413     0.50127
              4  C  1  Y      0.54431     0.51295
              5  C  1  Z      0.54473     0.51333
              6  C  1  S      1.13657     0.58441
              7  C  1  X      0.43508     0.55567
              8  C  1  Y      0.52900     0.59640
              9  C  1  Z      0.53103     0.59712
             10  H  2  S      0.40710     0.41108
             11  H  2  S      0.11922     0.28984
             12  H  3  S      0.40557     0.41516
             13  H  3  S      0.09979     0.27769
             14  H  4  S      0.45870     0.45795
             15  H  4  S      0.27269     0.41320
             16  H  5  S      0.46340     0.46445
             17  H  5  S      0.30672     0.43016
             18  H  6  S      0.39989     0.40391
             19  H  6  S      0.10785     0.28231
             20  H  7  S      0.40985     0.41302
             21  H  7  S      0.13132     0.30217
             22  H  8  S      0.44914     0.45451
             23  H  8  S      0.20414     0.38514
             24  H  9  S      0.44395     0.44745
             25  H  9  S      0.19853     0.38247
             26  H 10  S      0.45885     0.46764
             27  H 10  S      0.27513     0.41687
             28  H 11  S      0.45930     0.46831
             29  H 11  S      0.27169     0.41503
             30  H 12  S      0.40458     0.40872
             31  H 12  S      0.13357     0.29731
             32  H 13  S      0.46332     0.47214
             33  H 13  S      0.29192     0.42409
             34  N 14  S      1.98803     1.97807
             35  N 14  S      0.37380     0.47380
             36  N 14  X      0.61038     0.58706
             37  N 14  Y      0.62627     0.61980
             38  N 14  Z      0.62092     0.60634
             39  N 14  S      1.35988     0.73039
             40  N 14  X      0.67368     0.66352
             41  N 14  Y      0.78523     0.76388
             42  N 14  Z      0.74055     0.71568
             43  N 15  S      1.98760     1.97738
             44  N 15  S      0.36198     0.45948
             45  N 15  X      0.63276     0.61645
             46  N 15  Y      0.62058     0.60944
             47  N 15  Z      0.63421     0.62370
             48  N 15  S      1.33670     0.72229
             49  N 15  X      0.80900     0.74665
             50  N 15  Y      0.73360     0.76172
             51  N 15  Z      0.75989     0.76993
             52  C 16  S      1.98547     1.97479
             53  C 16  S      0.44628     0.40883
             54  C 16  X      0.56889     0.53839
             55  C 16  Y      0.51272     0.48098
             56  C 16  Z      0.50983     0.47853
             57  C 16  S      0.35409     0.45612
             58  C 16  X     -0.05279     0.39117
             59  C 16  Y      0.20372     0.45082
             60  C 16  Z      0.21481     0.45052
             61  C 17  S      1.98914     1.97657
             62  C 17  S      0.36009     0.43081
             63  C 17  X      0.42546     0.41904
             64  C 17  Y      0.57372     0.54846
             65  C 17  Z      0.55994     0.53443
             66  C 17  S      1.10051     0.57903
             67  C 17  X      0.21934     0.42370
             68  C 17  Y      0.54430     0.57646
             69  C 17  Z      0.53613     0.57356
             70  C 18  S      1.98950     1.97642
             71  C 18  S      0.34501     0.41712
             72  C 18  X      0.50864     0.49807
             73  C 18  Y      0.54433     0.51775
             74  C 18  Z      0.54563     0.51933
             75  C 18  S      1.13949     0.57073
             76  C 18  X      0.33371     0.51454
             77  C 18  Y      0.52901     0.58334
             78  C 18  Z      0.52681     0.58296
             79  C 19  S      1.98923     1.97626
             80  C 19  S      0.34382     0.41042
             81  C 19  X      0.49875     0.48353
             82  C 19  Y      0.54860     0.52109
             83  C 19  Z      0.54660     0.51910
             84  C 19  S      1.13038     0.56851
             85  C 19  X      0.32100     0.51086
             86  C 19  Y      0.53535     0.58590
             87  C 19  Z      0.52933     0.58383
             88  H 20  S      0.46346     0.46449
             89  H 20  S      0.30741     0.43043
             90  H 21  S      0.46335     0.47224
             91  H 21  S      0.29201     0.42407
             92  N 22  S      1.98951     1.97937
             93  N 22  S      0.38281     0.49987
             94  N 22  X      0.63544     0.62804
             95  N 22  Y      0.60652     0.59507
             96  N 22  Z      0.56320     0.55991
             97  N 22  S      1.42000     0.73183
             98  N 22  X      0.68483     0.65536
             99  N 22  Y      0.70265     0.63917
            100  N 22  Z      0.65629     0.61195

          ----- MULLIKEN ATOMIC OVERLAP POPULATIONS -----
          (OFF-DIAGONAL ELEMENTS NEED TO BE MULTIPLIED BY 2)

             1           2           3           4           5

    1    5.3503989
    2   -0.0000000   0.2479527
    3   -0.0000056   0.0016939   0.2443904
    4    0.3807136   0.0000000   0.0000000   0.4274932
    5    0.3776541  -0.0000000   0.0000001  -0.0198971   0.4819702
    6    0.0000000  -0.0074249  -0.0000065  -0.0000000  -0.0000000
    7    0.0000000  -0.0000335  -0.0000364   0.0000000   0.0000000
    8   -0.0000386  -0.0000001   0.0013981   0.0000000   0.0000011
    9   -0.0000300   0.0000009   0.0007249  -0.0000003   0.0000026
   10    0.0001812  -0.0000001   0.0026535  -0.0000140   0.0021293
   11    0.0004222   0.0000007   0.0009957  -0.0000182  -0.0000081
   12   -0.0000000   0.0000052  -0.0000255   0.0000000   0.0000000
   13   -0.0347947  -0.0000000   0.0000041  -0.0014754  -0.0016959
   14   -0.0000000   0.3059671  -0.0004086   0.0000000   0.0000000
   15    0.0000000   0.0013587   0.0012224   0.0000000  -0.0000000
   16    0.0000003  -0.0225511  -0.0256335  -0.0000000   0.0000000
   17    0.0032813   0.0000008  -0.0179819  -0.0000565  -0.0000232
   18   -0.0697222  -0.0000065  -0.0006381   0.0030578  -0.0024709
   19    0.2336741   0.0000000   0.0000314  -0.0369866  -0.0462387
   20    0.3776059  -0.0000000   0.0000003  -0.0199181  -0.0238638
   21   -0.0349471  -0.0000000   0.0000043  -0.0015043   0.0025650
   22   -0.0000165  -0.0006480   0.2969730   0.0000000   0.0000001

             6           7           8           9          10

    6    0.2308209
    7    0.0000167   0.2561855
    8    0.0000006  -0.0005033   0.3700003
    9    0.0000009   0.0003691  -0.0177404   0.3634393
   10    0.0000000  -0.0000010   0.0022926  -0.0016677   0.4547941
   11    0.0000000   0.0000008  -0.0016973   0.0023022  -0.0214960
   12    0.0011478  -0.0082730   0.0000115  -0.0000018   0.0000000
   13    0.0000000   0.0000001  -0.0000220   0.0022613  -0.0017586
   14    0.3037747   0.0014559  -0.0000175  -0.0000290   0.0000003
   15   -0.0012016   0.3157414   0.0013052   0.0000546  -0.0000018
   16   -0.0208471  -0.0245331  -0.0007017  -0.0007347  -0.0000672
   17   -0.0000193   0.0023786   0.3555516   0.3501479  -0.0514115
   18    0.0000004   0.0000390  -0.0336534  -0.0330701   0.3796254
   19   -0.0000000  -0.0000007   0.0023173   0.0020814  -0.0330815
   20   -0.0000000  -0.0000000   0.0000028   0.0000013  -0.0000053
   21    0.0000000   0.0000001   0.0020978  -0.0000274   0.0026591
   22    0.0014754  -0.0016299  -0.0273314  -0.0256114  -0.0008442

            11          12          13          14          15

   11    0.4514081
   12    0.0000000   0.2522855
   13    0.0026045   0.0000000   0.4791101
   14    0.0000002  -0.0019427   0.0000000   6.9514783
   15   -0.0000008   0.3179093  -0.0000001  -0.0630990   7.0055980
   16   -0.0000709  -0.0245411   0.0000010   0.3384093   0.3597287
   17   -0.0512271   0.0000551  -0.0019667   0.0007006  -0.0025116
   18    0.3807064  -0.0000008  -0.0509719  -0.0000286   0.0001325
   19   -0.0327519   0.0000000   0.3854356   0.0000000  -0.0000004
   20    0.0020545   0.0000000   0.0025668   0.0000000  -0.0000000
   21   -0.0018256   0.0000000  -0.0240449  -0.0000000  -0.0000003
   22   -0.0004108   0.0015264  -0.0000124  -0.0575181  -0.0599181

            16          17          18          19          20

   16    4.0203350
   17   -0.0385768   5.6790270
   18    0.0020960   0.1462565   5.6287061
   19   -0.0000382  -0.0649703   0.1984839   5.4945440
   20    0.0000000  -0.0000204  -0.0024080  -0.0463355   0.4828351
   21    0.0000012  -0.0019381  -0.0510154   0.3854262  -0.0016543
   22    0.1807475   0.0019418  -0.0329830   0.0014813   0.0000002

            21          22

   21    0.4795765
   22   -0.0000120   7.3640387

          TOTAL MULLIKEN AND LOWDIN ATOMIC POPULATIONS
       ATOM         MULL.POP.    CHARGE          LOW.POP.     CHARGE
    1 C             6.584377   -0.584377         6.250015   -0.250015
    2 H             0.526316    0.473684         0.700924    0.299076
    3 H             0.505356    0.494644         0.692857    0.307143
    4 H             0.731394    0.268606         0.871145    0.128855
    5 H             0.770125    0.229875         0.894606    0.105394
    6 H             0.507738    0.492262         0.686217    0.313783
    7 H             0.541176    0.458824         0.715193    0.284807
    8 H             0.653273    0.346727         0.839651    0.160349
    9 H             0.642474    0.357526         0.829925    0.170075
   10 H             0.733987    0.266013         0.884509    0.115491
   11 H             0.730989    0.269011         0.883333    0.116667
   12 H             0.538156    0.461844         0.706029    0.293971
   13 H             0.755241    0.244759         0.896234    0.103766
   14 N             7.778743   -0.778743         7.138541   -0.138541
   15 N             7.876317   -0.876317         7.287032   -0.287032
   16 C             4.743024    1.256976         5.630132    0.369868
   17 C             6.308638   -0.308638         6.062073   -0.062073
   18 C             6.462135   -0.462135         6.180282   -0.180282
   19 C             6.443072   -0.443072         6.159499   -0.159499
   20 H             0.770862    0.229138         0.894917    0.105083
   21 H             0.755361    0.244639         0.896307    0.103693
   22 N             7.641249   -0.641249         6.900579    0.099421

          -------------------------------
          BOND ORDER AND VALENCE ANALYSIS     BOND ORDER THRESHOLD=0.050
          -------------------------------

                   BOND                       BOND                       BOND
  ATOM PAIR DIST  ORDER      ATOM PAIR DIST  ORDER      ATOM PAIR DIST  ORDER
    1   4  1.094  0.905        1   5  1.096  0.915        1  19  1.544  0.905
    1  20  1.096  0.915        2  14  1.015  0.753        3  22  1.017  0.724
    6  14  1.015  0.739        7  15  1.014  0.765        8  17  1.096  0.840
    9  17  1.098  0.821       10  18  1.098  0.893       11  18  1.097  0.893
   12  15  1.015  0.766       13  19  1.098  0.905       14  15  2.324  0.107
   14  16  1.346  1.187       14  22  2.328  0.060       15  16  1.343  1.206
   16  22  1.336  0.793       17  18  1.540  0.851       17  22  1.494  0.615
   18  19  1.547  0.870       19  21  1.098  0.905

                       TOTAL       BONDED        FREE
      ATOM            VALENCE     VALENCE     VALENCE
    1 C                 3.611       3.611       0.000
    2 H                 0.762       0.761       0.001
    3 H                 0.739       0.736       0.004
    4 H                 0.894       0.894       0.000
    5 H                 0.906       0.906       0.000
    6 H                 0.746       0.745       0.001
    7 H                 0.776       0.776       0.000
    8 H                 0.848       0.847       0.001
    9 H                 0.839       0.835       0.004
   10 H                 0.888       0.888       0.000
   11 H                 0.886       0.886       0.000
   12 H                 0.774       0.774       0.000
   13 H                 0.895       0.895       0.000
   14 N                 3.056       2.876       0.179
   15 N                 2.884       2.876       0.008
   16 C                 3.216       3.165       0.052
   17 C                 3.122       3.116       0.006
   18 C                 3.463       3.463       0.000
   19 C                 3.547       3.547       0.000
   20 H                 0.907       0.907       0.000
   21 H                 0.895       0.895       0.000
   22 N                 2.924       2.238       0.686

          -----------------------------------------
          ATOMIC SPIN DENSITY AT THE NUCLEUS (A.U.)
          -----------------------------------------
                            SPIN DENS    ALPHA DENS     BETA DENS
    1  C            6.0    -0.0000046      46.98606      46.98606
    2  H            1.0    -0.0127045       0.15362       0.16633
    3  H            1.0    -0.0242488       0.14772       0.17197
    4  H            1.0     0.0001268       0.17926       0.17913
    5  H            1.0     0.0000176       0.18133       0.18132
    6  H            1.0    -0.0130441       0.15046       0.16351
    7  H            1.0     0.0018443       0.16215       0.16030
    8  H            1.0     0.0171489       0.18408       0.16693
    9  H            1.0     0.0292132       0.18775       0.15853
   10  H            1.0    -0.0005702       0.17982       0.18039
   11  H            1.0    -0.0005749       0.18007       0.18065
   12  H            1.0     0.0020202       0.16007       0.15805
   13  H            1.0     0.0001668       0.18201       0.18184
   14  N            7.0     0.1665827      76.69807      76.53148
   15  N            7.0    -0.0295066      76.53157      76.56107
   16  C            6.0    -0.0840864      46.82849      46.91257
   17  C            6.0    -0.0324277      47.04199      47.07442
   18  C            6.0     0.0032984      47.05344      47.05014
   19  C            6.0    -0.0017993      47.02800      47.02980
   20  H            1.0     0.0000817       0.18139       0.18131
   21  H            1.0     0.0001474       0.18202       0.18187
   22  N            7.0     0.2936313      76.95118      76.65755

          ---------------------
          ELECTROSTATIC MOMENTS
          ---------------------

 POINT   1           X           Y           Z (BOHR)    CHARGE
                -3.499962   -0.230992    0.210355        2.00 (A.U.)
         DX          DY          DZ         /D/  (DEBYE)
   -13.617638   -0.458138    0.687282   13.642666
 ...... END OF PROPERTY EVALUATION ......
 CPU     0: STEP CPU TIME=     0.04 TOTAL CPU TIME=          2.7 (      0.0 MIN)
 TOTAL WALL CLOCK TIME=          2.8 SECONDS, CPU UTILIZATION IS    96.13%
               580000  WORDS OF DYNAMIC MEMORY USED
 EXECUTION OF GAMESS TERMINATED NORMALLY Sat May 16 14:27:59 2020
 DDI: 263640 bytes (0.3 MB / 0 MWords) used by master data server.
Note: The following floating-point exceptions are signalling:Note: The following floating-point exceptions are signalling:Note: The following floating-point exceptions are signalling: IEEE_DENORMAL
Note: The following floating-point exceptions are signalling: IEEE_DENORMAL IEEE_DENORMAL

 ----------------------------------------
 CPU timing information for all processes
 ========================================
 0: 2.584 + 0.157 = 2.742
 1: 2.517 + 0.40 = 2.557
 2: 2.531 + 0.28 = 2.559
 3: 2.549 + 0.20 = 2.569
 4: 2.545 + 0.36 = 2.581
 5: 2.576 + 0.12 = 2.588
 ----------------------------------------
 IEEE_DENORMAL
Note: The following floating-point exceptions are signalling: IEEE_DENORMAL
Note: The following floating-point exceptions are signalling: IEEE_DENORMAL

 ddikick.x: exited gracefully.
unset echo
----- accounting info -----
Files used on the master node pietdev were:
-rwxr-xr-x 1 piet piet     1355 mei 16 14:27 /home/piet/scr/arginineH_1__fukui_base.F05*
-rw-r--r-- 1 piet piet 68812800 mei 16 14:28 /home/piet/scr/arginineH_1__fukui_base.F10
ls: No match.
ls: No match.
ls: No match.
za 16 mei 2020 14:28:02 CEST
0.115u 0.023s 0:06.00 2.1%	0+0k 0+8io 0pf+0w
