----- GAMESS execution script 'rungms' -----
This job is running on host pietdev
under operating system Linux at za 16 mei 2020 14:24:24 CEST
Available scratch disk space (Kbyte units) at beginning of the job is
Filesystem     1K-blocks     Used Available Use% Mounted on
/dev/sda2      244568380 30215104 201860220  14% /
GAMESS temporary binary files will be written to /home/piet/scr
GAMESS supplementary output files will be written to /home/piet/gamess/scr
Copying input file arginineH_1__fukui_neu.inp to your run's scratch directory...
cp arginineH_1__fukui_neu.inp /home/piet/scr/arginineH_1__fukui_neu.F05
unset echo
 
Assuming a single but multicore node.
 
/home/piet/gamess/ddikick.x /home/piet/gamess/gamess.03.x arginineH_1__fukui_neu -ddi 1 6 pietdev:cpus=6 -scr /home/piet/scr

 Distributed Data Interface kickoff program.
 Initiating 6 compute processes on 1 nodes to run the following command:
 /home/piet/gamess/gamess.03.x arginineH_1__fukui_neu 

          ******************************************************
          *         GAMESS VERSION = 30 SEP 2019 (R2)          *
          *             FROM IOWA STATE UNIVERSITY             *
          * M.W.SCHMIDT, K.K.BALDRIDGE, J.A.BOATZ, S.T.ELBERT, *
          *   M.S.GORDON, J.H.JENSEN, S.KOSEKI, N.MATSUNAGA,   *
          *          K.A.NGUYEN, S.J.SU, T.L.WINDUS,           *
          *       TOGETHER WITH M.DUPUIS, J.A.MONTGOMERY       *
          *         J.COMPUT.CHEM.  14, 1347-1363(1993)        *
          **************** 64 BIT LINUX VERSION ****************

  SINCE 1993, STUDENTS AND POSTDOCS WORKING AT IOWA STATE UNIVERSITY
  AND ALSO IN THEIR VARIOUS JOBS AFTER LEAVING ISU HAVE MADE IMPORTANT
  CONTRIBUTIONS TO THE CODE:
     IVANA ADAMOVIC, CHRISTINE AIKENS, YURI ALEXEEV, POOJA ARORA,
     ANDREY ASADCHEV, ROB BELL, PRADIPTA BANDYOPADHYAY, JONATHAN BENTZ,
     COLLEEN BERTONI, BRETT BODE, KURT BRORSEN, CALEB CARLIN, GALINA CHABAN,
     WEI CHEN, CHEOL HO CHOI, PAUL DAY, ALBERT DEFUSCO, NUWAN DESILVA,
     TIM DUDLEY, DMITRI FEDOROV, ALEX FINDLATER, GRAHAM FLETCHER, 
     MARK FREITAG, KURT GLAESEMANN, EMILIE B GUIDEZ, ANASTASIA GUNINA, 
     DAN KEMP, SAROM SOK LEANG, GRANT MERRILL,
     NORIYUKI MINEZAWA, JONATHAN MULLIN,
     TAKESHI NAGATA, SEAN NEDD, HEATHER NETZLOFF, BOSILJKA NJEGIC, RYAN OLSON,
     MIKE PAK, BUU PHAM, DAVID POOLE,
     SPENCER PRUITT, LUKE ROSKOP, TOSAPORN SATTASATHUCHANA,
     JIM SHOEMAKER, LYUDMILA SLIPCHENKO,
     TONY SMITH, JIE SONG, TETSUYA TAKETSUGU, SIMON WEBB,
     JORGE LUIS GALVEZ VALLEJO, PENG XU, SOOHAENG YOO,
     FEDERICO ZAHARIEV

  ADDITIONAL CODE HAS BEEN PROVIDED BY COLLABORATORS IN OTHER GROUPS:
     IOWA STATE UNIVERSITY:
          JOE IVANIC, AARON WEST, LAIMUTIS BYTAUTAS, KLAUS RUEDENBERG
     UNIVERSITY OF TOKYO: KIMIHIKO HIRAO, TAKAHITO NAKAJIMA,
          TAKAO TSUNEDA, MUNEAKI KAMIYA, SUSUMU YANAGISAWA,
          KIYOSHI YAGI, MAHITO CHIBA, SEIKEN TOKURA, NAOAKI KAWAKAMI
     UNIVERSITY OF AARHUS: FRANK JENSEN
     UNIVERSITY OF IOWA: VISVALDAS KAIRYS, HUI LI
     NATIONAL INST. OF STANDARDS AND TECHNOLOGY: WALT STEVENS, DAVID GARMER
     UNIVERSITY OF PISA: BENEDETTA MENNUCCI, JACOPO TOMASI
     UNIVERSITY OF MEMPHIS: HENRY KURTZ, PRAKASHAN KORAMBATH
     UNIVERSITY OF ALBERTA: TOBY ZENG, MARIUSZ KLOBUKOWSKI
     UNIVERSITY OF NEW ENGLAND: MARK SPACKMAN
     MIE UNIVERSITY: HIROAKI UMEDA
     NAT. INST. OF ADVANCED INDUSTRIAL SCIENCE AND TECHNOLOGY: KAZUO KITAURA
     MICHIGAN STATE UNIVERSITY:
          KAROL KOWALSKI, MARTA WLOCH, JEFFREY GOUR, JESSE LUTZ,
          WEI LI, JUN SHEN, J. EMILIANO DEUSTUA, PIOTR PIECUCH
     UNIVERSITY OF MINNESOTA:
          ANDREW SAND, PRACHI SHARMA, YINAN SHU
     UNIVERSITY OF SILESIA: MONIKA MUSIAL, STANISLAW KUCHARSKI
     FACULTES UNIVERSITAIRES NOTRE-DAME DE LA PAIX:
          OLIVIER QUINET, BENOIT CHAMPAGNE
     UNIVERSITY OF CALIFORNIA - SANTA BARBARA: BERNARD KIRTMAN
     INSTITUTE FOR MOLECULAR SCIENCE:
          KAZUYA ISHIMURA, MICHIO KATOUDA, AND SHIGERU NAGASE
     UNIVERSITY OF NOTRE DAME: ANNA POMOGAEVA, DAN CHIPMAN
     KYUSHU UNIVERSITY:
          HARUYUKI NAKANO,
          FENG LONG GU, JACEK KORCHOWIEC, MARCIN MAKOWSKI, AND YURIKO AOKI,
          HIROTOSHI MORI AND EISAKU MIYOSHI
     PENNSYLVANIA STATE UNIVERSITY:
          TZVETELIN IORDANOV, CHET SWALINA, JONATHAN SKONE,
          SHARON HAMMES-SCHIFFER
     WASEDA UNIVERSITY:
          MASATO KOBAYASHI, TOMOKO AKAMA, TSUGUKI TOUMA,
          TAKESHI YOSHIKAWA, YASUHIRO IKABATA, JUNJI SEINO,
          YUYA NAKAJIMA, HIROMI NAKAI
     NANJING UNIVERSITY: SHUHUA LI
     UNIVERSITY OF NEBRASKA:
          PEIFENG SU, DEJUN SI, NANDUN THELLAMUREGE, YALI WANG, HUI LI
     UNIVERSITY OF ZURICH: ROBERTO PEVERATI, KIM BALDRIDGE
     N. COPERNICUS UNIVERSITY AND JACKSON STATE UNIVERSITY:
          MARIA BARYSZ
     UNIVERSITY OF COPENHAGEN: Jimmy Kromann, CASPER STEINMANN
     TOKYO INSTITUTE OF TECHNOLOGY: HIROYA NAKATA
     NAGOYA UNIVERSITY: YOSHIO NISHIMOTO, STEPHAN IRLE
     MOSCOW STATE UNIVERSITY: VLADIMIR MIRONOV
     A.N.NESMEYANOV INSTITUTE OF ORGANOELEMENT COMPOUNDS OF RUSSIAN ACADEMY OF SCIENCES:
          IGOR S. GERASIMOV
     JOHANNES KEPLER UNIVERSITY LINZ:
          CHRISTIAN FRIEDL


 PARALLEL VERSION RUNNING ON        6 PROCESSORS IN        1 NODES.

 EXECUTION OF GAMESS BEGUN Sat May 16 14:24:24 2020

            ECHO OF THE FIRST FEW INPUT CARDS -
 INPUT CARD> $BASIS GBASIS=N21 NGAUSS=3 $END                                                
 INPUT CARD> $CONTRL SCFTYP=RHF MAXIT=60 MULT=1 ICHARG=1 $END                               
 INPUT CARD> $SYSTEM MEMDDI=1000 MWORDS=30 $END                                             
 INPUT CARD> $SCF DIRSCF=.TRUE. $END                                                        
 INPUT CARD> $DATA                                                                          
 INPUT CARD>                                                                                
 INPUT CARD>C1                                                                              
 INPUT CARD>C 6.0000000 2.2343888172 0.5225300418 0.4812673728                              
 INPUT CARD>H 1.0000000 -4.9383131871 0.6684573026 1.6505337536                             
 INPUT CARD>H 1.0000000 -2.7305933126 1.0830822712 0.8358536821                             
 INPUT CARD>H 1.0000000 3.1668025760 0.1311235830 0.0629654246                              
 INPUT CARD>H 1.0000000 2.2152644344 1.6058479018 0.3168347902                              
 INPUT CARD>H 1.0000000 -5.9990882628 -0.2042933219 0.5962822612                            
 INPUT CARD>H 1.0000000 -3.4244059048 -1.5365298887 -1.4590507951                           
 INPUT CARD>H 1.0000000 -1.4874992692 -1.3802685480 -0.1215527305                           
 INPUT CARD>H 1.0000000 -1.4987714813 -0.0919817883 -1.3658524211                           
 INPUT CARD>H 1.0000000 -0.3683892125 1.4607320196 0.2370349894                             
 INPUT CARD>H 1.0000000 -0.3515367359 0.1765066120 1.4704251406                             
 INPUT CARD>H 1.0000000 -4.9834223368 -1.9036075913 -0.7971782504                           
 INPUT CARD>H 1.0000000 1.0431042619 0.0293335440 -1.2682858640                             
 INPUT CARD>N 7.0000000 -5.0528601892 0.0678596209 0.8409570816                             
 INPUT CARD>N 7.0000000 -4.1452740962 -1.3323159773 -0.7761953240                           
 INPUT CARD>C 6.0000000 -3.9932602292 -0.3419233595 0.1183540864                            
 INPUT CARD>C 6.0000000 -1.5225549010 -0.2975193949 -0.2879498322                           
 INPUT CARD>C 6.0000000 -0.3151757906 0.3746334330 0.3921248069                             
 INPUT CARD>C 6.0000000 1.0181920903 -0.1547467320 -0.1863788350                            
 INPUT CARD>H 1.0000000 2.2401444514 0.3354438277 1.5610372246                              
 INPUT CARD>H 1.0000000 1.0726281150 -1.2404719015 -0.0336235259                            
 INPUT CARD>N 7.0000000 -2.7958798369 0.2249583458 0.2935969641                             
 INPUT CARD> $END                                                                           
   30000000 WORDS OF MEMORY AVAILABLE

     BASIS OPTIONS
     -------------
     GBASIS=N21          IGAUSS=       3      POLAR=NONE    
     NDFUNC=       0     NFFUNC=       0     DIFFSP=       F
     NPFUNC=       0      DIFFS=       F     BASNAM=        


     RUN TITLE
     ---------
                                                                                 

 THE POINT GROUP OF THE MOLECULE IS C1      
 THE ORDER OF THE PRINCIPAL AXIS IS     0

 ATOM      ATOMIC                      COORDINATES (BOHR)
           CHARGE         X                   Y                   Z
 C           6.0     4.2223826145        0.9874385994        0.9094634614
 H           1.0    -9.3320587652        1.2632011364        3.1190565278
 H           1.0    -5.1600731447        2.0467287147        1.5795344250
 H           1.0     5.9843891259        0.2477876424        0.1189873992
 H           1.0     4.1862427714        3.0346125124        0.5987309369
 H           1.0   -11.3366329929       -0.3860583995        1.1268100850
 H           1.0    -6.4711888308       -2.9036204616       -2.7572062049
 H           1.0    -2.8109660257       -2.6083293452       -0.2297013537
 H           1.0    -2.8322674179       -0.1738203757       -2.5810868155
 H           1.0    -0.6961546685        2.7603832585        0.4479311795
 H           1.0    -0.6643081055        0.3335491317        2.7787006012
 H           1.0    -9.4173026976       -3.5972967357       -1.5064484566
 H           1.0     1.9711812316        0.0554323604       -2.3967127571
 N           7.0    -9.5485212119        0.1282360891        1.5891784517
 N           7.0    -7.8334321858       -2.5177121262       -1.4667964753
 C           6.0    -7.5461676309       -0.6461414583        0.2236567928
 C           6.0    -2.8772115642       -0.5622301324       -0.5441462811
 C           6.0    -0.5955958822        0.7079545342        0.7410084380
 C           6.0     1.9241040535       -0.2924289210       -0.3522049281
 H           1.0     4.2332591861        0.6338969186        2.9499326111
 H           1.0     2.0269732241       -2.3441519893       -0.0635392507
 N           7.0    -5.2834467863        0.4251096322        0.5548178130

          INTERNUCLEAR DISTANCES (ANGS.)
          ------------------------------

                1 C          2 H          3 H          4 H          5 H     

   1 C       0.0000000    7.2688467    5.0090915    1.0943359 *  1.0958930 *
   2 H       7.2688467    0.0000000    2.3894862 *  8.2765936    7.3369699  
   3 H       5.0090915    2.3894862 *  0.0000000    6.0235255    5.0004173  
   4 H       1.0943359 *  8.2765936    6.0235255    0.0000000    1.7733263 *
   5 H       1.0958930 *  7.3369699    5.0004173    1.7733263 *  0.0000000  
   6 H       8.2662958    1.7315841 *  3.5210495    9.1875180    8.4160735  
   7 H       6.3266516    4.1016338    3.5511027    6.9671824    6.6958337  
   8 H       4.2233264    4.3869904    2.9206176 *  4.8970275    4.7769796  
   9 H       4.2102212    4.6375964    2.7831044 *  4.8845550    4.4168003  
  10 H       2.7774675 *  4.8486991    2.4660112 *  3.7809707    2.5889559 *
  11 H       2.7901929 *  4.6165975    2.6238275 *  3.7896852    3.1563041  
  12 H       7.7212282    3.5508938    4.0819540    8.4442965    8.0856907  
  13 H       2.1733242 *  6.6862053    4.4473119    2.5085226 *  2.5242750 *
  14 N       7.3102736    1.0145211 *  2.5344874 *  8.2566415    7.4475330  
  15 N       6.7617871    3.2436120    3.2301970    7.5041529    7.0911192  
  16 C       6.2978249    2.0643567 *  2.0346436 *  7.1758861    6.5099144  
  17 C       3.9215816    4.0445314    2.1513605 *  4.7219646    4.2379081  
  18 C       2.5554059 *  4.8003463    2.5559806 *  3.5059687    2.8150818 *
  19 C       1.5438879 *  6.2874373    4.0780598    2.1818390 *  2.1876699 *
  20 H       1.0958729 *  7.1867351    5.0786896    1.7733192 *  1.7783659 *
  21 H       2.1732410 *  6.5277723    4.5408576    2.5052286 *  3.0870658  
  22 N       5.0425561    2.5744882 *  1.0171929 *  5.9678788    5.1979768  

                6 H          7 H          8 H          9 H         10 H     

   1 C       8.2662958    6.3266516    4.2233264    4.2102212    2.7774675 *
   2 H       1.7315841 *  4.1016338    4.3869904    4.6375964    4.8486991  
   3 H       3.5210495    3.5511027    2.9206176 *  2.7831044 *  2.4660112 *
   4 H       9.1875180    6.9671824    4.8970275    4.8845550    3.7809707  
   5 H       8.4160735    6.6958337    4.7769796    4.4168003    2.5889559 *
   6 H       0.0000000    3.5536231    4.7172704    4.9107471    5.8826983  
   7 H       3.5536231    0.0000000    2.3590095 *  2.4090399 *  4.6042941  
   8 H       4.7172704    2.3590095 *  0.0000000    1.7911146 *  3.0744555  
   9 H       4.9107471    2.4090399 *  1.7911146 *  0.0000000    2.5015860 *
  10 H       5.8826983    4.6042941    3.0744555    2.5015860 *  0.0000000  
  11 H       5.7274752    4.5780835    2.4996706 *  3.0712707    1.7806657 *
  12 H       2.4209458 *  1.7330186 *  3.5988653    3.9683964    5.8040425  
  13 H       7.2885987    4.7378230    3.1154340    2.5466388 *  2.5114152 *
  14 N       1.0145347 *  3.2428329    3.9667744    4.1865384    4.9243359  
  15 N       2.5676364 *  1.0137287 *  2.7376310 *  2.9816272 *  4.8054773  
  16 C       2.0665680 *  2.0588555 *  2.7229679 *  2.9133853 *  4.0501039  
  17 C       4.5639795    2.5541460 *  1.0960213 *  1.0975816 *  2.1677536 *
  18 C       5.7169658    4.0922742    2.1720700 *  2.1700490 *  1.0984055 *
  19 C       7.0609657    4.8234527    2.7900888 *  2.7803243 *  2.1706355 *
  20 H       8.3130635    6.6867292    4.4350993    4.7674803    3.1342788  
  21 H       7.1749300    4.7268180    2.5654487 *  3.1154389    3.0734817  
  22 N       3.2459852    2.5631348 *  2.1120990 *  2.1299562 *  2.7245269 *

               11 H         12 H         13 H         14 N         15 N     

   1 C       2.7901929 *  7.7212282    2.1733242 *  7.3102736    6.7617871  
   2 H       4.6165975    3.5508938    6.6862053    1.0145211 *  3.2436120  
   3 H       2.6238275 *  4.0819540    4.4473119    2.5344874 *  3.2301970  
   4 H       3.7896852    8.4442965    2.5085226 *  8.2566415    7.5041529  
   5 H       3.1563041    8.0856907    2.5242750 *  7.4475330    7.0911192  
   6 H       5.7274752    2.4209458 *  7.2885987    1.0145347 *  2.5676364 *
   7 H       4.5780835    1.7330186 *  4.7378230    3.2428329    1.0137287 *
   8 H       2.4996706 *  3.5988653    3.1154340    3.9667744    2.7376310 *
   9 H       3.0712707    3.9683964    2.5466388 *  4.1865384    2.9816272 *
  10 H       1.7806657 *  5.8040425    2.5114152 *  4.9243359    4.8054773  
  11 H       0.0000000    5.5608690    3.0768850    4.7445207    4.6600743  
  12 H       5.5608690    0.0000000    6.3464342    2.5641747 *  1.0145476 *
  13 H       3.0768850    6.3464342    0.0000000    6.4506723    5.3866049  
  14 N       4.7445207    2.5641747 *  6.4506723    0.0000000    2.3236579 *
  15 N       4.6600743    1.0145476 *  5.3866049    2.3236579 *  0.0000000  
  16 C       3.9190580    2.0633657 *  5.2369427    1.3464135 *  1.3432068 *
  17 C       2.1651482 *  3.8492124    2.7659535 *  3.7243775    2.8614408 *
  18 C       1.0969539 *  5.3289164    2.1728139 *  4.7687749    4.3529647  
  19 C       2.1750598 *  6.2810004    1.0977381 *  6.1613836    5.3287837  
  20 H       2.5981307 *  7.9217705    3.0873416    7.3333508    7.0012605  
  21 H       2.5096287 *  6.1399114    1.7713466 *  6.3244154    5.2712761  
  22 N       2.7133163 *  3.2412846    4.1491621    2.3277121 *  2.3217286 *

               16 C         17 C         18 C         19 C         20 H     

   1 C       6.2978249    3.9215816    2.5554059 *  1.5438879 *  1.0958729 *
   2 H       2.0643567 *  4.0445314    4.8003463    6.2874373    7.1867351  
   3 H       2.0346436 *  2.1513605 *  2.5559806 *  4.0780598    5.0786896  
   4 H       7.1758861    4.7219646    3.5059687    2.1818390 *  1.7733192 *
   5 H       6.5099144    4.2379081    2.8150818 *  2.1876699 *  1.7783659 *
   6 H       2.0665680 *  4.5639795    5.7169658    7.0609657    8.3130635  
   7 H       2.0588555 *  2.5541460 *  4.0922742    4.8234527    6.6867292  
   8 H       2.7229679 *  1.0960213 *  2.1720700 *  2.7900888 *  4.4350993  
   9 H       2.9133853 *  1.0975816 *  2.1700490 *  2.7803243 *  4.7674803  
  10 H       4.0501039    2.1677536 *  1.0984055 *  2.1706355 *  3.1342788  
  11 H       3.9190580    2.1651482 *  1.0969539 *  2.1750598 *  2.5981307 *
  12 H       2.0633657 *  3.8492124    5.3289164    6.2810004    7.9217705  
  13 H       5.2369427    2.7659535 *  2.1728139 *  1.0977381 *  3.0873416  
  14 N       1.3464135 *  3.7243775    4.7687749    6.1613836    7.3333508  
  15 N       1.3432068 *  2.8614408 *  4.3529647    5.3287837    7.0012605  
  16 C       0.0000000    2.5042842 *  3.7572209    5.0241966    6.4339331  
  17 C       2.5042842 *  0.0000000    1.5401478 *  2.5467815 *  4.2399649  
  18 C       3.7572209    1.5401478 *  0.0000000    1.5468613 *  2.8102586 *
  19 C       5.0241966    2.5467815 *  1.5468613 *  0.0000000    2.1879025 *
  20 H       6.4339331    4.2399649    2.8102586 *  2.1879025 *  0.0000000  
  21 H       5.1472042    2.7728715 *  2.1715954 *  1.0977689 *  2.5277555 *
  22 N       1.3363326 *  1.4941673 *  2.4871677 *  3.8628613    5.1942422  

               21 H         22 N     

   1 C       2.1732410 *  5.0425561  
   2 H       6.5277723    2.5744882 *
   3 H       4.5408576    1.0171929 *
   4 H       2.5052286 *  5.9678788  
   5 H       3.0870658    5.1979768  
   6 H       7.1749300    3.2459852  
   7 H       4.7268180    2.5631348 *
   8 H       2.5654487 *  2.1120990 *
   9 H       3.1154389    2.1299562 *
  10 H       3.0734817    2.7245269 *
  11 H       2.5096287 *  2.7133163 *
  12 H       6.1399114    3.2412846  
  13 H       1.7713466 *  4.1491621  
  14 N       6.3244154    2.3277121 *
  15 N       5.2712761    2.3217286 *
  16 C       5.1472042    1.3363326 *
  17 C       2.7728715 *  1.4941673 *
  18 C       2.1715954 *  2.4871677 *
  19 C       1.0977689 *  3.8628613  
  20 H       2.5277555 *  5.1942422  
  21 H       0.0000000    4.1496883  
  22 N       4.1496883    0.0000000  

  * ... LESS THAN  3.000


     ATOMIC BASIS SET
     ----------------
 THE CONTRACTED PRIMITIVE FUNCTIONS HAVE BEEN UNNORMALIZED
 THE CONTRACTED BASIS FUNCTIONS ARE NOW NORMALIZED TO UNITY

  SHELL TYPE  PRIMITIVE        EXPONENT          CONTRACTION COEFFICIENT(S)

 C         

      1   S       1           172.2560000    0.061766907377
      1   S       2            25.9109000    0.358794042852
      1   S       3             5.5333500    0.700713083689

      2   L       4             3.6649800   -0.395895162119    0.236459946619
      2   L       5             0.7705450    1.215834355681    0.860618805716

      3   L       6             0.1958570    1.000000000000    1.000000000000

 H         

      4   S       7             5.4471780    0.156284978695
      4   S       8             0.8245472    0.904690876670

      5   S       9             0.1831916    1.000000000000

 H         

      6   S      10             5.4471780    0.156284978695
      6   S      11             0.8245472    0.904690876670

      7   S      12             0.1831916    1.000000000000

 H         

      8   S      13             5.4471780    0.156284978695
      8   S      14             0.8245472    0.904690876670

      9   S      15             0.1831916    1.000000000000

 H         

     10   S      16             5.4471780    0.156284978695
     10   S      17             0.8245472    0.904690876670

     11   S      18             0.1831916    1.000000000000

 H         

     12   S      19             5.4471780    0.156284978695
     12   S      20             0.8245472    0.904690876670

     13   S      21             0.1831916    1.000000000000

 H         

     14   S      22             5.4471780    0.156284978695
     14   S      23             0.8245472    0.904690876670

     15   S      24             0.1831916    1.000000000000

 H         

     16   S      25             5.4471780    0.156284978695
     16   S      26             0.8245472    0.904690876670

     17   S      27             0.1831916    1.000000000000

 H         

     18   S      28             5.4471780    0.156284978695
     18   S      29             0.8245472    0.904690876670

     19   S      30             0.1831916    1.000000000000

 H         

     20   S      31             5.4471780    0.156284978695
     20   S      32             0.8245472    0.904690876670

     21   S      33             0.1831916    1.000000000000

 H         

     22   S      34             5.4471780    0.156284978695
     22   S      35             0.8245472    0.904690876670

     23   S      36             0.1831916    1.000000000000

 H         

     24   S      37             5.4471780    0.156284978695
     24   S      38             0.8245472    0.904690876670

     25   S      39             0.1831916    1.000000000000

 H         

     26   S      40             5.4471780    0.156284978695
     26   S      41             0.8245472    0.904690876670

     27   S      42             0.1831916    1.000000000000

 N         

     28   S      43           242.7660000    0.059865700508
     28   S      44            36.4851000    0.352955002994
     28   S      45             7.8144900    0.706513005993

     29   L      46             5.4252200   -0.413300077430    0.237972016222
     29   L      47             1.1491500    1.224417266851    0.858953058551

     30   L      48             0.2832050    1.000000000000    1.000000000000

 N         

     31   S      49           242.7660000    0.059865700508
     31   S      50            36.4851000    0.352955002994
     31   S      51             7.8144900    0.706513005993

     32   L      52             5.4252200   -0.413300077430    0.237972016222
     32   L      53             1.1491500    1.224417266851    0.858953058551

     33   L      54             0.2832050    1.000000000000    1.000000000000

 C         

     34   S      55           172.2560000    0.061766907377
     34   S      56            25.9109000    0.358794042852
     34   S      57             5.5333500    0.700713083689

     35   L      58             3.6649800   -0.395895162119    0.236459946619
     35   L      59             0.7705450    1.215834355681    0.860618805716

     36   L      60             0.1958570    1.000000000000    1.000000000000

 C         

     37   S      61           172.2560000    0.061766907377
     37   S      62            25.9109000    0.358794042852
     37   S      63             5.5333500    0.700713083689

     38   L      64             3.6649800   -0.395895162119    0.236459946619
     38   L      65             0.7705450    1.215834355681    0.860618805716

     39   L      66             0.1958570    1.000000000000    1.000000000000

 C         

     40   S      67           172.2560000    0.061766907377
     40   S      68            25.9109000    0.358794042852
     40   S      69             5.5333500    0.700713083689

     41   L      70             3.6649800   -0.395895162119    0.236459946619
     41   L      71             0.7705450    1.215834355681    0.860618805716

     42   L      72             0.1958570    1.000000000000    1.000000000000

 C         

     43   S      73           172.2560000    0.061766907377
     43   S      74            25.9109000    0.358794042852
     43   S      75             5.5333500    0.700713083689

     44   L      76             3.6649800   -0.395895162119    0.236459946619
     44   L      77             0.7705450    1.215834355681    0.860618805716

     45   L      78             0.1958570    1.000000000000    1.000000000000

 H         

     46   S      79             5.4471780    0.156284978695
     46   S      80             0.8245472    0.904690876670

     47   S      81             0.1831916    1.000000000000

 H         

     48   S      82             5.4471780    0.156284978695
     48   S      83             0.8245472    0.904690876670

     49   S      84             0.1831916    1.000000000000

 N         

     50   S      85           242.7660000    0.059865700508
     50   S      86            36.4851000    0.352955002994
     50   S      87             7.8144900    0.706513005993

     51   L      88             5.4252200   -0.413300077430    0.237972016222
     51   L      89             1.1491500    1.224417266851    0.858953058551

     52   L      90             0.2832050    1.000000000000    1.000000000000

 TOTAL NUMBER OF BASIS SET SHELLS             =   52
 NUMBER OF CARTESIAN GAUSSIAN BASIS FUNCTIONS =  100
 NUMBER OF ELECTRONS                          =   64
 CHARGE OF MOLECULE                           =    1
 SPIN MULTIPLICITY                            =    1
 NUMBER OF OCCUPIED ORBITALS (ALPHA)          =   32
 NUMBER OF OCCUPIED ORBITALS (BETA )          =   32
 TOTAL NUMBER OF ATOMS                        =   22
 THE NUCLEAR REPULSION ENERGY IS      386.1217747557

     $CONTRL OPTIONS
     ---------------
 SCFTYP=RHF          RUNTYP=ENERGY       EXETYP=RUN     
 MPLEVL=       0     CITYP =NONE         CCTYP =NONE         VBTYP =NONE    
 DFTTYP=NONE         TDDFT =NONE    
 MULT  =       1     ICHARG=       1     NZVAR =       0     COORD =UNIQUE  
 PP    =NONE         RELWFN=NONE         LOCAL =NONE         NUMGRD=       F
 ISPHER=      -1     NOSYM =       0     MAXIT =      60     UNITS =ANGS    
 PLTORB=       F     MOLPLT=       F     AIMPAC=       F     FRIEND=        
 NPRINT=       7     IREST =       0     GEOM  =INPUT   
 NORMF =       0     NORMP =       0     ITOL  =      20     ICUT  =       9
 INTTYP=BEST         GRDTYP=BEST         QMTTOL= 1.0E-06

     $SYSTEM OPTIONS
     ---------------
  REPLICATED MEMORY=    30000000 WORDS (ON EVERY NODE).
 DISTRIBUTED MEMDDI=        1000 MILLION WORDS IN AGGREGATE,
 MEMDDI DISTRIBUTED OVER   6 PROCESSORS IS   166666666 WORDS/PROCESSOR.
 TOTAL MEMORY REQUESTED ON EACH PROCESSOR=   196666666 WORDS.
 TIMLIM=      525600.00 MINUTES, OR     365.0 DAYS.
 PARALL= T  BALTYP=  DLB     KDIAG=    0  COREFL= F
 MXSEQ2=     300 MXSEQ3=     150  mem10=         0

          ----------------
          PROPERTIES INPUT
          ----------------

     MOMENTS            FIELD           POTENTIAL          DENSITY
 IEMOM =       1   IEFLD =       0   IEPOT =       0   IEDEN =       0
 WHERE =COMASS     WHERE =NUCLEI     WHERE =NUCLEI     WHERE =NUCLEI  
 OUTPUT=BOTH       OUTPUT=BOTH       OUTPUT=BOTH       OUTPUT=BOTH    
 IEMINT=       0   IEFINT=       0                     IEDINT=       0
                                                       MORB  =       0
          EXTRAPOLATION IN EFFECT
          SOSCF IN EFFECT
 ORBITAL PRINTING OPTION: NPREO=     1   100     2     1

     -------------------------------
     INTEGRAL TRANSFORMATION OPTIONS
     -------------------------------
     NWORD  =            0
     CUTOFF = 1.0E-09     MPTRAN =       0
     DIRTRF =       T     AOINTS =DUP     

          ----------------------
          INTEGRAL INPUT OPTIONS
          ----------------------
 NOPK  =       1 NORDER=       0 SCHWRZ=       T

     ------------------------------------------
     THE POINT GROUP IS C1 , NAXIS= 0, ORDER= 1
     ------------------------------------------

     DIMENSIONS OF THE SYMMETRY SUBSPACES ARE
 A   =  100

 ..... DONE SETTING UP THE RUN .....
 CPU     0: STEP CPU TIME=     0.03 TOTAL CPU TIME=          0.0 (      0.0 MIN)
 TOTAL WALL CLOCK TIME=          0.0 SECONDS, CPU UTILIZATION IS    75.00%

          ********************
          1 ELECTRON INTEGRALS
          ********************
 ...... END OF ONE-ELECTRON INTEGRALS ......
 CPU     0: STEP CPU TIME=     0.01 TOTAL CPU TIME=          0.0 (      0.0 MIN)
 TOTAL WALL CLOCK TIME=          0.0 SECONDS, CPU UTILIZATION IS    80.00%

          -------------
          GUESS OPTIONS
          -------------
          GUESS =HUCKEL            NORB  =       0          NORDER=       0
          MIX   =       F          PRTMO =       F          PUNMO =       F
          TOLZ  = 1.0E-08          TOLE  = 1.0E-05
          SYMDEN=       F          PURIFY=       F

 INITIAL GUESS ORBITALS GENERATED BY HUCKEL   ROUTINE.
 HUCKEL GUESS REQUIRES    100122 WORDS.

 SYMMETRIES FOR INITIAL GUESS ORBITALS FOLLOW.   BOTH SET(S).
    32 ORBITALS ARE OCCUPIED (    8 CORE ORBITALS).
     9=A       10=A       11=A       12=A       13=A       14=A       15=A   
    16=A       17=A       18=A       19=A       20=A       21=A       22=A   
    23=A       24=A       25=A       26=A       27=A       28=A       29=A   
    30=A       31=A       32=A       33=A       34=A       35=A       36=A   
    37=A       38=A       39=A       40=A       41=A       42=A   
 ...... END OF INITIAL ORBITAL SELECTION ......
 CPU     0: STEP CPU TIME=     0.01 TOTAL CPU TIME=          0.0 (      0.0 MIN)
 TOTAL WALL CLOCK TIME=          0.1 SECONDS, CPU UTILIZATION IS    71.43%

                    ----------------------
                    AO INTEGRAL TECHNOLOGY
                    ----------------------
     S,P,L SHELL ROTATED AXIS INTEGRALS, REPROGRAMMED BY
        KAZUYA ISHIMURA (IMS) AND JOSE SIERRA (SYNSTAR).
     S,P,D,L SHELL ROTATED AXIS INTEGRALS PROGRAMMED BY
        KAZUYA ISHIMURA (INSTITUTE FOR MOLECULAR SCIENCE).
     S,P,D,F,G SHELL TO TOTAL QUARTET ANGULAR MOMENTUM SUM 5,
        ERIC PROGRAM BY GRAHAM FLETCHER (ELORET AND NASA ADVANCED
        SUPERCOMPUTING DIVISION, AMES RESEARCH CENTER).
     S,P,D,F,G,L SHELL GENERAL RYS QUADRATURE PROGRAMMED BY
        MICHEL DUPUIS (PACIFIC NORTHWEST NATIONAL LABORATORY).

          --------------------
          2 ELECTRON INTEGRALS
          --------------------

 DIRECT SCF METHOD SKIPS INTEGRAL STORAGE ON DISK.
 DIRECT TRANSFORMATION SKIPS AO INTEGRAL STORAGE ON DISK.
  ...... END OF TWO-ELECTRON INTEGRALS .....
 CPU     0: STEP CPU TIME=     0.02 TOTAL CPU TIME=          0.1 (      0.0 MIN)
 TOTAL WALL CLOCK TIME=          0.1 SECONDS, CPU UTILIZATION IS    77.78%

          --------------------------
                 RHF SCF CALCULATION
          --------------------------

     NUCLEAR ENERGY =       386.1217747557
     MAXIT =   60     NPUNCH=    2
     EXTRAP=T  DAMP=F  SHIFT=F  RSTRCT=F  DIIS=F  DEM=F  SOSCF=T
     DENSITY MATRIX CONV=  2.00E-05
     SOSCF WILL OPTIMIZE    2176 ORBITAL ROTATIONS, SOGTOL=   0.250
     MEMORY REQUIRED FOR RHF ITERS=    127216 WORDS.

 DIRECT SCF CALCULATION, SCHWRZ=T   FDIFF=T,  DIRTHR=  0.00E+00 NITDIR=10
 SCHWARZ INEQUALITY OVERHEAD:      4596 INTEGRALS, T=        0.00

                                                                                   NONZERO     BLOCKS
 ITER EX DEM     TOTAL ENERGY        E CHANGE  DENSITY CHANGE     ORB. GRAD      INTEGRALS    SKIPPED
   1  0  0     -357.8108763093  -357.8108763093   0.676592366   0.000000000        6859623     495121
          ---------------START SECOND ORDER SCF---------------
   2  1  0     -358.6358930376    -0.8250167283   0.114560683   0.062751489        6831604     507513
   3  2  0     -358.6742938605    -0.0384008230   0.063219759   0.012005928        6729516     532840
   4  3  0     -358.6785504458    -0.0042565853   0.004709479   0.002032945        6586286     555451
   5  4  0     -358.6786477252    -0.0000972794   0.001692601   0.000892433        6308485     587662
   6  5  0     -358.6786658562    -0.0000181310   0.000472466   0.000151957        6013298     614036
   7  6  0     -358.6786667248    -0.0000008687   0.000141013   0.000041610        5734240     635960
   8  7  0     -358.6786668282    -0.0000001034   0.000047308   0.000016310        5457411     659888
   9  8  0     -358.6786668351    -0.0000000069   0.000009423   0.000002262        4963548     693465
  10  9  0     -358.6786668368    -0.0000000017   0.000003032   0.000000769        4688799     710951

          -----------------
          DENSITY CONVERGED
          -----------------
     TIME TO FORM FOCK OPERATORS=       1.0 SECONDS (       0.1 SEC/ITER)
     FOCK TIME ON FIRST ITERATION=       0.1, LAST ITERATION=       0.1
     TIME TO SOLVE SCF EQUATIONS=       0.1 SECONDS (       0.0 SEC/ITER)

 FINAL RHF ENERGY IS     -358.6786668368 AFTER  10 ITERATIONS

          ------------
          EIGENVECTORS
          ------------

                      1          2          3          4          5
                  -15.7096   -15.7089   -15.7081   -11.5483   -11.3762
                     A          A          A          A          A   
    1  C  1  S    0.000004  -0.000027  -0.000033  -0.000101  -0.000957
    2  C  1  S    0.000037  -0.000114  -0.000187  -0.000276  -0.001183
    3  C  1  X   -0.000056  -0.000203   0.000002  -0.000058   0.000352
    4  C  1  Y    0.000015   0.000041  -0.000012  -0.000036  -0.000071
    5  C  1  Z    0.000005   0.000033  -0.000009  -0.000020  -0.000085
    6  C  1  S    0.000109   0.001814   0.001035   0.001685   0.004060
    7  C  1  X    0.000188  -0.000009  -0.000508  -0.000782  -0.003310
    8  C  1  Y   -0.000190  -0.000961  -0.000176  -0.000099  -0.000111
    9  C  1  Z   -0.000095  -0.000801  -0.000246  -0.000347   0.000017
   10  H  2  S   -0.002546   0.001141   0.001581  -0.000639  -0.000089
   11  H  2  S   -0.000330  -0.000467   0.005732   0.001492   0.000753
   12  H  3  S   -0.002294   0.000554   0.001551  -0.001250  -0.001731
   13  H  3  S   -0.000013   0.005165   0.002134   0.001778  -0.000038
   14  H  4  S   -0.000031  -0.000193  -0.000048  -0.000043  -0.000051
   15  H  4  S   -0.000144  -0.000480   0.000038  -0.000048   0.001066
   16  H  5  S    0.000036   0.000009  -0.000078  -0.000127  -0.000439
   17  H  5  S    0.000043   0.000207   0.000001  -0.000113  -0.000171
   18  H  6  S    0.002023  -0.002143   0.001181  -0.000767  -0.000292
   19  H  6  S    0.000496  -0.000813   0.005703   0.001519   0.000796
   20  H  7  S    0.001305   0.002621  -0.001208  -0.000484   0.000625
   21  H  7  S    0.006125   0.001269   0.000553   0.000244  -0.000593
   22  H  8  S    0.000011  -0.001234  -0.000552  -0.000925   0.000612
   23  H  8  S   -0.000401  -0.001628  -0.000191  -0.000258   0.014783
   24  H  9  S    0.000123  -0.001219  -0.000339  -0.000251   0.000510
   25  H  9  S   -0.001718  -0.000722   0.000176   0.000288   0.014814
   26  H 10  S    0.000200   0.000712  -0.000067  -0.000130  -0.001312
   27  H 10  S    0.000139  -0.000386  -0.000300  -0.000292   0.001261
   28  H 11  S    0.000128   0.000448  -0.000016   0.000125  -0.001385
   29  H 11  S   -0.000129   0.000108   0.000243   0.000653   0.001098
   30  H 12  S    0.001573  -0.002343   0.001475  -0.000876  -0.000391
   31  H 12  S    0.005382   0.000308   0.001919   0.001755  -0.000124
   32  H 13  S   -0.000087  -0.000304  -0.000056   0.000098  -0.000117
   33  H 13  S    0.000112  -0.000129   0.000068   0.000182  -0.001509
   34  N 14  S   -0.106406  -0.246129   0.948922   0.000062  -0.000142
   35  N 14  S   -0.011882  -0.026717   0.098565  -0.000218  -0.001177
   36  N 14  X   -0.001153  -0.000330   0.001399  -0.000759  -0.000212
   37  N 14  Y   -0.000434   0.000773  -0.000438   0.000334   0.000106
   38  N 14  Z   -0.000140   0.000895  -0.000883   0.000532   0.000221
   39  N 14  S    0.011956   0.024652  -0.068408   0.004555   0.006455
   40  N 14  X    0.009037   0.001499  -0.011548   0.000764   0.002649
   41  N 14  Y    0.005064  -0.006464   0.003791  -0.000505  -0.001222
   42  N 14  Z    0.002849  -0.007230   0.007204  -0.000651  -0.002238
   43  N 15  S    0.972442   0.094572   0.133367   0.000021   0.000061
   44  N 15  S    0.101599   0.009719   0.012943  -0.000590   0.000336
   45  N 15  X    0.000193   0.001078  -0.000625  -0.000065   0.000060
   46  N 15  Y    0.001506   0.000036  -0.000317  -0.000752  -0.000064
   47  N 15  Z    0.001303  -0.000384  -0.000005  -0.000615  -0.000020
   48  N 15  S   -0.073477  -0.006435  -0.004874   0.006661  -0.002855
   49  N 15  X   -0.001627  -0.010544   0.006137   0.000341  -0.002265
   50  N 15  Y   -0.011666  -0.001971   0.000919   0.001151  -0.001009
   51  N 15  Z   -0.010394   0.002191  -0.001729   0.000742  -0.000436
   52  C 16  S   -0.000174  -0.000148  -0.000284   0.986349   0.000627
   53  C 16  S   -0.001375  -0.001119  -0.002001   0.091449  -0.000692
   54  C 16  X   -0.000171   0.000320   0.000266   0.000535  -0.000696
   55  C 16  Y   -0.000117   0.000019   0.000033  -0.000050   0.000290
   56  C 16  Z   -0.000060  -0.000036  -0.000012  -0.000107   0.000334
   57  C 16  S    0.015003   0.017697   0.029472  -0.039812   0.002037
   58  C 16  X   -0.005196   0.034645  -0.018798  -0.000825   0.009119
   59  C 16  Y   -0.027266   0.005600   0.008971   0.000713  -0.002509
   60  C 16  Z   -0.024529  -0.005212   0.014566   0.000810  -0.004788
   61  C 17  S   -0.000046  -0.000610  -0.000206  -0.000759   0.987811
   62  C 17  S   -0.000031  -0.002367  -0.001312  -0.000898   0.102748
   63  C 17  X   -0.000829  -0.001634   0.000910   0.001291  -0.000463
   64  C 17  Y    0.000182   0.000267   0.000043   0.000424   0.000096
   65  C 17  Z    0.000348   0.000385  -0.000104  -0.000032   0.000225
   66  C 17  S    0.005265   0.019571   0.002389   0.000640  -0.083167
   67  C 17  X    0.000677  -0.005994  -0.004755  -0.006501  -0.005093
   68  C 17  Y    0.002043   0.004164  -0.000798  -0.002656  -0.003024
   69  C 17  Z    0.000624   0.005020   0.000458  -0.000143  -0.003478
   70  C 18  S    0.000069   0.000227  -0.000051  -0.000212  -0.001957
   71  C 18  S    0.000346   0.001016  -0.000368  -0.000584  -0.002549
   72  C 18  X    0.000008   0.000074   0.000041  -0.000541  -0.000168
   73  C 18  Y    0.000095   0.000167  -0.000016   0.000018   0.000090
   74  C 18  Z    0.000054   0.000076   0.000072   0.000273   0.000034
   75  C 18  S   -0.002563  -0.006289   0.002039   0.005133   0.021373
   76  C 18  X    0.001327   0.004425  -0.000373   0.000962  -0.011298
   77  C 18  Y    0.000212   0.000728  -0.000333  -0.001155  -0.006043
   78  C 18  Z    0.000783   0.000865  -0.001136  -0.003094  -0.005709
   79  C 19  S   -0.000001  -0.000040   0.000001   0.000135  -0.001546
   80  C 19  S    0.000017  -0.000253  -0.000050   0.000390  -0.000943
   81  C 19  X    0.000025   0.000460   0.000241   0.000324   0.000889
   82  C 19  Y    0.000003   0.000097   0.000067   0.000135   0.000285
   83  C 19  Z    0.000026   0.000166   0.000042   0.000046   0.000295
   84  C 19  S   -0.000078  -0.000535  -0.000733  -0.003384  -0.000200
   85  C 19  X   -0.000329  -0.002527  -0.000796   0.000137  -0.002187
   86  C 19  Y    0.000054  -0.000915  -0.000664  -0.001599  -0.001892
   87  C 19  Z   -0.000164  -0.001330  -0.000374  -0.000789  -0.002081
   88  H 20  S    0.000023   0.000012  -0.000061  -0.000090  -0.000455
   89  H 20  S   -0.000014   0.000046   0.000017   0.000005  -0.000178
   90  H 21  S   -0.000020  -0.000252  -0.000083   0.000006  -0.000104
   91  H 21  S    0.000124   0.000144  -0.000097  -0.000296  -0.001380
   92  N 22  S   -0.124390   0.950482   0.232395   0.000105  -0.000192
   93  N 22  S   -0.013654   0.100913   0.023812   0.000036  -0.000541
   94  N 22  X    0.001412  -0.001049  -0.000263   0.000680   0.000168
   95  N 22  Y   -0.000215  -0.001392   0.000289   0.000158  -0.000617
   96  N 22  Z   -0.000600  -0.000986   0.000370   0.000009  -0.000506
   97  N 22  S    0.013246  -0.077788  -0.014341   0.003217   0.008203
   98  N 22  X   -0.009315   0.007059   0.002701  -0.000963   0.007099
   99  N 22  Y    0.003489   0.010945  -0.002456   0.001235   0.002047
  100  N 22  Z    0.005781   0.007111  -0.003377   0.000866   0.000742

                      6          7          8          9         10
                  -11.3084   -11.2849   -11.2563    -1.5291    -1.3911
                     A          A          A          A          A   
    1  C  1  S   -0.002780  -0.003784   0.987518   0.000101  -0.000934
    2  C  1  S   -0.001168  -0.002740   0.101701   0.001070   0.002199
    3  C  1  X    0.000808  -0.000559  -0.000315   0.000020  -0.000991
    4  C  1  Y   -0.000014  -0.000158   0.000017   0.000041  -0.000297
    5  C  1  Z   -0.000029  -0.000153   0.000023   0.000022  -0.000263
    6  C  1  S    0.001056   0.021685  -0.080487  -0.007167  -0.005560
    7  C  1  X   -0.000443  -0.009968   0.004324   0.003429   0.003180
    8  C  1  Y    0.000331  -0.005069   0.001698   0.001314   0.002177
    9  C  1  Z    0.000333  -0.004948   0.001670   0.001579   0.001878
   10  H  2  S   -0.000045   0.000107  -0.000009   0.039240  -0.048900
   11  H  2  S    0.000311  -0.000080   0.000011  -0.000373  -0.009086
   12  H  3  S   -0.000217  -0.000546  -0.000035   0.044693   0.082706
   13  H  3  S   -0.000202   0.000835   0.000475  -0.001002   0.013659
   14  H  4  S   -0.000245  -0.001078   0.000200   0.000210   0.000633
   15  H  4  S    0.001435  -0.000020   0.013664   0.000118  -0.000161
   16  H  5  S    0.000055  -0.001340   0.000313   0.000368   0.000708
   17  H  5  S   -0.001178   0.000472   0.014337   0.000191  -0.000126
   18  H  6  S   -0.000108  -0.000097  -0.000024   0.039285  -0.052696
   19  H  6  S    0.000306   0.000052   0.000085  -0.001066  -0.011224
   20  H  7  S   -0.000029   0.000064  -0.000022   0.039765  -0.033990
   21  H  7  S    0.001380   0.000322   0.000356   0.002910  -0.004387
   22  H  8  S   -0.001205   0.000023  -0.000386   0.012075   0.025537
   23  H  8  S    0.000417  -0.001345  -0.000030   0.001941  -0.004198
   24  H  9  S   -0.001273   0.000037  -0.000410   0.009530   0.025048
   25  H  9  S    0.000476  -0.001249  -0.000011  -0.002585  -0.008092
   26  H 10  S    0.001077  -0.001305  -0.000191   0.001583   0.008121
   27  H 10  S    0.014456   0.000894  -0.001257  -0.000324  -0.001722
   28  H 11  S    0.001021  -0.001309  -0.000192   0.001440   0.008436
   29  H 11  S    0.014357   0.001016  -0.001304  -0.002920  -0.002494
   30  H 12  S    0.000049  -0.000102   0.000020   0.040635  -0.038252
   31  H 12  S   -0.000024  -0.000032  -0.000008   0.000034  -0.005372
   32  H 13  S   -0.001352   0.001000  -0.001113   0.000395   0.002586
   33  H 13  S    0.000607   0.014495   0.000964   0.000031   0.000992
   34  N 14  S   -0.000054  -0.000006  -0.000014  -0.105777   0.108423
   35  N 14  S   -0.000436  -0.000062  -0.000119   0.096552  -0.095297
   36  N 14  X   -0.000077   0.000001  -0.000022   0.044996  -0.002335
   37  N 14  Y    0.000050   0.000031   0.000008  -0.017204   0.017595
   38  N 14  Z    0.000059   0.000023   0.000013  -0.030644   0.018032
   39  N 14  S    0.002573   0.000307   0.000666   0.304508  -0.365990
   40  N 14  X    0.001057  -0.000118   0.000283   0.041802  -0.013947
   41  N 14  Y   -0.000546  -0.000283  -0.000092  -0.016366   0.035886
   42  N 14  Z   -0.000793  -0.000206  -0.000172  -0.028796   0.041313
   43  N 15  S    0.000031   0.000001   0.000006  -0.109009   0.076773
   44  N 15  S    0.000181   0.000013   0.000037   0.098451  -0.070299
   45  N 15  X   -0.000066   0.000053  -0.000019   0.007062   0.020422
   46  N 15  Y   -0.000105   0.000002  -0.000023   0.042978  -0.008237
   47  N 15  Z   -0.000153  -0.000051  -0.000032   0.038523  -0.014131
   48  N 15  S   -0.001799  -0.000040  -0.000397   0.322677  -0.239900
   49  N 15  X   -0.000611  -0.000501  -0.000112   0.008846   0.042839
   50  N 15  Y   -0.000060  -0.000035   0.000011   0.044440  -0.011331
   51  N 15  Z    0.000460   0.000284   0.000109   0.039837  -0.026007
   52  C 16  S    0.000054  -0.000061   0.000041  -0.147771   0.009711
   53  C 16  S   -0.000330   0.000070  -0.000123   0.188552  -0.011748
   54  C 16  X   -0.000048   0.000166  -0.000104   0.004187   0.169093
   55  C 16  Y    0.000128   0.000145   0.000036  -0.000090   0.064414
   56  C 16  Z    0.000225   0.000065   0.000059  -0.000979   0.009406
   57  C 16  S    0.000589   0.001651  -0.000141   0.112347  -0.012840
   58  C 16  X    0.003516   0.001643   0.000708  -0.005649  -0.064838
   59  C 16  Y   -0.001007   0.000757  -0.000326   0.005641  -0.007395
   60  C 16  Z   -0.002245   0.000076  -0.000510   0.006426   0.012075
   61  C 17  S    0.001063   0.001506   0.000637  -0.027152  -0.068316
   62  C 17  S   -0.002432  -0.000585  -0.001086   0.030862   0.069778
   63  C 17  X    0.000189  -0.000666  -0.000352  -0.026515  -0.041265
   64  C 17  Y   -0.000041   0.000064  -0.000009   0.005642   0.019690
   65  C 17  Z   -0.000001   0.000062  -0.000000   0.008980   0.022365
   66  C 17  S    0.023956  -0.000389   0.005090   0.038709   0.132066
   67  C 17  X    0.011278   0.000654   0.003658   0.019513   0.000935
   68  C 17  Y    0.006475  -0.001396   0.000878   0.005095  -0.001325
   69  C 17  Z    0.006378  -0.001314   0.000803  -0.002715  -0.004042
   70  C 18  S    0.988014   0.004010   0.002707  -0.005229  -0.022471
   71  C 18  S    0.104794  -0.002044  -0.000535   0.005883   0.020976
   72  C 18  X   -0.000296   0.000382  -0.001016  -0.003918  -0.016138
   73  C 18  Y   -0.000282   0.000091  -0.000318  -0.001790  -0.005707
   74  C 18  Z   -0.000360   0.000098  -0.000319  -0.002029  -0.005549
   75  C 18  S   -0.093916   0.022064  -0.000965  -0.001877   0.047703
   76  C 18  X    0.000452   0.011604   0.003508  -0.007665  -0.010967
   77  C 18  Y    0.005390  -0.004663   0.002292   0.005556   0.002420
   78  C 18  Z    0.005899  -0.005209   0.002399   0.009670   0.002280
   79  C 19  S   -0.004912   0.987975   0.003021  -0.000955  -0.005246
   80  C 19  S   -0.002941   0.104475  -0.001547   0.000146   0.005826
   81  C 19  X   -0.000629  -0.000259   0.000057  -0.002117  -0.005725
   82  C 19  Y   -0.000034   0.000204  -0.000057  -0.000309   0.000534
   83  C 19  Z   -0.000013   0.000223  -0.000053  -0.000193   0.000567
   84  C 19  S    0.021892  -0.091995   0.017791   0.012229   0.013429
   85  C 19  X   -0.011781   0.001337   0.009637   0.002098   0.006044
   86  C 19  Y    0.004145  -0.004652   0.005075   0.005656   0.003900
   87  C 19  Z    0.004462  -0.004843   0.004924   0.004614   0.004669
   88  H 20  S    0.000040  -0.001338   0.000313   0.000319   0.000720
   89  H 20  S   -0.001120   0.000439   0.014316   0.000101   0.000079
   90  H 21  S   -0.001351   0.001006  -0.001110   0.000506   0.002535
   91  H 21  S    0.000686   0.014502   0.001012   0.000613   0.000383
   92  N 22  S    0.000089  -0.000015   0.000002  -0.114638  -0.170579
   93  N 22  S    0.000334  -0.000186  -0.000022   0.100961   0.149528
   94  N 22  X   -0.000412  -0.000539  -0.000015  -0.052640  -0.006982
   95  N 22  Y   -0.000182  -0.000076   0.000050  -0.023608  -0.007828
   96  N 22  Z   -0.000162  -0.000045   0.000030  -0.007478  -0.005825
   97  N 22  S   -0.003226  -0.000181   0.000033   0.345697   0.564294
   98  N 22  X   -0.000330   0.003220  -0.000038  -0.046172  -0.030868
   99  N 22  Y    0.001142   0.000572  -0.000286  -0.034636  -0.034985
  100  N 22  Z    0.000940   0.000185  -0.000213  -0.016524  -0.021848

                     11         12         13         14         15
                   -1.3792    -1.2092    -1.1224    -1.0385    -1.0080
                     A          A          A          A          A   
    1  C  1  S   -0.000035  -0.052599   0.118388   0.077727   0.096083
    2  C  1  S   -0.000274   0.055404  -0.114495  -0.071549  -0.088635
    3  C  1  X    0.000247  -0.028969   0.031788  -0.005286  -0.021230
    4  C  1  Y   -0.000070  -0.010914   0.016966   0.002234  -0.002060
    5  C  1  Z   -0.000053  -0.010516   0.016722   0.002456  -0.001667
    6  C  1  S    0.000358   0.108987  -0.312034  -0.238011  -0.302615
    7  C  1  X   -0.001463   0.004309   0.007426   0.005086  -0.003499
    8  C  1  Y    0.000719   0.002288   0.004098   0.001527   0.001064
    9  C  1  Z    0.000401   0.001811   0.003587   0.001961   0.001007
   10  H  2  S   -0.073473   0.018143   0.029359  -0.090278   0.011229
   11  H  2  S   -0.014274   0.004948   0.011213  -0.044196   0.009212
   12  H  3  S   -0.014153  -0.017358  -0.004441  -0.089968   0.105438
   13  H  3  S   -0.004443  -0.005636   0.001947  -0.043574   0.048099
   14  H  4  S    0.000103   0.021689  -0.057457  -0.046736  -0.063693
   15  H  4  S    0.000825  -0.006015  -0.001903  -0.009944  -0.015033
   16  H  5  S   -0.000174   0.024514  -0.058569  -0.043308  -0.056803
   17  H  5  S   -0.000225  -0.000534  -0.001621  -0.004793  -0.008857
   18  H  6  S   -0.070407   0.027454   0.044110  -0.067614  -0.033007
   19  H  6  S   -0.013288   0.007352   0.016113  -0.035140  -0.009821
   20  H  7  S    0.082553   0.011917   0.022398  -0.095782   0.028765
   21  H  7  S    0.011583   0.003675   0.013509  -0.040765   0.007196
   22  H  8  S    0.001906   0.054525   0.062028   0.018836  -0.081745
   23  H  8  S    0.003290  -0.002912   0.000332   0.004837  -0.024541
   24  H  9  S    0.001376   0.055205   0.062855   0.013141  -0.074449
   25  H  9  S    0.004070  -0.002121   0.001505   0.002475  -0.022133
   26  H 10  S   -0.001056   0.065301  -0.001086   0.035863   0.071489
   27  H 10  S   -0.000522  -0.004648  -0.003098   0.001708   0.018637
   28  H 11  S   -0.000727   0.065276  -0.000602   0.036753   0.069661
   29  H 11  S    0.000803  -0.004175  -0.001846   0.001042   0.016496
   30  H 12  S    0.079431   0.015563   0.023443  -0.086169   0.074878
   31  H 12  S    0.015026   0.006426   0.011964  -0.044531   0.032823
   32  H 13  S    0.000202   0.049277  -0.057087  -0.004870   0.003831
   33  H 13  S    0.000225  -0.002305   0.002034  -0.000486  -0.001765
   34  N 14  S    0.148892  -0.029162  -0.033467   0.043302   0.007684
   35  N 14  S   -0.132832   0.027431   0.030984  -0.039451  -0.006592
   36  N 14  X   -0.022514  -0.027185  -0.059310   0.121369   0.046792
   37  N 14  Y   -0.005084  -0.002885   0.005010  -0.070231   0.023940
   38  N 14  Z    0.002432   0.005210   0.022087  -0.106566   0.013780
   39  N 14  S   -0.491205   0.094821   0.115105  -0.158945  -0.025502
   40  N 14  X   -0.056047  -0.023506  -0.049460   0.094350   0.047966
   41  N 14  Y   -0.004329  -0.006159  -0.001026  -0.057462   0.023660
   42  N 14  Z    0.012138   0.000437   0.013054  -0.086168   0.012848
   43  N 15  S   -0.166932  -0.015290  -0.017308   0.051715  -0.029217
   44  N 15  S    0.149181   0.013064   0.014822  -0.044551   0.025322
   45  N 15  X    0.012504  -0.010845  -0.009778   0.011097  -0.057279
   46  N 15  Y    0.015053  -0.013765  -0.032132   0.145089  -0.091845
   47  N 15  Z    0.010152  -0.008511  -0.026021   0.137697  -0.065418
   48  N 15  S    0.551369   0.061753   0.071772  -0.203919   0.108671
   49  N 15  X    0.025313  -0.009619  -0.007574   0.003831  -0.055110
   50  N 15  Y    0.040714  -0.006060  -0.018882   0.110371  -0.078584
   51  N 15  Z    0.028750  -0.001437  -0.013216   0.107775  -0.055216
   52  C 16  S    0.001405   0.035569   0.057616  -0.116067   0.022847
   53  C 16  S   -0.001359  -0.044366  -0.074099   0.152744  -0.031162
   54  C 16  X    0.055299  -0.067275  -0.055002  -0.042254  -0.011768
   55  C 16  Y   -0.122944  -0.035558  -0.037834  -0.035588   0.073048
   56  C 16  Z   -0.134385  -0.010364  -0.015261  -0.016625   0.066933
   57  C 16  S    0.002758  -0.066769  -0.114800   0.257714  -0.051982
   58  C 16  X   -0.016560  -0.014017  -0.012819  -0.005883  -0.000831
   59  C 16  Y    0.038428   0.002512   0.002023  -0.017882   0.018544
   60  C 16  Z    0.041831   0.007787   0.006996  -0.012427   0.015114
   61  C 17  S   -0.001406  -0.108806  -0.113935  -0.014661   0.087849
   62  C 17  S    0.000906   0.109576   0.105660   0.015719  -0.080035
   63  C 17  X    0.002040   0.056131  -0.009844   0.060928   0.074263
   64  C 17  Y   -0.003367   0.017350   0.005031  -0.014976   0.063255
   65  C 17  Z   -0.003217   0.016083   0.003890  -0.007600   0.054012
   66  C 17  S   -0.014317   0.264413   0.338925   0.047936  -0.307039
   67  C 17  X   -0.011106  -0.003394  -0.000924   0.038167   0.015274
   68  C 17  Y   -0.011843  -0.007582  -0.008497   0.004209   0.034282
   69  C 17  Z   -0.007360  -0.004927  -0.005081   0.004270   0.028767
   70  C 18  S    0.000288  -0.141486  -0.002486  -0.065504  -0.101717
   71  C 18  S   -0.002442   0.134630  -0.000934   0.059553   0.088148
   72  C 18  X    0.000561  -0.002420  -0.091387  -0.004789   0.023115
   73  C 18  Y   -0.000305  -0.024971  -0.007658  -0.005950   0.026129
   74  C 18  Z    0.000022  -0.026321  -0.006090  -0.004563   0.024101
   75  C 18  S    0.013767   0.366970   0.026483   0.196037   0.355673
   76  C 18  X   -0.006012  -0.008187  -0.001131   0.008118  -0.009127
   77  C 18  Y   -0.003002  -0.011027  -0.002599  -0.001055   0.006921
   78  C 18  Z   -0.005736  -0.014444  -0.005973   0.002585   0.005708
   79  C 19  S    0.000082  -0.106186   0.118438   0.009344  -0.011520
   80  C 19  S    0.000156   0.104247  -0.107541  -0.008825   0.008478
   81  C 19  X    0.000105  -0.032083  -0.041122  -0.062457  -0.079161
   82  C 19  Y   -0.000000   0.016897  -0.018704  -0.005561   0.000683
   83  C 19  Z   -0.000103   0.017936  -0.018537  -0.003785   0.002213
   84  C 19  S   -0.001928   0.250032  -0.338497  -0.024727   0.040907
   85  C 19  X    0.001363   0.005017   0.011954  -0.010152  -0.019313
   86  C 19  Y   -0.000757   0.003824  -0.007410   0.000532   0.001175
   87  C 19  Z    0.000391   0.005144  -0.006443  -0.000564   0.001886
   88  H 20  S   -0.000140   0.024579  -0.058530  -0.043275  -0.056808
   89  H 20  S   -0.000030  -0.000333  -0.001403  -0.005065  -0.008754
   90  H 21  S    0.000100   0.049088  -0.057301  -0.004569   0.003581
   91  H 21  S   -0.000453  -0.003097   0.001097   0.000496  -0.002084
   92  N 22  S    0.020673   0.034531   0.007100   0.055366  -0.024271
   93  N 22  S   -0.018198  -0.028468  -0.004948  -0.047672   0.021382
   94  N 22  X    0.012901   0.095839   0.135918  -0.087460  -0.053283
   95  N 22  Y   -0.015583  -0.000108  -0.000367  -0.087311   0.130608
   96  N 22  Z   -0.018175  -0.013857  -0.024167  -0.038803   0.107608
   97  N 22  S   -0.068953  -0.136590  -0.044073  -0.215351   0.105655
   98  N 22  X    0.031063   0.066114   0.109341  -0.073513  -0.051136
   99  N 22  Y   -0.024227   0.002127  -0.002293  -0.071212   0.123833
  100  N 22  Z   -0.030771  -0.008873  -0.021401  -0.031199   0.102917

                     16         17         18         19         20
                   -0.9677    -0.9276    -0.9176    -0.8592    -0.8453
                     A          A          A          A          A   
    1  C  1  S    0.057355  -0.025527   0.085321   0.002257   0.005137
    2  C  1  S   -0.051849   0.022798  -0.076377  -0.001641  -0.004955
    3  C  1  X   -0.023783   0.019022  -0.055618  -0.004094  -0.002047
    4  C  1  Y   -0.011467   0.006532  -0.050962  -0.002949  -0.011055
    5  C  1  Z   -0.011010   0.006478  -0.051262   0.002350  -0.015547
    6  C  1  S   -0.194463   0.091396  -0.313660  -0.009677  -0.020973
    7  C  1  X   -0.002611   0.006711  -0.006995  -0.000971   0.000360
    8  C  1  Y   -0.003294   0.001186  -0.020673  -0.001657  -0.005350
    9  C  1  Z   -0.002683   0.001502  -0.021179   0.001700  -0.008538
   10  H  2  S    0.122644   0.025941  -0.044503   0.122617   0.144811
   11  H  2  S    0.054747   0.008535  -0.021803   0.071766   0.092917
   12  H  3  S   -0.104068  -0.035712   0.025528  -0.060978   0.107948
   13  H  3  S   -0.044033  -0.021107   0.009858  -0.029773   0.073677
   14  H  4  S   -0.040342   0.021694  -0.059210  -0.003211   0.000862
   15  H  4  S   -0.012126   0.007409  -0.021114  -0.002027   0.001455
   16  H  5  S   -0.039177   0.018372  -0.075805  -0.003284  -0.008459
   17  H  5  S   -0.010040   0.005535  -0.031466  -0.001382  -0.005661
   18  H  6  S    0.004401  -0.177557   0.020503  -0.037140  -0.141852
   19  H  6  S    0.002409  -0.089441   0.012519  -0.014458  -0.092576
   20  H  7  S    0.113968   0.055291  -0.033529  -0.169322  -0.012499
   21  H  7  S    0.048779   0.032929  -0.012674  -0.097290  -0.010748
   22  H  8  S    0.016375   0.069909   0.027725   0.020559  -0.031060
   23  H  8  S    0.017625   0.030271   0.015683   0.016343  -0.025251
   24  H  9  S    0.003539   0.061727   0.033615  -0.049746   0.012063
   25  H  9  S    0.008975   0.022425   0.019687  -0.038507   0.008845
   26  H 10  S    0.003081  -0.027269  -0.087717  -0.007599  -0.012666
   27  H 10  S   -0.005856  -0.013190  -0.039267  -0.009100  -0.001647
   28  H 11  S    0.005894  -0.024358  -0.088821   0.022350  -0.033809
   29  H 11  S   -0.003845  -0.010549  -0.038853   0.014163  -0.015652
   30  H 12  S   -0.078998   0.078528   0.054214   0.131481  -0.116364
   31  H 12  S   -0.035561   0.033140   0.029799   0.075856  -0.079438
   32  H 13  S    0.028125  -0.010841   0.113124  -0.007083   0.027975
   33  H 13  S    0.007723  -0.001167   0.044934  -0.004756   0.015427
   34  N 14  S   -0.022511   0.012323   0.002777   0.005299   0.000116
   35  N 14  S    0.018195  -0.011080  -0.001949  -0.003956   0.000554
   36  N 14  X   -0.050141   0.292222  -0.012775  -0.008610   0.150144
   37  N 14  Y    0.122257   0.040568  -0.043815   0.053126   0.115497
   38  N 14  Z    0.156409   0.011208  -0.054849   0.209700   0.161935
   39  N 14  S    0.090754  -0.042581  -0.011689  -0.025626  -0.004547
   40  N 14  X   -0.033010   0.280443  -0.014295  -0.003938   0.151888
   41  N 14  Y    0.116895   0.047919  -0.044020   0.051816   0.120841
   42  N 14  Z    0.145551   0.020949  -0.053802   0.208378   0.167153
   43  N 15  S   -0.005104  -0.010337   0.001306  -0.002680  -0.012829
   44  N 15  S    0.004894   0.008755  -0.001267   0.002051   0.009637
   45  N 15  X    0.186315  -0.043869  -0.085407  -0.202744   0.101002
   46  N 15  Y   -0.002324  -0.149557  -0.038263  -0.067957   0.177155
   47  N 15  Z   -0.096258  -0.106520   0.009787   0.198572   0.103126
   48  N 15  S    0.016384   0.034876  -0.003979   0.013152   0.062013
   49  N 15  X    0.184932  -0.043140  -0.084474  -0.207777   0.105083
   50  N 15  Y   -0.001321  -0.141577  -0.034301  -0.069200   0.174803
   51  N 15  Z   -0.094038  -0.097439   0.013526   0.200860   0.099851
   52  C 16  S    0.004325  -0.016108   0.011573   0.003286  -0.000113
   53  C 16  S   -0.005307   0.021669  -0.015504  -0.004292  -0.000082
   54  C 16  X    0.229136  -0.067074  -0.053043   0.128974  -0.131384
   55  C 16  Y    0.048024   0.151512   0.008794  -0.125698  -0.159595
   56  C 16  Z   -0.024277   0.198209   0.021744   0.018897  -0.109998
   57  C 16  S   -0.014415   0.034744  -0.033524  -0.011357   0.007073
   58  C 16  X    0.069531  -0.016133  -0.022502   0.050062  -0.038967
   59  C 16  Y    0.007383   0.035235   0.002606  -0.075155  -0.041023
   60  C 16  Z   -0.014028   0.059402   0.006904   0.047309  -0.027545
   61  C 17  S    0.013148  -0.058283  -0.018203   0.005203  -0.004471
   62  C 17  S   -0.012198   0.050507   0.015201  -0.002996   0.003409
   63  C 17  X    0.014706   0.045644  -0.038288  -0.027632   0.000324
   64  C 17  Y   -0.046105  -0.061305  -0.038908  -0.035397   0.058181
   65  C 17  Z   -0.029572  -0.050634  -0.048197   0.069759  -0.003590
   66  C 17  S   -0.039118   0.245848   0.088991  -0.035410   0.015224
   67  C 17  X   -0.003411   0.017643  -0.006471   0.002719  -0.001405
   68  C 17  Y   -0.024176  -0.028784  -0.022148  -0.020022   0.030334
   69  C 17  Z   -0.017762  -0.024115  -0.026912   0.053152  -0.010007
   70  C 18  S   -0.017384   0.022747   0.083728  -0.005510   0.024029
   71  C 18  S    0.014396  -0.018783  -0.070058   0.005612  -0.020242
   72  C 18  X    0.047280  -0.029027   0.062907   0.006291  -0.024628
   73  C 18  Y   -0.013187  -0.029352  -0.070898  -0.014218  -0.000332
   74  C 18  Z   -0.009828  -0.025639  -0.076989   0.029923  -0.030985
   75  C 18  S    0.054616  -0.094211  -0.341985   0.013347  -0.089114
   76  C 18  X    0.020325   0.003508   0.027907   0.006652  -0.018265
   77  C 18  Y   -0.009776  -0.014649  -0.033602  -0.007321   0.001418
   78  C 18  Z   -0.005538  -0.011820  -0.037178   0.020953  -0.022230
   79  C 19  S   -0.038904   0.019779  -0.124364  -0.001446  -0.017221
   80  C 19  S    0.033422  -0.015997   0.106309   0.001139   0.015012
   81  C 19  X   -0.041032   0.013301  -0.006295  -0.001202   0.019742
   82  C 19  Y   -0.014969  -0.002220  -0.076492  -0.005233  -0.016462
   83  C 19  Z   -0.013101  -0.001579  -0.079292   0.011922  -0.030420
   84  C 19  S    0.139716  -0.074228   0.476581   0.005375   0.069834
   85  C 19  X   -0.015429   0.003556  -0.015679   0.000846   0.009247
   86  C 19  Y   -0.004131  -0.003418  -0.033461  -0.002542  -0.010287
   87  C 19  Z   -0.004691  -0.003710  -0.034375   0.008131  -0.017874
   88  H 20  S   -0.039022   0.018515  -0.076034   0.000438  -0.011474
   89  H 20  S   -0.010316   0.005377  -0.031597   0.000728  -0.007435
   90  H 21  S    0.029041  -0.010089   0.112568   0.005151   0.018787
   91  H 21  S    0.008861  -0.000765   0.044580   0.002526   0.009065
   92  N 22  S    0.022817   0.036331  -0.017301  -0.010726   0.011057
   93  N 22  S   -0.017817  -0.027941   0.013299   0.007697  -0.008879
   94  N 22  X   -0.137062  -0.057811   0.034227   0.002545   0.147000
   95  N 22  Y   -0.131095  -0.024963   0.027554  -0.148624   0.155930
   96  N 22  Z   -0.067855   0.026674   0.002722   0.020959   0.054990
   97  N 22  S   -0.088057  -0.162159   0.071874   0.050159  -0.052004
   98  N 22  X   -0.125977  -0.075247   0.025507   0.007793   0.150001
   99  N 22  Y   -0.121183  -0.010412   0.022481  -0.156336   0.158358
  100  N 22  Z   -0.061917   0.040507   0.000305   0.014109   0.057407

                     21         22         23         24         25
                   -0.8185    -0.7803    -0.7661    -0.7151    -0.7028
                     A          A          A          A          A   
    1  C  1  S    0.005391   0.013747  -0.007361  -0.002521   0.009199
    2  C  1  S   -0.004844  -0.011089   0.005770   0.001771  -0.006317
    3  C  1  X   -0.007470  -0.042364   0.024603   0.038658  -0.183429
    4  C  1  Y   -0.026506   0.007791   0.056614   0.103519   0.103423
    5  C  1  Z    0.005998  -0.046643  -0.029183  -0.134945   0.033439
    6  C  1  S   -0.023327  -0.064443   0.035389   0.012721  -0.050252
    7  C  1  X   -0.003656  -0.023449   0.013383   0.027976  -0.134482
    8  C  1  Y   -0.014844   0.009208   0.036132   0.076581   0.088018
    9  C  1  Z    0.004759  -0.026418  -0.022074  -0.103763   0.033490
   10  H  2  S   -0.054407  -0.017618  -0.035389   0.010821   0.008846
   11  H  2  S   -0.033308  -0.022478  -0.018829   0.009391   0.010399
   12  H  3  S    0.024182  -0.105248   0.069864  -0.013455   0.051900
   13  H  3  S    0.013402  -0.071500   0.044552  -0.007899   0.051487
   14  H  4  S   -0.003358  -0.022272   0.012394   0.032743  -0.143038
   15  H  4  S   -0.000854  -0.013123   0.008058   0.024886  -0.111814
   16  H  5  S   -0.020213   0.001225   0.042890   0.082428   0.062051
   17  H  5  S   -0.013631   0.004354   0.031635   0.066309   0.050022
   18  H  6  S    0.003614  -0.046715   0.058442  -0.005358  -0.014483
   19  H  6  S   -0.004078  -0.036653   0.040132  -0.001912  -0.012181
   20  H  7  S    0.091281   0.045305   0.019890  -0.009971  -0.010123
   21  H  7  S    0.053463   0.031757   0.012117  -0.010711  -0.003232
   22  H  8  S    0.080955  -0.129093  -0.002704   0.091727   0.111341
   23  H  8  S    0.065318  -0.084069   0.005295   0.066001   0.092567
   24  H  9  S   -0.132114  -0.009579   0.081170  -0.133107   0.026061
   25  H  9  S   -0.088544  -0.000635   0.055085  -0.106686   0.025976
   26  H 10  S   -0.062124   0.094861   0.055817   0.027519   0.020220
   27  H 10  S   -0.042094   0.067293   0.038671   0.019211   0.025239
   28  H 11  S    0.060735  -0.029530  -0.095182  -0.043904   0.015429
   29  H 11  S    0.047004  -0.019639  -0.064296  -0.035740   0.020803
   30  H 12  S   -0.082851  -0.001180  -0.029689   0.005080  -0.002597
   31  H 12  S   -0.051134   0.001167  -0.018157   0.001699  -0.003343
   32  H 13  S   -0.018378   0.054113   0.053708   0.129014  -0.030550
   33  H 13  S   -0.014707   0.033566   0.042931   0.099354  -0.028686
   34  N 14  S   -0.006962  -0.014210   0.005256   0.002047  -0.000568
   35  N 14  S    0.006482   0.012869  -0.005278  -0.001209   0.000973
   36  N 14  X    0.043109   0.112366  -0.066315  -0.011385   0.016298
   37  N 14  Y   -0.128105  -0.079155  -0.155751   0.111780   0.014414
   38  N 14  Z   -0.023524  -0.005137   0.070873  -0.061929  -0.003731
   39  N 14  S    0.025242   0.053798  -0.016267  -0.013310   0.000830
   40  N 14  X    0.037410   0.106072  -0.064059  -0.014040   0.018167
   41  N 14  Y   -0.129586  -0.086655  -0.167194   0.129200   0.017499
   42  N 14  Z   -0.024609   0.000631   0.074517  -0.073559  -0.004621
   43  N 15  S    0.000698   0.006965  -0.001214  -0.002685   0.001002
   44  N 15  S   -0.001236  -0.006412   0.001946   0.001471  -0.001591
   45  N 15  X    0.171505   0.045907   0.109658  -0.052489  -0.014091
   46  N 15  Y   -0.039729  -0.082395  -0.085933   0.072585   0.020590
   47  N 15  Z   -0.009047  -0.033413   0.104731  -0.061816   0.017499
   48  N 15  S    0.003050  -0.022972  -0.002082   0.016676   0.000852
   49  N 15  X    0.181319   0.055729   0.113980  -0.058808  -0.012447
   50  N 15  Y   -0.039178  -0.081710  -0.095083   0.081478   0.023517
   51  N 15  Z   -0.010604  -0.032758   0.111422  -0.071498   0.022143
   52  C 16  S    0.005560   0.005421  -0.004256  -0.001451   0.013497
   53  C 16  S   -0.007505  -0.006268   0.005517   0.001350  -0.017356
   54  C 16  X   -0.065531  -0.067950   0.083487  -0.010506  -0.062097
   55  C 16  Y   -0.096033  -0.014601  -0.124770   0.057444  -0.021458
   56  C 16  Z    0.125106   0.107885   0.113747  -0.064293  -0.021512
   57  C 16  S   -0.006778   0.000407   0.003885   0.007183  -0.048061
   58  C 16  X   -0.007100  -0.020307   0.055511  -0.014438  -0.035585
   59  C 16  Y   -0.074482  -0.014186  -0.122106   0.057941  -0.004487
   60  C 16  Z    0.100522   0.073843   0.101623  -0.052172  -0.011550
   61  C 17  S    0.011180   0.023286  -0.007149  -0.004744   0.007864
   62  C 17  S   -0.008933  -0.015577   0.003723   0.004705  -0.009406
   63  C 17  X   -0.031672  -0.184550   0.115755   0.034394  -0.129754
   64  C 17  Y   -0.114553   0.165072   0.003649  -0.098866  -0.189600
   65  C 17  Z    0.182809   0.013980  -0.108429   0.183503  -0.090007
   66  C 17  S   -0.064599  -0.172239   0.072073   0.015985  -0.019141
   67  C 17  X   -0.022367  -0.100190   0.058594   0.037379  -0.124537
   68  C 17  Y   -0.104325   0.110748   0.015711  -0.091348  -0.175730
   69  C 17  Z    0.129971  -0.017771  -0.076659   0.167427  -0.080003
   70  C 18  S    0.007199  -0.001166   0.000246   0.000041   0.010619
   71  C 18  S   -0.006775   0.000033  -0.000501   0.000268  -0.008075
   72  C 18  X   -0.005495   0.022861  -0.012434  -0.063985   0.218796
   73  C 18  Y   -0.079501   0.150685   0.064113   0.027416   0.054912
   74  C 18  Z    0.094842  -0.016684  -0.139321  -0.059743   0.049709
   75  C 18  S   -0.017190   0.024674  -0.008355  -0.009771  -0.020675
   76  C 18  X   -0.015333  -0.005312  -0.003862  -0.041633   0.147181
   77  C 18  Y   -0.055881   0.110532   0.058442   0.036516   0.037166
   78  C 18  Z    0.064314  -0.020018  -0.111049  -0.054261   0.026408
   79  C 19  S   -0.011746  -0.021850   0.012453   0.002390  -0.015495
   80  C 19  S    0.009449   0.017093  -0.010075  -0.001620   0.011610
   81  C 19  X    0.016839   0.034944  -0.027296   0.012349  -0.044211
   82  C 19  Y   -0.053164   0.066538   0.079746   0.115727   0.170947
   83  C 19  Z    0.032846  -0.050798  -0.085386  -0.181039   0.093817
   84  C 19  S    0.050720   0.093965  -0.051867  -0.006609   0.053979
   85  C 19  X    0.009662   0.026861  -0.021422   0.007945  -0.031051
   86  C 19  Y   -0.035561   0.054661   0.057552   0.097435   0.138414
   87  C 19  Z    0.025671  -0.032478  -0.066728  -0.148118   0.073548
   88  H 20  S    0.003103  -0.038715  -0.019919  -0.098353   0.004298
   89  H 20  S    0.003330  -0.026435  -0.017400  -0.079348   0.003165
   90  H 21  S    0.044005  -0.030771  -0.067445  -0.094288  -0.093014
   91  H 21  S    0.026729  -0.027658  -0.047194  -0.070936  -0.077105
   92  N 22  S   -0.005449  -0.020565   0.010951   0.001675  -0.006398
   93  N 22  S    0.003618   0.012254  -0.005998  -0.000936   0.003966
   94  N 22  X    0.115125   0.177611  -0.096607   0.010902   0.037049
   95  N 22  Y   -0.073086  -0.148743   0.032052  -0.046909   0.054891
   96  N 22  Z    0.156257  -0.119659   0.172816   0.040050   0.016106
   97  N 22  S    0.026293   0.105991  -0.056417  -0.010130   0.031374
   98  N 22  X    0.129012   0.225970  -0.122293   0.012994   0.036301
   99  N 22  Y   -0.076297  -0.178806   0.047692  -0.053355   0.060516
  100  N 22  Z    0.152503  -0.148221   0.197343   0.042669   0.018093

                     26         27         28         29         30
                   -0.6584    -0.6409    -0.6122    -0.5959    -0.5879
                     A          A          A          A          A   
    1  C  1  S    0.005577   0.000260   0.000225   0.016406  -0.005821
    2  C  1  S   -0.003480   0.000039  -0.000626  -0.016138   0.007143
    3  C  1  X    0.044752  -0.018813  -0.005290   0.256011   0.103359
    4  C  1  Y   -0.140881  -0.172605   0.031980   0.092426  -0.155019
    5  C  1  Z   -0.171199   0.148398   0.005689   0.119400  -0.153288
    6  C  1  S   -0.034698  -0.005223   0.001166  -0.023773   0.017178
    7  C  1  X    0.048410  -0.013349  -0.008105   0.198134   0.118137
    8  C  1  Y   -0.112836  -0.143092   0.028984   0.061121  -0.141818
    9  C  1  Z   -0.138488   0.126700   0.004057   0.083811  -0.142332
   10  H  2  S   -0.000466   0.002510  -0.008169   0.003451   0.001299
   11  H  2  S    0.001988   0.004633  -0.010510  -0.000354  -0.001580
   12  H  3  S    0.035894   0.005167   0.002267   0.014154   0.002300
   13  H  3  S    0.044871   0.013358   0.010238   0.025043  -0.002738
   14  H  4  S    0.104977  -0.007939  -0.014060   0.089770   0.164281
   15  H  4  S    0.087581  -0.007096  -0.012088   0.091357   0.150225
   16  H  5  S   -0.082785  -0.136912   0.022659   0.037031  -0.099063
   17  H  5  S   -0.070013  -0.121502   0.021375   0.050292  -0.105787
   18  H  6  S    0.005401   0.001131  -0.000736  -0.014457  -0.009107
   19  H  6  S    0.005039   0.002164  -0.011801  -0.016215  -0.011751
   20  H  7  S   -0.011221  -0.005649  -0.006468  -0.000494   0.003259
   21  H  7  S   -0.003580  -0.006645  -0.011869   0.002165   0.001286
   22  H  8  S    0.079206   0.076716  -0.017860   0.063707   0.012725
   23  H  8  S    0.081619   0.079527   0.013156   0.084179   0.008020
   24  H  9  S    0.066573  -0.058829  -0.005767  -0.037082  -0.050159
   25  H  9  S    0.068468  -0.064794  -0.017127  -0.022567  -0.063097
   26  H 10  S    0.100482   0.164499  -0.013229   0.059381  -0.047188
   27  H 10  S    0.097875   0.146423  -0.012366   0.072305  -0.065012
   28  H 11  S    0.117142  -0.153593   0.004475   0.015851  -0.072202
   29  H 11  S    0.108350  -0.130586   0.003823   0.016782  -0.097227
   30  H 12  S    0.005512  -0.000527   0.001013   0.003819  -0.001239
   31  H 12  S    0.003883  -0.003115  -0.007158   0.005947  -0.000093
   32  H 13  S    0.022571  -0.034066   0.002463   0.066681  -0.101199
   33  H 13  S    0.025931  -0.028547   0.003566   0.071376  -0.116245
   34  N 14  S    0.002651   0.002131  -0.005326  -0.005404  -0.004291
   35  N 14  S   -0.002665  -0.001111   0.002825   0.004029   0.003175
   36  N 14  X   -0.011415  -0.014075  -0.017703   0.030000   0.018753
   37  N 14  Y    0.003517   0.085422   0.255307  -0.055624  -0.024178
   38  N 14  Z    0.000528  -0.056801  -0.206440   0.033646   0.011406
   39  N 14  S   -0.007751  -0.014848   0.037434   0.030169   0.023800
   40  N 14  X   -0.009332  -0.018511  -0.030495   0.035888   0.021481
   41  N 14  Y    0.005394   0.108117   0.329679  -0.073219  -0.032019
   42  N 14  Z   -0.000443  -0.073201  -0.270330   0.046352   0.016490
   43  N 15  S    0.002165  -0.002124  -0.004392   0.004659   0.000878
   44  N 15  S   -0.001781   0.000656   0.001813  -0.003468  -0.000413
   45  N 15  X    0.000124  -0.019180   0.152141   0.007223   0.022849
   46  N 15  Y   -0.017910   0.032549  -0.233296  -0.029478  -0.034818
   47  N 15  Z    0.040497  -0.016750   0.248316   0.023514   0.026987
   48  N 15  S   -0.011205   0.017442   0.036063  -0.025413  -0.006083
   49  N 15  X    0.001050  -0.021872   0.194409   0.015061   0.031778
   50  N 15  Y   -0.023585   0.039535  -0.305185  -0.040032  -0.047690
   51  N 15  Z    0.050541  -0.020865   0.324654   0.032580   0.036538
   52  C 16  S    0.001595   0.000906  -0.000624   0.010419   0.005564
   53  C 16  S   -0.001565  -0.001168   0.001177  -0.013486  -0.007405
   54  C 16  X    0.000720  -0.005688  -0.010329  -0.044841  -0.026953
   55  C 16  Y   -0.005336   0.007817  -0.004577  -0.003454  -0.002116
   56  C 16  Z   -0.003879  -0.016197   0.000567  -0.010315  -0.006539
   57  C 16  S   -0.014126  -0.003196   0.008751  -0.034236  -0.016219
   58  C 16  X    0.000084  -0.006769   0.032166  -0.025783  -0.012717
   59  C 16  Y   -0.009158   0.015334   0.018577  -0.004526  -0.001009
   60  C 16  Z   -0.005750  -0.005234   0.008016  -0.018156  -0.010412
   61  C 17  S    0.004129  -0.002369   0.000991   0.033099   0.004117
   62  C 17  S   -0.007669   0.001492  -0.000380  -0.026668  -0.002066
   63  C 17  X   -0.073372  -0.004821  -0.001593  -0.122456  -0.008790
   64  C 17  Y   -0.130107  -0.085563   0.029674  -0.120185  -0.016884
   65  C 17  Z   -0.120934   0.061569   0.010061  -0.022058   0.043673
   66  C 17  S    0.004968   0.012836  -0.017290  -0.167470  -0.032242
   67  C 17  X   -0.081637  -0.003428  -0.012618  -0.120089  -0.020628
   68  C 17  Y   -0.117773  -0.084426   0.025059  -0.125147  -0.018170
   69  C 17  Z   -0.108836   0.062612   0.002731  -0.034195   0.037842
   70  C 18  S    0.004102   0.004691   0.000627  -0.014060  -0.030186
   71  C 18  S   -0.006449  -0.003722  -0.001243   0.005907   0.023038
   72  C 18  X   -0.021888  -0.003416  -0.012435   0.136933   0.168337
   73  C 18  Y    0.172196   0.201730  -0.017309   0.065526  -0.100498
   74  C 18  Z    0.201417  -0.165959   0.003533   0.020339  -0.133724
   75  C 18  S    0.018036  -0.020771   0.005828   0.104654   0.147345
   76  C 18  X   -0.046493  -0.008475  -0.009300   0.116130   0.165307
   77  C 18  Y    0.145865   0.203552  -0.015944   0.051029  -0.106520
   78  C 18  Z    0.172904  -0.169098  -0.003017   0.004363  -0.141298
   79  C 19  S    0.002459  -0.002301  -0.000469   0.017520  -0.006710
   80  C 19  S   -0.003672   0.001563   0.000627  -0.014909   0.009108
   81  C 19  X    0.178624   0.025560  -0.006362  -0.230534  -0.112815
   82  C 19  Y   -0.016079  -0.027083  -0.014749  -0.125711   0.154210
   83  C 19  Z   -0.032108   0.043578  -0.005828  -0.136387   0.160174
   84  C 19  S    0.012833   0.013764  -0.000146  -0.084761  -0.016497
   85  C 19  X    0.129388   0.019635  -0.004056  -0.204846  -0.065999
   86  C 19  Y   -0.007798  -0.035734  -0.016896  -0.129972   0.132423
   87  C 19  Z   -0.021392   0.052908  -0.004256  -0.136257   0.139624
   88  H 20  S   -0.103839   0.125113  -0.000333   0.062509  -0.093461
   89  H 20  S   -0.087764   0.109793   0.000450   0.075648  -0.100097
   90  H 21  S    0.013639   0.028881   0.010865   0.058007  -0.100464
   91  H 21  S    0.018497   0.024030   0.007344   0.066171  -0.113205
   92  N 22  S    0.014533   0.002590   0.008053  -0.012758  -0.013015
   93  N 22  S   -0.010540  -0.001278  -0.003104   0.007688   0.009552
   94  N 22  X   -0.050476   0.015086   0.023626   0.031502   0.030763
   95  N 22  Y    0.055520  -0.054822   0.032422   0.068467   0.045436
   96  N 22  Z    0.012022   0.091835  -0.038474  -0.115267  -0.082979
   97  N 22  S   -0.072151  -0.016864  -0.066060   0.071792   0.063383
   98  N 22  X   -0.067187   0.018300   0.036845   0.044482   0.036087
   99  N 22  Y    0.071266  -0.066922   0.044569   0.084395   0.058109
  100  N 22  Z    0.021651   0.107951  -0.049675  -0.154989  -0.112959

                     31         32         33         34         35
                   -0.5826    -0.5732     0.0140     0.0601     0.1042
                     A          A          A          A          A   
    1  C  1  S   -0.000192   0.006679  -0.001553   0.004045   0.005852
    2  C  1  S    0.000216  -0.005502   0.000773  -0.003660  -0.002348
    3  C  1  X    0.004078   0.116003  -0.003980  -0.001451   0.014777
    4  C  1  Y   -0.165000   0.017629  -0.001613  -0.002406   0.007424
    5  C  1  Z    0.155255  -0.022411  -0.001895  -0.002928   0.006208
    6  C  1  S    0.000582  -0.016221   0.014812  -0.024991  -0.055136
    7  C  1  X    0.004586   0.103631  -0.007020  -0.036614   0.031785
    8  C  1  Y   -0.161463   0.005606  -0.000590  -0.012619   0.039338
    9  C  1  Z    0.152050  -0.027241  -0.009375  -0.012756   0.032639
   10  H  2  S   -0.000342   0.002144  -0.023104  -0.050647  -0.021809
   11  H  2  S    0.000011   0.012251  -0.094134  -0.645837   0.340283
   12  H  3  S    0.000058   0.002830   0.019345  -0.034098   0.030921
   13  H  3  S   -0.002548   0.010021   0.098054  -0.580944   0.593051
   14  H  4  S    0.002678   0.073686  -0.002362   0.002610   0.002877
   15  H  4  S    0.002286   0.073427  -0.010684   0.032850   0.012972
   16  H  5  S   -0.150879   0.007239  -0.000223  -0.003058  -0.000681
   17  H  5  S   -0.155603   0.012395  -0.008588   0.019996  -0.005754
   18  H  6  S   -0.000143   0.003494   0.025714  -0.028231   0.061799
   19  H  6  S   -0.000614   0.007014   0.112354  -0.581562   0.375067
   20  H  7  S    0.000354  -0.001902   0.018670  -0.045788  -0.056732
   21  H  7  S    0.000659  -0.000948   0.064783  -0.487821  -0.952827
   22  H  8  S   -0.021145  -0.089269   0.037075   0.019513   0.002126
   23  H  8  S   -0.036481  -0.101191   0.194099  -0.046042  -0.563031
   24  H  9  S    0.019855   0.125598  -0.044904   0.020588   0.008599
   25  H  9  S    0.035880   0.143800  -0.219196  -0.114588  -0.684826
   26  H 10  S   -0.093259  -0.027433  -0.004179   0.014033  -0.004648
   27  H 10  S   -0.113669  -0.043872   0.059712  -0.023076   0.018929
   28  H 11  S    0.091703   0.035565   0.010648   0.013654   0.000638
   29  H 11  S    0.109306   0.059222  -0.035069   0.012832  -0.000135
   30  H 12  S   -0.000250  -0.007474  -0.022295  -0.042416  -0.019459
   31  H 12  S   -0.000470  -0.014205  -0.096861  -0.685235  -0.267777
   32  H 13  S    0.170594  -0.014161   0.005159  -0.000702   0.007235
   33  H 13  S    0.179109  -0.009734  -0.011507   0.039006  -0.151727
   34  N 14  S   -0.000301   0.004577   0.001707  -0.087274   0.036420
   35  N 14  S    0.000088  -0.001049  -0.001128   0.043221  -0.014686
   36  N 14  X    0.000121  -0.025219  -0.010192  -0.058365   0.045131
   37  N 14  Y    0.003958   0.153128   0.159959   0.021127  -0.056509
   38  N 14  Z   -0.003695  -0.106390  -0.106654   0.042343  -0.042224
   39  N 14  S    0.002682  -0.043064  -0.013301   0.813468  -0.374107
   40  N 14  X    0.000320  -0.038692  -0.001853  -0.240666   0.201611
   41  N 14  Y    0.004691   0.204206   0.337772   0.111515  -0.109500
   42  N 14  Z   -0.005115  -0.145957  -0.203759   0.187714  -0.126745
   43  N 15  S   -0.000211  -0.005702  -0.002420  -0.094637  -0.084306
   44  N 15  S    0.000232   0.001796   0.000656   0.049485   0.030397
   45  N 15  X    0.007081  -0.048306  -0.091187  -0.030297   0.069615
[...]
    9             0.000766   0.031067   0.011115   0.026826   0.001525
   10             0.000111   0.007153   0.069942   0.000918   0.000999
   11             0.000121   0.005434   0.071344   0.004718   0.009352
   12             0.047620   0.042372   0.022554   0.121503   0.107681
   13             0.006706   0.000789   0.114353   0.000542   0.007131
   14             0.365945   0.709978   0.043197   0.353985   0.489190
   15             0.401996   0.270261   0.073289   0.673535   0.362473
   16             0.254274   0.284161   0.018280   0.201299   0.181807
   17             0.031291   0.172968   0.051157   0.059868   0.025261
   18             0.029506   0.033307   0.339522   0.011495   0.028829
   19             0.063337   0.012435   0.577976   0.001756   0.022120
   20             0.013010   0.002848   0.054493   0.000005   0.001366
   21             0.007330   0.000676   0.113103   0.000228   0.003054
   22             0.345438   0.079460   0.019232   0.190359   0.346186

                     21         22         23         24         25

                  2.000000   2.000000   2.000000   2.000000   2.000000

    1             0.008012   0.038499   0.042254   0.263682   0.385085
    2             0.020871   0.004545   0.006807   0.000803   0.000727
    3             0.003567   0.078162   0.032518   0.001004   0.018620
    4             0.000084   0.004442   0.001404   0.009680   0.184169
    5             0.004110   0.000110   0.017777   0.062920   0.034441
    6             0.000241   0.017171   0.022662   0.000121   0.001447
    7             0.055796   0.014488   0.002418   0.001042   0.000283
    8             0.064172   0.139312   0.000189   0.061514   0.100445
    9             0.151087   0.000651   0.055951   0.141860   0.006416
   10             0.035286   0.080356   0.027483   0.006392   0.005694
   11             0.037241   0.007595   0.077576   0.017945   0.003326
   12             0.046751   0.000024   0.005256   0.000111   0.000078
   13             0.003797   0.025136   0.028597   0.144888   0.009473
   14             0.141243   0.130303   0.264559   0.135427   0.003520
   15             0.243285   0.071575   0.246885   0.095030   0.005825
   16             0.205916   0.074147   0.291858   0.059735   0.018109
   17             0.410032   0.447213   0.173127   0.332342   0.430694
   18             0.140135   0.201119   0.211861   0.067588   0.359672
   19             0.043891   0.089091   0.134632   0.397631   0.331004
   20             0.000145   0.014183   0.004283   0.089489   0.000129
   21             0.017864   0.010760   0.040764   0.076006   0.077992
   22             0.366471   0.551115   0.311138   0.034789   0.022849

                     26         27         28         29         30

                  2.000000   2.000000   2.000000   2.000000   2.000000

    1             0.400649   0.405035   0.008210   0.575754   0.432966
    2             0.000034   0.000098   0.000700   0.000050   0.000025
    3             0.013640   0.000679   0.000419   0.001478   0.000203
    4             0.095079   0.000573   0.001621   0.075085   0.219638
    5             0.058692   0.159761   0.004425   0.017081   0.089255
    6             0.000215   0.000029   0.000365   0.001616   0.000731
    7             0.000384   0.000228   0.000621   0.000115   0.000041
    8             0.055808   0.047606   0.001129   0.038805   0.000685
    9             0.039699   0.029294   0.000732   0.007479   0.023507
   10             0.090990   0.218034   0.001283   0.033530   0.025241
   11             0.119259   0.184794   0.000124   0.002373   0.055921
   12             0.000202   0.000038   0.000160   0.000165   0.000006
   13             0.006040   0.010214   0.000055   0.040137   0.096610
   14             0.000814   0.085978   0.847297   0.038569   0.007637
   15             0.015472   0.012657   1.094585   0.012396   0.019577
   16            -0.000032   0.002380   0.003451   0.008732   0.003144
   17             0.236575   0.068791   0.005659   0.198158   0.012711
   18             0.497544   0.513861   0.002797   0.140131   0.386983
   19             0.230640   0.029571   0.002105   0.591086   0.377686
   20             0.092367   0.131984   0.000001   0.041362   0.080191
   21             0.002756   0.007440   0.000829   0.033016   0.092788
   22             0.043172   0.090956   0.023432   0.142883   0.074457

                     31         32

                  2.000000   2.000000

    1             0.375591   0.097699
    2             0.000000   0.000389
    3             0.000028  -0.000059
    4             0.000056   0.046722
    5             0.198175   0.000719
    6             0.000001   0.000221
    7             0.000001   0.000005
    8             0.005433   0.060421
    9             0.005140   0.123805
   10             0.078389   0.007927
   11             0.074779   0.014638
   12             0.000001   0.000846
   13             0.244185   0.001092
   14             0.000214   0.271445
   15             0.001954   0.118512
   16             0.000012   0.016717
   17             0.002102   0.164542
   18             0.104659   0.105473
   19             0.465388   0.084757
   20             0.187967   0.004671
   21             0.255519   0.000049
   22             0.000408   0.879410

               ----- POPULATIONS IN EACH AO -----
                             MULLIKEN      LOWDIN
              1  C  1  S      1.98824     1.97644
              2  C  1  S      0.35137     0.41265
              3  C  1  X      0.52975     0.50653
              4  C  1  Y      0.54059     0.50910
              5  C  1  Z      0.54089     0.50934
              6  C  1  S      1.12736     0.58362
              7  C  1  X      0.44454     0.56088
              8  C  1  Y      0.52782     0.59694
              9  C  1  Z      0.52944     0.59749
             10  H  2  S      0.41887     0.42421
             11  H  2  S      0.17459     0.32135
             12  H  3  S      0.42127     0.43175
             13  H  3  S      0.17681     0.32143
             14  H  4  S      0.46421     0.46535
             15  H  4  S      0.30493     0.42864
             16  H  5  S      0.46556     0.46747
             17  H  5  S      0.32290     0.43784
             18  H  6  S      0.41880     0.42419
             19  H  6  S      0.17482     0.32125
             20  H  7  S      0.41874     0.42333
             21  H  7  S      0.16218     0.31881
             22  H  8  S      0.46923     0.47759
             23  H  8  S      0.27901     0.42069
             24  H  9  S      0.47034     0.47918
             25  H  9  S      0.28186     0.42415
             26  H 10  S      0.46395     0.47327
             27  H 10  S      0.30578     0.43047
             28  H 11  S      0.46370     0.47290
             29  H 11  S      0.29983     0.42766
             30  H 12  S      0.41883     0.42419
             31  H 12  S      0.17363     0.32080
             32  H 13  S      0.46617     0.47566
             33  H 13  S      0.31224     0.43308
             34  N 14  S      1.98744     1.97717
             35  N 14  S      0.35727     0.45550
             36  N 14  X      0.57361     0.55040
             37  N 14  Y      0.68907     0.68920
             38  N 14  Z      0.63388     0.62312
             39  N 14  S      1.32748     0.72140
             40  N 14  X      0.65406     0.66019
             41  N 14  Y      0.91361     0.88859
             42  N 14  Z      0.79912     0.78096
             43  N 15  S      1.98748     1.97720
             44  N 15  S      0.35776     0.45571
             45  N 15  X      0.61802     0.60093
             46  N 15  Y      0.63825     0.63008
             47  N 15  Z      0.64029     0.63182
             48  N 15  S      1.32698     0.72004
             49  N 15  X      0.79554     0.74316
             50  N 15  Y      0.77795     0.79001
             51  N 15  Z      0.79333     0.79293
             52  C 16  S      1.98568     1.97519
             53  C 16  S      0.44672     0.41027
             54  C 16  X      0.59422     0.56186
             55  C 16  Y      0.47983     0.44922
             56  C 16  Z      0.46547     0.43497
             57  C 16  S      0.37244     0.46159
             58  C 16  X     -0.00723     0.40305
             59  C 16  Y      0.16652     0.42950
             60  C 16  Z      0.18676     0.43342
             61  C 17  S      1.98876     1.97602
             62  C 17  S      0.35533     0.41613
             63  C 17  X      0.45118     0.44295
             64  C 17  Y      0.55584     0.52718
             65  C 17  Z      0.54986     0.52075
             66  C 17  S      1.04693     0.56836
             67  C 17  X      0.24384     0.44280
             68  C 17  Y      0.50166     0.56878
             69  C 17  Z      0.48953     0.56569
             70  C 18  S      1.98941     1.97631
             71  C 18  S      0.34430     0.41359
             72  C 18  X      0.52092     0.50957
             73  C 18  Y      0.53894     0.51165
             74  C 18  Z      0.54116     0.51416
             75  C 18  S      1.12633     0.56773
             76  C 18  X      0.33378     0.51262
             77  C 18  Y      0.52224     0.58232
             78  C 18  Z      0.52109     0.58229
             79  C 19  S      1.98921     1.97623
             80  C 19  S      0.34305     0.40924
             81  C 19  X      0.51264     0.49814
             82  C 19  Y      0.54188     0.51398
             83  C 19  Z      0.54108     0.51327
             84  C 19  S      1.12161     0.56726
             85  C 19  X      0.33662     0.51718
             86  C 19  Y      0.52527     0.58322
             87  C 19  Z      0.52137     0.58202
             88  H 20  S      0.46558     0.46749
             89  H 20  S      0.32305     0.43788
             90  H 21  S      0.46622     0.47579
             91  H 21  S      0.31262     0.43321
             92  N 22  S      1.98826     1.97748
             93  N 22  S      0.35236     0.46039
             94  N 22  X      0.56643     0.55814
             95  N 22  Y      0.62060     0.61255
             96  N 22  Z      0.68164     0.68617
             97  N 22  S      1.35155     0.71294
             98  N 22  X      0.64616     0.65492
             99  N 22  Y      0.79601     0.75173
            100  N 22  Z      0.90590     0.86610

          ----- MULLIKEN ATOMIC OVERLAP POPULATIONS -----
          (OFF-DIAGONAL ELEMENTS NEED TO BE MULTIPLIED BY 2)

             1           2           3           4           5

    1    5.3419812
    2   -0.0000000   0.3008832
    3   -0.0000048   0.0020798   0.3149391
    4    0.3814418   0.0000000   0.0000000   0.4729510
    5    0.3774144  -0.0000000  -0.0000000  -0.0229327   0.5032336
    6    0.0000000  -0.0132035   0.0000046  -0.0000000   0.0000000
    7   -0.0000000  -0.0000478  -0.0000076   0.0000000  -0.0000000
    8   -0.0000321  -0.0000016   0.0017792   0.0000001   0.0000005
    9   -0.0000567   0.0000020   0.0012012   0.0000007   0.0000042
   10   -0.0003299  -0.0000002   0.0021742  -0.0000237   0.0021491
   11   -0.0004100   0.0000011   0.0009298  -0.0000201   0.0000215
   12   -0.0000000  -0.0000003  -0.0000473  -0.0000000   0.0000000
   13   -0.0384931   0.0000000   0.0000025  -0.0015049  -0.0017286
   14   -0.0000000   0.3290171  -0.0015777   0.0000000  -0.0000000
   15    0.0000000   0.0017525   0.0017405   0.0000000  -0.0000000
   16    0.0000002  -0.0259028  -0.0312651  -0.0000000   0.0000000
   17    0.0034392   0.0000019  -0.0239400  -0.0000604  -0.0000303
   18   -0.0731279  -0.0000069  -0.0031190   0.0032370  -0.0019420
   19    0.2493029   0.0000000   0.0000646  -0.0394177  -0.0452821
   20    0.3775062  -0.0000000   0.0000001  -0.0229943  -0.0251922
   21   -0.0386179  -0.0000000   0.0000025  -0.0015388   0.0027499
   22   -0.0000172  -0.0011121   0.3331255   0.0000000   0.0000001

             6           7           8           9          10

    6    0.3021387
    7    0.0000066   0.2896175
    8   -0.0000003  -0.0003589   0.4714816
    9    0.0000024   0.0005648  -0.0313571   0.4821586
   10   -0.0000000  -0.0000007   0.0027865  -0.0024689   0.4934905
   11    0.0000000   0.0000013  -0.0025758   0.0029256  -0.0241506
   12    0.0016587  -0.0127789   0.0000414  -0.0000199   0.0000000
   13    0.0000000   0.0000001   0.0000183   0.0021662  -0.0017365
   14    0.3295541   0.0016439   0.0000397  -0.0000267  -0.0000002
   15   -0.0013461   0.3263164   0.0021172   0.0004802  -0.0000020
   16   -0.0270035  -0.0248419  -0.0015564  -0.0015923  -0.0000515
   17   -0.0000449   0.0029663   0.3779359   0.3782368  -0.0481876
   18    0.0000005   0.0000191  -0.0367178  -0.0425074   0.3828070
   19   -0.0000000  -0.0000002   0.0005034   0.0015900  -0.0389545
   20   -0.0000000  -0.0000000   0.0000040   0.0000005   0.0000241
   21    0.0000000   0.0000000   0.0020353   0.0000152   0.0028809
   22    0.0018507  -0.0021839  -0.0379021  -0.0391176  -0.0006710

            11          12          13          14          15

   11    0.4864203
   12    0.0000000   0.3003270
   13    0.0028010   0.0000000   0.5039269
   14   -0.0000024  -0.0014202   0.0000000   7.0665643
   15   -0.0000011   0.3289725  -0.0000000  -0.0649727   7.0783440
   16   -0.0000100  -0.0260787   0.0000006   0.3377591   0.3290848
   17   -0.0487991   0.0000452  -0.0013582   0.0010946  -0.0026619
   18    0.3819774  -0.0000009  -0.0485308  -0.0000234   0.0001329
   19   -0.0370768  -0.0000000   0.3856645   0.0000000  -0.0000002
   20    0.0020646   0.0000000   0.0027492   0.0000000   0.0000000
   21   -0.0018194   0.0000000  -0.0255545  -0.0000000  -0.0000003
   22    0.0012543   0.0017589  -0.0000111  -0.0621007  -0.0643535

            16          17          18          19          20

   16    3.8616179
   17   -0.0473037   5.2913055
   18    0.0021777   0.2361595   5.4897006
   19   -0.0000430  -0.0711680   0.2362647   5.4490017
   20   -0.0000000  -0.0000269  -0.0018867  -0.0453669   0.5034317
   21    0.0000007  -0.0013172  -0.0488930   0.3859189  -0.0016876
   22    0.3454104   0.1366225  -0.0375440   0.0017223  -0.0000000

            21          22

   21    0.5046813
   22   -0.0000117   7.3321899

          TOTAL MULLIKEN AND LOWDIN ATOMIC POPULATIONS
       ATOM         MULL.POP.    CHARGE          LOW.POP.     CHARGE
    1 C             6.579996   -0.579996         6.252985   -0.252985
    2 H             0.593462    0.406538         0.745567    0.254433
    3 H             0.598082    0.401918         0.753179    0.246821
    4 H             0.769138    0.230862         0.893995    0.106005
    5 H             0.788465    0.211535         0.905303    0.094697
    6 H             0.593618    0.406382         0.745444    0.254556
    7 H             0.580916    0.419084         0.742136    0.257864
    8 H             0.748241    0.251759         0.898281    0.101719
    9 H             0.752202    0.247798         0.903335    0.096665
   10 H             0.769735    0.230265         0.903745    0.096255
   11 H             0.763532    0.236468         0.900555    0.099445
   12 H             0.592458    0.407542         0.744995    0.255005
   13 H             0.778411    0.221589         0.908737    0.091263
   14 N             7.935549   -0.935549         7.346550   -0.346550
   15 N             7.935603   -0.935603         7.341876   -0.341876
   16 C             4.690403    1.309597         5.559080    0.440920
   17 C             6.182909   -0.182909         6.028667   -0.028667
   18 C             6.438177   -0.438177         6.170245   -0.170245
   19 C             6.432723   -0.432723         6.160539   -0.160539
   20 H             0.788626    0.211374         0.905368    0.094632
   21 H             0.778844    0.221156         0.909000    0.091000
   22 N             7.908910   -0.908910         7.280418   -0.280418

          -------------------------------
          BOND ORDER AND VALENCE ANALYSIS     BOND ORDER THRESHOLD=0.050
          -------------------------------

                   BOND                       BOND                       BOND
  ATOM PAIR DIST  ORDER      ATOM PAIR DIST  ORDER      ATOM PAIR DIST  ORDER
    1   4  1.094  0.921        1   5  1.096  0.923        1  19  1.544  0.917
    1  20  1.096  0.923        2  14  1.015  0.811        3  22  1.017  0.808
    6  14  1.015  0.810        7  15  1.014  0.799        8  17  1.096  0.896
    9  17  1.098  0.894       10  18  1.098  0.910       11  18  1.097  0.909
   12  15  1.015  0.810       13  19  1.098  0.916       14  16  1.346  1.073
   15  16  1.343  1.083       16  22  1.336  1.121       17  18  1.540  0.908
   17  22  1.494  0.740       18  19  1.547  0.897       19  21  1.098  0.916

                       TOTAL       BONDED        FREE
      ATOM            VALENCE     VALENCE     VALENCE
    1 C                 3.650       3.650      -0.000
    2 H                 0.819       0.819       0.000
    3 H                 0.818       0.818      -0.000
    4 H                 0.909       0.909       0.000
    5 H                 0.913       0.913       0.000
    6 H                 0.819       0.819       0.000
    7 H                 0.809       0.809      -0.000
    8 H                 0.895       0.895       0.000
    9 H                 0.893       0.893       0.000
   10 H                 0.903       0.903       0.000
   11 H                 0.901       0.901       0.000
   12 H                 0.818       0.818      -0.000
   13 H                 0.905       0.905      -0.000
   14 N                 2.792       2.792      -0.000
   15 N                 2.797       2.797       0.000
   16 C                 3.255       3.255      -0.000
   17 C                 3.405       3.405      -0.000
   18 C                 3.568       3.568       0.000
   19 C                 3.595       3.595      -0.000
   20 H                 0.913       0.913       0.000
   21 H                 0.905       0.905      -0.000
   22 N                 2.764       2.764      -0.000

          ---------------------
          ELECTROSTATIC MOMENTS
          ---------------------

 POINT   1           X           Y           Z (BOHR)    CHARGE
                -3.499962   -0.230992    0.210355        1.00 (A.U.)
         DX          DY          DZ         /D/  (DEBYE)
    -7.964185   -0.935757   -0.035857    8.019050
 ...... END OF PROPERTY EVALUATION ......
 CPU     0: STEP CPU TIME=     0.03 TOTAL CPU TIME=          1.2 (      0.0 MIN)
 TOTAL WALL CLOCK TIME=          1.9 SECONDS, CPU UTILIZATION IS    62.77%
               580000  WORDS OF DYNAMIC MEMORY USED
 EXECUTION OF GAMESS TERMINATED NORMALLY Sat May 16 14:24:26 2020
 DDI: 263640 bytes (0.3 MB / 0 MWords) used by master data server.
Note: The following floating-point exceptions are signalling:Note: The following floating-point exceptions are signalling:Note: The following floating-point exceptions are signalling: IEEE_DENORMAL IEEE_DENORMALNote: The following floating-point exceptions are signalling: IEEE_DENORMAL IEEE_DENORMAL

 ----------------------------------------
 CPU timing information for all processes
 ========================================
 0: 1.92 + 0.93 = 1.185
 1: 1.19 + 0.08 = 1.27
 2: 1.19 + 0.07 = 1.27
 3: 1.02 + 0.08 = 1.10
 4: 1.17 + 0.16 = 1.33
 5: 1.39 + 0.04 = 1.43
 ----------------------------------------



Note: The following floating-point exceptions are signalling: IEEE_DENORMALNote: The following floating-point exceptions are signalling:
 IEEE_DENORMAL
 ddikick.x: exited gracefully.
unset echo
----- accounting info -----
Files used on the master node pietdev were:
-rwxr-xr-x 1 piet piet     1317 mei 16 14:24 /home/piet/scr/arginineH_1__fukui_neu.F05*
-rw-r--r-- 1 piet piet 49152000 mei 16 14:24 /home/piet/scr/arginineH_1__fukui_neu.F10
ls: No match.
ls: No match.
ls: No match.
za 16 mei 2020 14:24:29 CEST
0.113u 0.021s 0:05.02 2.5%	0+0k 0+8io 0pf+0w
