----- GAMESS execution script 'rungms' -----
This job is running on host pietdev
under operating system Linux at vr 22 mei 2020 14:59:52 CEST
Available scratch disk space (Kbyte units) at beginning of the job is
Filesystem     1K-blocks     Used Available Use% Mounted on
/dev/sda2      244568380 31372572 200702752  14% /
GAMESS temporary binary files will be written to /home/piet/scr
GAMESS supplementary output files will be written to /home/piet/gamess/scr
Copying input file beta-d-glucopyranose_fukui_acid.inp to your run's scratch directory...
cp beta-d-glucopyranose_fukui_acid.inp /home/piet/scr/beta-d-glucopyranose_fukui_acid.F05
unset echo
 
Assuming a single but multicore node.
 
/home/piet/gamess/ddikick.x /home/piet/gamess/gamess.03.x beta-d-glucopyranose_fukui_acid -ddi 1 8 pietdev:cpus=8 -scr /home/piet/scr

 Distributed Data Interface kickoff program.
 Initiating 8 compute processes on 1 nodes to run the following command:
 /home/piet/gamess/gamess.03.x beta-d-glucopyranose_fukui_acid 

          ******************************************************
          *         GAMESS VERSION = 30 SEP 2019 (R2)          *
          *             FROM IOWA STATE UNIVERSITY             *
          * M.W.SCHMIDT, K.K.BALDRIDGE, J.A.BOATZ, S.T.ELBERT, *
          *   M.S.GORDON, J.H.JENSEN, S.KOSEKI, N.MATSUNAGA,   *
          *          K.A.NGUYEN, S.J.SU, T.L.WINDUS,           *
          *       TOGETHER WITH M.DUPUIS, J.A.MONTGOMERY       *
          *         J.COMPUT.CHEM.  14, 1347-1363(1993)        *
          **************** 64 BIT LINUX VERSION ****************

  SINCE 1993, STUDENTS AND POSTDOCS WORKING AT IOWA STATE UNIVERSITY
  AND ALSO IN THEIR VARIOUS JOBS AFTER LEAVING ISU HAVE MADE IMPORTANT
  CONTRIBUTIONS TO THE CODE:
     IVANA ADAMOVIC, CHRISTINE AIKENS, YURI ALEXEEV, POOJA ARORA,
     ANDREY ASADCHEV, ROB BELL, PRADIPTA BANDYOPADHYAY, JONATHAN BENTZ,
     COLLEEN BERTONI, BRETT BODE, KURT BRORSEN, CALEB CARLIN, GALINA CHABAN,
     WEI CHEN, CHEOL HO CHOI, PAUL DAY, ALBERT DEFUSCO, NUWAN DESILVA,
     TIM DUDLEY, DMITRI FEDOROV, ALEX FINDLATER, GRAHAM FLETCHER, 
     MARK FREITAG, KURT GLAESEMANN, EMILIE B GUIDEZ, ANASTASIA GUNINA, 
     DAN KEMP, SAROM SOK LEANG, GRANT MERRILL,
     NORIYUKI MINEZAWA, JONATHAN MULLIN,
     TAKESHI NAGATA, SEAN NEDD, HEATHER NETZLOFF, BOSILJKA NJEGIC, RYAN OLSON,
     MIKE PAK, BUU PHAM, DAVID POOLE,
     SPENCER PRUITT, LUKE ROSKOP, TOSAPORN SATTASATHUCHANA,
     JIM SHOEMAKER, LYUDMILA SLIPCHENKO,
     TONY SMITH, JIE SONG, TETSUYA TAKETSUGU, SIMON WEBB,
     JORGE LUIS GALVEZ VALLEJO, PENG XU, SOOHAENG YOO,
     FEDERICO ZAHARIEV

  ADDITIONAL CODE HAS BEEN PROVIDED BY COLLABORATORS IN OTHER GROUPS:
     IOWA STATE UNIVERSITY:
          JOE IVANIC, AARON WEST, LAIMUTIS BYTAUTAS, KLAUS RUEDENBERG
     UNIVERSITY OF TOKYO: KIMIHIKO HIRAO, TAKAHITO NAKAJIMA,
          TAKAO TSUNEDA, MUNEAKI KAMIYA, SUSUMU YANAGISAWA,
          KIYOSHI YAGI, MAHITO CHIBA, SEIKEN TOKURA, NAOAKI KAWAKAMI
     UNIVERSITY OF AARHUS: FRANK JENSEN
     UNIVERSITY OF IOWA: VISVALDAS KAIRYS, HUI LI
     NATIONAL INST. OF STANDARDS AND TECHNOLOGY: WALT STEVENS, DAVID GARMER
     UNIVERSITY OF PISA: BENEDETTA MENNUCCI, JACOPO TOMASI
     UNIVERSITY OF MEMPHIS: HENRY KURTZ, PRAKASHAN KORAMBATH
     UNIVERSITY OF ALBERTA: TOBY ZENG, MARIUSZ KLOBUKOWSKI
     UNIVERSITY OF NEW ENGLAND: MARK SPACKMAN
     MIE UNIVERSITY: HIROAKI UMEDA
     NAT. INST. OF ADVANCED INDUSTRIAL SCIENCE AND TECHNOLOGY: KAZUO KITAURA
     MICHIGAN STATE UNIVERSITY:
          KAROL KOWALSKI, MARTA WLOCH, JEFFREY GOUR, JESSE LUTZ,
          WEI LI, JUN SHEN, J. EMILIANO DEUSTUA, PIOTR PIECUCH
     UNIVERSITY OF MINNESOTA:
          ANDREW SAND, PRACHI SHARMA, YINAN SHU
     UNIVERSITY OF SILESIA: MONIKA MUSIAL, STANISLAW KUCHARSKI
     FACULTES UNIVERSITAIRES NOTRE-DAME DE LA PAIX:
          OLIVIER QUINET, BENOIT CHAMPAGNE
     UNIVERSITY OF CALIFORNIA - SANTA BARBARA: BERNARD KIRTMAN
     INSTITUTE FOR MOLECULAR SCIENCE:
          KAZUYA ISHIMURA, MICHIO KATOUDA, AND SHIGERU NAGASE
     UNIVERSITY OF NOTRE DAME: ANNA POMOGAEVA, DAN CHIPMAN
     KYUSHU UNIVERSITY:
          HARUYUKI NAKANO,
          FENG LONG GU, JACEK KORCHOWIEC, MARCIN MAKOWSKI, AND YURIKO AOKI,
          HIROTOSHI MORI AND EISAKU MIYOSHI
     PENNSYLVANIA STATE UNIVERSITY:
          TZVETELIN IORDANOV, CHET SWALINA, JONATHAN SKONE,
          SHARON HAMMES-SCHIFFER
     WASEDA UNIVERSITY:
          MASATO KOBAYASHI, TOMOKO AKAMA, TSUGUKI TOUMA,
          TAKESHI YOSHIKAWA, YASUHIRO IKABATA, JUNJI SEINO,
          YUYA NAKAJIMA, HIROMI NAKAI
     NANJING UNIVERSITY: SHUHUA LI
     UNIVERSITY OF NEBRASKA:
          PEIFENG SU, DEJUN SI, NANDUN THELLAMUREGE, YALI WANG, HUI LI
     UNIVERSITY OF ZURICH: ROBERTO PEVERATI, KIM BALDRIDGE
     N. COPERNICUS UNIVERSITY AND JACKSON STATE UNIVERSITY:
          MARIA BARYSZ
     UNIVERSITY OF COPENHAGEN: Jimmy Kromann, CASPER STEINMANN
     TOKYO INSTITUTE OF TECHNOLOGY: HIROYA NAKATA
     NAGOYA UNIVERSITY: YOSHIO NISHIMOTO, STEPHAN IRLE
     MOSCOW STATE UNIVERSITY: VLADIMIR MIRONOV
     A.N.NESMEYANOV INSTITUTE OF ORGANOELEMENT COMPOUNDS OF RUSSIAN ACADEMY OF SCIENCES:
          IGOR S. GERASIMOV
     JOHANNES KEPLER UNIVERSITY LINZ:
          CHRISTIAN FRIEDL


 PARALLEL VERSION RUNNING ON        8 PROCESSORS IN        1 NODES.

 EXECUTION OF GAMESS BEGUN Fri May 22 14:59:52 2020

            ECHO OF THE FIRST FEW INPUT CARDS -
 INPUT CARD> $BASIS GBASIS=N21 NGAUSS=3 $END                                                
 INPUT CARD> $CONTRL SCFTYP=UHF MAXIT=60 MULT=2 ICHARG=-1 $END                              
 INPUT CARD> $SYSTEM MEMDDI=1000 MWORDS=30 $END                                             
 INPUT CARD> $SCF DIRSCF=.TRUE. $END                                                        
 INPUT CARD> $STATPT OPTTOL=0.0001 NSTEP=999 $END                                           
 INPUT CARD> $DATA                                                                          
 INPUT CARD>                                                                                
 INPUT CARD>C1                                                                              
 INPUT CARD>H 1.0000000 -0.9685972096 2.4101391731 -0.3637487910                            
 INPUT CARD>C 6.0000000 -0.6738754228 1.4681523580 0.1172500964                             
 INPUT CARD>C 6.0000000 -1.6027845363 0.3037484194 -0.2876341403                            
 INPUT CARD>H 1.0000000 -1.7562062453 0.2598666105 -1.3697425477                            
 INPUT CARD>O 8.0000000 -2.8763632246 0.4166648143 0.4593644677                             
 INPUT CARD>C 6.0000000 -1.0074940130 -1.0005572285 0.2107175699                            
 INPUT CARD>H 1.0000000 -0.9661005517 -0.9567312200 1.3057246201                            
 INPUT CARD>O 8.0000000 -1.7588262066 -2.1613668967 -0.2511227804                           
 INPUT CARD>C 6.0000000 0.4096478233 -1.1793463975 -0.3097617118                            
 INPUT CARD>H 1.0000000 0.3812432833 -1.1706902365 -1.4103887015                            
 INPUT CARD>O 8.0000000 0.9651891451 -2.4132875447 0.2149706197                             
 INPUT CARD>C 6.0000000 1.2620274311 -0.0091682090 0.1809640187                             
 INPUT CARD>H 1.0000000 1.2738457427 0.0183621917 1.2721509228                              
 INPUT CARD>O 8.0000000 0.6599171174 1.2296303511 -0.3563554543                             
 INPUT CARD>C 6.0000000 2.6823592793 -0.0964949184 -0.3440070686                            
 INPUT CARD>O 8.0000000 3.4809477704 0.8422554576 0.4341572427                              
 INPUT CARD>O 8.0000000 -0.7167401721 1.5549869840 1.5555065942                             
 INPUT CARD>H 1.0000000 -3.4486867144 1.0973753619 0.0118988363                             
 INPUT CARD>H 1.0000000 -2.6842205388 -2.0469587955 0.0975098415                            
 INPUT CARD>H 1.0000000 0.2365128510 -3.0859853008 0.0949172015                             
 INPUT CARD>H 1.0000000 3.0068982875 -1.1388542770 -0.2158359906                            
 INPUT CARD>H 1.0000000 2.6618712259 0.1469911178 -1.4167787481                             
 INPUT CARD>H 1.0000000 4.4077972683 0.8166792832 0.0736717029                              
 INPUT CARD>H 1.0000000 -1.6450223901 1.2503890021 1.7849421999                             
 INPUT CARD> $END                                                                           
   30000000 WORDS OF MEMORY AVAILABLE

     BASIS OPTIONS
     -------------
     GBASIS=N21          IGAUSS=       3      POLAR=NONE    
     NDFUNC=       0     NFFUNC=       0     DIFFSP=       F
     NPFUNC=       0      DIFFS=       F     BASNAM=        


     RUN TITLE
     ---------
                                                                                 

 THE POINT GROUP OF THE MOLECULE IS C1      
 THE ORDER OF THE PRINCIPAL AXIS IS     0

 ATOM      ATOMIC                      COORDINATES (BOHR)
           CHARGE         X                   Y                   Z
 H           1.0    -1.8303833186        4.5545026294       -0.6873855434
 C           6.0    -1.2734398990        2.7744056648        0.2215705542
 C           6.0    -3.0288235910        0.5740012819       -0.5435497099
 H           1.0    -3.3187485815        0.4910766872       -2.5884380889
 O           8.0    -5.4355383357        0.7873823278        0.8680729724
 C           6.0    -1.9038876188       -1.8907789969        0.3981984679
 H           1.0    -1.8256653193       -1.8079598497        2.4674617474
 O           8.0    -3.3236995905       -4.0843911937       -0.4745532442
 C           6.0     0.7741221375       -2.2286415359       -0.5853647568
 H           1.0     0.7204453401       -2.2122837635       -2.6652481820
 O           8.0     1.8239430106       -4.5604521891        0.4062355666
 C           6.0     2.3848860338       -0.0173254028        0.3419724090
 H           1.0     2.4072194043        0.0346995108        2.4040166591
 O           8.0     1.2470625265        2.3236644298       -0.6734141629
 C           6.0     5.0689240385       -0.1823489550       -0.6500790975
 O           8.0     6.5780374636        1.5916320265        0.8204382243
 O           8.0    -1.3544425297        2.9384993142        2.9394812351
 H           1.0    -6.5170729077        2.0737387397        0.0224855402
 H           1.0    -5.0724413089       -3.8681912317        0.1842668815
 H           1.0     0.4469444810       -5.8316666206        0.1793675024
 H           1.0     5.6822138363       -2.1521225235       -0.4078708805
 H           1.0     5.0302072316        0.2777729353       -2.6773236191
 H           1.0     8.3295290465        1.5433000651        0.1392193315
 H           1.0    -3.1086415610        2.3628925920        3.3730516617

          INTERNUCLEAR DISTANCES (ANGS.)
          ------------------------------

                1 H          2 C          3 C          4 H          5 O     

   1 H       0.0000000    1.0979800 *  2.2011063 *  2.5012044 *  2.8794143 *
   2 C       1.0979800 *  0.0000000    1.5435802 *  2.2005776 *  2.4644717 *
   3 C       2.2011063 *  1.5435802 *  0.0000000    1.0938110 *  1.4807970 *
   4 H       2.5012044 *  2.2005776 *  1.0938110 *  0.0000000    2.1505743 *
   5 O       2.8794143 *  2.4644717 *  1.4807970 *  2.1505743 *  0.0000000  
   6 C       3.4589557    2.4929028 *  1.5178730 *  2.1557116 *  2.3586046 *
   7 H       3.7580532    2.7162341 *  2.1290767 *  3.0434359    2.5003291 *
   8 O       4.6406696    3.8060776    2.4703189 *  2.6671499 *  2.8982630 *
   9 C       3.8453713    2.8923367 *  2.4999888 *  2.8081697 *  3.7331857  
  10 H       3.9673497    3.2265223    2.7149426 *  2.5723210 *  4.0777044  
  11 O       5.2287562    4.2144582    3.7721857    4.1307459    4.7776441  
  12 C       3.3354830    2.4360327 *  2.9197001 *  3.4039396    4.1695465  
  13 H       3.6640572    2.6887367 *  3.2847186    4.0272994    4.2477643  
  14 O       2.0113962 *  1.4353388 *  2.4457716 *  2.7937515 *  3.7190846  
  15 C       4.4286666    3.7316472    4.3041643    4.5694628    5.6398701  
  16 O       4.7847010    4.2136365    5.1628778    5.5696511    6.3715905  
  17 O       2.1161896 *  1.4415129 *  2.3974654 *  3.3637641    2.6760562 *
  18 H       2.8311312 *  2.8014554 *  2.0314819 *  2.3398384 *  0.9955634 *
  19 H       4.7981085    4.0494300    2.6160398 *  2.8871238 *  2.4974585 *
  20 H       5.6453564    4.6442949    3.8755200    4.1606349    4.7001465  
  21 H       5.3312097    4.5227785    4.8306763    5.0965758    6.1227691  
  22 H       4.4057930    3.9020401    4.4143889    4.4197694    5.8536039  
  23 H       5.6245950    5.1234474    6.0432387    6.3551888    7.3053244  
  24 H       2.5336623 *  1.9420979 *  2.2789219 *  3.3084033    1.9920975 *

                6 C          7 H          8 O          9 C         10 H     

   1 H       3.4589557    3.7580532    4.6406696    3.8453713    3.9673497  
   2 C       2.4929028 *  2.7162341 *  3.8060776    2.8923367 *  3.2265223  
   3 C       1.5178730 *  2.1290767 *  2.4703189 *  2.4999888 *  2.7149426 *
   4 H       2.1557116 *  3.0434359    2.6671499 *  2.8081697 *  2.5723210 *
   5 O       2.3586046 *  2.5003291 *  2.8982630 *  3.7331857    4.0777044  
   6 C       0.0000000    1.0966652 *  1.4578325 *  1.5202484 *  2.1413832 *
   7 H       1.0966652 *  0.0000000    2.1221062 *  2.1335504 *  3.0394712  
   8 O       1.4578325 *  2.1221062 *  0.0000000    2.3811935 *  2.6277814 *
   9 C       1.5202484 *  2.1335504 *  2.3811935 *  0.0000000    1.1010275 *
  10 H       2.1413832 *  3.0394712    2.6277814 *  1.1010275 *  0.0000000  
  11 O       2.4263767 *  2.6535223 *  2.7750616 *  1.4514065 *  2.1276357 *
  12 C       2.4767852 *  2.6697409 *  3.7341953    1.5286202 *  2.1580819 *
  13 H       2.7146544 *  2.4432138 *  4.0334453    2.1642069 *  3.0670187  
  14 O       2.8417544 *  3.1916486    4.1665640    2.4223903 *  2.6363202 *
  15 C       3.8392793    4.0954707    4.8986174    2.5177286 *  2.7543058 *
  16 O       4.8571590    4.8756765    6.0783704    3.7514228    4.1306740  
  17 O       2.9023786 *  2.5363951 *  4.2615888    3.4963631    4.1750951  
  18 H       3.2249452    3.4722576    3.6802459    4.4915112    4.6728350  
  19 H       1.9796929 *  2.3664986 *  0.9954841 *  3.2389262    3.5268503  
  20 H       2.4310436 *  2.7287463 *  2.2262167 *  1.9567863 *  2.4403377 *
  21 H       4.0393588    4.2582902    4.8743109    2.5992637 *  2.8847936 *
  22 H       4.1749075    4.6682338    5.1215072    2.8385151 *  2.6339303 *
  23 H       5.7137124    5.7915211    6.8557637    4.4851242    4.7291870  
  24 H       2.8198199 *  2.3583817 *  3.9747440    3.8096021    4.4919391  

               11 O         12 C         13 H         14 O         15 C     

   1 H       5.2287562    3.3354830    3.6640572    2.0113962 *  4.4286666  
   2 C       4.2144582    2.4360327 *  2.6887367 *  1.4353388 *  3.7316472  
   3 C       3.7721857    2.9197001 *  3.2847186    2.4457716 *  4.3041643  
   4 H       4.1307459    3.4039396    4.0272994    2.7937515 *  4.5694628  
   5 O       4.7776441    4.1695465    4.2477643    3.7190846    5.6398701  
   6 C       2.4263767 *  2.4767852 *  2.7146544 *  2.8417544 *  3.8392793  
   7 H       2.6535223 *  2.6697409 *  2.4432138 *  3.1916486    4.0954707  
   8 O       2.7750616 *  3.7341953    4.0334453    4.1665640    4.8986174  
   9 C       1.4514065 *  1.5286202 *  2.1642069 *  2.4223903 *  2.5177286 *
  10 H       2.1276357 *  2.1580819 *  3.0670187    2.6363202 *  2.7543058 *
  11 O       0.0000000    2.4226141 *  2.6694231 *  3.7000615    2.9374576 *
  12 C       2.4226141 *  0.0000000    1.0915981 *  1.4784691 *  1.5167607 *
  13 H       2.6694231 *  1.0915981 *  0.0000000    2.1204037 *  2.1468743 *
  14 O       3.7000615    1.4784691 *  2.1204037 *  0.0000000    2.4184774 *
  15 C       2.9374576 *  1.5167607 *  2.1468743 *  2.4184774 *  0.0000000  
  16 O       4.1201510    2.3901122 *  2.5004665 *  2.9551960 *  1.4575787 *
  17 O       4.5136599    2.8725372 *  2.5306004 *  2.3782890 *  4.2295888  
  18 H       5.6434291    4.8418849    5.0054788    4.1271937    6.2563344  
  19 H       3.6696301    4.4421198    4.6164511    4.7037524    5.7270783  
  20 H       0.9989516 *  3.2443624    3.4783491    4.3597542    3.8873991  
  21 H       2.4450666 *  2.1161794 *  2.5606105 *  3.3373321    1.0992117 *
  22 H       3.4779826    2.1299602 *  3.0287791    2.5108615 *  1.1002474 *
  23 H       4.7227324    3.2541364    3.4489585    3.7950043    1.9963664 *
  24 H       4.7645085    3.5510800    3.2094604    3.1461616    5.0072701  

               16 O         17 O         18 H         19 H         20 H     

   1 H       4.7847010    2.1161896 *  2.8311312 *  4.7981085    5.6453564  
   2 C       4.2136365    1.4415129 *  2.8014554 *  4.0494300    4.6442949  
   3 C       5.1628778    2.3974654 *  2.0314819 *  2.6160398 *  3.8755200  
   4 H       5.5696511    3.3637641    2.3398384 *  2.8871238 *  4.1606349  
   5 O       6.3715905    2.6760562 *  0.9955634 *  2.4974585 *  4.7001465  
   6 C       4.8571590    2.9023786 *  3.2249452    1.9796929 *  2.4310436 *
   7 H       4.8756765    2.5363951 *  3.4722576    2.3664986 *  2.7287463 *
   8 O       6.0783704    4.2615888    3.6802459    0.9954841 *  2.2262167 *
   9 C       3.7514228    3.4963631    4.4915112    3.2389262    1.9567863 *
  10 H       4.1306740    4.1750951    4.6728350    3.5268503    2.4403377 *
  11 O       4.1201510    4.5136599    5.6434291    3.6696301    0.9989516 *
  12 C       2.3901122 *  2.8725372 *  4.8418849    4.4421198    3.2443624  
  13 H       2.5004665 *  2.5306004 *  5.0054788    4.6164511    3.4783491  
  14 O       2.9551960 *  2.3782890 *  4.1271937    4.7037524    4.3597542  
  15 C       1.4575787 *  4.2295888    6.2563344    5.7270783    3.8873991  
  16 O       0.0000000    4.4029529    6.9471737    6.8169048    5.1061255  
  17 O       4.4029529    0.0000000    3.1710669    4.3555421    4.9578863  
  18 H       6.9471737    3.1710669    0.0000000    3.2370627    5.5756699  
  19 H       6.8169048    4.3555421    3.2370627    0.0000000    3.1000430  
  20 H       5.1061255    4.9578863    5.5756699    3.1000430    0.0000000  
  21 H       2.1382259 *  4.9254359    6.8357270    5.7716265    3.4004297  
  22 H       2.1401502 *  4.7150766    6.3469101    5.9738751    4.3150579  
  23 H       0.9948135 *  5.3853335    7.8617394    7.6483794    5.7123424  
  24 H       5.3166496    1.0035579 *  2.5338313 *  3.8470590    5.0200101  

               21 H         22 H         23 H         24 H     

   1 H       5.3312097    4.4057930    5.6245950    2.5336623 *
   2 C       4.5227785    3.9020401    5.1234474    1.9420979 *
   3 C       4.8306763    4.4143889    6.0432387    2.2789219 *
   4 H       5.0965758    4.4197694    6.3551888    3.3084033  
   5 O       6.1227691    5.8536039    7.3053244    1.9920975 *
   6 C       4.0393588    4.1749075    5.7137124    2.8198199 *
   7 H       4.2582902    4.6682338    5.7915211    2.3583817 *
   8 O       4.8743109    5.1215072    6.8557637    3.9747440  
   9 C       2.5992637 *  2.8385151 *  4.4851242    3.8096021  
  10 H       2.8847936 *  2.6339303 *  4.7291870    4.4919391  
  11 O       2.4450666 *  3.4779826    4.7227324    4.7645085  
  12 C       2.1161794 *  2.1299602 *  3.2541364    3.5510800  
  13 H       2.5606105 *  3.0287791    3.4489585    3.2094604  
  14 O       3.3373321    2.5108615 *  3.7950043    3.1461616  
  15 C       1.0992117 *  1.1002474 *  1.9963664 *  5.0072701  
  16 O       2.1382259 *  2.1401502 *  0.9948135 *  5.3166496  
  17 O       4.9254359    4.7150766    5.3853335    1.0035579 *
  18 H       6.8357270    6.3469101    7.8617394    2.5338313 *
  19 H       5.7716265    5.9738751    7.6483794    3.8470590  
  20 H       3.4004297    4.3150579    5.7123424    5.0200101  
  21 H       0.0000000    1.7929600 *  2.4228999 *  5.5992823  
  22 H       1.7929600 *  0.0000000    2.3912722 *  5.4788536  
  23 H       2.4228999 *  2.3912722 *  0.0000000    6.3050120  
  24 H       5.5992823    5.4788536    6.3050120    0.0000000  

  * ... LESS THAN  3.000


     ATOMIC BASIS SET
     ----------------
 THE CONTRACTED PRIMITIVE FUNCTIONS HAVE BEEN UNNORMALIZED
 THE CONTRACTED BASIS FUNCTIONS ARE NOW NORMALIZED TO UNITY

  SHELL TYPE  PRIMITIVE        EXPONENT          CONTRACTION COEFFICIENT(S)

 H         

      1   S       1             5.4471780    0.156284978695
      1   S       2             0.8245472    0.904690876670

      2   S       3             0.1831916    1.000000000000

 C         

      3   S       4           172.2560000    0.061766907377
      3   S       5            25.9109000    0.358794042852
      3   S       6             5.5333500    0.700713083689

      4   L       7             3.6649800   -0.395895162119    0.236459946619
      4   L       8             0.7705450    1.215834355681    0.860618805716

      5   L       9             0.1958570    1.000000000000    1.000000000000

 C         

      6   S      10           172.2560000    0.061766907377
      6   S      11            25.9109000    0.358794042852
      6   S      12             5.5333500    0.700713083689

      7   L      13             3.6649800   -0.395895162119    0.236459946619
      7   L      14             0.7705450    1.215834355681    0.860618805716

      8   L      15             0.1958570    1.000000000000    1.000000000000

 H         

      9   S      16             5.4471780    0.156284978695
      9   S      17             0.8245472    0.904690876670

     10   S      18             0.1831916    1.000000000000

 O         

     11   S      19           322.0370000    0.059239393389
     11   S      20            48.4308000    0.351499960776
     11   S      21            10.4206000    0.707657921031

     12   L      22             7.4029400   -0.404453583190    0.244586106967
     12   L      23             1.5762000    1.221561761397    0.853955373466

     13   L      24             0.3736840    1.000000000000    1.000000000000

 C         

     14   S      25           172.2560000    0.061766907377
     14   S      26            25.9109000    0.358794042852
     14   S      27             5.5333500    0.700713083689

     15   L      28             3.6649800   -0.395895162119    0.236459946619
     15   L      29             0.7705450    1.215834355681    0.860618805716

     16   L      30             0.1958570    1.000000000000    1.000000000000

 H         

     17   S      31             5.4471780    0.156284978695
     17   S      32             0.8245472    0.904690876670

     18   S      33             0.1831916    1.000000000000

 O         

     19   S      34           322.0370000    0.059239393389
     19   S      35            48.4308000    0.351499960776
     19   S      36            10.4206000    0.707657921031

     20   L      37             7.4029400   -0.404453583190    0.244586106967
     20   L      38             1.5762000    1.221561761397    0.853955373466

     21   L      39             0.3736840    1.000000000000    1.000000000000

 C         

     22   S      40           172.2560000    0.061766907377
     22   S      41            25.9109000    0.358794042852
     22   S      42             5.5333500    0.700713083689

     23   L      43             3.6649800   -0.395895162119    0.236459946619
     23   L      44             0.7705450    1.215834355681    0.860618805716

     24   L      45             0.1958570    1.000000000000    1.000000000000

 H         

     25   S      46             5.4471780    0.156284978695
     25   S      47             0.8245472    0.904690876670

     26   S      48             0.1831916    1.000000000000

 O         

     27   S      49           322.0370000    0.059239393389
     27   S      50            48.4308000    0.351499960776
     27   S      51            10.4206000    0.707657921031

     28   L      52             7.4029400   -0.404453583190    0.244586106967
     28   L      53             1.5762000    1.221561761397    0.853955373466

     29   L      54             0.3736840    1.000000000000    1.000000000000

 C         

     30   S      55           172.2560000    0.061766907377
     30   S      56            25.9109000    0.358794042852
     30   S      57             5.5333500    0.700713083689

     31   L      58             3.6649800   -0.395895162119    0.236459946619
     31   L      59             0.7705450    1.215834355681    0.860618805716

     32   L      60             0.1958570    1.000000000000    1.000000000000

 H         

     33   S      61             5.4471780    0.156284978695
     33   S      62             0.8245472    0.904690876670

     34   S      63             0.1831916    1.000000000000

 O         

     35   S      64           322.0370000    0.059239393389
     35   S      65            48.4308000    0.351499960776
     35   S      66            10.4206000    0.707657921031

     36   L      67             7.4029400   -0.404453583190    0.244586106967
     36   L      68             1.5762000    1.221561761397    0.853955373466

     37   L      69             0.3736840    1.000000000000    1.000000000000

 C         

     38   S      70           172.2560000    0.061766907377
     38   S      71            25.9109000    0.358794042852
     38   S      72             5.5333500    0.700713083689

     39   L      73             3.6649800   -0.395895162119    0.236459946619
     39   L      74             0.7705450    1.215834355681    0.860618805716

     40   L      75             0.1958570    1.000000000000    1.000000000000

 O         

     41   S      76           322.0370000    0.059239393389
     41   S      77            48.4308000    0.351499960776
     41   S      78            10.4206000    0.707657921031

     42   L      79             7.4029400   -0.404453583190    0.244586106967
     42   L      80             1.5762000    1.221561761397    0.853955373466

     43   L      81             0.3736840    1.000000000000    1.000000000000

 O         

     44   S      82           322.0370000    0.059239393389
     44   S      83            48.4308000    0.351499960776
     44   S      84            10.4206000    0.707657921031

     45   L      85             7.4029400   -0.404453583190    0.244586106967
     45   L      86             1.5762000    1.221561761397    0.853955373466

     46   L      87             0.3736840    1.000000000000    1.000000000000

 H         

     47   S      88             5.4471780    0.156284978695
     47   S      89             0.8245472    0.904690876670

     48   S      90             0.1831916    1.000000000000

 H         

     49   S      91             5.4471780    0.156284978695
     49   S      92             0.8245472    0.904690876670

     50   S      93             0.1831916    1.000000000000

 H         

     51   S      94             5.4471780    0.156284978695
     51   S      95             0.8245472    0.904690876670

     52   S      96             0.1831916    1.000000000000

 H         

     53   S      97             5.4471780    0.156284978695
     53   S      98             0.8245472    0.904690876670

     54   S      99             0.1831916    1.000000000000

 H         

     55   S     100             5.4471780    0.156284978695
     55   S     101             0.8245472    0.904690876670

     56   S     102             0.1831916    1.000000000000

 H         

     57   S     103             5.4471780    0.156284978695
     57   S     104             0.8245472    0.904690876670

     58   S     105             0.1831916    1.000000000000

 H         

     59   S     106             5.4471780    0.156284978695
     59   S     107             0.8245472    0.904690876670

     60   S     108             0.1831916    1.000000000000

 TOTAL NUMBER OF BASIS SET SHELLS             =   60
 NUMBER OF CARTESIAN GAUSSIAN BASIS FUNCTIONS =  132
 NUMBER OF ELECTRONS                          =   97
 CHARGE OF MOLECULE                           =   -1
 SPIN MULTIPLICITY                            =    2
 NUMBER OF OCCUPIED ORBITALS (ALPHA)          =   49
 NUMBER OF OCCUPIED ORBITALS (BETA )          =   48
 TOTAL NUMBER OF ATOMS                        =   24
 THE NUCLEAR REPULSION ENERGY IS      826.6697857877

     $CONTRL OPTIONS
     ---------------
 SCFTYP=UHF          RUNTYP=ENERGY       EXETYP=RUN     
 MPLEVL=       0     CITYP =NONE         CCTYP =NONE         VBTYP =NONE    
 DFTTYP=NONE         TDDFT =NONE    
 MULT  =       2     ICHARG=      -1     NZVAR =       0     COORD =UNIQUE  
 PP    =NONE         RELWFN=NONE         LOCAL =NONE         NUMGRD=       F
 ISPHER=      -1     NOSYM =       0     MAXIT =      60     UNITS =ANGS    
 PLTORB=       F     MOLPLT=       F     AIMPAC=       F     FRIEND=        
 NPRINT=       7     IREST =       0     GEOM  =INPUT   
 NORMF =       0     NORMP =       0     ITOL  =      20     ICUT  =       9
 INTTYP=BEST         GRDTYP=BEST         QMTTOL= 1.0E-06

     $SYSTEM OPTIONS
     ---------------
  REPLICATED MEMORY=    30000000 WORDS (ON EVERY NODE).
 DISTRIBUTED MEMDDI=        1000 MILLION WORDS IN AGGREGATE,
 MEMDDI DISTRIBUTED OVER   8 PROCESSORS IS   125000000 WORDS/PROCESSOR.
 TOTAL MEMORY REQUESTED ON EACH PROCESSOR=   155000000 WORDS.
 TIMLIM=      525600.00 MINUTES, OR     365.0 DAYS.
 PARALL= T  BALTYP=  DLB     KDIAG=    0  COREFL= F
 MXSEQ2=     300 MXSEQ3=     150  mem10=         0

          ----------------
          PROPERTIES INPUT
          ----------------

     MOMENTS            FIELD           POTENTIAL          DENSITY
 IEMOM =       1   IEFLD =       0   IEPOT =       0   IEDEN =       0
 WHERE =COMASS     WHERE =NUCLEI     WHERE =NUCLEI     WHERE =NUCLEI  
 OUTPUT=BOTH       OUTPUT=BOTH       OUTPUT=BOTH       OUTPUT=BOTH    
 IEMINT=       0   IEFINT=       0                     IEDINT=       0
                                                       MORB  =       0
          EXTRAPOLATION IN EFFECT
          SOSCF IN EFFECT
          DIIS or SOSCF will be reset if energy rises
 ORBITAL PRINTING OPTION: NPREO=     1   132     2     1

     -------------------------------
     INTEGRAL TRANSFORMATION OPTIONS
     -------------------------------
     NWORD  =            0
     CUTOFF = 1.0E-09     MPTRAN =       0
     DIRTRF =       T     AOINTS =DUP     

          ----------------------
          INTEGRAL INPUT OPTIONS
          ----------------------
 NOPK  =       1 NORDER=       0 SCHWRZ=       T

     ------------------------------------------
     THE POINT GROUP IS C1 , NAXIS= 0, ORDER= 1
     ------------------------------------------

     DIMENSIONS OF THE SYMMETRY SUBSPACES ARE
 A   =  132

 ..... DONE SETTING UP THE RUN .....
 CPU     0: STEP CPU TIME=     0.03 TOTAL CPU TIME=          0.0 (      0.0 MIN)
 TOTAL WALL CLOCK TIME=          0.1 SECONDS, CPU UTILIZATION IS    42.86%

          ********************
          1 ELECTRON INTEGRALS
          ********************
 ...... END OF ONE-ELECTRON INTEGRALS ......
 CPU     0: STEP CPU TIME=     0.01 TOTAL CPU TIME=          0.0 (      0.0 MIN)
 TOTAL WALL CLOCK TIME=          0.1 SECONDS, CPU UTILIZATION IS    50.00%

          -------------
          GUESS OPTIONS
          -------------
          GUESS =HUCKEL            NORB  =       0          NORDER=       0
          MIX   =       F          PRTMO =       F          PUNMO =       F
          TOLZ  = 1.0E-08          TOLE  = 1.0E-05
          SYMDEN=       F          PURIFY=       F

 INITIAL GUESS ORBITALS GENERATED BY HUCKEL   ROUTINE.
 HUCKEL GUESS REQUIRES    164928 WORDS.

 SYMMETRIES FOR INITIAL GUESS ORBITALS FOLLOW.  ALPHA SET(S).
    49 ORBITALS ARE OCCUPIED (   12 CORE ORBITALS).
    13=A       14=A       15=A       16=A       17=A       18=A       19=A   
    20=A       21=A       22=A       23=A       24=A       25=A       26=A   
    27=A       28=A       29=A       30=A       31=A       32=A       33=A   
    34=A       35=A       36=A       37=A       38=A       39=A       40=A   
    41=A       42=A       43=A       44=A       45=A       46=A       47=A   
    48=A       49=A       50=A       51=A       52=A       53=A       54=A   
    55=A       56=A       57=A       58=A       59=A   

 SYMMETRIES FOR INITIAL GUESS ORBITALS FOLLOW.   BETA SET(S).
    48 ORBITALS ARE OCCUPIED (   12 CORE ORBITALS).
    13=A       14=A       15=A       16=A       17=A       18=A       19=A   
    20=A       21=A       22=A       23=A       24=A       25=A       26=A   
    27=A       28=A       29=A       30=A       31=A       32=A       33=A   
    34=A       35=A       36=A       37=A       38=A       39=A       40=A   
    41=A       42=A       43=A       44=A       45=A       46=A       47=A   
    48=A       49=A       50=A       51=A       52=A       53=A       54=A   
    55=A       56=A       57=A       58=A   
 ...... END OF INITIAL ORBITAL SELECTION ......
 CPU     0: STEP CPU TIME=     0.05 TOTAL CPU TIME=          0.1 (      0.0 MIN)
 TOTAL WALL CLOCK TIME=          0.2 SECONDS, CPU UTILIZATION IS    56.25%

                    ----------------------
                    AO INTEGRAL TECHNOLOGY
                    ----------------------
     S,P,L SHELL ROTATED AXIS INTEGRALS, REPROGRAMMED BY
        KAZUYA ISHIMURA (IMS) AND JOSE SIERRA (SYNSTAR).
     S,P,D,L SHELL ROTATED AXIS INTEGRALS PROGRAMMED BY
        KAZUYA ISHIMURA (INSTITUTE FOR MOLECULAR SCIENCE).
     S,P,D,F,G SHELL TO TOTAL QUARTET ANGULAR MOMENTUM SUM 5,
        ERIC PROGRAM BY GRAHAM FLETCHER (ELORET AND NASA ADVANCED
        SUPERCOMPUTING DIVISION, AMES RESEARCH CENTER).
     S,P,D,F,G,L SHELL GENERAL RYS QUADRATURE PROGRAMMED BY
        MICHEL DUPUIS (PACIFIC NORTHWEST NATIONAL LABORATORY).

          --------------------
          2 ELECTRON INTEGRALS
          --------------------

 DIRECT SCF METHOD SKIPS INTEGRAL STORAGE ON DISK.
 DIRECT TRANSFORMATION SKIPS AO INTEGRAL STORAGE ON DISK.
  ...... END OF TWO-ELECTRON INTEGRALS .....
 CPU     0: STEP CPU TIME=     0.01 TOTAL CPU TIME=          0.1 (      0.0 MIN)
 TOTAL WALL CLOCK TIME=          0.2 SECONDS, CPU UTILIZATION IS    58.82%

          ---------------------------
                  UHF SCF CALCULATION
          ---------------------------

     NUCLEAR ENERGY =       826.6697857877
     MAXIT = 60     NPUNCH=  2     MULT=  2
     EXTRAP=T  DAMP=F  SHIFT=F  RSTRCT=F  DIIS=F  SOSCF=T
     DENSITY MATRIX CONV=  2.00E-05
     SOSCF WILL OPTIMIZE    4067 ALPHA AND    4032 BETA ROTATION ANGLES.
     SOGTOL= 2.500E-01
     MEMORY REQUIRED FOR UHF/ROHF ITERS=    281061 WORDS.

 DIRECT SCF CALCULATION, SCHWRZ=T   FDIFF=T
 SCHWARZ INEQUALITY OVERHEAD:      8052 INTEGRALS, T=        0.00

                                                                                NONZERO     BLOCKS
 ITER EX      TOTAL ENERGY        E CHANGE  DENSITY CHANGE    ORB. GRAD       INTEGRALS    SKIPPED
   1  0     -677.2827670796  -677.2827670796   0.811260498   0.000000000       21145691     880578
          ---------------START SECOND ORDER SCF---------------
   2  1     -679.1149661000    -1.8321990205   0.427934009   0.049229847       21127497     887716
   3  2     -679.2750945770    -0.1601284770   0.445701215   0.038228050       21070416     901586
   4  3     -679.3085714092    -0.0334768322   0.126423782   0.037360714       21084977     896310
   5  4     -679.3352606526    -0.0266892434   0.273075143   0.016081714       20934115     923586
   6  5     -679.3463413288    -0.0110806762   0.303967207   0.007563409       20779990     937241
   7  6     -679.3509168621    -0.0045755333   0.100024088   0.006658955       20705462     945540
   8  7     -679.3524888802    -0.0015720181   0.057608426   0.003054681       20357707     978730
   9  8     -679.3530079921    -0.0005191119   0.006097940   0.000963526       20045057     998429
  10  9     -679.3530655111    -0.0000575190   0.005570220   0.000563745       19166614    1049715
  11 10     -679.3530787197    -0.0000132085   0.001630642   0.000131345       18610403    1077510
  12 11     -679.3530807791    -0.0000020594   0.001067730   0.000061256       17596864    1125654
  13 12     -679.3530813815    -0.0000006024   0.000443993   0.000032896       16859118    1159339
  14 13     -679.3530815834    -0.0000002019   0.000195953   0.000015786       16258827    1183208
  15 14     -679.3530816232    -0.0000000398   0.000083184   0.000007562       15299408    1218717
  16 15     -679.3530816307    -0.0000000074   0.000022850   0.000003573       14500022    1248641
  17 16     -679.3530816322    -0.0000000015   0.000015647   0.000002177       13440034    1291057
  18 17     -679.3530816319     0.0000000003   0.000012200   0.000000814       12528725    1323011

          -----------------
          DENSITY CONVERGED
          -----------------
     TIME TO FORM FOCK OPERATORS=       4.3 SECONDS (       0.2 SEC/ITER)
     FOCK TIME ON FIRST ITERATION=       0.3, LAST ITERATION=       0.2
     TIME TO SOLVE SCF EQUATIONS=       0.2 SECONDS (       0.0 SEC/ITER)

 FINAL UHF ENERGY IS     -679.3530816319 AFTER  18 ITERATIONS

          --------------------
          SPIN SZ   =    0.500
          S-SQUARED =    0.757
          --------------------

  ----- ALPHA SET ----- 

          ------------
          EIGENVECTORS
          ------------

                      1          2          3          4          5
                  -20.3357   -20.3166   -20.3058   -20.3053   -20.2754
                     A          A          A          A          A   
    1  H  1  S    0.000054   0.000260  -0.000956   0.000568  -0.000855
    2  H  1  S   -0.000158   0.000947   0.000094   0.001199   0.001458
    3  C  2  S    0.000081   0.000018  -0.000872   0.000155  -0.001022
    4  C  2  S    0.000410  -0.000101  -0.003552   0.000409  -0.004454
    5  C  2  X   -0.000084  -0.000188   0.001616  -0.000430  -0.000115
    6  C  2  Y   -0.000043   0.000448   0.000265   0.000518   0.001006
    7  C  2  Z    0.000050  -0.000083  -0.000313  -0.000054   0.001401
    8  C  2  S   -0.002186  -0.001960   0.018717  -0.004888   0.022361
    9  C  2  X    0.000045   0.000191   0.009623  -0.000821   0.000275
   10  C  2  Y    0.001019  -0.000401  -0.005610  -0.001031  -0.005639
   11  C  2  Z   -0.000253   0.002043  -0.001136   0.001011   0.013217
   12  C  3  S   -0.000036  -0.000099   0.000256   0.000134   0.000286
   13  C  3  S   -0.000204  -0.000796   0.000829   0.000509   0.001179
   14  C  3  X    0.000031  -0.000583  -0.000596  -0.000031  -0.000757
   15  C  3  Y    0.000011   0.000096  -0.000603   0.000610  -0.000957
   16  C  3  Z   -0.000110   0.000176  -0.000127  -0.000293  -0.000149
   17  C  3  S    0.001158   0.000935  -0.007183  -0.003838  -0.008758
   18  C  3  X    0.000480   0.003572  -0.002211   0.000672  -0.000842
   19  C  3  Y    0.000716   0.000623   0.002459   0.003893   0.000074
   20  C  3  Z    0.001263  -0.001591   0.000497   0.002436  -0.005479
   21  H  4  S    0.000079  -0.000501   0.000744   0.000618  -0.000405
   22  H  4  S    0.000462  -0.000104   0.000223   0.001352  -0.000246
   23  O  5  S    0.000079  -0.000567  -0.000194   0.001038   0.000974
   24  O  5  S    0.000063  -0.000355  -0.000119   0.000440   0.000251
   25  O  5  X    0.000019  -0.000016  -0.000121   0.000244   0.000132
   26  O  5  Y    0.000035  -0.000044  -0.000185  -0.000248   0.000266
   27  O  5  Z    0.000014   0.000094  -0.000008   0.000124   0.000216
   28  O  5  S   -0.000289   0.001470   0.000210  -0.000431   0.001053
   29  O  5  X   -0.000209   0.000427   0.000565  -0.000782   0.000419
   30  O  5  Y   -0.000153   0.000105   0.000455   0.000580  -0.001037
   31  O  5  Z   -0.000039  -0.000595  -0.000037  -0.000598  -0.001045
   32  C  6  S   -0.000044   0.000224  -0.000174  -0.000935   0.000087
   33  C  6  S   -0.000262   0.000788  -0.000183  -0.004013   0.000811
   34  C  6  X    0.000142  -0.000583   0.000146  -0.000655   0.000054
   35  C  6  Y    0.000093   0.000132   0.000337  -0.000961   0.000388
   36  C  6  Z    0.000146   0.000201   0.000542   0.000096  -0.000188
   37  C  6  S    0.002335  -0.007141   0.006182   0.022713  -0.000382
   38  C  6  X    0.000511  -0.004905  -0.005090  -0.004422  -0.003420
   39  C  6  Y   -0.001440   0.002365  -0.004457  -0.009220   0.000600
   40  C  6  Z   -0.001756  -0.001251  -0.006582  -0.007442   0.000593
   41  H  7  S    0.000167   0.000726   0.000615  -0.000862  -0.000218
   42  H  7  S    0.000307   0.000747   0.001736  -0.000365   0.000153
   43  O  8  S    0.001119   0.007388   0.281504   0.942360  -0.000925
   44  O  8  S    0.000295   0.000986   0.028680   0.094023   0.000033
   45  O  8  X   -0.000034   0.000414  -0.000029  -0.000470  -0.000017
   46  O  8  Y    0.000030  -0.000068   0.000994   0.002801   0.000064
   47  O  8  Z    0.000018  -0.000127   0.000538   0.001966   0.000042
   48  O  8  S   -0.001021  -0.000300  -0.015596  -0.044118  -0.000402
   49  O  8  X   -0.000112  -0.001091  -0.001088  -0.001232   0.000155
   50  O  8  Y   -0.000390   0.000371  -0.003824  -0.008665  -0.000410
   51  O  8  Z   -0.000120   0.000601  -0.001298  -0.004722  -0.000243
   52  C  9  S   -0.000103  -0.000989   0.000090   0.000256  -0.000129
   53  C  9  S   -0.000671  -0.004293  -0.000191   0.001197  -0.000598
   54  C  9  X   -0.000590   0.000334  -0.000243   0.000483  -0.000089
   55  C  9  Y   -0.000114  -0.001195  -0.000605   0.000273   0.000283
   56  C  9  Z    0.000104  -0.000279  -0.000441  -0.000096   0.000053
   57  C  9  S    0.001318   0.023935  -0.003206  -0.008123   0.005160
   58  C  9  X    0.004807   0.003465   0.001363   0.004696  -0.000728
   59  C  9  Y    0.000435  -0.010265  -0.001322   0.001258   0.000538
   60  C  9  Z   -0.000108   0.010779   0.003896  -0.000495   0.001544
   61  H 10  S   -0.000365  -0.000640   0.000721   0.000622  -0.000141
   62  H 10  S    0.000185   0.000920   0.001452   0.000255   0.000117
   63  O 11  S    0.001860   0.983523  -0.001316  -0.007293  -0.000824
   64  O 11  S    0.000384   0.098408  -0.000024  -0.000497   0.000102
   65  O 11  X   -0.000011  -0.003227  -0.000168  -0.000039   0.000010
   66  O 11  Y    0.000011   0.001246  -0.000144   0.000030   0.000044
   67  O 11  Z   -0.000069  -0.001596   0.000034   0.000124   0.000005
   68  O 11  S   -0.001090  -0.047234  -0.000780   0.000206  -0.000770
   69  O 11  X   -0.000095   0.008113   0.000674  -0.000273   0.000131
   70  O 11  Y   -0.000490  -0.006316   0.000209   0.000265  -0.000478
   71  O 11  Z    0.000408   0.004212  -0.000169  -0.000500   0.000026
   72  C 12  S    0.000275   0.000167  -0.000737   0.000141   0.000146
   73  C 12  S    0.001216   0.000551  -0.002938   0.000385   0.001240
   74  C 12  X   -0.000316   0.000196  -0.000627   0.000858  -0.000595
   75  C 12  Y   -0.000225   0.000470   0.001376  -0.000164   0.000342
   76  C 12  Z    0.000076   0.000563   0.000064  -0.000118  -0.000023
   77  C 12  S   -0.009522  -0.004831   0.014856  -0.004276  -0.002674
   78  C 12  X   -0.004886   0.000949  -0.003238  -0.003578   0.003831
   79  C 12  Y    0.001068   0.005120   0.007299  -0.002468   0.000538
   80  C 12  Z    0.000213  -0.004506  -0.006545   0.002387  -0.000734
   81  H 13  S    0.000487   0.001045  -0.000833  -0.000109  -0.000073
   82  H 13  S    0.000914   0.001747   0.000394   0.000034   0.001139
   83  O 14  S    0.000964  -0.000809   0.942550  -0.281411  -0.007300
   84  O 14  S    0.000132  -0.000053   0.095662  -0.027939   0.000388
   85  O 14  X    0.000273   0.000281  -0.001824   0.000454   0.000003
   86  O 14  Y   -0.000043   0.000098  -0.002102   0.000604  -0.000113
   87  O 14  Z   -0.000048   0.000071   0.002312  -0.000514   0.000568
   88  O 14  S    0.000255  -0.000802  -0.049821   0.012285  -0.003297
   89  O 14  X   -0.000704  -0.001522   0.005566  -0.000734   0.001513
   90  O 14  Y   -0.000032   0.000140   0.005837  -0.001171   0.000079
   91  O 14  Z    0.000246  -0.000339  -0.006585   0.000962  -0.003383
   92  C 15  S   -0.000839   0.000088   0.000161  -0.000095   0.000056
   93  C 15  S   -0.003323   0.000721   0.000675  -0.000425   0.000365
   94  C 15  X    0.001130  -0.000167   0.000409  -0.000342  -0.000022
   95  C 15  Y    0.000864  -0.000049  -0.000094  -0.000056   0.000049
   96  C 15  Z    0.000589  -0.000271  -0.000378   0.000062   0.000045
   97  C 15  S    0.020344  -0.002283  -0.004557   0.004173  -0.002127
   98  C 15  X    0.002100   0.001130   0.002762  -0.001273   0.000923
   99  C 15  Y    0.006749  -0.000600  -0.002039   0.001407  -0.000503
  100  C 15  Z    0.007343   0.002312   0.002478   0.000538  -0.000814
  101  O 16  S    0.983458  -0.001824  -0.001236  -0.000732   0.000225
  102  O 16  S    0.097502  -0.000036  -0.000020   0.000076  -0.000060
  103  O 16  X    0.000664  -0.000058  -0.000163   0.000104  -0.000031
  104  O 16  Y   -0.002357  -0.000060  -0.000116   0.000011   0.000003
  105  O 16  Z   -0.002852   0.000054   0.000104  -0.000075   0.000034
  106  O 16  S   -0.043664  -0.000419  -0.000015  -0.000821   0.000422
  107  O 16  X    0.000870   0.000261   0.000355  -0.000102  -0.000015
  108  O 16  Y    0.006373   0.000355   0.000461   0.000155  -0.000114
  109  O 16  Z    0.006834  -0.000228  -0.000499   0.000453  -0.000184
  110  O 17  S   -0.000240   0.000873   0.007559  -0.001261   0.983522
  111  O 17  S   -0.000109   0.000263   0.001947  -0.000317   0.098555
  112  O 17  X    0.000006   0.000027   0.000450  -0.000007  -0.002082
  113  O 17  Y    0.000003   0.000025  -0.000201   0.000043  -0.001043
  114  O 17  Z    0.000020  -0.000021  -0.000187   0.000028  -0.002918
  115  O 17  S    0.000457  -0.000840  -0.004611   0.000563  -0.047348
  116  O 17  X   -0.000004  -0.000121  -0.002494   0.000203   0.003804
  117  O 17  Y   -0.000074   0.000013   0.001187  -0.000020   0.002765
  118  O 17  Z   -0.000274   0.000296   0.002494  -0.000382   0.009866
  119  H 18  S    0.000024  -0.000247  -0.000297  -0.000200   0.000501
  120  H 18  S   -0.000031   0.000391   0.000384  -0.000495  -0.000608
  121  H 19  S    0.000103  -0.000440   0.000977   0.002925   0.000205
  122  H 19  S   -0.000029  -0.000339   0.000743   0.004677  -0.000453
  123  H 20  S    0.000070   0.003133   0.000051  -0.000617   0.000016
  124  H 20  S   -0.000034   0.005109   0.000257   0.001241  -0.000080
  125  H 21  S   -0.001126  -0.000399  -0.000164   0.000083   0.000072
  126  H 21  S   -0.001097   0.000459  -0.000277  -0.000148  -0.000145
  127  H 22  S   -0.001096   0.000457   0.000659  -0.000169   0.000143
  128  H 22  S   -0.000580   0.001328   0.001550  -0.000367  -0.000278
  129  H 23  S    0.003051  -0.000016  -0.000122   0.000193  -0.000076
  130  H 23  S    0.005036  -0.000213  -0.000359   0.000033  -0.000032
  131  H 24  S   -0.000060   0.000007  -0.000316  -0.000238   0.002935
  132  H 24  S    0.000062  -0.000045   0.000133   0.000335   0.005810

                      6          7          8          9         10
                  -20.2029   -11.1115   -11.1035   -11.0903   -11.0877
                     A          A          A          A          A   
    1  H  1  S    0.000295  -0.000397  -0.000029   0.000280  -0.000104
    2  H  1  S   -0.001212   0.011415   0.000880   0.003564  -0.001073
    3  C  2  S    0.000212   0.987925   0.007022   0.013679  -0.000736
    4  C  2  S    0.000684   0.102852  -0.000492  -0.002258   0.000677
    5  C  2  X    0.000652   0.000709   0.000115  -0.000637  -0.000034
    6  C  2  Y    0.000324  -0.001816   0.000222   0.001239  -0.000019
    7  C  2  Z    0.000283   0.000298  -0.000165  -0.000579   0.000480
    8  C  2  S   -0.005603  -0.081882   0.005059   0.011303  -0.003513
    9  C  2  X    0.003032   0.004710   0.000784   0.004641  -0.000468
   10  C  2  Y    0.002675   0.014750  -0.003327  -0.009011   0.002874
   11  C  2  Z   -0.003607   0.000532   0.000793   0.004138  -0.001596
   12  C  3  S   -0.001022  -0.003983   0.000545   0.001776  -0.005252
   13  C  3  S   -0.004526  -0.004871   0.000854   0.001906  -0.002997
   14  C  3  X   -0.001142   0.000121  -0.000166  -0.000129  -0.000904
   15  C  3  Y    0.000153   0.000495   0.000040  -0.000593   0.000749
   16  C  3  Z   -0.000105  -0.000165   0.000026   0.000004   0.000235
   17  C  3  S    0.024070   0.030507  -0.005758  -0.009503   0.006942
   18  C  3  X   -0.007145   0.011270  -0.001916  -0.004115   0.003284
   19  C  3  Y   -0.000637   0.011266   0.000273   0.001671  -0.001756
   20  C  3  Z    0.011300   0.007119  -0.001922  -0.003280  -0.001209
   21  H  4  S   -0.000667  -0.001616   0.000125   0.000344  -0.000524
   22  H  4  S    0.000500   0.002155  -0.000311  -0.000725  -0.002011
   23  O  5  S    0.983499   0.000045  -0.000026  -0.000019  -0.000048
   24  O  5  S    0.097894   0.000008  -0.000225  -0.000121  -0.000532
   25  O  5  X    0.001773  -0.000163  -0.000089  -0.000069  -0.000275
   26  O  5  Y    0.001028  -0.000143   0.000041  -0.000051   0.000248
   27  O  5  Z   -0.002133   0.000232  -0.000042  -0.000104  -0.000008
   28  O  5  S   -0.045155  -0.001555   0.000836   0.000586   0.001515
   29  O  5  X   -0.006839  -0.001330   0.000708   0.000699   0.001255
   30  O  5  Y   -0.002212  -0.000155  -0.000205   0.000076  -0.000998
   31  O  5  Z    0.006197  -0.000594   0.000101   0.000371  -0.000007
   32  C  6  S    0.000267  -0.005509  -0.003882  -0.006281  -0.008863
   33  C  6  S    0.001027  -0.002270  -0.001977  -0.001427  -0.003938
   34  C  6  X    0.000547   0.000356  -0.000243  -0.000844   0.000405
   35  C  6  Y   -0.000408  -0.001199  -0.000096   0.000118  -0.000014
   36  C  6  Z    0.000155   0.000101   0.000051   0.000080  -0.000222
   37  C  6  S   -0.009532   0.003674   0.008492   0.001083   0.026626
   38  C  6  X    0.001793   0.003260   0.003103  -0.003756   0.017483
   39  C  6  Y   -0.005314  -0.000324   0.002094   0.001930  -0.003232
   40  C  6  Z   -0.000433  -0.000115  -0.001270   0.000187  -0.002455
   41  H  7  S    0.000787  -0.000231  -0.000584   0.000059  -0.001906
   42  H  7  S    0.000366  -0.001041   0.000131  -0.001136  -0.000265
   43  O  8  S   -0.000890  -0.000023   0.000003  -0.000019   0.000053
   44  O  8  S    0.000234  -0.000280  -0.000022  -0.000219   0.000145
   45  O  8  X   -0.000042   0.000013  -0.000056  -0.000316  -0.000363
   46  O  8  Y    0.000094  -0.000282   0.000005   0.000030  -0.000277
   47  O  8  Z   -0.000021   0.000034  -0.000026   0.000100   0.000102
   48  O  8  S   -0.000798   0.000464   0.000015   0.000439  -0.001749
   49  O  8  X    0.000035  -0.000166   0.000092   0.001486  -0.000086
   50  O  8  Y    0.000001   0.001093  -0.000153  -0.000243   0.000422
   51  O  8  Z    0.000041  -0.000111   0.000138  -0.000416  -0.000533
   52  C  9  S   -0.000147   0.002380  -0.010277  -0.083239   0.984770
   53  C  9  S   -0.000996   0.001646  -0.002160  -0.012910   0.105622
   54  C  9  X    0.000276  -0.000209  -0.001209   0.000526  -0.000355
   55  C  9  Y   -0.000465  -0.000451  -0.000406   0.000135   0.000778
   56  C  9  Z    0.000126   0.000105   0.000305  -0.000107   0.000777
   57  C  9  S    0.003080  -0.009622   0.000380   0.039001  -0.097252
   58  C  9  X   -0.001221   0.002717   0.005499   0.008540   0.006006
   59  C  9  Y    0.004056  -0.003240   0.000096   0.015391  -0.010458
   60  C  9  Z   -0.000820  -0.004297  -0.001480   0.006159  -0.009435
   61  H 10  S   -0.000692   0.000335  -0.000337  -0.002106   0.000827
   62  H 10  S    0.000110  -0.001326  -0.001139   0.000142   0.013505
   63  O 11  S    0.000500  -0.000031   0.000056   0.000067  -0.000256
   64  O 11  S   -0.000242  -0.000275   0.000539   0.000111  -0.000996
   65  O 11  X   -0.000069  -0.000009   0.000309  -0.000032  -0.000356
   66  O 11  Y   -0.000033  -0.000186   0.000183  -0.000549   0.000209
   67  O 11  Z    0.000081  -0.000151  -0.000040  -0.000008  -0.000483
   68  O 11  S    0.001474   0.000874  -0.001715  -0.002355   0.010161
   69  O 11  X    0.000077  -0.000194  -0.001404   0.000267  -0.001151
   70  O 11  Y    0.000437   0.001107  -0.001248  -0.000117   0.004764
   71  O 11  Z   -0.000460   0.000658   0.000448   0.000123   0.000202
   72  C 12  S    0.000080  -0.014489  -0.009810   0.984873   0.081833
   73  C 12  S    0.000253  -0.004552  -0.003345   0.106650   0.005060
   74  C 12  X    0.000513   0.002048  -0.000364  -0.000652  -0.000293
   75  C 12  Y   -0.000053  -0.000998   0.000115  -0.000104  -0.000536
   76  C 12  Z   -0.000247  -0.000582   0.000226  -0.000705  -0.000146
   77  C 12  S   -0.003798   0.008124   0.023068  -0.102063   0.021026
   78  C 12  X   -0.001332  -0.014509   0.016272   0.002196  -0.011375
   79  C 12  Y    0.000237   0.003139   0.000039   0.009269  -0.012132
   80  C 12  Z    0.003052   0.003532  -0.005661   0.007806  -0.002924
   81  H 13  S   -0.000248  -0.001723  -0.001180   0.001384  -0.002046
   82  H 13  S   -0.000722  -0.001600   0.001339   0.014430   0.001904
   83  O 14  S    0.000445  -0.000149   0.000070  -0.000208  -0.000041
   84  O 14  S   -0.000162  -0.000277   0.000266  -0.000401  -0.000646
   85  O 14  X    0.000002  -0.000560  -0.000565  -0.000141  -0.000005
   86  O 14  Y    0.000245   0.000053   0.000165  -0.000556   0.000370
   87  O 14  Z   -0.000005   0.000443   0.000085   0.000753  -0.000026
   88  O 14  S    0.000426   0.006845  -0.002379   0.007899   0.001237
   89  O 14  X    0.000303  -0.003708   0.001158   0.004971  -0.000017
   90  O 14  Y   -0.001293   0.001477   0.000137  -0.004502  -0.000154
   91  O 14  Z    0.000132  -0.000522  -0.000528  -0.001344   0.000316
   92  C 15  S   -0.000091  -0.007544   0.987615   0.007940   0.010846
   93  C 15  S   -0.000513  -0.001699   0.102079  -0.002018  -0.000086
   94  C 15  X   -0.000045  -0.000256  -0.000534  -0.000546   0.000768
   95  C 15  Y    0.000004   0.000243  -0.000367  -0.000243   0.000103
   96  C 15  Z    0.000058  -0.000157  -0.000120  -0.000027   0.000107
   97  C 15  S    0.003107   0.008894  -0.082596   0.023940   0.001901
   98  C 15  X   -0.001759  -0.003259   0.011758  -0.013692  -0.001992
   99  C 15  Y    0.000229  -0.001278   0.002647   0.000820   0.001436
  100  C 15  Z   -0.000103   0.002978  -0.001227   0.004208  -0.000876
  101  O 16  S   -0.000065   0.000020  -0.000177   0.000070  -0.000028
  102  O 16  S    0.000044   0.000150  -0.000355   0.000343  -0.000329
  103  O 16  X   -0.000030   0.000020  -0.000172   0.000292   0.000378
  104  O 16  Y    0.000017  -0.000058  -0.000482   0.000087   0.000021
  105  O 16  Z    0.000003   0.000052  -0.000502   0.000067  -0.000066
  106  O 16  S   -0.000173  -0.000777   0.007265  -0.002227   0.000743
  107  O 16  X    0.000213   0.000147  -0.002560   0.000364  -0.001467
  108  O 16  Y   -0.000036   0.000500  -0.001344   0.000263  -0.000258
  109  O 16  Z    0.000028  -0.000103  -0.000554   0.000067   0.000308
  110  O 17  S   -0.000974  -0.000263   0.000034   0.000142  -0.000027
  111  O 17  S    0.000066  -0.001104   0.000252   0.001139  -0.000131
  112  O 17  X   -0.000239  -0.000279   0.000021   0.000210   0.000060
  113  O 17  Y   -0.000219   0.000007  -0.000026  -0.000137  -0.000153
  114  O 17  Z    0.000149  -0.000387  -0.000034  -0.000091   0.000033
  115  O 17  S    0.000612   0.010859  -0.001236  -0.004823   0.001152
  116  O 17  X    0.001018   0.001281  -0.000159  -0.001324  -0.000069
  117  O 17  Y    0.000637  -0.001320   0.000323   0.001298   0.000158
  118  O 17  Z   -0.001458  -0.004611   0.000675   0.002183  -0.000729
  119  H 18  S    0.002807  -0.000414   0.000071   0.000045   0.000134
  120  H 18  S    0.004619  -0.000019   0.000060  -0.000084   0.000824
  121  H 19  S   -0.000269  -0.000493   0.000023   0.000400   0.000285
  122  H 19  S    0.000690   0.001257   0.000308  -0.000047   0.001467
  123  H 20  S    0.000074   0.000038  -0.000294   0.000368  -0.000077
  124  H 20  S   -0.000021   0.000236  -0.000217   0.001334   0.002172
  125  H 21  S   -0.000166  -0.000561   0.000571  -0.001244  -0.000430
  126  H 21  S    0.000199  -0.000982   0.015178   0.000474   0.001821
  127  H 22  S   -0.000223  -0.000079   0.000571  -0.001674  -0.000204
  128  H 22  S   -0.000348   0.000612   0.014817   0.001162  -0.001484
  129  H 23  S   -0.000049   0.000028  -0.000189   0.000158   0.000326
  130  H 23  S    0.000127   0.000205   0.001864   0.001159   0.000547
  131  H 24  S   -0.000707  -0.000351   0.000077   0.000097   0.000084
  132  H 24  S    0.002934   0.003314  -0.000107  -0.000422   0.000223

                     11         12         13         14         15
                  -11.0708   -11.0294    -1.2412    -1.2206    -1.2172
                     A          A          A          A          A   
    1  H  1  S   -0.000058  -0.001160   0.019802  -0.003056  -0.015127
    2  H  1  S    0.003156   0.001733  -0.011584   0.004003   0.002777
    3  C  2  S    0.005144   0.002459  -0.073115   0.012142   0.051358
    4  C  2  S   -0.001766  -0.004380   0.084698  -0.014307  -0.057229
    5  C  2  X    0.000647  -0.000820   0.040640  -0.001592  -0.025058
    6  C  2  Y    0.001504  -0.000319  -0.017875   0.004422   0.006273
    7  C  2  Z   -0.000358  -0.000585   0.012623  -0.005177  -0.015247
    8  C  2  S    0.005067   0.031269   0.101431  -0.019041  -0.073547
    9  C  2  X   -0.001518  -0.006691  -0.014715   0.001055   0.006792
   10  C  2  Y   -0.005232  -0.015317   0.010331  -0.003718  -0.000161
   11  C  2  Z    0.003081  -0.000182  -0.015104   0.004561   0.004745
   12  C  3  S   -0.003811   0.988372  -0.027421   0.012159   0.007921
   13  C  3  S   -0.003154   0.106839   0.027385  -0.013144  -0.006116
   14  C  3  X    0.000319   0.001219   0.013550  -0.002557  -0.004887
   15  C  3  Y   -0.000607  -0.000344   0.006633   0.004537  -0.016508
   16  C  3  Z    0.000092   0.001038   0.009670  -0.004017  -0.004880
   17  C  3  S    0.024169  -0.100140   0.051618  -0.019874  -0.016531
   18  C  3  X    0.005446  -0.012535   0.004613   0.004843  -0.012790
   19  C  3  Y   -0.015619   0.003109  -0.014096   0.002221   0.004677
   20  C  3  Z    0.002427  -0.011913   0.008228  -0.003998  -0.003789
   21  H  4  S   -0.001865   0.000492   0.008008  -0.004226  -0.001419
   22  H  4  S    0.000364   0.012173  -0.000947  -0.000163   0.000463
   23  O  5  S    0.000046  -0.000293  -0.021614   0.012332   0.007814
   24  O  5  S    0.000092  -0.001373   0.021350  -0.012333  -0.006831
   25  O  5  X   -0.000390   0.000248   0.006767  -0.003133  -0.002323
   26  O  5  Y    0.000192  -0.000036   0.003888  -0.001331  -0.003612
   27  O  5  Z   -0.000094  -0.000458  -0.005483   0.003547   0.001176
   28  O  5  S   -0.001540   0.011426   0.060540  -0.033775  -0.026017
   29  O  5  X    0.000380   0.005777   0.004004  -0.002094  -0.003733
   30  O  5  Y    0.000170  -0.000706   0.004741  -0.000744  -0.003945
   31  O  5  Z    0.000682  -0.001041  -0.004094   0.001992   0.002089
   32  C  6  S    0.988316   0.002814  -0.030299   0.032072  -0.031703
   33  C  6  S    0.106528  -0.002752   0.031813  -0.031392   0.033395
   34  C  6  X    0.000839  -0.000339   0.001521   0.002945  -0.000808
   35  C  6  Y    0.000793   0.000569  -0.005175   0.017139  -0.028821
   36  C  6  Z   -0.000594  -0.000136  -0.008250   0.008822  -0.010043
   37  C  6  S   -0.099410   0.026927   0.034885  -0.063829   0.054323
   38  C  6  X   -0.008691  -0.008834   0.013827  -0.013524   0.001258
   39  C  6  Y   -0.010274   0.016151   0.005414   0.000813  -0.002982
   40  C  6  Z    0.007611  -0.002680   0.015345  -0.001972   0.005402
   41  H  7  S    0.001260  -0.001944   0.009560  -0.009358   0.008662
   42  H  7  S    0.014742   0.000347  -0.005390   0.003111  -0.005376
   43  O  8  S   -0.000230   0.000032  -0.043475   0.066981  -0.079886
   44  O  8  S   -0.000704   0.000010   0.039023  -0.061965   0.073957
   45  O  8  X    0.000212  -0.000135  -0.000316   0.002206  -0.002098
   46  O  8  Y    0.000455  -0.000169   0.012003  -0.016952   0.019075
   47  O  8  Z    0.000473  -0.000009   0.007703  -0.011923   0.014321
   48  O  8  S    0.009013  -0.000769   0.139815  -0.208119   0.248247
   49  O  8  X    0.002542   0.000784   0.001541   0.000746   0.000391
   50  O  8  Y    0.003262  -0.001031   0.017349  -0.020872   0.023372
   51  O  8  Z   -0.000435   0.000066   0.010691  -0.015364   0.017575
   52  C  9  S    0.007248   0.004852  -0.041302   0.036196  -0.049618
   53  C  9  S   -0.002273  -0.002097   0.045521  -0.037282   0.051250
   54  C  9  X   -0.000395   0.001032   0.007110   0.000966   0.008457
   55  C  9  Y    0.000209  -0.000720  -0.003153   0.025972  -0.048253
   56  C  9  Z    0.000214   0.000059   0.013339  -0.013874   0.019327
   57  C  9  S    0.027134   0.006911   0.061426  -0.054897   0.091446
   58  C  9  X   -0.016666  -0.003092  -0.017800  -0.007471  -0.009778
   59  C  9  Y    0.001934   0.004178   0.007047  -0.003326   0.009182
   60  C  9  Z    0.003405   0.000218  -0.011909   0.011518  -0.006524
   61  H 10  S   -0.001879  -0.000792   0.012662  -0.009353   0.013447
   62  H 10  S    0.000331  -0.000588  -0.007472   0.006229  -0.007637
   63  O 11  S    0.000033  -0.000053  -0.067798   0.090007  -0.144204
   64  O 11  S   -0.000005  -0.000545   0.062238  -0.083445   0.132674
   65  O 11  X    0.000118   0.000201  -0.020084   0.027543  -0.042900
   66  O 11  Y   -0.000255  -0.000235   0.008899  -0.007084   0.010505
   67  O 11  Z   -0.000000   0.000011  -0.008873   0.011810  -0.018597
   68  O 11  S   -0.001017   0.001615   0.213822  -0.280824   0.454681
   69  O 11  X    0.001083  -0.000779  -0.025894   0.035979  -0.053397
   70  O 11  Y    0.000171   0.001137   0.011344  -0.011291   0.020945
   71  O 11  Z   -0.000006  -0.000225  -0.013587   0.014838  -0.025963
   72  C 12  S    0.006713  -0.000878  -0.058396  -0.003227   0.007751
   73  C 12  S   -0.000329   0.000951   0.060408   0.000928  -0.009687
   74  C 12  X    0.001099  -0.000442  -0.018927   0.022465   0.014515
   75  C 12  Y    0.000660   0.000189   0.027380   0.007128  -0.031883
   76  C 12  Z   -0.000536   0.000406  -0.018120   0.000229   0.004735
   77  C 12  S   -0.000878  -0.003676   0.109583   0.012880  -0.012164
   78  C 12  X   -0.005268   0.006044   0.013784   0.002466   0.016385
   79  C 12  Y   -0.000491  -0.000016  -0.015108   0.012926  -0.002362
   80  C 12  Z    0.003608  -0.001076   0.003697  -0.000474   0.011647
   81  H 13  S   -0.000470   0.000732   0.018338   0.000617  -0.003552
   82  H 13  S   -0.002341   0.000257  -0.004402   0.000251  -0.004700
   83  O 14  S    0.000080   0.000036  -0.150131   0.010274   0.088122
   84  O 14  S    0.000749  -0.000077   0.135762  -0.008296  -0.080280
   85  O 14  X   -0.000199   0.000289  -0.029792   0.007586   0.022570
   86  O 14  Y   -0.000328   0.000062  -0.027839   0.000910   0.010361
   87  O 14  Z    0.000093   0.000074   0.028693  -0.001801  -0.017584
   88  O 14  S   -0.001997  -0.001242   0.473408  -0.037529  -0.275387
   89  O 14  X    0.001438   0.001246  -0.040002   0.004758   0.028002
   90  O 14  Y    0.001755  -0.000194  -0.040256   0.004462   0.018275
   91  O 14  Z   -0.000969  -0.000489   0.047558  -0.006101  -0.026803
   92  C 15  S    0.003524  -0.000284  -0.035518  -0.058884  -0.026664
   93  C 15  S   -0.001083   0.000345   0.038229   0.062911   0.030525
   94  C 15  X    0.000237   0.000090   0.000087   0.035456   0.018894
   95  C 15  Y    0.000201   0.000053   0.016134   0.039764   0.014978
   96  C 15  Z    0.000063  -0.000024   0.015341   0.031275   0.014909
   97  C 15  S    0.006267  -0.003344   0.048702   0.104039   0.036710
   98  C 15  X   -0.004347   0.001136  -0.001248   0.001259   0.000635
   99  C 15  Y   -0.000898  -0.000425   0.008091  -0.012223  -0.009868
  100  C 15  Z    0.000090  -0.000914  -0.013124  -0.003840  -0.007125
  101  O 16  S   -0.000009  -0.000014  -0.073940  -0.188769  -0.088051
  102  O 16  S   -0.000112  -0.000101   0.069031   0.175750   0.081246
  103  O 16  X    0.000053  -0.000024   0.003303   0.018336   0.009481
  104  O 16  Y    0.000034  -0.000000  -0.014521  -0.034674  -0.016159
  105  O 16  Z    0.000026   0.000030  -0.018341  -0.044240  -0.020187
  106  O 16  S    0.000389   0.000522   0.229214   0.592219   0.280186
  107  O 16  X   -0.000096  -0.000039   0.004784   0.016384   0.008017
  108  O 16  Y   -0.000172  -0.000137  -0.021219  -0.049584  -0.024635
  109  O 16  Z   -0.000167  -0.000202  -0.022575  -0.060309  -0.029414
  110  O 17  S    0.000089   0.000102  -0.085025   0.019891   0.073396
  111  O 17  S    0.000734   0.000411   0.076170  -0.017806  -0.066971
  112  O 17  X    0.000044   0.000277  -0.013607   0.004280   0.012856
  113  O 17  Y   -0.000120   0.000272  -0.010678   0.002635   0.008288
  114  O 17  Z   -0.000189   0.000406  -0.029540   0.005951   0.023153
  115  O 17  S   -0.002771  -0.004345   0.267627  -0.063488  -0.228719
  116  O 17  X   -0.000202  -0.000538  -0.013149   0.004327   0.014949
  117  O 17  Y    0.001028   0.000182  -0.015609   0.003889   0.010610
  118  O 17  Z    0.001812   0.001037  -0.037891   0.008268   0.028787
  119  H 18  S    0.000331  -0.000283   0.006467  -0.004010  -0.002150
  120  H 18  S    0.001145   0.002226  -0.000462   0.000506  -0.001794
  121  H 19  S   -0.000151  -0.000129   0.017328  -0.028055   0.033414
  122  H 19  S    0.001783   0.000347   0.003478  -0.005031   0.004835
  123  H 20  S   -0.000169  -0.000474   0.028801  -0.040558   0.064709
  124  H 20  S    0.000836   0.001751   0.004314  -0.008363   0.014268
  125  H 21  S   -0.000694   0.000003   0.012146   0.016152   0.009065
  126  H 21  S    0.000530   0.000310   0.003279  -0.011970   0.002904
  127  H 22  S   -0.000512   0.000142   0.010410   0.017530   0.008063
  128  H 22  S   -0.000283  -0.000144  -0.005696  -0.004178  -0.004126
  129  H 23  S   -0.000080  -0.000075   0.032315   0.086812   0.040463
  130  H 23  S    0.000547  -0.000040   0.005828   0.019859   0.009879
  131  H 24  S    0.000365  -0.000382   0.033350  -0.008663  -0.029046
  132  H 24  S   -0.001670   0.002056  -0.000287  -0.000498  -0.000853

                     16         17         18         19         20
                   -1.1896    -1.1589    -1.1171    -0.9210    -0.8783
                     A          A          A          A          A   
    1  H  1  S   -0.000140   0.006343  -0.001782  -0.019254   0.032113
    2  H  1  S   -0.004596  -0.003597   0.002766  -0.010539   0.001731
    3  C  2  S   -0.000664  -0.023154   0.007614   0.031874  -0.062933
    4  C  2  S    0.002948   0.024585  -0.008094  -0.024519   0.067198
    5  C  2  X   -0.011556  -0.054223  -0.008100  -0.042054  -0.019265
    6  C  2  Y   -0.003240   0.007644  -0.015433  -0.020353  -0.041319
    7  C  2  Z    0.007058   0.078753  -0.037256   0.020177  -0.038001
    8  C  2  S   -0.003578   0.040239  -0.023013  -0.106565   0.141822
    9  C  2  X   -0.004738   0.000024  -0.011747  -0.007541   0.002040
   10  C  2  Y    0.008240  -0.001552   0.002795   0.015139  -0.018722
   11  C  2  Z   -0.000557  -0.000651   0.010985   0.004628  -0.012092
   12  C  3  S   -0.022725  -0.023653  -0.065035  -0.027731  -0.099789
   13  C  3  S    0.021468   0.024806   0.069346   0.027531   0.098295
   14  C  3  X   -0.006885  -0.016145  -0.057124   0.023516   0.072486
   15  C  3  Y   -0.013094   0.010082   0.002949  -0.033124  -0.025617
   16  C  3  Z    0.009054   0.019580   0.030984   0.003983   0.001804
   17  C  3  S    0.038674   0.041009   0.117852   0.070637   0.240303
   18  C  3  X    0.001524  -0.003596   0.020454   0.012968   0.031231
   19  C  3  Y   -0.005763   0.003986   0.002737   0.013674   0.001698
   20  C  3  Z   -0.007749   0.016227  -0.010933   0.011797   0.006050
   21  H  4  S    0.005927   0.007190   0.020106   0.013312   0.051307
   22  H  4  S   -0.003922  -0.000201  -0.005010   0.002733  -0.000077
   23  O  5  S   -0.033533  -0.063640  -0.209861   0.018373   0.052847
   24  O  5  S    0.031818   0.061312   0.202488  -0.016703  -0.049411
   25  O  5  X    0.005942   0.009817   0.015111   0.010008   0.035156
   26  O  5  Y    0.003279   0.014653   0.043433  -0.009802  -0.024386
   27  O  5  Z   -0.009772  -0.015546  -0.060704   0.004851   0.006529
   28  O  5  S    0.102139   0.191718   0.658791  -0.068054  -0.194564
   29  O  5  X    0.009348   0.015256   0.035830  -0.000352   0.012919
   30  O  5  Y    0.001304   0.014723   0.033526  -0.005901  -0.018701
   31  O  5  Z   -0.008792  -0.012389  -0.063612   0.004600   0.009657
   32  C  6  S   -0.055214   0.003608  -0.006940  -0.073921  -0.109895
   33  C  6  S    0.058417  -0.004963   0.006523   0.075483   0.105358
   34  C  6  X   -0.045640   0.000103  -0.003443   0.053450   0.029542
   35  C  6  Y   -0.040197   0.013078   0.028649   0.026917   0.060135
   36  C  6  Z   -0.018444   0.005555   0.000479  -0.010356  -0.015010
   37  C  6  S    0.093264  -0.001229   0.012695   0.169941   0.294324
   38  C  6  X    0.006835  -0.000910  -0.020560   0.005027   0.033137
   39  C  6  Y    0.022067  -0.003356   0.004786   0.022719   0.021603
   40  C  6  Z    0.005852  -0.008167   0.009066  -0.006027  -0.012006
   41  H  7  S    0.015872   0.001463   0.002849   0.038903   0.056251
   42  H  7  S   -0.005971   0.009355  -0.005329  -0.001700  -0.005899
   43  O  8  S   -0.186161   0.030099   0.040397   0.034154   0.047947
   44  O  8  S    0.171369  -0.027280  -0.036428  -0.030223  -0.042814
   45  O  8  X   -0.020069   0.003376   0.004629   0.029998   0.046124
   46  O  8  Y    0.044197  -0.005428  -0.003072   0.016442   0.031322
   47  O  8  Z    0.031787  -0.004705  -0.005895  -0.003857  -0.003689
   48  O  8  S    0.593405  -0.099712  -0.136842  -0.127441  -0.182869
   49  O  8  X   -0.015323   0.002652   0.004495   0.017367   0.032504
   50  O  8  Y    0.062201  -0.009746  -0.008359   0.005451   0.015139
   51  O  8  Z    0.044056  -0.006748  -0.010668  -0.003999  -0.005198
   52  C  9  S    0.029618   0.004283  -0.003365  -0.111355  -0.044892
   53  C  9  S   -0.031498  -0.002602   0.004377   0.114335   0.040943
   54  C  9  X   -0.031595  -0.000217  -0.000269  -0.004080  -0.084922
   55  C  9  Y    0.031868  -0.020731   0.005215   0.075754   0.003018
   56  C  9  Z   -0.013362   0.001601  -0.000060   0.012559   0.005987
   57  C  9  S   -0.054074  -0.011321   0.014225   0.263145   0.138649
   58  C  9  X   -0.006644   0.012856   0.000389  -0.014701   0.008737
   59  C  9  Y   -0.023607  -0.005335  -0.005698   0.018083   0.028867
   60  C  9  Z    0.001759   0.004000   0.008601   0.007130   0.012711
   61  H 10  S   -0.007715  -0.001584   0.002943   0.058989   0.023156
   62  H 10  S    0.003576   0.000810   0.000789  -0.004059   0.001868
   63  O 11  S    0.120796  -0.029574  -0.001222   0.059877   0.017105
   64  O 11  S   -0.110028   0.027412   0.002079  -0.052906  -0.015071
   65  O 11  X    0.030061  -0.008103   0.000279   0.012963  -0.013742
   66  O 11  Y   -0.007102  -0.001262   0.001183   0.059136   0.011405
   67  O 11  Z    0.014417  -0.003348  -0.000142  -0.003241  -0.000324
   68  O 11  S   -0.391928   0.093988  -0.000241  -0.224429  -0.067177
   69  O 11  X    0.042819  -0.009945   0.001027   0.020410  -0.011884
   70  O 11  Y   -0.013395   0.001379  -0.003153   0.032932   0.000277
   71  O 11  Z    0.023287  -0.004022   0.000258   0.001030  -0.000212
   72  C 12  S    0.015131   0.041780  -0.007019  -0.120590   0.072902
   73  C 12  S   -0.015570  -0.044037   0.006888   0.119100  -0.063594
   74  C 12  X    0.003995   0.018536  -0.003473   0.016310  -0.071771
   75  C 12  Y    0.001976  -0.033175   0.003032  -0.068738  -0.016706
   76  C 12  Z    0.005627   0.017232  -0.003007  -0.017344   0.016204
   77  C 12  S   -0.015004  -0.087277   0.019544   0.307803  -0.227121
   78  C 12  X    0.004910  -0.005955   0.002129  -0.005822   0.014319
   79  C 12  Y    0.008756   0.006741   0.000929  -0.025268   0.021755
   80  C 12  Z   -0.014773   0.004878  -0.005826  -0.012889   0.008013
   81  H 13  S   -0.003492  -0.012887   0.002230   0.059515  -0.031243
   82  H 13  S    0.006353   0.009583  -0.002008  -0.006949   0.004435
   83  O 14  S    0.023405   0.125757  -0.014294   0.062807   0.013436
   84  O 14  S   -0.021884  -0.114699   0.012918  -0.054687  -0.012688
   85  O 14  X    0.002219   0.009076   0.000077   0.047388  -0.066816
   86  O 14  Y    0.005623   0.027297  -0.006459  -0.049463   0.022367
   87  O 14  Z   -0.003611  -0.013167  -0.001844  -0.003198  -0.004823
   88  O 14  S   -0.074093  -0.410931   0.051310  -0.236586  -0.045693
   89  O 14  X   -0.000386   0.024245  -0.005041   0.034294  -0.049009
   90  O 14  Y    0.007186   0.036366  -0.002540  -0.023779   0.012362
   91  O 14  Z   -0.003928  -0.021640  -0.001477  -0.007429  -0.006184
   92  C 15  S    0.000076   0.003753  -0.001313  -0.081966   0.089040
   93  C 15  S    0.001418  -0.003480   0.001943   0.086192  -0.087296
   94  C 15  X    0.007937   0.016963  -0.002736  -0.065312   0.053647
   95  C 15  Y    0.004747   0.002141  -0.000338  -0.020939   0.012749
   96  C 15  Z    0.001510   0.002241  -0.000250   0.003868  -0.000470
   97  C 15  S   -0.007184  -0.001303  -0.001697   0.208972  -0.254653
   98  C 15  X    0.009117   0.000052   0.002479  -0.004440   0.026763
   99  C 15  Y   -0.005761  -0.009245   0.000262  -0.028288   0.015237
  100  C 15  Z    0.001935   0.004103   0.000190  -0.002219   0.006373
  101  O 16  S   -0.016797  -0.023740   0.002476   0.035728  -0.036200
  102  O 16  S    0.015471   0.021669  -0.002240  -0.032021   0.032747
  103  O 16  X    0.003000   0.006450  -0.000966  -0.040034   0.049826
  104  O 16  Y   -0.002578  -0.003243   0.000170  -0.016719   0.021395
  105  O 16  Z   -0.003620  -0.004354   0.000353  -0.002890   0.007529
  106  O 16  S    0.054143   0.078460  -0.008432  -0.134318   0.138703
  107  O 16  X    0.001364   0.004316  -0.000727  -0.028596   0.039158
  108  O 16  Y   -0.003646  -0.005685   0.000662  -0.005769   0.011467
  109  O 16  Z   -0.005572  -0.008293   0.000791   0.002358   0.001298
  110  O 17  S   -0.013124  -0.173154   0.083435  -0.009368   0.035966
  111  O 17  S    0.011812   0.159532  -0.075913   0.006920  -0.032163
  112  O 17  X   -0.004764  -0.046240   0.014882  -0.008608   0.011944
  113  O 17  Y   -0.002019  -0.018280   0.005410  -0.007017  -0.005916
  114  O 17  Z   -0.002446  -0.033027   0.013652   0.009012  -0.024067
  115  O 17  S    0.042631   0.551400  -0.275737   0.042630  -0.132740
  116  O 17  X   -0.004832  -0.056335   0.020129  -0.006717   0.009297
  117  O 17  Y   -0.003197  -0.021635   0.006633  -0.009357  -0.001149
  118  O 17  Z   -0.004755  -0.050046   0.023064   0.002062  -0.009624
  119  H 18  S    0.010596   0.021146   0.076882  -0.011645  -0.032746
  120  H 18  S    0.002078   0.004977   0.013681  -0.007454  -0.018202
  121  H 19  S    0.082776  -0.013074  -0.017553  -0.028780  -0.042120
  122  H 19  S    0.017730  -0.001945   0.000125  -0.017771  -0.027697
  123  H 20  S   -0.049940   0.014201  -0.000146  -0.050646  -0.006631
  124  H 20  S   -0.003920   0.001865  -0.003885  -0.034846  -0.013082
  125  H 21  S   -0.000977  -0.001624   0.000803   0.047529  -0.048482
  126  H 21  S   -0.008175  -0.000769  -0.000606  -0.018896  -0.000998
  127  H 22  S    0.000377  -0.002082   0.000918   0.044260  -0.049821
  128  H 22  S    0.002183   0.000500   0.000783  -0.000615   0.000042
  129  H 23  S    0.008476   0.012618  -0.001404  -0.035330   0.040999
  130  H 23  S    0.001868   0.004599  -0.000893  -0.022556   0.024429
  131  H 24  S    0.007909   0.079776  -0.027342   0.008768  -0.022850
  132  H 24  S    0.001301   0.012546  -0.000508   0.004546  -0.020897

                     21         22         23         24         25
                   -0.7801    -0.7011    -0.6773    -0.6294    -0.5733
                     A          A          A          A          A   
    1  H  1  S    0.064175  -0.099458  -0.032904  -0.069726  -0.038982
    2  H  1  S    0.012573  -0.042021  -0.021004  -0.031603  -0.020410
    3  C  2  S   -0.091679   0.107462   0.016977   0.067628   0.013562
    4  C  2  S    0.095324  -0.101287  -0.010248  -0.066179  -0.013587
    5  C  2  X   -0.052526   0.025210  -0.067855  -0.041504   0.045488
    6  C  2  Y   -0.021824  -0.043754  -0.071933  -0.071304  -0.043090
    7  C  2  Z   -0.043128   0.036148   0.015350  -0.025761   0.004066
    8  C  2  S    0.240841  -0.360655  -0.090200  -0.246615  -0.051502
    9  C  2  X   -0.028899   0.047354  -0.028640   0.004604   0.029581
   10  C  2  Y   -0.012212   0.022855  -0.017135  -0.010944  -0.034778
   11  C  2  Z   -0.023220   0.018129   0.009419  -0.009778   0.004766
   12  C  3  S   -0.099570  -0.016356  -0.077443  -0.077229   0.009033
   13  C  3  S    0.089585   0.007116   0.061771   0.061549  -0.010234
   14  C  3  X    0.045574  -0.012954   0.011563  -0.006674   0.005585
   15  C  3  Y    0.035137  -0.114837   0.005709  -0.022886  -0.032260
   16  C  3  Z   -0.008485   0.024884  -0.004009  -0.069901   0.075493
   17  C  3  S    0.301490   0.080239   0.295709   0.316284  -0.035472
   18  C  3  X    0.037704   0.011328   0.035308   0.036838   0.002394
   19  C  3  Y   -0.013832  -0.012217  -0.009057  -0.008689  -0.014393
   20  C  3  Z    0.003515   0.028685   0.018372  -0.022124   0.052178
   21  H  4  S    0.058222  -0.000512   0.048461   0.087668  -0.048866
   22  H  4  S    0.007576  -0.000174   0.017854   0.051056  -0.030809
   23  O  5  S    0.042566   0.006228   0.027567   0.020960  -0.003402
   24  O  5  S   -0.039654  -0.006398  -0.025416  -0.019786   0.001566
   25  O  5  X    0.045442   0.021613   0.051069   0.036926   0.026274
   26  O  5  Y   -0.017354  -0.036992  -0.023611  -0.017724  -0.039641
   27  O  5  Z   -0.003548   0.011293  -0.005327  -0.018812   0.032325
   28  O  5  S   -0.165947  -0.027241  -0.116897  -0.089515   0.015348
   29  O  5  X    0.026999   0.013251   0.034606   0.027286   0.021026
   30  O  5  Y   -0.013775  -0.032731  -0.019755  -0.014046  -0.037210
   31  O  5  Z    0.001070   0.009666  -0.002888  -0.016861   0.029731
   32  C  6  S    0.014099  -0.105425   0.039180   0.058281  -0.012153
   33  C  6  S   -0.008867   0.089958  -0.033417  -0.048449   0.011331
   34  C  6  X   -0.069687  -0.045642  -0.070504  -0.039663  -0.037552
   35  C  6  Y    0.054934   0.026765   0.081846   0.060711   0.072769
   36  C  6  Z   -0.002733   0.038104   0.014960  -0.109875   0.120730
   37  C  6  S   -0.061128   0.386196  -0.138956  -0.249869   0.052336
   38  C  6  X   -0.003951   0.015931  -0.014336  -0.033288  -0.034090
   39  C  6  Y   -0.009017   0.028812   0.013535   0.012739   0.054800
   40  C  6  Z   -0.000837   0.014511   0.003086  -0.076633   0.083723
   41  H  7  S   -0.008864   0.084603  -0.014761  -0.097976   0.080157
   42  H  7  S   -0.003322   0.027777   0.005998  -0.044212   0.054081
   43  O  8  S   -0.003441   0.036427  -0.009956  -0.010717   0.013420
   44  O  8  S    0.002650  -0.032964   0.008256   0.009854  -0.012439
   45  O  8  X   -0.025479   0.066860  -0.087561  -0.060711  -0.138732
   46  O  8  Y    0.000863   0.062431  -0.019801  -0.011765  -0.006895
   47  O  8  Z   -0.001522   0.020843   0.000581  -0.049787   0.062636
   48  O  8  S    0.015334  -0.151961   0.043769   0.048629  -0.057427
   49  O  8  X   -0.024337   0.056975  -0.083385  -0.057353  -0.136362
   50  O  8  Y    0.002860   0.053970  -0.013791  -0.009425  -0.004604
   51  O  8  Z   -0.000769   0.018563   0.001486  -0.046808   0.061462
   52  C  9  S    0.084370   0.087151   0.063630  -0.034788   0.006257
   53  C  9  S   -0.072944  -0.073470  -0.052669   0.029754  -0.009030
   54  C  9  X    0.024012  -0.092362   0.085898   0.038565   0.103460
[...]
   15 C            -0.000548                     0.000081
   16 O            -0.000023                    -0.000002
   17 O             0.013039                     0.016489
   18 H             0.688018                     0.530863
   19 H             0.021291                     0.016498
   20 H            -0.000012                     0.000087
   21 H             0.000822                     0.000607
   22 H             0.000084                     0.000139
   23 H             0.000022                     0.000010
   24 H             0.005712                     0.004248


          ********* ALL ELECTRONS ********

               ----- POPULATIONS IN EACH AO -----
                             MULLIKEN      LOWDIN
              1  H  1  S      0.48953     0.50060
              2  H  1  S      0.32203     0.44640
              3  C  2  S      1.98899     1.97509
              4  C  2  S      0.36965     0.42627
              5  C  2  X      0.44745     0.43649
              6  C  2  Y      0.58307     0.55883
              7  C  2  Z      0.44297     0.42608
              8  C  2  S      0.86605     0.55575
              9  C  2  X      0.22652     0.42064
             10  C  2  Y      0.44857     0.54472
             11  C  2  Z      0.21473     0.42281
             12  C  3  S      1.99010     1.97538
             13  C  3  S      0.34495     0.42030
             14  C  3  X      0.48391     0.47663
             15  C  3  Y      0.52998     0.52122
             16  C  3  Z      0.54590     0.52126
             17  C  3  S      0.99093     0.55784
             18  C  3  X      0.36285     0.49752
             19  C  3  Y      0.29620     0.50295
             20  C  3  Z      0.50762     0.55985
             21  H  4  S      0.47499     0.48690
             22  H  4  S      0.37543     0.46644
             23  O  5  S      1.98767     1.98256
             24  O  5  S      0.42500     0.63580
             25  O  5  X      0.55072     0.53913
             26  O  5  Y      0.76096     0.77025
             27  O  5  Z      0.73203     0.74020
             28  O  5  S      1.48958     1.11947
             29  O  5  X      0.73730     0.79346
             30  O  5  Y      0.97675     0.97981
             31  O  5  Z      0.96831     0.99358
             32  C  6  S      1.99018     1.97558
             33  C  6  S      0.35290     0.42571
             34  C  6  X      0.51402     0.50856
             35  C  6  Y      0.48925     0.47999
             36  C  6  Z      0.55286     0.52284
             37  C  6  S      0.99233     0.54607
             38  C  6  X      0.28736     0.46860
             39  C  6  Y      0.25200     0.45297
             40  C  6  Z      0.48465     0.55648
             41  H  7  S      0.47915     0.49615
             42  H  7  S      0.32014     0.44075
             43  O  8  S      1.98602     1.98024
             44  O  8  S      0.40980     0.57009
             45  O  8  X      0.58591     0.56864
             46  O  8  Y      0.69339     0.69657
             47  O  8  Z      0.80602     0.81499
             48  O  8  S      1.51707     1.04830
             49  O  8  X      0.75798     0.77616
             50  O  8  Y      0.93455     0.94718
             51  O  8  Z      1.03118     1.03460
             52  C  9  S      1.99023     1.97569
             53  C  9  S      0.35394     0.42786
             54  C  9  X      0.56120     0.55495
             55  C  9  Y      0.45271     0.44741
             56  C  9  Z      0.54369     0.51313
             57  C  9  S      0.99972     0.55152
             58  C  9  X      0.32063     0.49760
             59  C  9  Y      0.23714     0.43013
             60  C  9  Z      0.48051     0.55469
             61  H 10  S      0.47652     0.49145
             62  H 10  S      0.33554     0.44995
             63  O 11  S      1.98608     1.98029
             64  O 11  S      0.41019     0.57060
             65  O 11  X      0.70223     0.70042
             66  O 11  Y      0.56119     0.54670
             67  O 11  Z      0.82004     0.83012
             68  O 11  S      1.52276     1.04706
             69  O 11  X      0.93575     0.93623
             70  O 11  Y      0.73566     0.77142
             71  O 11  Z      1.03775     1.04526
             72  C 12  S      1.99024     1.97561
             73  C 12  S      0.35339     0.42535
             74  C 12  X      0.53173     0.52265
             75  C 12  Y      0.45315     0.44352
             76  C 12  Z      0.56711     0.53869
             77  C 12  S      1.02690     0.55218
             78  C 12  X      0.29224     0.48133
             79  C 12  Y      0.22548     0.42479
             80  C 12  Z      0.50572     0.55577
             81  H 13  S      0.47212     0.48448
             82  H 13  S      0.27160     0.41830
             83  O 14  S      1.98657     1.98059
             84  O 14  S      0.41002     0.57482
             85  O 14  X      0.62594     0.62457
             86  O 14  Y      0.66870     0.66944
             87  O 14  Z      0.77826     0.78448
             88  O 14  S      1.52420     1.01713
             89  O 14  X      0.81008     0.83123
             90  O 14  Y      0.86517     0.88736
             91  O 14  Z      0.99111     0.99656
             92  C 15  S      1.98853     1.97569
             93  C 15  S      0.36465     0.42238
             94  C 15  X      0.52134     0.51361
             95  C 15  Y      0.50984     0.47932
             96  C 15  Z      0.52398     0.49131
             97  C 15  S      1.00174     0.56901
             98  C 15  X      0.33991     0.48872
             99  C 15  Y      0.41002     0.50854
            100  C 15  Z      0.43278     0.53791
            101  O 16  S      1.98598     1.98052
            102  O 16  S      0.41639     0.57548
            103  O 16  X      0.56580     0.54480
            104  O 16  Y      0.75751     0.76307
            105  O 16  Z      0.74979     0.75384
            106  O 16  S      1.51338     1.05703
            107  O 16  X      0.71534     0.74677
            108  O 16  Y      0.97333     0.98437
            109  O 16  Z      0.97928     0.98765
            110  O 17  S      1.98607     1.98025
            111  O 17  S      0.40951     0.56990
            112  O 17  X      0.67213     0.66343
            113  O 17  Y      0.83208     0.84407
            114  O 17  Z      0.58547     0.57997
            115  O 17  S      1.51771     1.04787
            116  O 17  X      0.87927     0.87945
            117  O 17  Y      1.05813     1.05287
            118  O 17  Z      0.80057     0.83949
            119  H 18  S      0.36668     0.40880
            120  H 18  S      0.82865     0.78598
            121  H 19  S      0.39965     0.41861
            122  H 19  S      0.23263     0.33815
            123  H 20  S      0.40230     0.42037
            124  H 20  S      0.21542     0.32856
            125  H 21  S      0.47760     0.48487
            126  H 21  S      0.32307     0.44472
            127  H 22  S      0.47870     0.48503
            128  H 22  S      0.34006     0.45194
            129  H 23  S      0.42285     0.43947
            130  H 23  S      0.23285     0.33418
            131  H 24  S      0.38344     0.40123
            132  H 24  S      0.22486     0.34477

          ----- MULLIKEN ATOMIC OVERLAP POPULATIONS -----
          (OFF-DIAGONAL ELEMENTS NEED TO BE MULTIPLIED BY 2)

             1           2           3           4           5

    1    0.5510903
    2    0.3661637   5.0115448
    3   -0.0589534   0.1395988   5.6840196
    4    0.0028339  -0.0528014   0.3066098   0.6374663
    5   -0.0036359  -0.0554893   0.0861958  -0.0570181   9.2239827
    6    0.0044050  -0.0954514   0.1515412  -0.0428907  -0.0555472
    7   -0.0000099  -0.0021635  -0.0526614   0.0034220   0.0017836
    8   -0.0000113   0.0014895  -0.0318621  -0.0013979  -0.0010965
    9   -0.0005510   0.0164918  -0.1082235   0.0031532   0.0016386
   10   -0.0001004   0.0008054   0.0057760   0.0015456  -0.0000039
   11    0.0000002  -0.0000592   0.0024539  -0.0000530  -0.0000004
   12    0.0041902  -0.0896711  -0.0013495   0.0014972   0.0000373
   13    0.0000572  -0.0062466   0.0012335   0.0000126   0.0000047
   14   -0.0305513   0.1814367  -0.0563415   0.0040403   0.0001545
   15   -0.0000486   0.0036403  -0.0005005   0.0000003   0.0000002
   16    0.0000003  -0.0000211   0.0000001   0.0000000  -0.0000000
   17   -0.0374693   0.2134170  -0.0552273   0.0012830  -0.0052468
   18    0.0108403   0.0134980   0.0483059   0.0383799  -0.5510628
   19    0.0000098   0.0005899  -0.0026356   0.0023291   0.0083563
   20    0.0000001  -0.0000412   0.0005211   0.0000169  -0.0000016
   21    0.0000004  -0.0000816   0.0000100  -0.0000009  -0.0000000
   22   -0.0000140  -0.0001798   0.0000281   0.0000062  -0.0000000
   23   -0.0000001   0.0000045  -0.0000000  -0.0000000   0.0000000
   24    0.0033162  -0.0584733  -0.0061051   0.0019823   0.0352637

             6           7           8           9          10

    6    5.4260162
    7    0.3593776   0.5729708
    8    0.2135851  -0.0283539   8.3599708
    9    0.1449118  -0.0678270  -0.0482746   5.5838012
   10   -0.0584595   0.0047186   0.0016281   0.3550288   0.5879306
   11   -0.0309464   0.0020634  -0.0022496   0.1735663  -0.0314781
   12   -0.0676417  -0.0014197   0.0013312   0.1081318  -0.0583751
   13   -0.0044823   0.0037043  -0.0000019  -0.0513711   0.0037294
   14   -0.0002494  -0.0006218  -0.0000027  -0.0463132   0.0024422
   15    0.0041675  -0.0000942  -0.0000114  -0.0822369  -0.0055461
   16   -0.0000121   0.0000000   0.0000000   0.0014119  -0.0000083
   17   -0.0024955   0.0098103   0.0000023  -0.0016238   0.0000030
   18    0.0190216  -0.0018201  -0.0010072   0.0002903  -0.0000378
   19   -0.0437698  -0.0048428   0.2403421   0.0101267  -0.0003232
   20   -0.0061273  -0.0002358   0.0178796  -0.0556985  -0.0005386
   21    0.0003029   0.0000142  -0.0000000   0.0021527   0.0005510
   22   -0.0001877  -0.0000018   0.0000002   0.0011344   0.0027777
   23    0.0000015   0.0000000  -0.0000000  -0.0001945   0.0000009
   24    0.0004941   0.0014780  -0.0000413   0.0002455  -0.0000099

            11          12          13          14          15

   11    8.3604773
   12   -0.0353085   5.4066810
   13    0.0031991   0.3589405   0.4911435
   14    0.0001978   0.2167133  -0.0279525   8.4737904
   15   -0.0022872   0.2502891  -0.0438561  -0.0347024   5.1252457
   16    0.0000012  -0.0411740   0.0019929   0.0004047   0.2302274
   17    0.0000003  -0.0002030   0.0100204  -0.0289185   0.0000670
   18   -0.0000002   0.0000068  -0.0000039   0.0002400  -0.0000000
   19   -0.0001308  -0.0001453  -0.0000055   0.0000032   0.0000015
   20    0.2616023   0.0056542  -0.0001257  -0.0000251  -0.0001290
   21    0.0104936  -0.0654269   0.0001587   0.0016751   0.3504493
   22    0.0000901  -0.0535469   0.0041627   0.0022790   0.3455321
   23    0.0000016   0.0061862  -0.0000793  -0.0000461  -0.0474358
   24   -0.0000015   0.0005645  -0.0005158   0.0023939   0.0000053

            16          17          18          19          20

   16    8.2686131
   17   -0.0000001   8.4050787
   18    0.0000000  -0.0038662   1.6065491
   19   -0.0000000  -0.0000107   0.0054486   0.4173098
   20    0.0000001  -0.0000001   0.0000011  -0.0004592   0.3956297
   21   -0.0305913   0.0000005  -0.0000000  -0.0000001  -0.0001879
   22   -0.0304454   0.0000008   0.0000000  -0.0000000  -0.0000066
   23    0.2564091  -0.0000000  -0.0000000   0.0000000  -0.0000002
   24   -0.0000000   0.2363273   0.0105517   0.0000830   0.0000004

            21          22          23          24

   21    0.5715185
   22   -0.0384321   0.5885292
   23   -0.0019371  -0.0029608   0.4457489
   24   -0.0000003  -0.0000001  -0.0000000   0.3807453

          TOTAL MULLIKEN AND LOWDIN ATOMIC POPULATIONS
       ATOM         MULL.POP.    CHARGE          LOW.POP.     CHARGE
    1 H             0.811562    0.188438         0.947000    0.053000
    2 C             5.588001    0.411999         5.766672    0.233328
    3 C             6.052434   -0.052434         6.032959   -0.032959
    4 H             0.850416    0.149584         0.953339    0.046661
    5 O             8.628315   -0.628315         8.554265   -0.554265
    6 C             5.915563    0.084437         5.936802    0.063198
    7 H             0.799291    0.200709         0.936898    0.063102
    8 O             8.721918   -0.721918         8.436760   -0.436760
    9 C             5.939771    0.060229         5.952978    0.047022
   10 H             0.812056    0.187944         0.941394    0.058606
   11 O             8.711632   -0.711632         8.428111   -0.428111
   12 C             5.945962    0.054038         5.919894    0.080106
   13 H             0.743719    0.256281         0.902778    0.097222
   14 O             8.660047   -0.660047         8.366181   -0.366181
   15 C             6.092778   -0.092778         5.986470    0.013530
   16 O             8.656808   -0.656808         8.393521   -0.393521
   17 O             8.740949   -0.740949         8.457306   -0.457306
   18 H             1.195335   -0.195335         1.194776   -0.194776
   19 H             0.632277    0.367723         0.756760    0.243240
   20 H             0.617729    0.382271         0.748934    0.251066
   21 H             0.800669    0.199331         0.929591    0.070409
   22 H             0.818765    0.181235         0.936963    0.063037
   23 H             0.655699    0.344301         0.773642    0.226358
   24 H             0.608304    0.391696         0.746004    0.253996

          -------------------------------
          BOND ORDER AND VALENCE ANALYSIS     BOND ORDER THRESHOLD=0.050
          -------------------------------

                   BOND                       BOND                       BOND
  ATOM PAIR DIST  ORDER      ATOM PAIR DIST  ORDER      ATOM PAIR DIST  ORDER
    1   2  1.098  0.905        2   3  1.544  0.849        2  14  1.435  0.802
    2  17  1.442  0.852        3   4  1.094  0.895        3   5  1.481  0.894
    3   6  1.518  0.877        3  18  2.031  0.074        5  18  0.996  0.424
    5  24  1.992  0.100        6   7  1.097  0.886        6   8  1.458  0.829
    6   9  1.520  0.872        8  19  0.995  0.780        9  10  1.101  0.891
    9  11  1.451  0.818        9  12  1.529  0.841       11  20  0.999  0.794
   12  13  1.092  0.872       12  14  1.478  0.840       12  15  1.517  0.917
   15  16  1.458  0.860       15  21  1.099  0.884       15  22  1.100  0.897
   16  23  0.995  0.836       17  24  1.004  0.724

                       TOTAL       BONDED        FREE
      ATOM            VALENCE     VALENCE     VALENCE
    1 H                 0.930       0.930       0.000
    2 C                 3.448       3.447       0.001
    3 C                 3.626       3.606       0.019
    4 H                 0.950       0.950       0.000
    5 O                 1.579       1.534       0.044
    6 C                 3.467       3.466       0.001
    7 H                 0.918       0.918       0.000
    8 O                 1.709       1.709       0.000
    9 C                 3.423       3.422       0.001
   10 H                 0.913       0.913       0.000
   11 O                 1.704       1.704       0.000
   12 C                 3.438       3.438       0.000
   13 H                 0.899       0.899       0.000
   14 O                 1.742       1.741       0.000
   15 C                 3.540       3.540       0.000
   16 O                 1.738       1.738       0.000
   17 O                 1.698       1.698       0.000
   18 H                 1.152       0.675       0.477
   19 H                 0.863       0.863       0.000
   20 H                 0.842       0.842       0.000
   21 H                 0.914       0.914       0.000
   22 H                 0.916       0.916       0.000
   23 H                 0.852       0.852       0.000
   24 H                 0.857       0.857       0.000

          -----------------------------------------
          ATOMIC SPIN DENSITY AT THE NUCLEUS (A.U.)
          -----------------------------------------
                            SPIN DENS    ALPHA DENS     BETA DENS
    1  H            1.0     0.0000393       0.19135       0.19131
    2  C            6.0    -0.0064528      47.00653      47.01298
    3  C            6.0     0.0243163      47.06970      47.04538
    4  H            1.0    -0.0065150       0.18318       0.18969
    5  O            8.0     1.1105942     117.73189     116.62129
    6  C            6.0    -0.0169866      47.06516      47.08215
    7  H            1.0     0.0038307       0.19064       0.18681
    8  O            8.0     0.0388421     116.74771     116.70887
    9  C            6.0     0.0191614      47.09150      47.07234
   10  H            1.0    -0.0005645       0.18683       0.18740
   11  O            8.0     0.0066700     116.74172     116.73505
   12  C            6.0    -0.0005828      47.07247      47.07305
   13  H            1.0    -0.0000689       0.18537       0.18544
   14  O            8.0     0.0435159     116.83660     116.79308
   15  C            6.0     0.0004724      46.99529      46.99482
   16  O            8.0     0.0000478     116.75473     116.75469
   17  O            8.0     0.0170361     116.73996     116.72292
   18  H            1.0     0.0248466       0.16273       0.13788
   19  H            1.0    -0.0005237       0.16166       0.16219
   20  H            1.0    -0.0003138       0.16282       0.16313
   21  H            1.0     0.0001899       0.18708       0.18689
   22  H            1.0     0.0001126       0.18725       0.18714
   23  H            1.0    -0.0000126       0.17104       0.17105
   24  H            1.0    -0.0018976       0.15404       0.15593

          ---------------------
          ELECTROSTATIC MOMENTS
          ---------------------

 POINT   1           X           Y           Z (BOHR)    CHARGE
                 0.098746   -0.179223    0.289315       -1.00 (A.U.)
         DX          DY          DZ         /D/  (DEBYE)
     6.873839   -3.990559   -1.725597    8.133383
 ...... END OF PROPERTY EVALUATION ......
 CPU     0: STEP CPU TIME=     0.08 TOTAL CPU TIME=          4.9 (      0.1 MIN)
 TOTAL WALL CLOCK TIME=         12.4 SECONDS, CPU UTILIZATION IS    39.35%
               580000  WORDS OF DYNAMIC MEMORY USED
 EXECUTION OF GAMESS TERMINATED NORMALLY Fri May 22 15:00:05 2020
 DDI: 263640 bytes (0.3 MB / 0 MWords) used by master data server.
Note: The following floating-point exceptions are signalling: IEEE_DENORMALNote: The following floating-point exceptions are signalling: IEEE_DENORMALNote: The following floating-point exceptions are signalling: IEEE_DENORMAL
Note: The following floating-point exceptions are signalling: IEEE_DENORMALNote: The following floating-point exceptions are signalling: IEEE_DENORMALNote: The following floating-point exceptions are signalling: IEEE_DENORMAL


 ----------------------------------------
 CPU timing information for all processes
 ========================================
 0: 4.695 + 0.192 = 4.887
 1: 4.628 + 0.88 = 4.716
 2: 4.530 + 0.35 = 4.566
 3: 4.463 + 0.36 = 4.500
 4: 3.937 + 0.47 = 3.984
 5: 4.514 + 0.41 = 4.555
 6: 4.148 + 0.28 = 4.177
 7: 4.704 + 0.23 = 4.728
 ----------------------------------------



Note: The following floating-point exceptions are signalling: IEEE_DENORMALNote: The following floating-point exceptions are signalling:
 IEEE_DENORMAL
 ddikick.x: exited gracefully.
unset echo
----- accounting info -----
Files used on the master node pietdev were:
-rwxr-xr-x 1 piet piet     1457 mei 22 14:59 /home/piet/scr/beta-d-glucopyranose_fukui_acid.F05*
-rw-r--r-- 1 piet piet 68812800 mei 22 15:00 /home/piet/scr/beta-d-glucopyranose_fukui_acid.F10
ls: No match.
ls: No match.
ls: No match.
vr 22 mei 2020 15:00:08 CEST
0.125u 0.044s 0:15.59 1.0%	0+0k 0+8io 0pf+0w
