----- GAMESS execution script 'rungms' -----
This job is running on host pietdev
under operating system Linux at vr 22 mei 2020 14:50:17 CEST
Available scratch disk space (Kbyte units) at beginning of the job is
Filesystem     1K-blocks     Used Available Use% Mounted on
/dev/sda2      244568380 31372528 200702796  14% /
GAMESS temporary binary files will be written to /home/piet/scr
GAMESS supplementary output files will be written to /home/piet/gamess/scr
Copying input file beta-d-glucopyranose_geoopt.inp to your run's scratch directory...
cp beta-d-glucopyranose_geoopt.inp /home/piet/scr/beta-d-glucopyranose_geoopt.F05
unset echo
 
Assuming a single but multicore node.
 
/home/piet/gamess/ddikick.x /home/piet/gamess/gamess.03.x beta-d-glucopyranose_geoopt -ddi 1 8 pietdev:cpus=8 -scr /home/piet/scr

 Distributed Data Interface kickoff program.
 Initiating 8 compute processes on 1 nodes to run the following command:
 /home/piet/gamess/gamess.03.x beta-d-glucopyranose_geoopt 

          ******************************************************
          *         GAMESS VERSION = 30 SEP 2019 (R2)          *
          *             FROM IOWA STATE UNIVERSITY             *
          * M.W.SCHMIDT, K.K.BALDRIDGE, J.A.BOATZ, S.T.ELBERT, *
          *   M.S.GORDON, J.H.JENSEN, S.KOSEKI, N.MATSUNAGA,   *
          *          K.A.NGUYEN, S.J.SU, T.L.WINDUS,           *
          *       TOGETHER WITH M.DUPUIS, J.A.MONTGOMERY       *
          *         J.COMPUT.CHEM.  14, 1347-1363(1993)        *
          **************** 64 BIT LINUX VERSION ****************

  SINCE 1993, STUDENTS AND POSTDOCS WORKING AT IOWA STATE UNIVERSITY
  AND ALSO IN THEIR VARIOUS JOBS AFTER LEAVING ISU HAVE MADE IMPORTANT
  CONTRIBUTIONS TO THE CODE:
     IVANA ADAMOVIC, CHRISTINE AIKENS, YURI ALEXEEV, POOJA ARORA,
     ANDREY ASADCHEV, ROB BELL, PRADIPTA BANDYOPADHYAY, JONATHAN BENTZ,
     COLLEEN BERTONI, BRETT BODE, KURT BRORSEN, CALEB CARLIN, GALINA CHABAN,
     WEI CHEN, CHEOL HO CHOI, PAUL DAY, ALBERT DEFUSCO, NUWAN DESILVA,
     TIM DUDLEY, DMITRI FEDOROV, ALEX FINDLATER, GRAHAM FLETCHER, 
     MARK FREITAG, KURT GLAESEMANN, EMILIE B GUIDEZ, ANASTASIA GUNINA, 
     DAN KEMP, SAROM SOK LEANG, GRANT MERRILL,
     NORIYUKI MINEZAWA, JONATHAN MULLIN,
     TAKESHI NAGATA, SEAN NEDD, HEATHER NETZLOFF, BOSILJKA NJEGIC, RYAN OLSON,
     MIKE PAK, BUU PHAM, DAVID POOLE,
     SPENCER PRUITT, LUKE ROSKOP, TOSAPORN SATTASATHUCHANA,
     JIM SHOEMAKER, LYUDMILA SLIPCHENKO,
     TONY SMITH, JIE SONG, TETSUYA TAKETSUGU, SIMON WEBB,
     JORGE LUIS GALVEZ VALLEJO, PENG XU, SOOHAENG YOO,
     FEDERICO ZAHARIEV

  ADDITIONAL CODE HAS BEEN PROVIDED BY COLLABORATORS IN OTHER GROUPS:
     IOWA STATE UNIVERSITY:
          JOE IVANIC, AARON WEST, LAIMUTIS BYTAUTAS, KLAUS RUEDENBERG
     UNIVERSITY OF TOKYO: KIMIHIKO HIRAO, TAKAHITO NAKAJIMA,
          TAKAO TSUNEDA, MUNEAKI KAMIYA, SUSUMU YANAGISAWA,
          KIYOSHI YAGI, MAHITO CHIBA, SEIKEN TOKURA, NAOAKI KAWAKAMI
     UNIVERSITY OF AARHUS: FRANK JENSEN
     UNIVERSITY OF IOWA: VISVALDAS KAIRYS, HUI LI
     NATIONAL INST. OF STANDARDS AND TECHNOLOGY: WALT STEVENS, DAVID GARMER
     UNIVERSITY OF PISA: BENEDETTA MENNUCCI, JACOPO TOMASI
     UNIVERSITY OF MEMPHIS: HENRY KURTZ, PRAKASHAN KORAMBATH
     UNIVERSITY OF ALBERTA: TOBY ZENG, MARIUSZ KLOBUKOWSKI
     UNIVERSITY OF NEW ENGLAND: MARK SPACKMAN
     MIE UNIVERSITY: HIROAKI UMEDA
     NAT. INST. OF ADVANCED INDUSTRIAL SCIENCE AND TECHNOLOGY: KAZUO KITAURA
     MICHIGAN STATE UNIVERSITY:
          KAROL KOWALSKI, MARTA WLOCH, JEFFREY GOUR, JESSE LUTZ,
          WEI LI, JUN SHEN, J. EMILIANO DEUSTUA, PIOTR PIECUCH
     UNIVERSITY OF MINNESOTA:
          ANDREW SAND, PRACHI SHARMA, YINAN SHU
     UNIVERSITY OF SILESIA: MONIKA MUSIAL, STANISLAW KUCHARSKI
     FACULTES UNIVERSITAIRES NOTRE-DAME DE LA PAIX:
          OLIVIER QUINET, BENOIT CHAMPAGNE
     UNIVERSITY OF CALIFORNIA - SANTA BARBARA: BERNARD KIRTMAN
     INSTITUTE FOR MOLECULAR SCIENCE:
          KAZUYA ISHIMURA, MICHIO KATOUDA, AND SHIGERU NAGASE
     UNIVERSITY OF NOTRE DAME: ANNA POMOGAEVA, DAN CHIPMAN
     KYUSHU UNIVERSITY:
          HARUYUKI NAKANO,
          FENG LONG GU, JACEK KORCHOWIEC, MARCIN MAKOWSKI, AND YURIKO AOKI,
          HIROTOSHI MORI AND EISAKU MIYOSHI
     PENNSYLVANIA STATE UNIVERSITY:
          TZVETELIN IORDANOV, CHET SWALINA, JONATHAN SKONE,
          SHARON HAMMES-SCHIFFER
     WASEDA UNIVERSITY:
          MASATO KOBAYASHI, TOMOKO AKAMA, TSUGUKI TOUMA,
          TAKESHI YOSHIKAWA, YASUHIRO IKABATA, JUNJI SEINO,
          YUYA NAKAJIMA, HIROMI NAKAI
     NANJING UNIVERSITY: SHUHUA LI
     UNIVERSITY OF NEBRASKA:
          PEIFENG SU, DEJUN SI, NANDUN THELLAMUREGE, YALI WANG, HUI LI
     UNIVERSITY OF ZURICH: ROBERTO PEVERATI, KIM BALDRIDGE
     N. COPERNICUS UNIVERSITY AND JACKSON STATE UNIVERSITY:
          MARIA BARYSZ
     UNIVERSITY OF COPENHAGEN: Jimmy Kromann, CASPER STEINMANN
     TOKYO INSTITUTE OF TECHNOLOGY: HIROYA NAKATA
     NAGOYA UNIVERSITY: YOSHIO NISHIMOTO, STEPHAN IRLE
     MOSCOW STATE UNIVERSITY: VLADIMIR MIRONOV
     A.N.NESMEYANOV INSTITUTE OF ORGANOELEMENT COMPOUNDS OF RUSSIAN ACADEMY OF SCIENCES:
          IGOR S. GERASIMOV
     JOHANNES KEPLER UNIVERSITY LINZ:
          CHRISTIAN FRIEDL


 PARALLEL VERSION RUNNING ON        8 PROCESSORS IN        1 NODES.

 EXECUTION OF GAMESS BEGUN Fri May 22 14:50:17 2020

            ECHO OF THE FIRST FEW INPUT CARDS -
 INPUT CARD> $BASIS GBASIS=N21 NGAUSS=3 $END                                                
 INPUT CARD> $CONTRL SCFTYP=RHF RUNTYP=OPTIMIZE DFTTYP=B3LYP MAXIT=60 MULT=1 ICHARG=0 $END  
 INPUT CARD> $SYSTEM MEMDDI=1000 MWORDS=30 $END                                             
 INPUT CARD> $STATPT NSTEP=999 $END                                                         
 INPUT CARD> $SCF DIRSCF=.TRUE. $END                                                        
 INPUT CARD> $DATA                                                                          
 INPUT CARD>                                                                                
 INPUT CARD>C1                                                                              
 INPUT CARD>H 1.0000000 -0.94110380 2.38956750 -0.33165250                                  
 INPUT CARD>C 6.0000000 -0.65490360 1.45366950 0.16947810                                   
 INPUT CARD>C 6.0000000 -1.60582600 0.30666260 -0.23895590                                  
 INPUT CARD>H 1.0000000 -1.72199630 0.30736590 -1.33002320                                  
 INPUT CARD>O 8.0000000 -2.88710910 0.45000580 0.40125690                                   
 INPUT CARD>C 6.0000000 -1.04293070 -1.04055330 0.20433480                                  
 INPUT CARD>H 1.0000000 -1.04485060 -1.08379790 1.30262750                                  
 INPUT CARD>O 8.0000000 -1.80122960 -2.13091970 -0.32286690                                 
 INPUT CARD>C 6.0000000 0.39637190 -1.21575890 -0.27603830                                  
 INPUT CARD>H 1.0000000 0.39748320 -1.24664060 -1.37819400                                  
 INPUT CARD>O 8.0000000 0.95677130 -2.41424790 0.24714090                                   
 INPUT CARD>C 6.0000000 1.24463110 -0.02434760 0.19569310                                   
 INPUT CARD>H 1.0000000 1.28530060 -0.01114090 1.29125360                                   
 INPUT CARD>O 8.0000000 0.64515180 1.19624310 -0.28237440                                   
 INPUT CARD>C 6.0000000 2.66091670 -0.07892090 -0.34882530                                  
 INPUT CARD>O 8.0000000 3.45727490 0.86400250 0.36606830                                    
 INPUT CARD>O 8.0000000 -0.66200760 1.62940570 1.57343250                                   
 INPUT CARD>H 1.0000000 -3.44851570 1.04195320 -0.11653770                                  
 INPUT CARD>H 1.0000000 -2.69750950 -2.07437370 0.03653810                                  
 INPUT CARD>H 1.0000000 0.32351150 -3.12662420 0.07490850                                   
 INPUT CARD>H 1.0000000 3.03996280 -1.10003850 -0.21383740                                  
 INPUT CARD>H 1.0000000 2.63643420 0.15557550 -1.42376030                                   
 INPUT CARD>H 1.0000000 4.35179420 0.85452860 0.00397190                                    
 INPUT CARD>H 1.0000000 -1.56428170 1.45418430 1.88473170                                   
 INPUT CARD> $END                                                                           
   30000000 WORDS OF MEMORY AVAILABLE

     BASIS OPTIONS
     -------------
     GBASIS=N21          IGAUSS=       3      POLAR=NONE    
     NDFUNC=       0     NFFUNC=       0     DIFFSP=       F
     NPFUNC=       0      DIFFS=       F     BASNAM=        


     RUN TITLE
     ---------
                                                                                 

 THE POINT GROUP OF THE MOLECULE IS C1      
 THE ORDER OF THE PRINCIPAL AXIS IS     0

 ATOM      ATOMIC                      COORDINATES (BOHR)
           CHARGE         X                   Y                   Z
 H           1.0    -1.7784283080        4.5156278042       -0.6267323481
 C           6.0    -1.2375883524        2.7470370317        0.3202671699
 C           6.0    -3.0345711240        0.5795082847       -0.4515611741
 H           1.0    -3.2541011589        0.5808373290       -2.5133794053
 O           8.0    -5.4558450957        0.8503876549        0.7582655917
 C           6.0    -1.9708532472       -1.9663606126        0.3861367818
 H           1.0    -1.9744813321       -2.0480810571        2.4616090391
 O           8.0    -3.4038303850       -4.0268543348       -0.6101299715
 C           6.0     0.7490342802       -2.2974511881       -0.5216367491
 H           1.0     0.7511343327       -2.3558091392       -2.6044090179
 O           8.0     1.8080355899       -4.5622669974        0.4670285814
 C           6.0     2.3520117348       -0.0460102925        0.3698063367
 H           1.0     2.4288659459       -0.0210532483        2.4401154847
 O           8.0     1.2191601225        2.2605716737       -0.5336102419
 C           6.0     5.0284034392       -0.1491388757       -0.6591842346
 O           8.0     6.5333022252        1.6327279777        0.6917687798
 O           8.0    -1.2510129658        3.0791302958        2.9733562852
 H           1.0    -6.5167497374        1.9690060400       -0.2202243202
 H           1.0    -5.0975538043       -3.9199978891        0.0690469971
 H           1.0     0.6113480889       -5.9084630046        0.1415565392
 H           1.0     5.7446967049       -2.0787713409       -0.4040940919
 H           1.0     4.9821382227        0.2939950654       -2.6905168392
 H           1.0     8.2236985930        1.6148249027        0.0075058027
 H           1.0    -2.9560637806        2.7480098626        3.5616264734

          INTERNUCLEAR DISTANCES (ANGS.)
          ------------------------------

                1 H          2 C          3 C          4 H          5 O     

   1 H       0.0000000    1.0995215 *  2.1883649 *  2.4376424 *  2.8435879 *
   2 C       1.0995215 *  0.0000000    1.5448937 *  2.1682258 *  2.4584149 *
   3 C       2.1883649 *  1.5448937 *  0.0000000    1.0972347 *  1.4394812 *
   4 H       2.4376424 *  2.1682258 *  1.0972347 *  0.0000000    2.0916895 *
   5 O       2.8435879 *  2.4584149 *  1.4394812 *  2.0916895 *  0.0000000  
   6 C       3.4732377    2.5244658 *  1.5258927 *  2.1522711 *  2.3793988 *
   7 H       3.8400393    2.8062122 *  2.1504774 *  3.0536393    2.5610426 *
   8 O       4.6015973    3.7954903    2.4468410 *  2.6392951 *  2.8921732 *
   9 C       3.8458176    2.9033624 *  2.5155395 *  2.8139433 *  3.7436277  
  10 H       4.0136110    3.2854956    2.7791837 *  2.6285833 *  4.1028772  
  11 O       5.1974584    4.1909799    3.7691576    4.1316370    4.7961565  
  12 C       3.2988659    2.4069595 *  2.9023427 *  3.3524204    4.1639578  
  13 H       3.6543264    2.6773947 *  3.2865108    4.0020461    4.2911249  
  14 O       1.9856128 *  1.4002082 *  2.4207725 *  2.7369802 *  3.6743828  
  15 C       4.3667244    3.6894628    4.2855384    4.5079811    5.6234311  
  16 O       4.7074301    4.1588901    5.1294905    5.4782681    6.3579745  
  17 O       2.0700458 *  1.4149281 *  2.4341722 *  3.3617585    2.7777790 *
  18 H       2.8547247 *  2.8382361 *  1.9877484 *  2.2345100 *  0.9662765 *
  19 H       4.8111637    4.0788480    2.6338192 *  2.9140692 *  2.5576277 *
  20 H       5.6738800    4.6845843    3.9507357    4.2367704    4.8173509  
  21 H       5.2952924    4.5078147    4.8541521    5.0894904    6.1572039  
  22 H       4.3568564    3.8802527    4.4071942    4.3620802    5.8246809  
  23 H       5.5212098    5.0451348    5.9876882    6.2425845    7.2610740  
  24 H       2.4850858 *  1.9414077 *  2.4142454 *  3.4168283    2.2268687 *

                6 C          7 H          8 O          9 C         10 H     

   1 H       3.4732377    3.8400393    4.6015973    3.8458176    4.0136110  
   2 C       2.5244658 *  2.8062122 *  3.7954903    2.9033624 *  3.2854956  
   3 C       1.5258927 *  2.1504774 *  2.4468410 *  2.5155395 *  2.7791837 *
   4 H       2.1522711 *  3.0536393    2.6392951 *  2.8139433 *  2.6285833 *
   5 O       2.3793988 *  2.5610426 *  2.8921732 *  3.7436277    4.1028772  
   6 C       0.0000000    1.0991454 *  1.4289359 *  1.5274316 *  2.1498050 *
   7 H       1.0991454 *  0.0000000    2.0762479 *  2.1416633 *  3.0485486  
   8 O       1.4289359 *  2.0762479 *  0.0000000    2.3810007 *  2.5942249 *
   9 C       1.5274316 *  2.1416633 *  2.3810007 *  0.0000000    1.1025888 *
  10 H       2.1498050 *  3.0485486    2.5942249 *  1.1025888 *  0.0000000  
  11 O       2.4264536 *  2.6250027 *  2.8305040 *  1.4227227 *  2.0779373 *
  12 C       2.5031356 *  2.7548984 *  3.7394943    1.5367287 *  2.1653592 *
  13 H       2.7679854 *  2.5652148 *  4.0774399    2.1674184 *  3.0725608  
  14 O       2.8442515 *  3.2506809    4.1299436    2.4248062 *  2.6888364 *
  15 C       3.8664206    4.1796872    4.9114277    2.5349283 *  2.7470530 *
  16 O       4.8893088    4.9940168    6.0906535    3.7559068    4.1060432  
  17 O       3.0246011    2.7534302 *  4.3627772    3.5546689    4.2551454  
  18 H       3.1979105    3.5086256    3.5809560    4.4615989    4.6498544  
  19 H       1.9582062 *  2.3055377 *  0.9673092 *  3.2259922    3.5022263  
  20 H       2.4971198 *  2.7482445 *  2.3799532 *  1.9441910 *  2.3772499 *
  21 H       4.1046834    4.3572503    4.9509340    2.6468534 *  2.8913521 *
  22 H       4.1975164    4.7456395    5.1120335    2.8663048 *  2.6421938 *
  23 H       5.7214104    5.8794040    6.8468553    4.4732384    4.6863493  
  24 H       3.0527457    2.6551850 *  4.2169428    3.9549572    4.6679397  

               11 O         12 C         13 H         14 O         15 C     

   1 H       5.1974584    3.2988659    3.6543264    1.9856128 *  4.3667244  
   2 C       4.1909799    2.4069595 *  2.6773947 *  1.4002082 *  3.6894628  
   3 C       3.7691576    2.9023427 *  3.2865108    2.4207725 *  4.2855384  
   4 H       4.1316370    3.3524204    4.0020461    2.7369802 *  4.5079811  
   5 O       4.7961565    4.1639578    4.2911249    3.6743828    5.6234311  
   6 C       2.4264536 *  2.5031356 *  2.7679854 *  2.8442515 *  3.8664206  
   7 H       2.6250027 *  2.7548984 *  2.5652148 *  3.2506809    4.1796872  
   8 O       2.8305040 *  3.7394943    4.0774399    4.1299436    4.9114277  
   9 C       1.4227227 *  1.5367287 *  2.1674184 *  2.4248062 *  2.5349283 *
  10 H       2.0779373 *  2.1653592 *  3.0725608    2.6888364 *  2.7470530 *
  11 O       0.0000000    2.4077237 *  2.6406488 *  3.6623952    2.9517858 *
  12 C       2.4077237 *  0.0000000    1.0963947 *  1.4414457 *  1.5183357 *
  13 H       2.6406488 *  1.0963947 *  0.0000000    2.0841957 *  2.1416752 *
  14 O       3.6623952    1.4414457 *  2.0841957 *  0.0000000    2.3861616 *
  15 C       2.9517858 *  1.5183357 *  2.1416752 *  2.3861616 *  0.0000000  
  16 O       4.1247530    2.3903946 *  2.5177999 *  2.9049782 *  1.4263112 *
  17 O       4.5530900    2.8754716 *  2.5618406 *  2.3109121 *  4.2018187  
  18 H       5.6110731    4.8228739    5.0497426    4.0999294    6.2157446  
  19 H       3.6760898    4.4461680    4.6576836    4.6874326    5.7308872  
  20 H       0.9685876 *  3.2383901    3.4800531    4.3495155    3.8641311  
  21 H       2.5058600 *  2.1326139 *  2.5553544 *  3.3185428    1.0975331 *
  22 H       3.4953069    2.1429227 *  3.0372120    2.5201104 *  1.1004877 *
  23 H       4.7191325    3.2347555    3.4365478    3.7333579    1.9633799 *
  24 H       4.8992019    3.5956778    3.2587595    3.1055561    5.0191125  

               16 O         17 O         18 H         19 H         20 H     

   1 H       4.7074301    2.0700458 *  2.8547247 *  4.8111637    5.6738800  
   2 C       4.1588901    1.4149281 *  2.8382361 *  4.0788480    4.6845843  
   3 C       5.1294905    2.4341722 *  1.9877484 *  2.6338192 *  3.9507357  
   4 H       5.4782681    3.3617585    2.2345100 *  2.9140692 *  4.2367704  
   5 O       6.3579745    2.7777790 *  0.9662765 *  2.5576277 *  4.8173509  
   6 C       4.8893088    3.0246011    3.1979105    1.9582062 *  2.4971198 *
   7 H       4.9940168    2.7534302 *  3.5086256    2.3055377 *  2.7482445 *
   8 O       6.0906535    4.3627772    3.5809560    0.9673092 *  2.3799532 *
   9 C       3.7559068    3.5546689    4.4615989    3.2259922    1.9441910 *
  10 H       4.1060432    4.2551454    4.6498544    3.5022263    2.3772499 *
  11 O       4.1247530    4.5530900    5.6110731    3.6760898    0.9685876 *
  12 C       2.3903946 *  2.8754716 *  4.8228739    4.4461680    3.2383901  
  13 H       2.5177999 *  2.5618406 *  5.0497426    4.6576836    3.4800531  
  14 O       2.9049782 *  2.3109121 *  4.0999294    4.6874326    4.3495155  
  15 C       1.4263112 *  4.2018187    6.2157446    5.7308872    3.8641311  
  16 O       0.0000000    4.3602820    6.9249201    6.8281781    5.0823566  
  17 O       4.3602820    0.0000000    3.3114539    4.4970317    5.0829758  
  18 H       6.9249201    3.3114539    0.0000000    3.2091955    5.6251114  
  19 H       6.8281781    4.4970317    3.2091955    0.0000000    3.1992611  
  20 H       5.0823566    5.0829758    5.6251114    3.1992611    0.0000000  
  21 H       2.0899514 *  4.9344487    6.8335898    5.8249983    3.4014014  
  22 H       2.0926382 *  4.6941515    6.2865819    5.9628936    4.2858435  
  23 H       0.9650743 *  5.3105414    7.8034919    7.6336238    5.6640684  
  24 H       5.2792692    0.9704166 *  2.7794516 *  4.1413460    5.2747540  

               21 H         22 H         23 H         24 H     

   1 H       5.2952924    4.3568564    5.5212098    2.4850858 *
   2 C       4.5078147    3.8802527    5.0451348    1.9414077 *
   3 C       4.8541521    4.4071942    5.9876882    2.4142454 *
   4 H       5.0894904    4.3620802    6.2425845    3.4168283  
   5 O       6.1572039    5.8246809    7.2610740    2.2268687 *
   6 C       4.1046834    4.1975164    5.7214104    3.0527457  
   7 H       4.3572503    4.7456395    5.8794040    2.6551850 *
   8 O       4.9509340    5.1120335    6.8468553    4.2169428  
   9 C       2.6468534 *  2.8663048 *  4.4732384    3.9549572  
  10 H       2.8913521 *  2.6421938 *  4.6863493    4.6679397  
  11 O       2.5058600 *  3.4953069    4.7191325    4.8992019  
  12 C       2.1326139 *  2.1429227 *  3.2347555    3.5956778  
  13 H       2.5553544 *  3.0372120    3.4365478    3.2587595  
  14 O       3.3185428    2.5201104 *  3.7333579    3.1055561  
  15 C       1.0975331 *  1.1004877 *  1.9633799 *  5.0191125  
  16 O       2.0899514 *  2.0926382 *  0.9650743 *  5.2792692  
  17 O       4.9344487    4.6941515    5.3105414    0.9704166 *
  18 H       6.8335898    6.2865819    7.8034919    2.7794516 *
  19 H       5.8249983    5.9628936    7.6336238    4.1413460  
  20 H       3.4014014    4.2858435    5.6640684    5.2747540  
  21 H       0.0000000    1.7897808 *  2.3640379 *  5.6680785  
  22 H       1.7897808 *  0.0000000    2.3386780 *  5.5025920  
  23 H       2.3640379 *  2.3386780 *  0.0000000    6.2367298  
  24 H       5.6680785    5.5025920    6.2367298    0.0000000  

  * ... LESS THAN  3.000


     ATOMIC BASIS SET
     ----------------
 THE CONTRACTED PRIMITIVE FUNCTIONS HAVE BEEN UNNORMALIZED
 THE CONTRACTED BASIS FUNCTIONS ARE NOW NORMALIZED TO UNITY

  SHELL TYPE  PRIMITIVE        EXPONENT          CONTRACTION COEFFICIENT(S)

 H         

      1   S       1             5.4471780    0.156284978695
      1   S       2             0.8245472    0.904690876670

      2   S       3             0.1831916    1.000000000000

 C         

      3   S       4           172.2560000    0.061766907377
      3   S       5            25.9109000    0.358794042852
      3   S       6             5.5333500    0.700713083689

      4   L       7             3.6649800   -0.395895162119    0.236459946619
      4   L       8             0.7705450    1.215834355681    0.860618805716

      5   L       9             0.1958570    1.000000000000    1.000000000000

 C         

      6   S      10           172.2560000    0.061766907377
      6   S      11            25.9109000    0.358794042852
      6   S      12             5.5333500    0.700713083689

      7   L      13             3.6649800   -0.395895162119    0.236459946619
      7   L      14             0.7705450    1.215834355681    0.860618805716

      8   L      15             0.1958570    1.000000000000    1.000000000000

 H         

      9   S      16             5.4471780    0.156284978695
      9   S      17             0.8245472    0.904690876670

     10   S      18             0.1831916    1.000000000000

 O         

     11   S      19           322.0370000    0.059239393389
     11   S      20            48.4308000    0.351499960776
     11   S      21            10.4206000    0.707657921031

     12   L      22             7.4029400   -0.404453583190    0.244586106967
     12   L      23             1.5762000    1.221561761397    0.853955373466

     13   L      24             0.3736840    1.000000000000    1.000000000000

 C         

     14   S      25           172.2560000    0.061766907377
     14   S      26            25.9109000    0.358794042852
     14   S      27             5.5333500    0.700713083689

     15   L      28             3.6649800   -0.395895162119    0.236459946619
     15   L      29             0.7705450    1.215834355681    0.860618805716

     16   L      30             0.1958570    1.000000000000    1.000000000000

 H         

     17   S      31             5.4471780    0.156284978695
     17   S      32             0.8245472    0.904690876670

     18   S      33             0.1831916    1.000000000000

 O         

     19   S      34           322.0370000    0.059239393389
     19   S      35            48.4308000    0.351499960776
     19   S      36            10.4206000    0.707657921031

     20   L      37             7.4029400   -0.404453583190    0.244586106967
     20   L      38             1.5762000    1.221561761397    0.853955373466

     21   L      39             0.3736840    1.000000000000    1.000000000000

 C         

     22   S      40           172.2560000    0.061766907377
     22   S      41            25.9109000    0.358794042852
     22   S      42             5.5333500    0.700713083689

     23   L      43             3.6649800   -0.395895162119    0.236459946619
     23   L      44             0.7705450    1.215834355681    0.860618805716

     24   L      45             0.1958570    1.000000000000    1.000000000000

 H         

     25   S      46             5.4471780    0.156284978695
     25   S      47             0.8245472    0.904690876670

     26   S      48             0.1831916    1.000000000000

 O         

     27   S      49           322.0370000    0.059239393389
     27   S      50            48.4308000    0.351499960776
     27   S      51            10.4206000    0.707657921031

     28   L      52             7.4029400   -0.404453583190    0.244586106967
     28   L      53             1.5762000    1.221561761397    0.853955373466

     29   L      54             0.3736840    1.000000000000    1.000000000000

 C         

     30   S      55           172.2560000    0.061766907377
     30   S      56            25.9109000    0.358794042852
     30   S      57             5.5333500    0.700713083689

     31   L      58             3.6649800   -0.395895162119    0.236459946619
     31   L      59             0.7705450    1.215834355681    0.860618805716

     32   L      60             0.1958570    1.000000000000    1.000000000000

 H         

     33   S      61             5.4471780    0.156284978695
     33   S      62             0.8245472    0.904690876670

     34   S      63             0.1831916    1.000000000000

 O         

     35   S      64           322.0370000    0.059239393389
     35   S      65            48.4308000    0.351499960776
     35   S      66            10.4206000    0.707657921031

     36   L      67             7.4029400   -0.404453583190    0.244586106967
     36   L      68             1.5762000    1.221561761397    0.853955373466

     37   L      69             0.3736840    1.000000000000    1.000000000000

 C         

     38   S      70           172.2560000    0.061766907377
     38   S      71            25.9109000    0.358794042852
     38   S      72             5.5333500    0.700713083689

     39   L      73             3.6649800   -0.395895162119    0.236459946619
     39   L      74             0.7705450    1.215834355681    0.860618805716

     40   L      75             0.1958570    1.000000000000    1.000000000000

 O         

     41   S      76           322.0370000    0.059239393389
     41   S      77            48.4308000    0.351499960776
     41   S      78            10.4206000    0.707657921031

     42   L      79             7.4029400   -0.404453583190    0.244586106967
     42   L      80             1.5762000    1.221561761397    0.853955373466

     43   L      81             0.3736840    1.000000000000    1.000000000000

 O         

     44   S      82           322.0370000    0.059239393389
     44   S      83            48.4308000    0.351499960776
     44   S      84            10.4206000    0.707657921031

     45   L      85             7.4029400   -0.404453583190    0.244586106967
     45   L      86             1.5762000    1.221561761397    0.853955373466

     46   L      87             0.3736840    1.000000000000    1.000000000000

 H         

     47   S      88             5.4471780    0.156284978695
     47   S      89             0.8245472    0.904690876670

     48   S      90             0.1831916    1.000000000000

 H         

     49   S      91             5.4471780    0.156284978695
     49   S      92             0.8245472    0.904690876670

     50   S      93             0.1831916    1.000000000000

 H         

     51   S      94             5.4471780    0.156284978695
     51   S      95             0.8245472    0.904690876670

     52   S      96             0.1831916    1.000000000000

 H         

     53   S      97             5.4471780    0.156284978695
     53   S      98             0.8245472    0.904690876670

     54   S      99             0.1831916    1.000000000000

 H         

     55   S     100             5.4471780    0.156284978695
     55   S     101             0.8245472    0.904690876670

     56   S     102             0.1831916    1.000000000000

 H         

     57   S     103             5.4471780    0.156284978695
     57   S     104             0.8245472    0.904690876670

     58   S     105             0.1831916    1.000000000000

 H         

     59   S     106             5.4471780    0.156284978695
     59   S     107             0.8245472    0.904690876670

     60   S     108             0.1831916    1.000000000000

 TOTAL NUMBER OF BASIS SET SHELLS             =   60
 NUMBER OF CARTESIAN GAUSSIAN BASIS FUNCTIONS =  132
 NUMBER OF ELECTRONS                          =   96
 CHARGE OF MOLECULE                           =    0
 SPIN MULTIPLICITY                            =    1
 NUMBER OF OCCUPIED ORBITALS (ALPHA)          =   48
 NUMBER OF OCCUPIED ORBITALS (BETA )          =   48
 TOTAL NUMBER OF ATOMS                        =   24
 THE NUCLEAR REPULSION ENERGY IS      828.7972760139

 SELECTED MURRAY-HANDY-LAMING RADIAL GRID

 LEGACY BECKE'S FUZZY CELL METHOD

 SELECTED ORIGINAL BECKE'S PARTITION FUNCTION

     LEBEDEV GRID-BASED DFT OPTIONS
     ------------------------------
     DFTTYP=B3LYP   
     NRAD  =      96     NLEB  =     302
     NRAD0 =      24     NLEB0 =     110
     SWOFF =    5.00E-03 (PURE SCF -> DFT)
     SWITCH=    3.00E-04 (COARSE -> TIGHT GRID)
     THRESH=    0.00E+00 GTHRE=    1.00E+00

 GRIMME'S EMPIRICAL DISPERSION CORRECTION= F

     $CONTRL OPTIONS
     ---------------
 SCFTYP=RHF          RUNTYP=OPTIMIZE     EXETYP=RUN     
 MPLEVL=       0     CITYP =NONE         CCTYP =NONE         VBTYP =NONE    
 DFTTYP=B3LYP        TDDFT =NONE    
 MULT  =       1     ICHARG=       0     NZVAR =       0     COORD =UNIQUE  
 PP    =NONE         RELWFN=NONE         LOCAL =NONE         NUMGRD=       F
 ISPHER=      -1     NOSYM =       0     MAXIT =      60     UNITS =ANGS    
 PLTORB=       F     MOLPLT=       F     AIMPAC=       F     FRIEND=        
 NPRINT=       7     IREST =       0     GEOM  =INPUT   
 NORMF =       0     NORMP =       0     ITOL  =      20     ICUT  =       9
 INTTYP=BEST         GRDTYP=BEST         QMTTOL= 1.0E-06

     $SYSTEM OPTIONS
     ---------------
  REPLICATED MEMORY=    30000000 WORDS (ON EVERY NODE).
 DISTRIBUTED MEMDDI=        1000 MILLION WORDS IN AGGREGATE,
 MEMDDI DISTRIBUTED OVER   8 PROCESSORS IS   125000000 WORDS/PROCESSOR.
 TOTAL MEMORY REQUESTED ON EACH PROCESSOR=   155000000 WORDS.
 TIMLIM=      525600.00 MINUTES, OR     365.0 DAYS.
 PARALL= T  BALTYP=  DLB     KDIAG=    0  COREFL= F
 MXSEQ2=     300 MXSEQ3=     150  mem10=         0

          ----------------
          PROPERTIES INPUT
          ----------------

     MOMENTS            FIELD           POTENTIAL          DENSITY
 IEMOM =       1   IEFLD =       0   IEPOT =       0   IEDEN =       0
 WHERE =COMASS     WHERE =NUCLEI     WHERE =NUCLEI     WHERE =NUCLEI  
 OUTPUT=BOTH       OUTPUT=BOTH       OUTPUT=BOTH       OUTPUT=BOTH    
 IEMINT=       0   IEFINT=       0                     IEDINT=       0
                                                       MORB  =       0
          EXTRAPOLATION IN EFFECT
          DIIS IN EFFECT
 ORBITAL PRINTING OPTION: NPREO=     1   132     2     1

     -------------------------------
     INTEGRAL TRANSFORMATION OPTIONS
     -------------------------------
     NWORD  =            0
     CUTOFF = 1.0E-09     MPTRAN =       0
     DIRTRF =       T     AOINTS =DUP     

          ----------------------
          INTEGRAL INPUT OPTIONS
          ----------------------
 NOPK  =       1 NORDER=       0 SCHWRZ=       T

     ------------------------------------------
     THE POINT GROUP IS C1 , NAXIS= 0, ORDER= 1
     ------------------------------------------

     DIMENSIONS OF THE SYMMETRY SUBSPACES ARE
 A   =  132

 ..... DONE SETTING UP THE RUN .....
 CPU     0: STEP CPU TIME=     0.02 TOTAL CPU TIME=          0.0 (      0.0 MIN)
 TOTAL WALL CLOCK TIME=          0.0 SECONDS, CPU UTILIZATION IS    66.67%


          -----------------------------
          STATIONARY POINT LOCATION RUN
          -----------------------------

 OBTAINING INITIAL HESSIAN, HESS=GUESS   
 CARTESIAN COORDINATE OPTIMIZATION USING BADGER'S RULE FORCE CONSTANT GUESS

          PARAMETERS CONTROLLING GEOMETRY SEARCH ARE
          METHOD =QA                  UPHESS =BFGS    
          NNEG   =         0          NFRZ   =         0
          NSTEP  =       999          IFOLOW =         1
          HESS   =GUESS               RESTAR =         F
          IHREP  =         0          HSSEND =         F
          NPRT   =         0          NPUN   =         0
          OPTTOL = 1.000E-04          RMIN   = 1.500E-03
          RMAX   = 1.000E-01          RLIM   = 7.000E-02
          DXMAX  = 3.000E-01          PURIFY =         F
          MOVIE  =         F          TRUPD  =         T
          TRMAX  = 5.000E-01          TRMIN  = 5.000E-02
          ITBMAT =         5          STPT   =         F
          STSTEP = 1.000E-02          PROJCT=          T

 BEGINNING GEOMETRY SEARCH POINT NSERCH=   0 ...

 COORDINATES OF ALL ATOMS ARE (ANGS)
   ATOM   CHARGE       X              Y              Z
 ------------------------------------------------------------
 H           1.0  -0.9411038000   2.3895675000  -0.3316525000
 C           6.0  -0.6549036000   1.4536695000   0.1694781000
 C           6.0  -1.6058260000   0.3066626000  -0.2389559000
 H           1.0  -1.7219963000   0.3073659000  -1.3300232000
 O           8.0  -2.8871091000   0.4500058000   0.4012569000
 C           6.0  -1.0429307000  -1.0405533000   0.2043348000
 H           1.0  -1.0448506000  -1.0837979000   1.3026275000
 O           8.0  -1.8012296000  -2.1309197000  -0.3228669000
 C           6.0   0.3963719000  -1.2157589000  -0.2760383000
 H           1.0   0.3974832000  -1.2466406000  -1.3781940000
 O           8.0   0.9567713000  -2.4142479000   0.2471409000
 C           6.0   1.2446311000  -0.0243476000   0.1956931000
 H           1.0   1.2853006000  -0.0111409000   1.2912536000
 O           8.0   0.6451518000   1.1962431000  -0.2823744000
 C           6.0   2.6609167000  -0.0789209000  -0.3488253000
 O           8.0   3.4572749000   0.8640025000   0.3660683000
 O           8.0  -0.6620076000   1.6294057000   1.5734325000
 H           1.0  -3.4485157000   1.0419532000  -0.1165377000
 H           1.0  -2.6975095000  -2.0743737000   0.0365381000
 H           1.0   0.3235115000  -3.1266242000   0.0749085000
 H           1.0   3.0399628000  -1.1000385000  -0.2138374000
 H           1.0   2.6364342000   0.1555755000  -1.4237603000
 H           1.0   4.3517942000   0.8545286000   0.0039719000
 H           1.0  -1.5642817000   1.4541843000   1.8847317000

          ********************
          1 ELECTRON INTEGRALS
          ********************
 ...... END OF ONE-ELECTRON INTEGRALS ......
 CPU     0: STEP CPU TIME=     0.01 TOTAL CPU TIME=          0.0 (      0.0 MIN)
 TOTAL WALL CLOCK TIME=          0.1 SECONDS, CPU UTILIZATION IS    60.00%

          -------------
          GUESS OPTIONS
          -------------
          GUESS =HUCKEL            NORB  =       0          NORDER=       0
          MIX   =       F          PRTMO =       F          PUNMO =       F
          TOLZ  = 1.0E-08          TOLE  = 1.0E-05
          SYMDEN=       F          PURIFY=       F

 INITIAL GUESS ORBITALS GENERATED BY HUCKEL   ROUTINE.
 HUCKEL GUESS REQUIRES    164928 WORDS.

 SYMMETRIES FOR INITIAL GUESS ORBITALS FOLLOW.   BOTH SET(S).
    48 ORBITALS ARE OCCUPIED (   12 CORE ORBITALS).
    13=A       14=A       15=A       16=A       17=A       18=A       19=A   
    20=A       21=A       22=A       23=A       24=A       25=A       26=A   
    27=A       28=A       29=A       30=A       31=A       32=A       33=A   
    34=A       35=A       36=A       37=A       38=A       39=A       40=A   
    41=A       42=A       43=A       44=A       45=A       46=A       47=A   
    48=A       49=A       50=A       51=A       52=A       53=A       54=A   
    55=A       56=A       57=A       58=A   
 ...... END OF INITIAL ORBITAL SELECTION ......
 CPU     0: STEP CPU TIME=     0.04 TOTAL CPU TIME=          0.1 (      0.0 MIN)
 TOTAL WALL CLOCK TIME=          0.1 SECONDS, CPU UTILIZATION IS    77.78%

                    ----------------------
                    AO INTEGRAL TECHNOLOGY
                    ----------------------
     S,P,L SHELL ROTATED AXIS INTEGRALS, REPROGRAMMED BY
        KAZUYA ISHIMURA (IMS) AND JOSE SIERRA (SYNSTAR).
     S,P,D,L SHELL ROTATED AXIS INTEGRALS PROGRAMMED BY
        KAZUYA ISHIMURA (INSTITUTE FOR MOLECULAR SCIENCE).
     S,P,D,F,G SHELL TO TOTAL QUARTET ANGULAR MOMENTUM SUM 5,
        ERIC PROGRAM BY GRAHAM FLETCHER (ELORET AND NASA ADVANCED
        SUPERCOMPUTING DIVISION, AMES RESEARCH CENTER).
     S,P,D,F,G,L SHELL GENERAL RYS QUADRATURE PROGRAMMED BY
        MICHEL DUPUIS (PACIFIC NORTHWEST NATIONAL LABORATORY).

          --------------------
          2 ELECTRON INTEGRALS
          --------------------

 DIRECT SCF METHOD SKIPS INTEGRAL STORAGE ON DISK.
 DIRECT TRANSFORMATION SKIPS AO INTEGRAL STORAGE ON DISK.
  ...... END OF TWO-ELECTRON INTEGRALS .....
 CPU     0: STEP CPU TIME=     0.01 TOTAL CPU TIME=          0.1 (      0.0 MIN)
 TOTAL WALL CLOCK TIME=          0.1 SECONDS, CPU UTILIZATION IS    80.00%

          --------------------------
             R-B3LYP SCF CALCULATION
          --------------------------

     NUCLEAR ENERGY =       828.7972760139
     MAXIT =   60     NPUNCH=    2
     EXTRAP=T  DAMP=F  SHIFT=F  RSTRCT=F  DIIS=T  DEM=F  SOSCF=F
         DENSITY MATRIX CONVERGENCE THRESHOLD=  2.00E-05
     COARSE -> FINE DFT GRID SWITCH THRESHOLD=  3.00E-04 (SWITCH IN $DFT)
                   HF -> DFT SWITCH THRESHOLD=  5.00E-03 (SWOFF IN $DFT)
     MEMORY REQUIRED FOR RHF ITERS=    955735 WORDS.

 DIRECT SCF CALCULATION, SCHWRZ=T   FDIFF=T,  DIRTHR=  0.00E+00 NITDIR=10
 SCHWARZ INEQUALITY OVERHEAD:      8033 INTEGRALS, T=        0.00

 DFT CODE IS SWITCHING FROM THE FINE GRID NRAD= 96,  NLEB=  302
                      TO THE COARSE GRID NRAD0= 24, NLEB0=  110

     EXCHANGE FUNCTIONAL   =B88&HFX   
     CORRELATION FUNCTIONAL=LYP88&VWN5
     DFT THRESHOLD         =.575E-08
     GRID CHANGE THRESHOLD =.300E-03
 FOR AN EULER-MACLAURIN QUADRATURE USING  96 RADIAL POINTS:
 SMALLEST GAUSSIAN PRIMITIVE EXPONENT=        0.1831915800 OF TYPE -S-
 ON ATOM NUMBER   1 HAS RADIAL NORMALIZATION=  1.000000
  LARGEST GAUSSIAN PRIMITIVE EXPONENT=      322.0370000000 OF TYPE -S-
 ON ATOM NUMBER   5 HAS RADIAL NORMALIZATION=  1.000000
 DFT IS SWITCHED OFF, PERFORMING PURE SCF UNTIL SWOFF THRESHOLD IS REACHED.

                                                                                   NONZERO     BLOCKS
 ITER EX DEM     TOTAL ENERGY        E CHANGE  DENSITY CHANGE    DIIS ERROR      INTEGRALS    SKIPPED
          * * *   INITIATING DIIS PROCEDURE   * * *
   1  0  0     -677.6747457931  -677.6747457931   0.746851712   0.498535451       21074500     875120
   2  1  0     -679.4368339318    -1.7620881387   0.145747514   0.072165831       21045048     889123
   3  2  0     -679.5238194405    -0.0869855087   0.083232613   0.034225718       20769131     938083
   4  3  0     -679.5355060913    -0.0116866508   0.018180853   0.012146171       20443996     975810
   5  4  0     -679.5373437944    -0.0018377032   0.003161545   0.001835368       19914238    1012129
 CONVERGED TO SWOFF, SO DFT CALCULATION IS NOW SWITCHED ON.
          * * *   INITIATING DIIS PROCEDURE   * * *
   6  5  0     -682.9167487811    -3.3794049867   0.133486986   0.052495324       21100960     863895
   7  6  0     -682.9662361285    -0.0494873473   0.113169269   0.024281454       20897616     923376
   8  7  0     -682.9680039794    -0.0017678509   0.059504074   0.022988117       20613758     956607
   9  8  0     -682.9761553309    -0.0081513515   0.005218831   0.005507767       20321419     984553
  10  9  0     -682.9764037597    -0.0002484288   0.000950008   0.000582763       19240822    1048637
  11 10  0     -682.9764082436    -0.0000044839   0.000209752   0.000142533       18004002    1110012
 DFT CODE IS SWITCHING BACK TO THE FINE GRID
          * * *   INITIATING DIIS PROCEDURE   * * *
  12 11  0     -682.9900753335    -0.0136670899   0.003009886   0.001216651       21108909     859531
  13 12  0     -682.9901220385    -0.0000467050   0.002607791   0.000703352       19215291    1057329
  14 13  0     -682.9901236258    -0.0000015873   0.001097061   0.000812808       18376504    1096135
  15 14  0     -682.9901289806    -0.0000053548   0.000080785   0.000059058       17640103    1131136
  16 15  0     -682.9901290296    -0.0000000489   0.000031874   0.000017037       15676769    1206417
  17 16  0     -682.9901290349    -0.0000000054   0.000013031   0.000006763       14252300    1263617
  18 17  0     -682.9901290355    -0.0000000006   0.000003318   0.000002616       12830095    1316256

          -----------------
          DENSITY CONVERGED
          -----------------
     TIME TO FORM FOCK OPERATORS=      21.2 SECONDS (       1.2 SEC/ITER)
     FOCK TIME ON FIRST ITERATION=       0.2, LAST ITERATION=       2.5
     TIME TO SOLVE SCF EQUATIONS=       0.4 SECONDS (       0.0 SEC/ITER)

 FINAL R-B3LYP ENERGY IS     -682.9901290355 AFTER  18 ITERATIONS
 DFT EXCHANGE + CORRELATION ENERGY =       -71.2596155082
 TOTAL ELECTRON NUMBER             =        96.0000519568

          ------------
          EIGENVECTORS
          ------------

                      1          2          3          4          5
                  -19.0575   -19.0346   -19.0331   -19.0207   -19.0180
                     A          A          A          A          A   
    1  H  1  S    0.000347  -0.001252   0.000396  -0.001150   0.000307
    2  H  1  S   -0.001203  -0.000508   0.001280   0.001211   0.000924
    3  C  2  S    0.000209  -0.000930  -0.000027  -0.001105   0.000046
    4  C  2  S    0.000642  -0.003745  -0.000336  -0.004870   0.000014
    5  C  2  X    0.000629   0.001942  -0.000103  -0.000087  -0.000206
    6  C  2  Y    0.000279   0.000033   0.000619   0.001180   0.000459
    7  C  2  Z    0.000313  -0.000256  -0.000120   0.001507  -0.000094
    8  C  2  S   -0.005018   0.022518  -0.001059   0.025813  -0.002961
    9  C  2  X    0.003502   0.011202   0.000922   0.000990   0.000222
   10  C  2  Y    0.002154  -0.005666  -0.002383  -0.004581  -0.000037
   11  C  2  Z   -0.003740  -0.001555   0.000882   0.015661   0.001988
   12  C  3  S   -0.001056   0.000262   0.000208   0.000344  -0.000110
   13  C  3  S   -0.004592   0.000847   0.000741   0.001543  -0.000884
   14  C  3  X   -0.001363  -0.000631  -0.000127  -0.000759  -0.000648
   15  C  3  Y    0.000252  -0.000760   0.000613  -0.001000   0.000134
   16  C  3  Z    0.000005  -0.000043  -0.000305  -0.000004   0.000160
   17  C  3  S    0.026737  -0.007462  -0.005926  -0.009513   0.000984
   18  C  3  X   -0.010340  -0.002845   0.000261  -0.000211   0.004292
   19  C  3  Y   -0.000309   0.002328   0.004380   0.000600   0.000905
   20  C  3  Z    0.010540  -0.000145   0.002612  -0.006811  -0.001337
   21  H  4  S   -0.001007   0.000675   0.000793  -0.000552  -0.000534
   22  H  4  S   -0.000463  -0.000188   0.001387  -0.000369   0.000077
   23  O  5  S    0.982514   0.002106  -0.004183  -0.000983   0.002023
   24  O  5  S    0.105448   0.000028  -0.000142  -0.000154  -0.000168
   25  O  5  X    0.001751  -0.000192   0.000212   0.000101  -0.000042
   26  O  5  Y    0.001304  -0.000138  -0.000299   0.000303  -0.000029
   27  O  5  Z   -0.002956  -0.000061   0.000158   0.000136   0.000087
   28  O  5  S   -0.052255   0.000233  -0.000021   0.002059   0.001718
   29  O  5  X   -0.007911   0.000817  -0.000590   0.000950   0.000586
   30  O  5  Y   -0.001936   0.000309   0.000656  -0.001190   0.000010
   31  O  5  Z    0.007633   0.000187  -0.000755  -0.000630  -0.000602
   32  C  6  S    0.000275  -0.000044  -0.001026   0.000086   0.000249
   33  C  6  S    0.001088   0.000330  -0.004354   0.000862   0.000883
   34  C  6  X    0.000411   0.000281  -0.000846   0.000109  -0.000561
   35  C  6  Y   -0.000400   0.000472  -0.001050   0.000545   0.000094
   36  C  6  Z    0.000241   0.000620   0.000056  -0.000208   0.000265
   37  C  6  S   -0.008956   0.003628   0.026717  -0.000342  -0.007529
   38  C  6  X    0.002826  -0.004281  -0.006250  -0.004549  -0.005173
   39  C  6  Y   -0.005121  -0.001952  -0.010372   0.000871   0.002897
   40  C  6  Z   -0.001264  -0.006068  -0.009656   0.001192  -0.001898
   41  H  7  S    0.000854   0.000713  -0.001099  -0.000137   0.000835
   42  H  7  S    0.000736   0.001899  -0.000315  -0.000345   0.001090
   43  O  8  S    0.004005   0.094687   0.977955  -0.003245  -0.006038
   44  O  8  S    0.000731   0.010833   0.105201  -0.000175  -0.000403
   45  O  8  X   -0.000044   0.000075  -0.000440  -0.000030   0.000442
   46  O  8  Y    0.000141   0.000459   0.002935   0.000074  -0.000073
   47  O  8  Z   -0.000046   0.000183   0.002388   0.000065  -0.000163
   48  O  8  S   -0.000817  -0.007834  -0.052956  -0.000448   0.000385
   49  O  8  X    0.000009  -0.000983  -0.001805   0.000279  -0.001055
   50  O  8  Y   -0.000015  -0.002339  -0.009797  -0.000495   0.000276
   51  O  8  Z    0.000235  -0.000529  -0.006309  -0.000401   0.000765
   52  C  9  S   -0.000140   0.000066   0.000274  -0.000204  -0.001051
   53  C  9  S   -0.001015  -0.000280   0.001159  -0.000988  -0.004587
   54  C  9  X    0.000327  -0.000348   0.000450  -0.000056   0.000384
   55  C  9  Y   -0.000536  -0.000632   0.000134   0.000264  -0.001415
   56  C  9  Z    0.000134  -0.000464  -0.000246   0.000047  -0.000186
   57  C  9  S    0.002326  -0.002079  -0.008664   0.007484   0.027049
   58  C  9  X   -0.000900   0.001024   0.005479  -0.001053   0.004423
   59  C  9  Y    0.004634  -0.002112   0.000824   0.000839  -0.011783
   60  C  9  Z   -0.001068   0.004361   0.001183   0.001984   0.011273
   61  H 10  S   -0.000670   0.000775   0.000838  -0.000245  -0.000994
   62  H 10  S    0.000130   0.001352   0.000874   0.000066   0.000530
   63  O 11  S   -0.002076  -0.000014   0.006149   0.015982   0.982426
   64  O 11  S   -0.000593   0.000084   0.000920   0.001939   0.105886
   65  O 11  X   -0.000048  -0.000171  -0.000130  -0.000040  -0.003251
   66  O 11  Y   -0.000057  -0.000183   0.000069   0.000081   0.001201
   67  O 11  Z    0.000097  -0.000007   0.000105  -0.000017  -0.001873
   68  O 11  S    0.001957  -0.001086  -0.000620  -0.001836  -0.054092
   69  O 11  X   -0.000060   0.000796  -0.000099   0.000312   0.008805
   70  O 11  Y    0.000593   0.000206  -0.000051  -0.000721  -0.006810
   71  O 11  Z   -0.000548   0.000009  -0.000497   0.000080   0.005281
   72  C 12  S    0.000093  -0.000779   0.000006   0.000203   0.000171
   73  C 12  S    0.000294  -0.003035  -0.000143   0.001569   0.000537
   74  C 12  X    0.000557  -0.001001   0.000791  -0.000704   0.000190
   75  C 12  Y   -0.000099   0.001540   0.000137   0.000352   0.000505
   76  C 12  Z   -0.000235   0.000165  -0.000085   0.000036   0.000618
   77  C 12  S   -0.004291   0.017540  -0.001896  -0.003849  -0.004777
   78  C 12  X   -0.001161  -0.002981  -0.004365   0.004878   0.000868
   79  C 12  Y    0.000210   0.009152  -0.000850   0.000645   0.005784
   80  C 12  Z    0.003157  -0.007461   0.000803  -0.000610  -0.004936
   81  H 13  S   -0.000223  -0.000890  -0.000196   0.000043   0.001128
   82  H 13  S   -0.000707   0.000287   0.000291   0.001010   0.001798
   83  O 14  S   -0.002566   0.978034  -0.094571  -0.017421   0.000913
   84  O 14  S   -0.000506   0.107110  -0.009673  -0.000673   0.000108
   85  O 14  X    0.000044  -0.002065   0.000125   0.000048   0.000311
   86  O 14  Y    0.000301  -0.002220   0.000185  -0.000011   0.000103
   87  O 14  Z    0.000014   0.002341  -0.000053   0.000570   0.000059
   88  O 14  S    0.000490  -0.059648   0.002793  -0.003315  -0.000947
   89  O 14  X    0.000295   0.006397   0.000302   0.001742  -0.001808
   90  O 14  Y   -0.001550   0.006501   0.000037  -0.000583   0.000209
   91  O 14  Z    0.000028  -0.007190  -0.000333  -0.003830  -0.000240
   92  C 15  S   -0.000092   0.000188  -0.000069   0.000067   0.000095
   93  C 15  S   -0.000503   0.000763  -0.000305   0.000446   0.000787
   94  C 15  X   -0.000054   0.000538  -0.000276  -0.000052  -0.000181
   95  C 15  Y    0.000001  -0.000076  -0.000059   0.000059  -0.000054
   96  C 15  Z    0.000054  -0.000450  -0.000021   0.000044  -0.000301
   97  C 15  S    0.003134  -0.005725   0.003514  -0.002578  -0.002446
   98  C 15  X   -0.001766   0.003368  -0.000669   0.001011   0.001436
   99  C 15  Y    0.000246  -0.002629   0.000918  -0.000593  -0.000684
  100  C 15  Z   -0.000051   0.002570   0.001284  -0.001023   0.002579
  101  O 16  S    0.000214   0.001133   0.001144  -0.001081   0.002435
  102  O 16  S    0.000081   0.000200   0.000316  -0.000228   0.000422
  103  O 16  X   -0.000032  -0.000204   0.000069  -0.000028  -0.000070
  104  O 16  Y    0.000016  -0.000151  -0.000023   0.000010  -0.000086
  105  O 16  Z    0.000004   0.000148  -0.000057   0.000040   0.000058
  106  O 16  S   -0.000221   0.000116  -0.001052   0.000626  -0.000665
  107  O 16  X    0.000243   0.000420   0.000005  -0.000057   0.000308
  108  O 16  Y   -0.000026   0.000531   0.000317  -0.000167   0.000455
  109  O 16  Z    0.000026  -0.000731   0.000349  -0.000212  -0.000278
  110  O 17  S    0.000929   0.017996   0.001464   0.982300  -0.015931
  111  O 17  S    0.000071   0.003235   0.000235   0.106048  -0.001523
  112  O 17  X   -0.000189   0.000389   0.000084  -0.002350   0.000069
  113  O 17  Y   -0.000210  -0.000268  -0.000053  -0.001012   0.000034
  114  O 17  Z    0.000101  -0.000152  -0.000028  -0.002872   0.000021
  115  O 17  S    0.001271  -0.005832  -0.000425  -0.054438   0.000023
  116  O 17  X    0.000526  -0.002557  -0.000309   0.004428  -0.000192
  117  O 17  Y    0.000400   0.001574   0.000424   0.003142  -0.000007
  118  O 17  Z   -0.001320   0.002756   0.000157   0.010894   0.000121
  119  H 18  S    0.003085  -0.000209  -0.000296   0.000497  -0.000263
  120  H 18  S    0.005427   0.000450  -0.000405  -0.000402   0.000511
  121  H 19  S   -0.000236   0.000422   0.003241   0.000268  -0.000506
  122  H 19  S    0.000691  -0.000176   0.005403  -0.000546  -0.000425
  123  H 20  S    0.000025   0.000251  -0.000449   0.000047   0.003327
  124  H 20  S    0.000116  -0.000019   0.000909   0.000034   0.005622
  125  H 21  S   -0.000160  -0.000260   0.000016   0.000084  -0.000393
  126  H 21  S    0.000219  -0.000377  -0.000293  -0.000154   0.000287
  127  H 22  S   -0.000215   0.000784  -0.000024   0.000148   0.000499
  128  H 22  S   -0.000356   0.001723   0.000021  -0.000278   0.001505
  129  H 23  S   -0.000052  -0.000204   0.000185  -0.000094  -0.000019
  130  H 23  S    0.000122  -0.000399  -0.000036  -0.000028  -0.000240
  131  H 24  S   -0.000582  -0.000332  -0.000248   0.003035  -0.000050
  132  H 24  S    0.001878   0.000316   0.000206   0.006145  -0.000156

                      6          7          8          9         10
                  -19.0012   -10.2171   -10.1815   -10.1750   -10.1693
                     A          A          A          A          A   
    1  H  1  S    0.000057  -0.000660  -0.001324  -0.000218  -0.000232
    2  H  1  S   -0.000192   0.013485   0.001800   0.003425  -0.001498
    3  C  2  S    0.000091   0.986618   0.014233   0.005716  -0.000568
    4  C  2  S    0.000440   0.113603  -0.003572  -0.001948   0.001028
    5  C  2  X   -0.000143   0.000479  -0.000612   0.000724   0.000132
    6  C  2  Y   -0.000054  -0.001839  -0.000115   0.001590  -0.000157
    7  C  2  Z    0.000069   0.000068  -0.000522  -0.000396   0.000557
    8  C  2  S   -0.002491  -0.091874   0.033051   0.007621  -0.004481
    9  C  2  X   -0.000030   0.006030  -0.007127  -0.002546  -0.002103
   10  C  2  Y    0.001151   0.015128  -0.016061  -0.006270   0.003773
   11  C  2  Z   -0.000347   0.001632  -0.000578   0.003294  -0.002391
   12  C  3  S   -0.000039  -0.016047   0.984864   0.058962   0.029221
   13  C  3  S   -0.000210  -0.006877   0.117075   0.003985   0.000342
   14  C  3  X    0.000048  -0.000075   0.000747   0.000293  -0.000917
   15  C  3  Y    0.000021   0.000181  -0.000254  -0.000386   0.000932
   16  C  3  Z   -0.000125  -0.000368   0.000668   0.000056   0.000310
   17  C  3  S    0.001302   0.034734  -0.111300   0.019114   0.006888
   18  C  3  X    0.000412   0.012490  -0.013887   0.004700   0.004507
   19  C  3  Y    0.000676   0.012541   0.004627  -0.017548  -0.003715
   20  C  3  Z    0.001405   0.008145  -0.009204   0.001532  -0.001075
   21  H  4  S    0.000086  -0.001855   0.000711  -0.002009  -0.000825
   22  H  4  S    0.000485   0.002405   0.015017   0.001656  -0.001342
   23  O  5  S   -0.000201   0.000039  -0.000181   0.000037  -0.000055
   24  O  5  S    0.000044  -0.000055  -0.001046   0.000078  -0.000620
   25  O  5  X    0.000024  -0.000195   0.000075  -0.000359  -0.000326
   26  O  5  Y    0.000039  -0.000114   0.000022   0.000130   0.000284
   27  O  5  Z    0.000020   0.000216  -0.000489  -0.000107  -0.000031
   28  O  5  S   -0.000340  -0.001676   0.011306  -0.000980   0.002004
   29  O  5  X   -0.000254  -0.001563   0.005279   0.000543   0.001526
   30  O  5  Y   -0.000163  -0.000293  -0.000914   0.000611  -0.001015
   31  O  5  Z   -0.000072  -0.000670   0.000097   0.000589   0.000022
   32  C  6  S   -0.000058  -0.005265  -0.061878   0.982676   0.069706
   33  C  6  S   -0.000326  -0.002175  -0.010764   0.116913   0.004995
   34  C  6  X    0.000158   0.000350  -0.000197   0.000644   0.000328
   35  C  6  Y    0.000093  -0.001218   0.000229   0.001081   0.000080
   36  C  6  Z    0.000144   0.000078   0.000024  -0.000542  -0.000159
   37  C  6  S    0.002954   0.003399   0.034562  -0.110498   0.019802
   38  C  6  X    0.000870   0.003424  -0.008629  -0.011366   0.018112
   39  C  6  Y   -0.001547  -0.001055   0.018050  -0.009757  -0.004009
   40  C  6  Z   -0.001869  -0.000399  -0.003315   0.007808  -0.002033
   41  H  7  S    0.000125  -0.000169  -0.002096   0.000921  -0.002068
   42  H  7  S    0.000291  -0.000726  -0.000103   0.016046   0.001709
   43  O  8  S   -0.001180  -0.000024   0.000035  -0.000140   0.000041
   44  O  8  S    0.000082  -0.000294  -0.000004  -0.000794   0.000100
   45  O  8  X   -0.000028   0.000042  -0.000125   0.000015  -0.000343
   46  O  8  Y    0.000020  -0.000324  -0.000195   0.000212  -0.000289
   47  O  8  Z    0.000016   0.000025  -0.000075   0.000459   0.000084
   48  O  8  S   -0.001060   0.000388  -0.001462   0.010243  -0.001071
   49  O  8  X   -0.000180  -0.000369   0.000500   0.003101  -0.000067
   50  O  8  Y   -0.000374   0.001236  -0.001378   0.003198   0.000831
   51  O  8  Z   -0.000153  -0.000079   0.000150  -0.000545  -0.000432
   52  C  9  S   -0.000097   0.001527  -0.025277  -0.073074   0.981949
   53  C  9  S   -0.000651   0.001658  -0.005479  -0.012296   0.116388
   54  C  9  X   -0.000701  -0.000310   0.001120   0.000025  -0.000654
   55  C  9  Y   -0.000148  -0.000451  -0.000809   0.000063   0.000846
   56  C  9  Z    0.000132   0.000152   0.000098   0.000088   0.000662
   57  C  9  S    0.000831  -0.009991   0.007994   0.038305  -0.109856
   58  C  9  X    0.005463   0.003320  -0.002137  -0.019448   0.003463
   59  C  9  Y    0.000346  -0.003518   0.004437   0.003188  -0.013560
   60  C  9  Z   -0.000363  -0.004676  -0.000317   0.003848  -0.009158
   61  H 10  S   -0.000443   0.000306  -0.000595  -0.002183   0.000730
   62  H 10  S    0.000183  -0.001526  -0.001582  -0.000764   0.015372
   63  O 11  S   -0.002375  -0.000030  -0.000055   0.000037  -0.000158
   64  O 11  S   -0.000031  -0.000275  -0.000578   0.000004  -0.001049
   65  O 11  X    0.000006  -0.000012   0.000229   0.000136  -0.000230
   66  O 11  Y    0.000005  -0.000207  -0.000250  -0.000275  -0.000044
   67  O 11  Z   -0.000080  -0.000177   0.000028   0.000067  -0.000423
   68  O 11  S   -0.001036   0.000866   0.001573  -0.001691   0.011115
   69  O 11  X   -0.000185  -0.000212  -0.000945   0.001345  -0.001031
   70  O 11  Y   -0.000513   0.001203   0.001095  -0.000078   0.004908
   71  O 11  Z    0.000493   0.000801  -0.000242  -0.000142   0.000452
   72  C 12  S    0.000301  -0.006217   0.003548  -0.007470  -0.067033
   73  C 12  S    0.001332  -0.004055   0.001477  -0.001456  -0.012306
   74  C 12  X   -0.000291   0.002244  -0.000409   0.001176   0.000152
   75  C 12  Y   -0.000231  -0.000983   0.000101   0.000788  -0.000263
   76  C 12  Z    0.000116  -0.000743   0.000509  -0.000591   0.000020
   77  C 12  S   -0.010125   0.008512  -0.004581  -0.002644   0.038461
   78  C 12  X   -0.005615  -0.016192   0.006289  -0.004180  -0.013702
   79  C 12  Y    0.000755   0.003662   0.000444   0.000123  -0.014478
   80  C 12  Z    0.000114   0.004374  -0.001376   0.004266  -0.004243
   81  H 13  S    0.000603  -0.001947   0.000831  -0.000285  -0.002382
   82  H 13  S    0.000967  -0.001639   0.000368  -0.002682  -0.000143
   83  O 14  S   -0.001054  -0.000016   0.000033   0.000080  -0.000012
   84  O 14  S   -0.000074  -0.000175  -0.000111   0.000755  -0.000538
   85  O 14  X    0.000337  -0.000277   0.000342  -0.000194  -0.000003
   86  O 14  Y   -0.000056  -0.000059   0.000097  -0.000372   0.000396
   87  O 14  Z   -0.000090   0.000425   0.000093   0.000074  -0.000136
   88  O 14  S    0.000471   0.007040  -0.001488  -0.001974  -0.000219
   89  O 14  X   -0.000887  -0.003402   0.001277   0.001619  -0.000650
   90  O 14  Y   -0.000001   0.001889  -0.000419   0.001826   0.001038
   91  O 14  Z    0.000410  -0.001148  -0.000614  -0.000982   0.000610
   92  C 15  S   -0.000908  -0.001058   0.001275  -0.005188  -0.009301
   93  C 15  S   -0.003651  -0.001085   0.000614  -0.001996  -0.002031
   94  C 15  X    0.001340  -0.000340   0.000030   0.000210   0.000884
   95  C 15  Y    0.001042   0.000317   0.000044   0.000241   0.000221
   96  C 15  Z    0.000647  -0.000184  -0.000063   0.000041   0.000085
   97  C 15  S    0.023687   0.009451  -0.003693   0.006812   0.000736
   98  C 15  X    0.002954  -0.003497   0.001397  -0.004455  -0.000478
   99  C 15  Y    0.007941  -0.001835  -0.000396  -0.001294   0.001097
  100  C 15  Z    0.007914   0.003469  -0.000670   0.000145  -0.001177
  101  O 16  S    0.982472   0.000019  -0.000011  -0.000009  -0.000031
  102  O 16  S    0.105082   0.000137  -0.000079  -0.000108  -0.000367
  103  O 16  X    0.000516   0.000026  -0.000020   0.000017   0.000375
  104  O 16  Y   -0.002511  -0.000071  -0.000012   0.000038   0.000014
  105  O 16  Z   -0.002901   0.000078   0.000027   0.000047  -0.000076
  106  O 16  S   -0.050482  -0.000727   0.000448   0.000410   0.000836
  107  O 16  X    0.001336   0.000120  -0.000050   0.000059  -0.001596
  108  O 16  Y    0.007446   0.000558  -0.000077  -0.000181  -0.000230
  109  O 16  Z    0.007528  -0.000253  -0.000182  -0.000261   0.000375
  110  O 17  S    0.001065  -0.000151   0.000110   0.000106  -0.000051
  111  O 17  S   -0.000005  -0.001107   0.000521   0.000877  -0.000351
  112  O 17  X   -0.000005  -0.000270   0.000251  -0.000005   0.000020
  113  O 17  Y    0.000005   0.000137   0.000227  -0.000185  -0.000083
  114  O 17  Z    0.000016  -0.000054   0.000361  -0.000215   0.000077
  115  O 17  S    0.000540   0.011226  -0.004631  -0.003366   0.001940
  116  O 17  X    0.000022   0.000987  -0.000325   0.000140   0.000204
  117  O 17  Y   -0.000123  -0.002126   0.000653   0.001392  -0.000252
  118  O 17  Z   -0.000309  -0.004299   0.001215   0.001989  -0.001077
  119  H 18  S    0.000016  -0.000416  -0.000058   0.000295   0.000127
  120  H 18  S   -0.000040  -0.000195   0.002349   0.001192   0.001157
  121  H 19  S    0.000100  -0.000569  -0.000213  -0.000009   0.000225
  122  H 19  S   -0.000043   0.001283   0.000133   0.002062   0.001781
  123  H 20  S    0.000070   0.000128  -0.000549  -0.000206  -0.000020
  124  H 20  S   -0.000084   0.000167   0.001772   0.000684   0.002364
  125  H 21  S   -0.001401  -0.000668   0.000035  -0.000701  -0.000335
  126  H 21  S   -0.001358  -0.001147   0.000222   0.000294   0.001385
  127  H 22  S   -0.001383  -0.000053   0.000185  -0.000493   0.000084
  128  H 22  S   -0.000874   0.000879   0.000065  -0.000338  -0.002029
  129  H 23  S    0.003250   0.000009  -0.000057  -0.000138   0.000366
  130  H 23  S    0.005741   0.000273  -0.000082   0.000532   0.000422
  131  H 24  S   -0.000036  -0.000432  -0.000710   0.000516   0.000031
  132  H 24  S    0.000047   0.003712   0.002209  -0.001395   0.000325

                     11         12         13         14         15
                  -10.1620   -10.1514    -1.0716    -1.0452    -1.0320
                     A          A          A          A          A   
    1  H  1  S    0.000367  -0.000057   0.023408  -0.011166  -0.004112
    2  H  1  S    0.003712   0.001003  -0.013418   0.004044  -0.004237
    3  C  2  S    0.005077   0.000815  -0.091541   0.043153   0.010551
    4  C  2  S   -0.003259  -0.001406   0.102733  -0.047211  -0.010647
    5  C  2  X   -0.000593   0.000221   0.038827  -0.051572   0.014584
    6  C  2  Y    0.001470   0.000338  -0.021100   0.001466  -0.003468
    7  C  2  Z   -0.000530  -0.000210   0.026209  -0.008267  -0.015319
    8  C  2  S    0.012513   0.007102   0.126896  -0.073367  -0.006795
    9  C  2  X    0.005165   0.001269  -0.025933   0.000545   0.004266
   10  C  2  Y   -0.009616  -0.004172   0.009416   0.006266   0.001966
   11  C  2  Z    0.004820   0.000980  -0.013634   0.016122  -0.008537
   12  C  3  S   -0.000726  -0.000489  -0.056506  -0.053044   0.020359
   13  C  3  S    0.001065   0.000763   0.055972   0.056113  -0.020968
   14  C  3  X   -0.000340  -0.000178  -0.012851  -0.065742   0.036488
   15  C  3  Y   -0.000576   0.000008   0.013530  -0.007832  -0.022991
   16  C  3  Z    0.000109   0.000011   0.022696   0.023672  -0.014619
   17  C  3  S   -0.007496  -0.006122   0.095868   0.085246  -0.033402
   18  C  3  X   -0.003286  -0.002256   0.010137   0.003950  -0.018483
   19  C  3  Y    0.001132   0.000101  -0.015187   0.012316  -0.011446
   20  C  3  Z   -0.003974  -0.002018   0.003967  -0.016448  -0.001945
   21  H  4  S    0.000141   0.000180   0.016291   0.014979  -0.005220
   22  H  4  S   -0.001309  -0.000426  -0.004109  -0.007009   0.000396
   23  O  5  S   -0.000026  -0.000025  -0.095547  -0.163940   0.092180
   24  O  5  S   -0.000213  -0.000223   0.089428   0.153426  -0.085625
   25  O  5  X   -0.000136  -0.000105   0.018877   0.019730  -0.008181
   26  O  5  Y   -0.000003   0.000051   0.019582   0.032979  -0.024281
   27  O  5  Z   -0.000134  -0.000066  -0.036072  -0.064795   0.035206
   28  O  5  S    0.000845   0.000784   0.286778   0.503308  -0.289085
   29  O  5  X    0.001005   0.000778   0.021485   0.032768  -0.018765
   30  O  5  Y   -0.000127  -0.000244   0.020671   0.028673  -0.022766
   31  O  5  Z    0.000558   0.000246  -0.037453  -0.067332   0.038937
   32  C  6  S    0.012027   0.005868  -0.030730  -0.039382  -0.060860
   33  C  6  S    0.000279  -0.001093   0.030958   0.039432   0.063662
   34  C  6  X   -0.000789  -0.000298  -0.008534  -0.028083  -0.016483
   35  C  6  Y    0.000215  -0.000061   0.001566  -0.016781  -0.053094
   36  C  6  Z   -0.000008   0.000034  -0.008384  -0.012763  -0.023337
   37  C  6  S    0.002842   0.008725   0.035747   0.073924   0.096682
   38  C  6  X   -0.001563   0.003638   0.008700  -0.017518   0.017006
   39  C  6  Y    0.000678   0.001891   0.008363   0.011071   0.002499
   40  C  6  Z    0.000584  -0.001167   0.017059   0.006512   0.014369
   41  H  7  S   -0.000173  -0.000620   0.008541   0.010724   0.017080
   42  H  7  S   -0.001245   0.000157  -0.005807  -0.005971  -0.010391
   43  O  8  S   -0.000008   0.000004  -0.038005  -0.084235  -0.147884
   44  O  8  S   -0.000185  -0.000023   0.034338   0.079427   0.137425
   45  O  8  X   -0.000410  -0.000093  -0.003442  -0.011649  -0.016217
   46  O  8  Y    0.000012   0.000010   0.015345   0.031309   0.049186
   47  O  8  Z    0.000131  -0.000016   0.011532   0.026050   0.044534
   48  O  8  S    0.000180  -0.000007   0.118806   0.250977   0.455242
   49  O  8  X    0.001688   0.000190  -0.000396  -0.006851  -0.008848
   50  O  8  Y   -0.000202  -0.000177   0.019471   0.032988   0.055905
   51  O  8  Z   -0.000626   0.000085   0.012738   0.025537   0.047997
   52  C  9  S    0.064706   0.011229  -0.022143  -0.004405  -0.059528
   53  C  9  S    0.003194  -0.000172   0.024597   0.004037   0.060008
   54  C  9  X    0.000335  -0.001347  -0.000602  -0.010365   0.003788
   55  C  9  Y    0.000071  -0.000457   0.006660  -0.013278  -0.040979
   56  C  9  Z   -0.000041   0.000380   0.006356   0.001412   0.021516
   57  C  9  S    0.026364   0.000710   0.027636   0.016738   0.097439
   58  C  9  X    0.009388   0.006880  -0.012912   0.000845  -0.020291
   59  C  9  Y    0.015152   0.000946  -0.001095  -0.016604   0.009632
   60  C  9  Z    0.004630  -0.001348  -0.009359   0.006259  -0.019315
   61  H 10  S   -0.002179  -0.000592   0.006456   0.001875   0.015360
   62  H 10  S    0.002165  -0.000742  -0.004604   0.000131  -0.011101
   63  O 11  S    0.000031   0.000060  -0.020652  -0.013963  -0.118779
   64  O 11  S   -0.000097   0.000585   0.019238   0.014539   0.110358
   65  O 11  X   -0.000099   0.000322  -0.009195  -0.007924  -0.053116
   66  O 11  Y   -0.000670   0.000202   0.004290   0.000380   0.010782
   67  O 11  Z   -0.000087  -0.000056  -0.004662  -0.003643  -0.027170
   68  O 11  S   -0.000829  -0.001841   0.062219   0.033460   0.363378
   69  O 11  X    0.000219  -0.001521  -0.009966  -0.005416  -0.055514
   70  O 11  Y    0.001014  -0.001422   0.003510  -0.000292   0.020203
   71  O 11  Z    0.000246   0.000520  -0.005523  -0.000972  -0.029662
   72  C 12  S    0.984248   0.036333  -0.044439   0.032825  -0.019233
   73  C 12  S    0.117117   0.001827   0.045847  -0.034799   0.019465
   74  C 12  X   -0.000814  -0.000722  -0.025535   0.014145  -0.009216
   75  C 12  Y   -0.000117   0.000103   0.032605  -0.031036  -0.005506
   76  C 12  Z   -0.000562   0.000322  -0.014009   0.011812  -0.005470
   77  C 12  S   -0.109686   0.019099   0.078270  -0.046412   0.036981
   78  C 12  X   -0.000722   0.017263   0.007184   0.003925   0.018538
   79  C 12  Y    0.007702   0.000704  -0.014707   0.007772  -0.015113
   80  C 12  Z    0.007402  -0.005681  -0.000023  -0.007791   0.008627
   81  H 13  S    0.000963  -0.001298   0.012825  -0.009113   0.004985
   82  H 13  S    0.016334   0.002359  -0.001331   0.004070  -0.005991
   83  O 14  S   -0.000093   0.000064  -0.132417   0.103132  -0.018773
   84  O 14  S   -0.000347   0.000211   0.119612  -0.095076   0.016560
   85  O 14  X   -0.000199  -0.000735  -0.043195   0.028508  -0.000970
   86  O 14  Y   -0.000314   0.000225  -0.032546   0.025033  -0.008942
   87  O 14  Z    0.000697   0.000167   0.037749  -0.028830   0.003195
   88  O 14  S    0.008258  -0.002341   0.410003  -0.314502   0.063122
   89  O 14  X    0.005127   0.002078  -0.048978   0.029536  -0.000497
   90  O 14  Y   -0.004326  -0.000366  -0.039226   0.033425  -0.013426
   91  O 14  Z   -0.002004  -0.000825   0.051586  -0.034795   0.005767
   92  C 15  S   -0.037802   0.985673  -0.011232   0.011193  -0.007955
   93  C 15  S   -0.007693   0.112234   0.011220  -0.009590   0.009586
   94  C 15  X   -0.000103  -0.000649  -0.006202   0.004121  -0.001701
   95  C 15  Y   -0.000244  -0.000412   0.003967  -0.005145   0.001534
   96  C 15  Z   -0.000101  -0.000154   0.004172  -0.004145   0.003324
   97  C 15  S    0.030502  -0.090150   0.010039  -0.024845  -0.000230
   98  C 15  X   -0.015835   0.011138  -0.000975   0.006527   0.000033
   99  C 15  Y    0.000596   0.003146   0.012117  -0.009946   0.002545
  100  C 15  Z    0.004836  -0.001051  -0.008856   0.003697  -0.009978
  101  O 16  S    0.000069  -0.000065  -0.010529   0.013522  -0.010351
  102  O 16  S    0.000309  -0.000339   0.010063  -0.013144   0.009201
  103  O 16  X    0.000392   0.000065  -0.001071   0.000329   0.000405
  104  O 16  Y    0.000131  -0.000310  -0.003418   0.004278  -0.003218
  105  O 16  Z    0.000075  -0.000368  -0.004270   0.005335  -0.003827
  106  O 16  S   -0.002614   0.007796   0.029441  -0.037489   0.033358
  107  O 16  X    0.000230  -0.002799  -0.000015  -0.001035  -0.000011
  108  O 16  Y    0.000240  -0.001147  -0.004408   0.004623  -0.005206
  109  O 16  Z    0.000069  -0.000131  -0.002285   0.003674  -0.004112
  110  O 17  S    0.000159   0.000049  -0.107627   0.047038   0.032847
  111  O 17  S    0.001289   0.000370   0.098541  -0.042659  -0.031584
  112  O 17  X    0.000223   0.000054  -0.033557   0.009304   0.014451
  113  O 17  Y   -0.000251  -0.000062  -0.017329   0.006398   0.004758
  114  O 17  Z   -0.000088  -0.000042  -0.044188   0.020305   0.009728
  115  O 17  S   -0.005477  -0.001754   0.325240  -0.147706  -0.095723
  116  O 17  X   -0.001367  -0.000305  -0.028949   0.008006   0.015064
  117  O 17  Y    0.001923   0.000595  -0.021518   0.005880   0.003920
  118  O 17  Z    0.002334   0.000894  -0.050179   0.022270   0.010803
  119  H 18  S    0.000127   0.000110   0.046903   0.086406  -0.050060
  120  H 18  S    0.000093   0.000079   0.007963   0.017019  -0.013088
  121  H 19  S    0.000544   0.000065   0.018353   0.043914   0.074527
  122  H 19  S    0.000205   0.000385   0.005422   0.010151   0.011280
  123  H 20  S    0.000489  -0.000319   0.009652   0.009074   0.061177
  124  H 20  S    0.002003  -0.000127   0.000474   0.002426   0.014469
  125  H 21  S   -0.001439   0.000036   0.004316  -0.003270   0.003585
  126  H 21  S    0.000143   0.016926   0.004326  -0.002098   0.006657
  127  H 22  S   -0.001856   0.000048   0.002385  -0.002347   0.002206
  128  H 22  S    0.000359   0.016615  -0.003447   0.002922  -0.003581
  129  H 23  S    0.000258   0.000020   0.004659  -0.006353   0.004782
  130  H 23  S    0.001311   0.002195  -0.000187  -0.000715   0.000786
  131  H 24  S    0.000112   0.000049   0.052481  -0.017246  -0.019363
  132  H 24  S   -0.000487  -0.000156   0.003841   0.003515  -0.004694

                     16         17         18         19         20
                   -1.0081    -1.0010    -0.9913    -0.7867    -0.7699
                     A          A          A          A          A   
    1  H  1  S   -0.003509  -0.005509   0.002045  -0.005050  -0.051715
    2  H  1  S    0.004692   0.003639  -0.003569  -0.007745  -0.006964
    3  C  2  S    0.012541   0.018694  -0.006629   0.003597   0.094364
    4  C  2  S   -0.014824  -0.019628   0.006945   0.003358  -0.095987
    5  C  2  X   -0.001163   0.029551  -0.052316  -0.064283  -0.000369
    6  C  2  Y   -0.002515  -0.013197   0.020824  -0.044330   0.030508
    7  C  2  Z   -0.018035  -0.059291   0.078311   0.001446   0.058137
    8  C  2  S   -0.021235  -0.035883   0.014449  -0.047749  -0.240619
    9  C  2  X    0.002946  -0.001319  -0.000095  -0.003355   0.000283
   10  C  2  Y   -0.002932   0.002358  -0.000835   0.003667   0.027090
   11  C  2  Z    0.005250   0.006936  -0.004784   0.002752   0.018413
   12  C  3  S   -0.005726  -0.005749   0.007810  -0.092227   0.098542
   13  C  3  S    0.008603   0.006711  -0.009471   0.091291  -0.098337
   14  C  3  X   -0.018445  -0.010395   0.005529   0.048581  -0.049411
   15  C  3  Y    0.010248  -0.004802   0.002162  -0.048343  -0.008545
   16  C  3  Z    0.003933  -0.001953   0.003487   0.009589  -0.001239
   17  C  3  S    0.015292   0.008361  -0.012388   0.238150  -0.247615
   18  C  3  X    0.003814   0.012882  -0.014522   0.028382  -0.016407
   19  C  3  Y    0.007285  -0.000773   0.001439   0.016718   0.003620
   20  C  3  Z    0.004007  -0.020845   0.020585   0.013303   0.009847
   21  H  4  S    0.002366   0.000912  -0.002165   0.045978  -0.052669
   22  H  4  S    0.001373  -0.003854   0.003213  -0.000387   0.006935
   23  O  5  S   -0.050561  -0.025517   0.025010   0.037331  -0.039405
   24  O  5  S    0.048169   0.023245  -0.022886  -0.034149   0.036656
   25  O  5  X    0.001391  -0.000451   0.001034   0.053610  -0.058778
   26  O  5  Y    0.014458   0.004737  -0.005210  -0.033134   0.028392
   27  O  5  Z   -0.020061  -0.011454   0.011654   0.012491  -0.008377
   28  O  5  S    0.156675   0.086527  -0.085294  -0.140773   0.147107
   29  O  5  X    0.004564   0.004377  -0.003300   0.028570  -0.036942
   30  O  5  Y    0.013934   0.001733  -0.001199  -0.025399   0.023003
   31  O  5  Z   -0.022108  -0.014777   0.015461   0.012294  -0.010929
   32  C  6  S    0.031231  -0.002790   0.000744  -0.118501   0.043854
   33  C  6  S   -0.033918   0.005017   0.000256   0.117844  -0.041515
   34  C  6  X    0.045585  -0.008656  -0.002568   0.051522   0.019596
   35  C  6  Y    0.034155  -0.000702  -0.006216   0.064096  -0.048662
   36  C  6  Z    0.015538  -0.003746   0.001886  -0.014348   0.006445
   37  C  6  S   -0.055064  -0.008431  -0.005928   0.297616  -0.124127
   38  C  6  X   -0.006702  -0.014943   0.004002   0.016192  -0.017507
   39  C  6  Y   -0.023400   0.012029  -0.003643   0.031555  -0.000051
   40  C  6  Z    0.004058   0.012005  -0.009170  -0.014936   0.004089
   41  H  7  S   -0.008838  -0.000033   0.001232   0.058571  -0.020116
   42  H  7  S    0.000191  -0.007124   0.008426  -0.005055   0.007402
   43  O  8  S    0.129299  -0.015091  -0.007926   0.055352  -0.022438
   44  O  8  S   -0.120423   0.013619   0.007467  -0.051342   0.020948
   45  O  8  X    0.026310  -0.004612  -0.001128   0.063308  -0.021091
   46  O  8  Y   -0.041403   0.005186   0.001826   0.025090  -0.012963
   47  O  8  Z   -0.038353   0.004443   0.002404  -0.013690   0.005135
   48  O  8  S   -0.405489   0.050335   0.024408  -0.202083   0.082940
   49  O  8  X    0.019490  -0.002008  -0.001258   0.038171  -0.013989
   50  O  8  Y   -0.050663   0.008006   0.001741   0.006479  -0.004746
   51  O  8  Z   -0.044538   0.004675   0.003493  -0.013266   0.006308
   52  C  9  S   -0.057684   0.014035   0.002391  -0.104501  -0.038418
   53  C  9  S    0.061716  -0.015562  -0.000723   0.106728   0.040027
   54  C  9  X    0.034034  -0.003278   0.002207  -0.041467   0.055957
   55  C  9  Y   -0.056682   0.030826  -0.017627   0.067733   0.040145
   56  C  9  Z    0.025001  -0.008756   0.001304   0.011382   0.003225
   57  C  9  S    0.102042  -0.011117  -0.005767   0.246319   0.082091
   58  C  9  X   -0.004202  -0.020220   0.001568   0.000247  -0.015324
   59  C  9  Y    0.023366  -0.001969  -0.002740   0.026037  -0.009509
   60  C  9  Z   -0.004016   0.006615   0.004008   0.011213  -0.005797
   61  H 10  S    0.016450  -0.002836  -0.000300   0.052957   0.019906
   62  H 10  S   -0.007532   0.002588   0.000918  -0.003388  -0.004166
   63  O 11  S   -0.167181   0.060491  -0.018484   0.056571   0.021511
   64  O 11  S    0.155313  -0.056702   0.017105  -0.052617  -0.019918
   65  O 11  X   -0.069148   0.026227  -0.008189   0.019330   0.019403
   66  O 11  Y    0.011013  -0.001539  -0.000720   0.057267   0.035277
   67  O 11  Z   -0.037033   0.013597  -0.004096   0.005574   0.000143
   68  O 11  S    0.519922  -0.186069   0.057590  -0.203608  -0.078747
   69  O 11  X   -0.074185   0.029316  -0.006853   0.021988   0.020750
   70  O 11  Y    0.020222  -0.005677   0.003324   0.028261   0.024432
   71  O 11  Z   -0.043553   0.013558  -0.004539   0.007591   0.002983
   72  C 12  S   -0.017865  -0.034632   0.028451  -0.067902  -0.125494
   73  C 12  S    0.016781   0.033484  -0.032959   0.070015   0.119088
   74  C 12  X   -0.000239   0.004297   0.033516  -0.013571   0.034949
   75  C 12  Y   -0.011426   0.027687  -0.034006  -0.059042  -0.003436
   76  C 12  Z   -0.005099  -0.011692   0.013646  -0.010131  -0.028972
   77  C 12  S    0.024326   0.077658  -0.048698   0.155097   0.342206
   78  C 12  X    0.005806   0.016087   0.004761  -0.004969  -0.021259
   79  C 12  Y   -0.011327   0.006302   0.013592  -0.004980  -0.017084
   80  C 12  Z    0.017353  -0.002660   0.005645  -0.007688  -0.013732
   81  H 13  S    0.003741   0.009741  -0.008606   0.033498   0.053434
   82  H 13  S   -0.008109  -0.006686   0.006980  -0.004713  -0.008243
   83  O 14  S   -0.001767  -0.065509   0.111050   0.058083   0.002559
   84  O 14  S    0.001710   0.061342  -0.102638  -0.052968  -0.002066
   85  O 14  X    0.004334  -0.003516   0.024654   0.028153   0.106961
   86  O 14  Y   -0.005630  -0.024714   0.033334  -0.032086  -0.068509
   87  O 14  Z   -0.001324   0.011910  -0.022036  -0.014001   0.003677
   88  O 14  S    0.008748   0.205299  -0.356455  -0.212321  -0.014295
   89  O 14  X    0.006963  -0.014409   0.031938   0.020973   0.072799
   90  O 14  Y   -0.004124  -0.024092   0.039544  -0.015497  -0.042984
   91  O 14  Z   -0.002845   0.011199  -0.025518  -0.017055   0.005235
   92  C 15  S   -0.016947  -0.065229  -0.043485  -0.031781  -0.079733
   93  C 15  S    0.017451   0.069689   0.047585   0.035160   0.081156
   94  C 15  X    0.003238   0.031344   0.041489  -0.031956  -0.072093
   95  C 15  Y    0.006257   0.044067   0.033329  -0.012293  -0.012618
   96  C 15  Z    0.007602   0.031710   0.024810   0.002988   0.007322
   97  C 15  S    0.027881   0.100653   0.074273   0.073577   0.204401
   98  C 15  X   -0.007312   0.005530   0.002976   0.005624  -0.018634
   99  C 15  Y    0.001055  -0.005370  -0.017902  -0.016857  -0.017033
  100  C 15  Z   -0.006872  -0.010774  -0.002856   0.003462   0.000013
  101  O 16  S   -0.032492  -0.162658  -0.139012   0.015094   0.039308
  102  O 16  S    0.030204   0.152717   0.130068  -0.013986  -0.037130
  103  O 16  X    0.003689   0.022059   0.023966  -0.017590  -0.053276
  104  O 16  Y   -0.009725  -0.047253  -0.039336  -0.004168  -0.011165
  105  O 16  Z   -0.011896  -0.059860  -0.050359   0.003711   0.007830
  106  O 16  S    0.099710   0.494033   0.427543  -0.054032  -0.140358
  107  O 16  X    0.003100   0.015184   0.015782  -0.010487  -0.037505
  108  O 16  Y   -0.012203  -0.053832  -0.045779   0.000946  -0.000810
  109  O 16  Z   -0.012911  -0.063116  -0.056115   0.004124   0.010771
  110  O 17  S    0.039689   0.113384  -0.136428   0.008593  -0.044236
  111  O 17  S   -0.036690  -0.106135   0.127942  -0.009386   0.040763
  112  O 17  X    0.014304   0.046590  -0.059051  -0.005757  -0.031394
  113  O 17  Y    0.005082   0.014631  -0.017043  -0.008156   0.000397
  114  O 17  Z    0.011529   0.028673  -0.030325   0.003129   0.035785
  115  O 17  S   -0.124723  -0.352527   0.426332  -0.022471   0.162434
  116  O 17  X    0.014137   0.047406  -0.060184  -0.006718  -0.022915
  117  O 17  Y    0.005778   0.014538  -0.017052  -0.008937  -0.006567
  118  O 17  Z    0.014938   0.037660  -0.042509   0.002385   0.013720
  119  H 18  S    0.029740   0.015120  -0.015554  -0.049775   0.050526
  120  H 18  S    0.005882   0.003881  -0.003550  -0.027989   0.027618
  121  H 19  S   -0.069812   0.008695   0.004191  -0.059862   0.021722
  122  H 19  S   -0.014289   0.002722  -0.000168  -0.034325   0.014352
  123  H 20  S    0.084779  -0.032286   0.010817  -0.055294  -0.030113
  124  H 20  S    0.010635  -0.005393   0.002966  -0.034572  -0.013326
  125  H 21  S    0.005938   0.018742   0.012095   0.018321   0.038652
  126  H 21  S    0.007603  -0.009118  -0.007352  -0.015303  -0.012102
  127  H 22  S    0.004498   0.019342   0.012663   0.016488   0.040185
  128  H 22  S   -0.004236  -0.006081  -0.003422   0.001194  -0.001787
  129  H 23  S    0.016510   0.086055   0.075480  -0.016409  -0.046742
  130  H 23  S    0.003658   0.016553   0.016757  -0.010001  -0.023667
  131  H 24  S   -0.019623  -0.060952   0.075522  -0.000606   0.041976
  132  H 24  S   -0.001728  -0.010036   0.014234  -0.003836   0.030818

                     21         22         23         24         25
                   -0.6825    -0.6418    -0.6103    -0.5722    -0.5447
                     A          A          A          A          A   
    1  H  1  S    0.049298   0.101627   0.025927   0.018348   0.026753
    2  H  1  S    0.006167   0.038498   0.009315   0.000694   0.015382
    3  C  2  S   -0.064946  -0.113236  -0.020619  -0.047965  -0.020347
    4  C  2  S    0.068858   0.109517   0.021246   0.050306   0.021668
    5  C  2  X   -0.076760   0.007055   0.080678   0.007670  -0.100109
[...]

               ----- POPULATIONS IN EACH AO -----
                             MULLIKEN      LOWDIN
              1  H  1  S      0.48840     0.49607
              2  H  1  S      0.32048     0.44014
              3  C  2  S      1.98731     1.97301
              4  C  2  S      0.38493     0.43790
              5  C  2  X      0.49283     0.47346
              6  C  2  Y      0.59717     0.56225
              7  C  2  Z      0.48320     0.45666
              8  C  2  S      0.86960     0.55570
              9  C  2  X      0.25033     0.42600
             10  C  2  Y      0.41309     0.52892
             11  C  2  Z      0.22967     0.42468
             12  C  3  S      1.98895     1.97383
             13  C  3  S      0.36907     0.44625
             14  C  3  X      0.46264     0.45076
             15  C  3  Y      0.59757     0.58331
             16  C  3  Z      0.56199     0.52608
             17  C  3  S      1.02303     0.56545
             18  C  3  X      0.27546     0.43512
             19  C  3  Y      0.35170     0.51613
             20  C  3  Z      0.46562     0.53420
             21  H  4  S      0.47710     0.48230
             22  H  4  S      0.31525     0.43247
             23  O  5  S      1.98481     1.97922
             24  O  5  S      0.42472     0.58405
             25  O  5  X      0.62468     0.60641
             26  O  5  Y      0.75574     0.74728
             27  O  5  Z      0.74085     0.73320
             28  O  5  S      1.51227     1.05881
             29  O  5  X      0.71890     0.77263
             30  O  5  Y      0.89156     0.91132
             31  O  5  Z      0.89699     0.93361
             32  C  6  S      1.98862     1.97350
             33  C  6  S      0.37066     0.43746
             34  C  6  X      0.55614     0.54437
             35  C  6  Y      0.49820     0.47933
             36  C  6  Z      0.58442     0.54663
             37  C  6  S      0.97781     0.54602
             38  C  6  X      0.30004     0.46705
             39  C  6  Y      0.23074     0.44189
             40  C  6  Z      0.46531     0.54774
             41  H  7  S      0.47678     0.48698
             42  H  7  S      0.31549     0.43308
             43  O  8  S      1.98480     1.97908
             44  O  8  S      0.42297     0.58055
             45  O  8  X      0.60619     0.57832
             46  O  8  Y      0.70098     0.69432
             47  O  8  Z      0.82257     0.82357
             48  O  8  S      1.51623     1.04937
             49  O  8  X      0.68135     0.73195
             50  O  8  Y      0.85756     0.89812
             51  O  8  Z      0.97491     0.99949
             52  C  9  S      1.98856     1.97347
             53  C  9  S      0.37065     0.43528
             54  C  9  X      0.56398     0.54614
             55  C  9  Y      0.49559     0.48185
             56  C  9  Z      0.57469     0.53462
             57  C  9  S      0.98822     0.54839
             58  C  9  X      0.29111     0.48087
             59  C  9  Y      0.24577     0.42962
             60  C  9  Z      0.44814     0.54321
             61  H 10  S      0.47811     0.48776
             62  H 10  S      0.33652     0.44518
             63  O 11  S      1.98490     1.97919
             64  O 11  S      0.42343     0.58226
             65  O 11  X      0.71152     0.69971
             66  O 11  Y      0.58077     0.55606
             67  O 11  Z      0.83488     0.83702
             68  O 11  S      1.52215     1.04964
             69  O 11  X      0.86549     0.89442
             70  O 11  Y      0.65664     0.72288
             71  O 11  Z      0.98247     1.01129
             72  C 12  S      1.98874     1.97362
             73  C 12  S      0.37211     0.43853
             74  C 12  X      0.56456     0.54741
             75  C 12  Y      0.46781     0.44950
             76  C 12  Z      0.59463     0.55775
             77  C 12  S      1.01592     0.55279
             78  C 12  X      0.29809     0.48020
             79  C 12  Y      0.21778     0.41361
             80  C 12  Z      0.47235     0.54326
             81  H 13  S      0.47347     0.48057
             82  H 13  S      0.28468     0.41914
             83  O 14  S      1.98543     1.97949
             84  O 14  S      0.42575     0.58659
             85  O 14  X      0.62738     0.61268
             86  O 14  Y      0.69595     0.68686
             87  O 14  Z      0.79135     0.78785
             88  O 14  S      1.51630     1.01520
             89  O 14  X      0.71484     0.77448
             90  O 14  Y      0.80380     0.84964
             91  O 14  Z      0.92104     0.95361
             92  C 15  S      1.98675     1.97356
             93  C 15  S      0.37976     0.43142
             94  C 15  X      0.53623     0.52088
             95  C 15  Y      0.54464     0.50670
             96  C 15  Z      0.55268     0.51218
             97  C 15  S      0.99698     0.56869
             98  C 15  X      0.32432     0.47643
             99  C 15  Y      0.40451     0.50632
            100  C 15  Z      0.41287     0.52821
            101  O 16  S      1.98470     1.97930
            102  O 16  S      0.42616     0.58399
            103  O 16  X      0.59263     0.56301
            104  O 16  Y      0.76969     0.76795
            105  O 16  Z      0.76113     0.75753
            106  O 16  S      1.51271     1.06076
            107  O 16  X      0.65834     0.71494
            108  O 16  Y      0.91787     0.94892
            109  O 16  Z      0.92151     0.95152
            110  O 17  S      1.98498     1.97927
            111  O 17  S      0.42495     0.58463
            112  O 17  X      0.67551     0.65511
            113  O 17  Y      0.84656     0.85016
            114  O 17  Z      0.60605     0.59070
            115  O 17  S      1.51609     1.05081
            116  O 17  X      0.79098     0.82782
            117  O 17  Y      1.00226     1.01711
            118  O 17  Z      0.71535     0.78632
            119  H 18  S      0.42437     0.43343
            120  H 18  S      0.22163     0.32441
            121  H 19  S      0.42192     0.43112
            122  H 19  S      0.22728     0.32869
            123  H 20  S      0.41847     0.42752
            124  H 20  S      0.22987     0.33426
            125  H 21  S      0.47720     0.48109
            126  H 21  S      0.32334     0.44014
            127  H 22  S      0.47980     0.48278
            128  H 22  S      0.34352     0.44970
            129  H 23  S      0.43263     0.44121
            130  H 23  S      0.23374     0.33155
            131  H 24  S      0.41491     0.42222
            132  H 24  S      0.24189     0.34995

          ----- MULLIKEN ATOMIC OVERLAP POPULATIONS -----
          (OFF-DIAGONAL ELEMENTS NEED TO BE MULTIPLIED BY 2)

             1           2           3           4           5

    1    0.5889401
    2    0.3493217   5.1499432
    3   -0.0646207   0.0033350   5.9154815
    4   -0.0002372  -0.0384302   0.3143127   0.5763190
    5    0.0009248  -0.0361705   0.1849143  -0.0274467   8.1740622
    6    0.0042035  -0.0689606   0.0508927  -0.0423396  -0.0352612
    7    0.0002257   0.0012473  -0.0646601   0.0055512  -0.0003533
    8   -0.0000104   0.0017066  -0.0408781   0.0014786  -0.0011950
    9   -0.0006412   0.0048693  -0.0553450  -0.0033346   0.0017012
   10   -0.0000765   0.0003789   0.0003049   0.0047525  -0.0000288
   11    0.0000005   0.0000031   0.0023257  -0.0000140  -0.0000003
   12    0.0052639  -0.0756909  -0.0100266   0.0008972   0.0000510
   13    0.0001721  -0.0077539   0.0007501   0.0000761   0.0000087
   14   -0.0392960   0.2468018  -0.0351464   0.0018694   0.0002225
   15   -0.0000712   0.0041729  -0.0002812  -0.0000053   0.0000002
   16    0.0000007  -0.0000217  -0.0000002   0.0000000  -0.0000000
   17   -0.0386022   0.2307890  -0.0488985   0.0020254  -0.0079376
   18    0.0012406   0.0017788  -0.0427702  -0.0042018   0.2427768
   19   -0.0000025   0.0003908  -0.0028064  -0.0004031   0.0115267
   20    0.0000000  -0.0000606   0.0008885   0.0000088  -0.0000017
   21    0.0000012  -0.0001043  -0.0000127   0.0000007   0.0000000
   22   -0.0000195  -0.0002267   0.0000372   0.0000082   0.0000000
   23   -0.0000001   0.0000048  -0.0000000  -0.0000000   0.0000000
   24    0.0021603  -0.0591965  -0.0117563   0.0014601   0.0427174

             6           7           8           9          10

    6    5.5849089
    7    0.3167935   0.5946589
    8    0.2495288  -0.0323815   8.1612489
    9    0.1298380  -0.0514086  -0.0423926   5.5753608
   10   -0.0684147   0.0058213   0.0014215   0.3237836   0.6360792
   11   -0.0344995   0.0021677  -0.0030086   0.2272774  -0.0352228
   12   -0.0480989  -0.0029626   0.0014644   0.0537744  -0.0591090
   13   -0.0091705   0.0065052  -0.0000074  -0.0483400   0.0049683
   14   -0.0057010  -0.0006035  -0.0000014  -0.0392630   0.0034709
   15    0.0047213  -0.0000568  -0.0000110  -0.0621399  -0.0071586
   16   -0.0000135  -0.0000002   0.0000000   0.0014868  -0.0000123
   17   -0.0044873   0.0118933   0.0000021  -0.0017408   0.0000015
   18    0.0052336  -0.0001230  -0.0000299  -0.0001728   0.0000076
   19   -0.0516952  -0.0030319   0.2482778   0.0074176  -0.0002321
   20   -0.0049148  -0.0003716   0.0223676  -0.0568192  -0.0009092
   21    0.0004707   0.0000110   0.0000001   0.0034281   0.0001670
   22   -0.0002152   0.0000005   0.0000002  -0.0004509   0.0046347
   23    0.0000015   0.0000000  -0.0000000  -0.0002193   0.0000011
   24   -0.0008785   0.0033488  -0.0000224   0.0000371  -0.0000039

            11          12          13          14          15

   11    8.1765024
   12   -0.0323043   5.5359237
   13    0.0036139   0.3207555   0.5374043
   14    0.0002087   0.2113448  -0.0303291   8.2226102
   15   -0.0039486   0.2354094  -0.0403927  -0.0312003   5.1904661
   16    0.0000017  -0.0402137   0.0033726   0.0002632   0.2612778
   17    0.0000002  -0.0019011   0.0129223  -0.0296325   0.0000800
   18    0.0000001   0.0000051   0.0000009   0.0000039  -0.0000001
   19    0.0000252  -0.0001933  -0.0000038  -0.0000005   0.0000013
   20    0.2448308   0.0060451  -0.0001629  -0.0000287  -0.0000377
   21    0.0142020  -0.0648597  -0.0010298   0.0018080   0.3209108
   22    0.0000867  -0.0508937   0.0056045   0.0021117   0.3100343
   23    0.0000017   0.0065641  -0.0000889  -0.0000332  -0.0430376
   24   -0.0000008   0.0007417  -0.0007284   0.0023621   0.0000049

            16          17          18          19          20

   16    8.1420871
   17   -0.0000001   8.2081766
   18    0.0000000   0.0006545   0.4434236
   19   -0.0000000   0.0000067  -0.0005017   0.4412671
   20    0.0000000  -0.0000000   0.0000002  -0.0008086   0.4385288
   21   -0.0323542   0.0000008  -0.0000000   0.0000001  -0.0001933
   22   -0.0330561   0.0000010   0.0000000  -0.0000000  -0.0000149
   23    0.2419110   0.0000000  -0.0000000   0.0000000  -0.0000002
   24   -0.0000000   0.2293724  -0.0013277  -0.0000268  -0.0000001

            21          22          23          24

   21    0.6056893
   22   -0.0454221   0.6344878
   23   -0.0021717  -0.0033904   0.4668264
   24   -0.0000002  -0.0000002   0.0000000   0.4485325

          TOTAL MULLIKEN AND LOWDIN ATOMIC POPULATIONS
       ATOM         MULL.POP.    CHARGE          LOW.POP.     CHARGE
    1 H             0.808878    0.191122         0.936207    0.063793
    2 C             5.708127    0.291873         5.838571    0.161429
    3 C             6.096040   -0.096040         6.031122   -0.031122
    4 H             0.792347    0.207653         0.914774    0.085226
    5 O             8.550511   -0.550511         8.326521   -0.326521
    6 C             5.971942    0.028058         5.983995    0.016005
    7 H             0.792271    0.207729         0.920064    0.079936
    8 O             8.567558   -0.567558         8.334782   -0.334782
    9 C             5.966707    0.033293         5.973450    0.026550
   10 H             0.814625    0.185375         0.932943    0.067057
   11 O             8.562249   -0.562249         8.332472   -0.332472
   12 C             5.991987    0.008013         5.956669    0.043331
   13 H             0.758147    0.241853         0.899716    0.100284
   14 O             8.481842   -0.481842         8.246400   -0.246400
   15 C             6.138738   -0.138738         6.024405   -0.024405
   16 O             8.544729   -0.544729         8.327916   -0.327916
   17 O             8.562726   -0.562726         8.341935   -0.341935
   18 H             0.645999    0.354001         0.757833    0.242167
   19 H             0.649207    0.350793         0.759807    0.240193
   20 H             0.648346    0.351654         0.761777    0.238223
   21 H             0.800542    0.199458         0.921232    0.078768
   22 H             0.823317    0.176683         0.932482    0.067518
   23 H             0.666369    0.333631         0.772755    0.227245
   24 H             0.656795    0.343205         0.772171    0.227829

          -------------------------------
          BOND ORDER AND VALENCE ANALYSIS     BOND ORDER THRESHOLD=0.050
          -------------------------------

                   BOND                       BOND                       BOND
  ATOM PAIR DIST  ORDER      ATOM PAIR DIST  ORDER      ATOM PAIR DIST  ORDER
    1   2  1.098  0.872        2   3  1.544  0.806        2  14  1.435  0.944
    2  17  1.442  0.933        3   4  1.094  0.871        3   5  1.481  0.868
    3   6  1.518  0.860        5  18  0.996  0.820        5  24  1.992  0.092
    6   7  1.097  0.850        6   8  1.458  0.918        6   9  1.520  0.881
    8  19  0.995  0.809        9  10  1.101  0.858        9  11  1.451  0.922
    9  12  1.529  0.835       11  20  0.999  0.795       12  13  1.092  0.850
   12  14  1.478  0.840       12  15  1.517  0.929       15  16  1.458  0.947
   15  21  1.099  0.855       15  22  1.100  0.869       16  23  0.995  0.834
   17  24  1.004  0.759

                       TOTAL       BONDED        FREE
      ATOM            VALENCE     VALENCE     VALENCE
    1 H                 0.911       0.911       0.000
    2 C                 3.600       3.600      -0.000
    3 C                 3.498       3.498      -0.000
    4 H                 0.912       0.912      -0.000
    5 O                 1.912       1.912       0.000
    6 C                 3.536       3.536      -0.000
    7 H                 0.922       0.922      -0.000
    8 O                 1.881       1.881      -0.000
    9 C                 3.528       3.528      -0.000
   10 H                 0.910       0.910       0.000
   11 O                 1.872       1.872       0.000
   12 C                 3.487       3.487      -0.000
   13 H                 0.909       0.909       0.000
   14 O                 1.965       1.965      -0.000
   15 C                 3.609       3.609      -0.000
   16 O                 1.862       1.862      -0.000
   17 O                 1.889       1.889      -0.000
   18 H                 0.847       0.847       0.000
   19 H                 0.860       0.860       0.000
   20 H                 0.866       0.866      -0.000
   21 H                 0.914       0.914       0.000
   22 H                 0.913       0.913       0.000
   23 H                 0.858       0.858       0.000
   24 H                 0.881       0.881      -0.000

          ---------------------
          ELECTROSTATIC MOMENTS
          ---------------------

 POINT   1           X           Y           Z (BOHR)    CHARGE
                 0.098746   -0.179223    0.289315       -0.00 (A.U.)
         DX          DY          DZ         /D/  (DEBYE)
    -3.751090   -0.416110   -2.285031    4.411937
 ...... END OF PROPERTY EVALUATION ......
 CPU     0: STEP CPU TIME=     0.08 TOTAL CPU TIME=        482.8 (      8.0 MIN)
 TOTAL WALL CLOCK TIME=        485.9 SECONDS, CPU UTILIZATION IS    99.37%
  $VIB   
          IVIB=   0 IATOM=   0 ICOORD=   0 E=     -683.0011281184
  3.355969049E-06 3.930857092E-06 1.927890726E-06 1.453407645E-05 4.090133969E-05
  3.556751404E-05-7.319717257E-05 5.088251948E-05-5.656660426E-05 3.019791883E-06
  1.591492409E-06 7.367570961E-06-1.716049228E-05 6.914755956E-06-1.107209167E-05
 -3.205455271E-05-5.570864592E-05 3.845984904E-05 1.275271181E-05-9.889035764E-06
  2.731914247E-05-5.900501670E-05 2.328746835E-05 1.684089897E-05 7.760342481E-05
 -3.565199144E-05-1.001986565E-05 3.080792200E-06-1.347377564E-05 2.615622548E-05
  1.078134128E-05 6.693207139E-05-1.399066953E-05 3.882780637E-05-5.879940576E-05
  8.829243593E-06 5.550395082E-06-1.524138662E-05-1.024940399E-05-4.491740003E-05
  3.123294684E-05 1.199541712E-05 1.656666060E-05 8.384663559E-05-3.258390790E-05
 -2.087836904E-05-3.764608508E-05 1.369055950E-05-4.386336819E-05 2.946161796E-05
 -1.719430967E-05 1.241410424E-05-2.168452570E-05 1.088508946E-05 3.700256370E-05
  1.534625577E-05-1.858845368E-05-2.147661426E-05-7.149595800E-05-6.708092560E-06
  1.233163795E-05 1.611306320E-05 3.560355377E-07 1.068022401E-05-4.080940143E-05
  1.263147163E-05 1.461829819E-05 5.023581743E-06-8.655982623E-06 3.943318816E-05
 -1.506439411E-05-2.639752700E-05
 -3.751089861E+00-4.161102781E-01-2.285031398E+00
 ......END OF GEOMETRY SEARCH......
 CPU     0: STEP CPU TIME=     0.01 TOTAL CPU TIME=        482.8 (      8.0 MIN)
 TOTAL WALL CLOCK TIME=        485.9 SECONDS, CPU UTILIZATION IS    99.37%
               956419  WORDS OF DYNAMIC MEMORY USED
 EXECUTION OF GAMESS TERMINATED NORMALLY Fri May 22 14:58:23 2020
 DDI: 263640 bytes (0.3 MB / 0 MWords) used by master data server.
Note: The following floating-point exceptions are signalling: IEEE_UNDERFLOW_FLAGNote: The following floating-point exceptions are signalling: IEEE_UNDERFLOW_FLAGNote: The following floating-point exceptions are signalling: IEEE_UNDERFLOW_FLAGNote: The following floating-point exceptions are signalling: IEEE_UNDERFLOW_FLAGNote: The following floating-point exceptions are signalling: IEEE_UNDERFLOW_FLAG IEEE_DENORMAL
Note: The following floating-point exceptions are signalling: IEEE_UNDERFLOW_FLAG IEEE_DENORMAL

 ----------------------------------------
 CPU timing information for all processes
 ========================================
 0: 479.720 + 3.116 = 482.837
 1: 479.790 + 1.45 = 480.836
 2: 480.91 + 1.290 = 481.381
 3: 479.626 + 0.929 = 480.556
 4: 479.721 + 1.309 = 481.31
 5: 479.587 + 0.801 = 480.389
 6: 479.591 + 1.169 = 480.761
 7: 479.261 + 0.809 = 480.70
 ----------------------------------------
 IEEE_DENORMALNote: The following floating-point exceptions are signalling: IEEE_UNDERFLOW_FLAG IEEE_DENORMAL IEEE_DENORMAL
 IEEE_DENORMALNote: The following floating-point exceptions are signalling: IEEE_UNDERFLOW_FLAG
 IEEE_DENORMAL


 IEEE_DENORMAL
 ddikick.x: exited gracefully.
unset echo
----- accounting info -----
Files used on the master node pietdev were:
-rwxr-xr-x 1 piet piet     1330 mei 22 14:50 /home/piet/scr/beta-d-glucopyranose_geoopt.F05*
-rw-r--r-- 1 piet piet 52428800 mei 22 14:58 /home/piet/scr/beta-d-glucopyranose_geoopt.F10
-rw-r--r-- 1 piet piet  6184288 mei 22 14:57 /home/piet/scr/beta-d-glucopyranose_geoopt.F22
-rw-r--r-- 1 piet piet  6184288 mei 22 14:57 /home/piet/scr/beta-d-glucopyranose_geoopt.F22.001
-rw-r--r-- 1 piet piet  6184288 mei 22 14:57 /home/piet/scr/beta-d-glucopyranose_geoopt.F22.002
-rw-r--r-- 1 piet piet  6184288 mei 22 14:57 /home/piet/scr/beta-d-glucopyranose_geoopt.F22.003
-rw-r--r-- 1 piet piet  6184288 mei 22 14:57 /home/piet/scr/beta-d-glucopyranose_geoopt.F22.004
-rw-r--r-- 1 piet piet  6184288 mei 22 14:57 /home/piet/scr/beta-d-glucopyranose_geoopt.F22.005
-rw-r--r-- 1 piet piet  6184288 mei 22 14:57 /home/piet/scr/beta-d-glucopyranose_geoopt.F22.006
-rw-r--r-- 1 piet piet  6184288 mei 22 14:57 /home/piet/scr/beta-d-glucopyranose_geoopt.F22.007
ls: No match.
ls: No match.
ls: No match.
vr 22 mei 2020 14:58:26 CEST
0.105u 0.039s 8:09.07 0.0%	0+0k 8+8io 0pf+0w
