----- GAMESS execution script 'rungms' -----
This job is running on host pietdev
under operating system Linux at vr 22 mei 2020 14:59:52 CEST
Available scratch disk space (Kbyte units) at beginning of the job is
Filesystem     1K-blocks     Used Available Use% Mounted on
/dev/sda2      244568380 31372568 200702756  14% /
GAMESS temporary binary files will be written to /home/piet/scr
GAMESS supplementary output files will be written to /home/piet/gamess/scr
Copying input file beta-d-glucopyranose_fukui_base.inp to your run's scratch directory...
cp beta-d-glucopyranose_fukui_base.inp /home/piet/scr/beta-d-glucopyranose_fukui_base.F05
unset echo
 
Assuming a single but multicore node.
 
/home/piet/gamess/ddikick.x /home/piet/gamess/gamess.03.x beta-d-glucopyranose_fukui_base -ddi 1 8 pietdev:cpus=8 -scr /home/piet/scr

 Distributed Data Interface kickoff program.
 Initiating 8 compute processes on 1 nodes to run the following command:
 /home/piet/gamess/gamess.03.x beta-d-glucopyranose_fukui_base 

          ******************************************************
          *         GAMESS VERSION = 30 SEP 2019 (R2)          *
          *             FROM IOWA STATE UNIVERSITY             *
          * M.W.SCHMIDT, K.K.BALDRIDGE, J.A.BOATZ, S.T.ELBERT, *
          *   M.S.GORDON, J.H.JENSEN, S.KOSEKI, N.MATSUNAGA,   *
          *          K.A.NGUYEN, S.J.SU, T.L.WINDUS,           *
          *       TOGETHER WITH M.DUPUIS, J.A.MONTGOMERY       *
          *         J.COMPUT.CHEM.  14, 1347-1363(1993)        *
          **************** 64 BIT LINUX VERSION ****************

  SINCE 1993, STUDENTS AND POSTDOCS WORKING AT IOWA STATE UNIVERSITY
  AND ALSO IN THEIR VARIOUS JOBS AFTER LEAVING ISU HAVE MADE IMPORTANT
  CONTRIBUTIONS TO THE CODE:
     IVANA ADAMOVIC, CHRISTINE AIKENS, YURI ALEXEEV, POOJA ARORA,
     ANDREY ASADCHEV, ROB BELL, PRADIPTA BANDYOPADHYAY, JONATHAN BENTZ,
     COLLEEN BERTONI, BRETT BODE, KURT BRORSEN, CALEB CARLIN, GALINA CHABAN,
     WEI CHEN, CHEOL HO CHOI, PAUL DAY, ALBERT DEFUSCO, NUWAN DESILVA,
     TIM DUDLEY, DMITRI FEDOROV, ALEX FINDLATER, GRAHAM FLETCHER, 
     MARK FREITAG, KURT GLAESEMANN, EMILIE B GUIDEZ, ANASTASIA GUNINA, 
     DAN KEMP, SAROM SOK LEANG, GRANT MERRILL,
     NORIYUKI MINEZAWA, JONATHAN MULLIN,
     TAKESHI NAGATA, SEAN NEDD, HEATHER NETZLOFF, BOSILJKA NJEGIC, RYAN OLSON,
     MIKE PAK, BUU PHAM, DAVID POOLE,
     SPENCER PRUITT, LUKE ROSKOP, TOSAPORN SATTASATHUCHANA,
     JIM SHOEMAKER, LYUDMILA SLIPCHENKO,
     TONY SMITH, JIE SONG, TETSUYA TAKETSUGU, SIMON WEBB,
     JORGE LUIS GALVEZ VALLEJO, PENG XU, SOOHAENG YOO,
     FEDERICO ZAHARIEV

  ADDITIONAL CODE HAS BEEN PROVIDED BY COLLABORATORS IN OTHER GROUPS:
     IOWA STATE UNIVERSITY:
          JOE IVANIC, AARON WEST, LAIMUTIS BYTAUTAS, KLAUS RUEDENBERG
     UNIVERSITY OF TOKYO: KIMIHIKO HIRAO, TAKAHITO NAKAJIMA,
          TAKAO TSUNEDA, MUNEAKI KAMIYA, SUSUMU YANAGISAWA,
          KIYOSHI YAGI, MAHITO CHIBA, SEIKEN TOKURA, NAOAKI KAWAKAMI
     UNIVERSITY OF AARHUS: FRANK JENSEN
     UNIVERSITY OF IOWA: VISVALDAS KAIRYS, HUI LI
     NATIONAL INST. OF STANDARDS AND TECHNOLOGY: WALT STEVENS, DAVID GARMER
     UNIVERSITY OF PISA: BENEDETTA MENNUCCI, JACOPO TOMASI
     UNIVERSITY OF MEMPHIS: HENRY KURTZ, PRAKASHAN KORAMBATH
     UNIVERSITY OF ALBERTA: TOBY ZENG, MARIUSZ KLOBUKOWSKI
     UNIVERSITY OF NEW ENGLAND: MARK SPACKMAN
     MIE UNIVERSITY: HIROAKI UMEDA
     NAT. INST. OF ADVANCED INDUSTRIAL SCIENCE AND TECHNOLOGY: KAZUO KITAURA
     MICHIGAN STATE UNIVERSITY:
          KAROL KOWALSKI, MARTA WLOCH, JEFFREY GOUR, JESSE LUTZ,
          WEI LI, JUN SHEN, J. EMILIANO DEUSTUA, PIOTR PIECUCH
     UNIVERSITY OF MINNESOTA:
          ANDREW SAND, PRACHI SHARMA, YINAN SHU
     UNIVERSITY OF SILESIA: MONIKA MUSIAL, STANISLAW KUCHARSKI
     FACULTES UNIVERSITAIRES NOTRE-DAME DE LA PAIX:
          OLIVIER QUINET, BENOIT CHAMPAGNE
     UNIVERSITY OF CALIFORNIA - SANTA BARBARA: BERNARD KIRTMAN
     INSTITUTE FOR MOLECULAR SCIENCE:
          KAZUYA ISHIMURA, MICHIO KATOUDA, AND SHIGERU NAGASE
     UNIVERSITY OF NOTRE DAME: ANNA POMOGAEVA, DAN CHIPMAN
     KYUSHU UNIVERSITY:
          HARUYUKI NAKANO,
          FENG LONG GU, JACEK KORCHOWIEC, MARCIN MAKOWSKI, AND YURIKO AOKI,
          HIROTOSHI MORI AND EISAKU MIYOSHI
     PENNSYLVANIA STATE UNIVERSITY:
          TZVETELIN IORDANOV, CHET SWALINA, JONATHAN SKONE,
          SHARON HAMMES-SCHIFFER
     WASEDA UNIVERSITY:
          MASATO KOBAYASHI, TOMOKO AKAMA, TSUGUKI TOUMA,
          TAKESHI YOSHIKAWA, YASUHIRO IKABATA, JUNJI SEINO,
          YUYA NAKAJIMA, HIROMI NAKAI
     NANJING UNIVERSITY: SHUHUA LI
     UNIVERSITY OF NEBRASKA:
          PEIFENG SU, DEJUN SI, NANDUN THELLAMUREGE, YALI WANG, HUI LI
     UNIVERSITY OF ZURICH: ROBERTO PEVERATI, KIM BALDRIDGE
     N. COPERNICUS UNIVERSITY AND JACKSON STATE UNIVERSITY:
          MARIA BARYSZ
     UNIVERSITY OF COPENHAGEN: Jimmy Kromann, CASPER STEINMANN
     TOKYO INSTITUTE OF TECHNOLOGY: HIROYA NAKATA
     NAGOYA UNIVERSITY: YOSHIO NISHIMOTO, STEPHAN IRLE
     MOSCOW STATE UNIVERSITY: VLADIMIR MIRONOV
     A.N.NESMEYANOV INSTITUTE OF ORGANOELEMENT COMPOUNDS OF RUSSIAN ACADEMY OF SCIENCES:
          IGOR S. GERASIMOV
     JOHANNES KEPLER UNIVERSITY LINZ:
          CHRISTIAN FRIEDL


 PARALLEL VERSION RUNNING ON        8 PROCESSORS IN        1 NODES.

 EXECUTION OF GAMESS BEGUN Fri May 22 14:59:52 2020

            ECHO OF THE FIRST FEW INPUT CARDS -
 INPUT CARD> $BASIS GBASIS=N21 NGAUSS=3 $END                                                
 INPUT CARD> $CONTRL SCFTYP=UHF MAXIT=60 MULT=2 ICHARG=1 $END                               
 INPUT CARD> $SYSTEM MEMDDI=1000 MWORDS=30 $END                                             
 INPUT CARD> $SCF DIRSCF=.TRUE. $END                                                        
 INPUT CARD> $STATPT OPTTOL=0.0001 NSTEP=999 $END                                           
 INPUT CARD> $DATA                                                                          
 INPUT CARD>                                                                                
 INPUT CARD>C1                                                                              
 INPUT CARD>H 1.0000000 -0.9685972096 2.4101391731 -0.3637487910                            
 INPUT CARD>C 6.0000000 -0.6738754228 1.4681523580 0.1172500964                             
 INPUT CARD>C 6.0000000 -1.6027845363 0.3037484194 -0.2876341403                            
 INPUT CARD>H 1.0000000 -1.7562062453 0.2598666105 -1.3697425477                            
 INPUT CARD>O 8.0000000 -2.8763632246 0.4166648143 0.4593644677                             
 INPUT CARD>C 6.0000000 -1.0074940130 -1.0005572285 0.2107175699                            
 INPUT CARD>H 1.0000000 -0.9661005517 -0.9567312200 1.3057246201                            
 INPUT CARD>O 8.0000000 -1.7588262066 -2.1613668967 -0.2511227804                           
 INPUT CARD>C 6.0000000 0.4096478233 -1.1793463975 -0.3097617118                            
 INPUT CARD>H 1.0000000 0.3812432833 -1.1706902365 -1.4103887015                            
 INPUT CARD>O 8.0000000 0.9651891451 -2.4132875447 0.2149706197                             
 INPUT CARD>C 6.0000000 1.2620274311 -0.0091682090 0.1809640187                             
 INPUT CARD>H 1.0000000 1.2738457427 0.0183621917 1.2721509228                              
 INPUT CARD>O 8.0000000 0.6599171174 1.2296303511 -0.3563554543                             
 INPUT CARD>C 6.0000000 2.6823592793 -0.0964949184 -0.3440070686                            
 INPUT CARD>O 8.0000000 3.4809477704 0.8422554576 0.4341572427                              
 INPUT CARD>O 8.0000000 -0.7167401721 1.5549869840 1.5555065942                             
 INPUT CARD>H 1.0000000 -3.4486867144 1.0973753619 0.0118988363                             
 INPUT CARD>H 1.0000000 -2.6842205388 -2.0469587955 0.0975098415                            
 INPUT CARD>H 1.0000000 0.2365128510 -3.0859853008 0.0949172015                             
 INPUT CARD>H 1.0000000 3.0068982875 -1.1388542770 -0.2158359906                            
 INPUT CARD>H 1.0000000 2.6618712259 0.1469911178 -1.4167787481                             
 INPUT CARD>H 1.0000000 4.4077972683 0.8166792832 0.0736717029                              
 INPUT CARD>H 1.0000000 -1.6450223901 1.2503890021 1.7849421999                             
 INPUT CARD> $END                                                                           
   30000000 WORDS OF MEMORY AVAILABLE

     BASIS OPTIONS
     -------------
     GBASIS=N21          IGAUSS=       3      POLAR=NONE    
     NDFUNC=       0     NFFUNC=       0     DIFFSP=       F
     NPFUNC=       0      DIFFS=       F     BASNAM=        


     RUN TITLE
     ---------
                                                                                 

 THE POINT GROUP OF THE MOLECULE IS C1      
 THE ORDER OF THE PRINCIPAL AXIS IS     0

 ATOM      ATOMIC                      COORDINATES (BOHR)
           CHARGE         X                   Y                   Z
 H           1.0    -1.8303833186        4.5545026294       -0.6873855434
 C           6.0    -1.2734398990        2.7744056648        0.2215705542
 C           6.0    -3.0288235910        0.5740012819       -0.5435497099
 H           1.0    -3.3187485815        0.4910766872       -2.5884380889
 O           8.0    -5.4355383357        0.7873823278        0.8680729724
 C           6.0    -1.9038876188       -1.8907789969        0.3981984679
 H           1.0    -1.8256653193       -1.8079598497        2.4674617474
 O           8.0    -3.3236995905       -4.0843911937       -0.4745532442
 C           6.0     0.7741221375       -2.2286415359       -0.5853647568
 H           1.0     0.7204453401       -2.2122837635       -2.6652481820
 O           8.0     1.8239430106       -4.5604521891        0.4062355666
 C           6.0     2.3848860338       -0.0173254028        0.3419724090
 H           1.0     2.4072194043        0.0346995108        2.4040166591
 O           8.0     1.2470625265        2.3236644298       -0.6734141629
 C           6.0     5.0689240385       -0.1823489550       -0.6500790975
 O           8.0     6.5780374636        1.5916320265        0.8204382243
 O           8.0    -1.3544425297        2.9384993142        2.9394812351
 H           1.0    -6.5170729077        2.0737387397        0.0224855402
 H           1.0    -5.0724413089       -3.8681912317        0.1842668815
 H           1.0     0.4469444810       -5.8316666206        0.1793675024
 H           1.0     5.6822138363       -2.1521225235       -0.4078708805
 H           1.0     5.0302072316        0.2777729353       -2.6773236191
 H           1.0     8.3295290465        1.5433000651        0.1392193315
 H           1.0    -3.1086415610        2.3628925920        3.3730516617

          INTERNUCLEAR DISTANCES (ANGS.)
          ------------------------------

                1 H          2 C          3 C          4 H          5 O     

   1 H       0.0000000    1.0979800 *  2.2011063 *  2.5012044 *  2.8794143 *
   2 C       1.0979800 *  0.0000000    1.5435802 *  2.2005776 *  2.4644717 *
   3 C       2.2011063 *  1.5435802 *  0.0000000    1.0938110 *  1.4807970 *
   4 H       2.5012044 *  2.2005776 *  1.0938110 *  0.0000000    2.1505743 *
   5 O       2.8794143 *  2.4644717 *  1.4807970 *  2.1505743 *  0.0000000  
   6 C       3.4589557    2.4929028 *  1.5178730 *  2.1557116 *  2.3586046 *
   7 H       3.7580532    2.7162341 *  2.1290767 *  3.0434359    2.5003291 *
   8 O       4.6406696    3.8060776    2.4703189 *  2.6671499 *  2.8982630 *
   9 C       3.8453713    2.8923367 *  2.4999888 *  2.8081697 *  3.7331857  
  10 H       3.9673497    3.2265223    2.7149426 *  2.5723210 *  4.0777044  
  11 O       5.2287562    4.2144582    3.7721857    4.1307459    4.7776441  
  12 C       3.3354830    2.4360327 *  2.9197001 *  3.4039396    4.1695465  
  13 H       3.6640572    2.6887367 *  3.2847186    4.0272994    4.2477643  
  14 O       2.0113962 *  1.4353388 *  2.4457716 *  2.7937515 *  3.7190846  
  15 C       4.4286666    3.7316472    4.3041643    4.5694628    5.6398701  
  16 O       4.7847010    4.2136365    5.1628778    5.5696511    6.3715905  
  17 O       2.1161896 *  1.4415129 *  2.3974654 *  3.3637641    2.6760562 *
  18 H       2.8311312 *  2.8014554 *  2.0314819 *  2.3398384 *  0.9955634 *
  19 H       4.7981085    4.0494300    2.6160398 *  2.8871238 *  2.4974585 *
  20 H       5.6453564    4.6442949    3.8755200    4.1606349    4.7001465  
  21 H       5.3312097    4.5227785    4.8306763    5.0965758    6.1227691  
  22 H       4.4057930    3.9020401    4.4143889    4.4197694    5.8536039  
  23 H       5.6245950    5.1234474    6.0432387    6.3551888    7.3053244  
  24 H       2.5336623 *  1.9420979 *  2.2789219 *  3.3084033    1.9920975 *

                6 C          7 H          8 O          9 C         10 H     

   1 H       3.4589557    3.7580532    4.6406696    3.8453713    3.9673497  
   2 C       2.4929028 *  2.7162341 *  3.8060776    2.8923367 *  3.2265223  
   3 C       1.5178730 *  2.1290767 *  2.4703189 *  2.4999888 *  2.7149426 *
   4 H       2.1557116 *  3.0434359    2.6671499 *  2.8081697 *  2.5723210 *
   5 O       2.3586046 *  2.5003291 *  2.8982630 *  3.7331857    4.0777044  
   6 C       0.0000000    1.0966652 *  1.4578325 *  1.5202484 *  2.1413832 *
   7 H       1.0966652 *  0.0000000    2.1221062 *  2.1335504 *  3.0394712  
   8 O       1.4578325 *  2.1221062 *  0.0000000    2.3811935 *  2.6277814 *
   9 C       1.5202484 *  2.1335504 *  2.3811935 *  0.0000000    1.1010275 *
  10 H       2.1413832 *  3.0394712    2.6277814 *  1.1010275 *  0.0000000  
  11 O       2.4263767 *  2.6535223 *  2.7750616 *  1.4514065 *  2.1276357 *
  12 C       2.4767852 *  2.6697409 *  3.7341953    1.5286202 *  2.1580819 *
  13 H       2.7146544 *  2.4432138 *  4.0334453    2.1642069 *  3.0670187  
  14 O       2.8417544 *  3.1916486    4.1665640    2.4223903 *  2.6363202 *
  15 C       3.8392793    4.0954707    4.8986174    2.5177286 *  2.7543058 *
  16 O       4.8571590    4.8756765    6.0783704    3.7514228    4.1306740  
  17 O       2.9023786 *  2.5363951 *  4.2615888    3.4963631    4.1750951  
  18 H       3.2249452    3.4722576    3.6802459    4.4915112    4.6728350  
  19 H       1.9796929 *  2.3664986 *  0.9954841 *  3.2389262    3.5268503  
  20 H       2.4310436 *  2.7287463 *  2.2262167 *  1.9567863 *  2.4403377 *
  21 H       4.0393588    4.2582902    4.8743109    2.5992637 *  2.8847936 *
  22 H       4.1749075    4.6682338    5.1215072    2.8385151 *  2.6339303 *
  23 H       5.7137124    5.7915211    6.8557637    4.4851242    4.7291870  
  24 H       2.8198199 *  2.3583817 *  3.9747440    3.8096021    4.4919391  

               11 O         12 C         13 H         14 O         15 C     

   1 H       5.2287562    3.3354830    3.6640572    2.0113962 *  4.4286666  
   2 C       4.2144582    2.4360327 *  2.6887367 *  1.4353388 *  3.7316472  
   3 C       3.7721857    2.9197001 *  3.2847186    2.4457716 *  4.3041643  
   4 H       4.1307459    3.4039396    4.0272994    2.7937515 *  4.5694628  
   5 O       4.7776441    4.1695465    4.2477643    3.7190846    5.6398701  
   6 C       2.4263767 *  2.4767852 *  2.7146544 *  2.8417544 *  3.8392793  
   7 H       2.6535223 *  2.6697409 *  2.4432138 *  3.1916486    4.0954707  
   8 O       2.7750616 *  3.7341953    4.0334453    4.1665640    4.8986174  
   9 C       1.4514065 *  1.5286202 *  2.1642069 *  2.4223903 *  2.5177286 *
  10 H       2.1276357 *  2.1580819 *  3.0670187    2.6363202 *  2.7543058 *
  11 O       0.0000000    2.4226141 *  2.6694231 *  3.7000615    2.9374576 *
  12 C       2.4226141 *  0.0000000    1.0915981 *  1.4784691 *  1.5167607 *
  13 H       2.6694231 *  1.0915981 *  0.0000000    2.1204037 *  2.1468743 *
  14 O       3.7000615    1.4784691 *  2.1204037 *  0.0000000    2.4184774 *
  15 C       2.9374576 *  1.5167607 *  2.1468743 *  2.4184774 *  0.0000000  
  16 O       4.1201510    2.3901122 *  2.5004665 *  2.9551960 *  1.4575787 *
  17 O       4.5136599    2.8725372 *  2.5306004 *  2.3782890 *  4.2295888  
  18 H       5.6434291    4.8418849    5.0054788    4.1271937    6.2563344  
  19 H       3.6696301    4.4421198    4.6164511    4.7037524    5.7270783  
  20 H       0.9989516 *  3.2443624    3.4783491    4.3597542    3.8873991  
  21 H       2.4450666 *  2.1161794 *  2.5606105 *  3.3373321    1.0992117 *
  22 H       3.4779826    2.1299602 *  3.0287791    2.5108615 *  1.1002474 *
  23 H       4.7227324    3.2541364    3.4489585    3.7950043    1.9963664 *
  24 H       4.7645085    3.5510800    3.2094604    3.1461616    5.0072701  

               16 O         17 O         18 H         19 H         20 H     

   1 H       4.7847010    2.1161896 *  2.8311312 *  4.7981085    5.6453564  
   2 C       4.2136365    1.4415129 *  2.8014554 *  4.0494300    4.6442949  
   3 C       5.1628778    2.3974654 *  2.0314819 *  2.6160398 *  3.8755200  
   4 H       5.5696511    3.3637641    2.3398384 *  2.8871238 *  4.1606349  
   5 O       6.3715905    2.6760562 *  0.9955634 *  2.4974585 *  4.7001465  
   6 C       4.8571590    2.9023786 *  3.2249452    1.9796929 *  2.4310436 *
   7 H       4.8756765    2.5363951 *  3.4722576    2.3664986 *  2.7287463 *
   8 O       6.0783704    4.2615888    3.6802459    0.9954841 *  2.2262167 *
   9 C       3.7514228    3.4963631    4.4915112    3.2389262    1.9567863 *
  10 H       4.1306740    4.1750951    4.6728350    3.5268503    2.4403377 *
  11 O       4.1201510    4.5136599    5.6434291    3.6696301    0.9989516 *
  12 C       2.3901122 *  2.8725372 *  4.8418849    4.4421198    3.2443624  
  13 H       2.5004665 *  2.5306004 *  5.0054788    4.6164511    3.4783491  
  14 O       2.9551960 *  2.3782890 *  4.1271937    4.7037524    4.3597542  
  15 C       1.4575787 *  4.2295888    6.2563344    5.7270783    3.8873991  
  16 O       0.0000000    4.4029529    6.9471737    6.8169048    5.1061255  
  17 O       4.4029529    0.0000000    3.1710669    4.3555421    4.9578863  
  18 H       6.9471737    3.1710669    0.0000000    3.2370627    5.5756699  
  19 H       6.8169048    4.3555421    3.2370627    0.0000000    3.1000430  
  20 H       5.1061255    4.9578863    5.5756699    3.1000430    0.0000000  
  21 H       2.1382259 *  4.9254359    6.8357270    5.7716265    3.4004297  
  22 H       2.1401502 *  4.7150766    6.3469101    5.9738751    4.3150579  
  23 H       0.9948135 *  5.3853335    7.8617394    7.6483794    5.7123424  
  24 H       5.3166496    1.0035579 *  2.5338313 *  3.8470590    5.0200101  

               21 H         22 H         23 H         24 H     

   1 H       5.3312097    4.4057930    5.6245950    2.5336623 *
   2 C       4.5227785    3.9020401    5.1234474    1.9420979 *
   3 C       4.8306763    4.4143889    6.0432387    2.2789219 *
   4 H       5.0965758    4.4197694    6.3551888    3.3084033  
   5 O       6.1227691    5.8536039    7.3053244    1.9920975 *
   6 C       4.0393588    4.1749075    5.7137124    2.8198199 *
   7 H       4.2582902    4.6682338    5.7915211    2.3583817 *
   8 O       4.8743109    5.1215072    6.8557637    3.9747440  
   9 C       2.5992637 *  2.8385151 *  4.4851242    3.8096021  
  10 H       2.8847936 *  2.6339303 *  4.7291870    4.4919391  
  11 O       2.4450666 *  3.4779826    4.7227324    4.7645085  
  12 C       2.1161794 *  2.1299602 *  3.2541364    3.5510800  
  13 H       2.5606105 *  3.0287791    3.4489585    3.2094604  
  14 O       3.3373321    2.5108615 *  3.7950043    3.1461616  
  15 C       1.0992117 *  1.1002474 *  1.9963664 *  5.0072701  
  16 O       2.1382259 *  2.1401502 *  0.9948135 *  5.3166496  
  17 O       4.9254359    4.7150766    5.3853335    1.0035579 *
  18 H       6.8357270    6.3469101    7.8617394    2.5338313 *
  19 H       5.7716265    5.9738751    7.6483794    3.8470590  
  20 H       3.4004297    4.3150579    5.7123424    5.0200101  
  21 H       0.0000000    1.7929600 *  2.4228999 *  5.5992823  
  22 H       1.7929600 *  0.0000000    2.3912722 *  5.4788536  
  23 H       2.4228999 *  2.3912722 *  0.0000000    6.3050120  
  24 H       5.5992823    5.4788536    6.3050120    0.0000000  

  * ... LESS THAN  3.000


     ATOMIC BASIS SET
     ----------------
 THE CONTRACTED PRIMITIVE FUNCTIONS HAVE BEEN UNNORMALIZED
 THE CONTRACTED BASIS FUNCTIONS ARE NOW NORMALIZED TO UNITY

  SHELL TYPE  PRIMITIVE        EXPONENT          CONTRACTION COEFFICIENT(S)

 H         

      1   S       1             5.4471780    0.156284978695
      1   S       2             0.8245472    0.904690876670

      2   S       3             0.1831916    1.000000000000

 C         

      3   S       4           172.2560000    0.061766907377
      3   S       5            25.9109000    0.358794042852
      3   S       6             5.5333500    0.700713083689

      4   L       7             3.6649800   -0.395895162119    0.236459946619
      4   L       8             0.7705450    1.215834355681    0.860618805716

      5   L       9             0.1958570    1.000000000000    1.000000000000

 C         

      6   S      10           172.2560000    0.061766907377
      6   S      11            25.9109000    0.358794042852
      6   S      12             5.5333500    0.700713083689

      7   L      13             3.6649800   -0.395895162119    0.236459946619
      7   L      14             0.7705450    1.215834355681    0.860618805716

      8   L      15             0.1958570    1.000000000000    1.000000000000

 H         

      9   S      16             5.4471780    0.156284978695
      9   S      17             0.8245472    0.904690876670

     10   S      18             0.1831916    1.000000000000

 O         

     11   S      19           322.0370000    0.059239393389
     11   S      20            48.4308000    0.351499960776
     11   S      21            10.4206000    0.707657921031

     12   L      22             7.4029400   -0.404453583190    0.244586106967
     12   L      23             1.5762000    1.221561761397    0.853955373466

     13   L      24             0.3736840    1.000000000000    1.000000000000

 C         

     14   S      25           172.2560000    0.061766907377
     14   S      26            25.9109000    0.358794042852
     14   S      27             5.5333500    0.700713083689

     15   L      28             3.6649800   -0.395895162119    0.236459946619
     15   L      29             0.7705450    1.215834355681    0.860618805716

     16   L      30             0.1958570    1.000000000000    1.000000000000

 H         

     17   S      31             5.4471780    0.156284978695
     17   S      32             0.8245472    0.904690876670

     18   S      33             0.1831916    1.000000000000

 O         

     19   S      34           322.0370000    0.059239393389
     19   S      35            48.4308000    0.351499960776
     19   S      36            10.4206000    0.707657921031

     20   L      37             7.4029400   -0.404453583190    0.244586106967
     20   L      38             1.5762000    1.221561761397    0.853955373466

     21   L      39             0.3736840    1.000000000000    1.000000000000

 C         

     22   S      40           172.2560000    0.061766907377
     22   S      41            25.9109000    0.358794042852
     22   S      42             5.5333500    0.700713083689

     23   L      43             3.6649800   -0.395895162119    0.236459946619
     23   L      44             0.7705450    1.215834355681    0.860618805716

     24   L      45             0.1958570    1.000000000000    1.000000000000

 H         

     25   S      46             5.4471780    0.156284978695
     25   S      47             0.8245472    0.904690876670

     26   S      48             0.1831916    1.000000000000

 O         

     27   S      49           322.0370000    0.059239393389
     27   S      50            48.4308000    0.351499960776
     27   S      51            10.4206000    0.707657921031

     28   L      52             7.4029400   -0.404453583190    0.244586106967
     28   L      53             1.5762000    1.221561761397    0.853955373466

     29   L      54             0.3736840    1.000000000000    1.000000000000

 C         

     30   S      55           172.2560000    0.061766907377
     30   S      56            25.9109000    0.358794042852
     30   S      57             5.5333500    0.700713083689

     31   L      58             3.6649800   -0.395895162119    0.236459946619
     31   L      59             0.7705450    1.215834355681    0.860618805716

     32   L      60             0.1958570    1.000000000000    1.000000000000

 H         

     33   S      61             5.4471780    0.156284978695
     33   S      62             0.8245472    0.904690876670

     34   S      63             0.1831916    1.000000000000

 O         

     35   S      64           322.0370000    0.059239393389
     35   S      65            48.4308000    0.351499960776
     35   S      66            10.4206000    0.707657921031

     36   L      67             7.4029400   -0.404453583190    0.244586106967
     36   L      68             1.5762000    1.221561761397    0.853955373466

     37   L      69             0.3736840    1.000000000000    1.000000000000

 C         

     38   S      70           172.2560000    0.061766907377
     38   S      71            25.9109000    0.358794042852
     38   S      72             5.5333500    0.700713083689

     39   L      73             3.6649800   -0.395895162119    0.236459946619
     39   L      74             0.7705450    1.215834355681    0.860618805716

     40   L      75             0.1958570    1.000000000000    1.000000000000

 O         

     41   S      76           322.0370000    0.059239393389
     41   S      77            48.4308000    0.351499960776
     41   S      78            10.4206000    0.707657921031

     42   L      79             7.4029400   -0.404453583190    0.244586106967
     42   L      80             1.5762000    1.221561761397    0.853955373466

     43   L      81             0.3736840    1.000000000000    1.000000000000

 O         

     44   S      82           322.0370000    0.059239393389
     44   S      83            48.4308000    0.351499960776
     44   S      84            10.4206000    0.707657921031

     45   L      85             7.4029400   -0.404453583190    0.244586106967
     45   L      86             1.5762000    1.221561761397    0.853955373466

     46   L      87             0.3736840    1.000000000000    1.000000000000

 H         

     47   S      88             5.4471780    0.156284978695
     47   S      89             0.8245472    0.904690876670

     48   S      90             0.1831916    1.000000000000

 H         

     49   S      91             5.4471780    0.156284978695
     49   S      92             0.8245472    0.904690876670

     50   S      93             0.1831916    1.000000000000

 H         

     51   S      94             5.4471780    0.156284978695
     51   S      95             0.8245472    0.904690876670

     52   S      96             0.1831916    1.000000000000

 H         

     53   S      97             5.4471780    0.156284978695
     53   S      98             0.8245472    0.904690876670

     54   S      99             0.1831916    1.000000000000

 H         

     55   S     100             5.4471780    0.156284978695
     55   S     101             0.8245472    0.904690876670

     56   S     102             0.1831916    1.000000000000

 H         

     57   S     103             5.4471780    0.156284978695
     57   S     104             0.8245472    0.904690876670

     58   S     105             0.1831916    1.000000000000

 H         

     59   S     106             5.4471780    0.156284978695
     59   S     107             0.8245472    0.904690876670

     60   S     108             0.1831916    1.000000000000

 TOTAL NUMBER OF BASIS SET SHELLS             =   60
 NUMBER OF CARTESIAN GAUSSIAN BASIS FUNCTIONS =  132
 NUMBER OF ELECTRONS                          =   95
 CHARGE OF MOLECULE                           =    1
 SPIN MULTIPLICITY                            =    2
 NUMBER OF OCCUPIED ORBITALS (ALPHA)          =   48
 NUMBER OF OCCUPIED ORBITALS (BETA )          =   47
 TOTAL NUMBER OF ATOMS                        =   24
 THE NUCLEAR REPULSION ENERGY IS      826.6697857877

     $CONTRL OPTIONS
     ---------------
 SCFTYP=UHF          RUNTYP=ENERGY       EXETYP=RUN     
 MPLEVL=       0     CITYP =NONE         CCTYP =NONE         VBTYP =NONE    
 DFTTYP=NONE         TDDFT =NONE    
 MULT  =       2     ICHARG=       1     NZVAR =       0     COORD =UNIQUE  
 PP    =NONE         RELWFN=NONE         LOCAL =NONE         NUMGRD=       F
 ISPHER=      -1     NOSYM =       0     MAXIT =      60     UNITS =ANGS    
 PLTORB=       F     MOLPLT=       F     AIMPAC=       F     FRIEND=        
 NPRINT=       7     IREST =       0     GEOM  =INPUT   
 NORMF =       0     NORMP =       0     ITOL  =      20     ICUT  =       9
 INTTYP=BEST         GRDTYP=BEST         QMTTOL= 1.0E-06

     $SYSTEM OPTIONS
     ---------------
  REPLICATED MEMORY=    30000000 WORDS (ON EVERY NODE).
 DISTRIBUTED MEMDDI=        1000 MILLION WORDS IN AGGREGATE,
 MEMDDI DISTRIBUTED OVER   8 PROCESSORS IS   125000000 WORDS/PROCESSOR.
 TOTAL MEMORY REQUESTED ON EACH PROCESSOR=   155000000 WORDS.
 TIMLIM=      525600.00 MINUTES, OR     365.0 DAYS.
 PARALL= T  BALTYP=  DLB     KDIAG=    0  COREFL= F
 MXSEQ2=     300 MXSEQ3=     150  mem10=         0

          ----------------
          PROPERTIES INPUT
          ----------------

     MOMENTS            FIELD           POTENTIAL          DENSITY
 IEMOM =       1   IEFLD =       0   IEPOT =       0   IEDEN =       0
 WHERE =COMASS     WHERE =NUCLEI     WHERE =NUCLEI     WHERE =NUCLEI  
 OUTPUT=BOTH       OUTPUT=BOTH       OUTPUT=BOTH       OUTPUT=BOTH    
 IEMINT=       0   IEFINT=       0                     IEDINT=       0
                                                       MORB  =       0
          EXTRAPOLATION IN EFFECT
          SOSCF IN EFFECT
          DIIS or SOSCF will be reset if energy rises
 ORBITAL PRINTING OPTION: NPREO=     1   132     2     1

     -------------------------------
     INTEGRAL TRANSFORMATION OPTIONS
     -------------------------------
     NWORD  =            0
     CUTOFF = 1.0E-09     MPTRAN =       0
     DIRTRF =       T     AOINTS =DUP     

          ----------------------
          INTEGRAL INPUT OPTIONS
          ----------------------
 NOPK  =       1 NORDER=       0 SCHWRZ=       T

     ------------------------------------------
     THE POINT GROUP IS C1 , NAXIS= 0, ORDER= 1
     ------------------------------------------

     DIMENSIONS OF THE SYMMETRY SUBSPACES ARE
 A   =  132

 ..... DONE SETTING UP THE RUN .....
 CPU     0: STEP CPU TIME=     0.03 TOTAL CPU TIME=          0.0 (      0.0 MIN)
 TOTAL WALL CLOCK TIME=          0.1 SECONDS, CPU UTILIZATION IS    50.00%

          ********************
          1 ELECTRON INTEGRALS
          ********************
 ...... END OF ONE-ELECTRON INTEGRALS ......
 CPU     0: STEP CPU TIME=     0.01 TOTAL CPU TIME=          0.0 (      0.0 MIN)
 TOTAL WALL CLOCK TIME=          0.1 SECONDS, CPU UTILIZATION IS    50.00%

          -------------
          GUESS OPTIONS
          -------------
          GUESS =HUCKEL            NORB  =       0          NORDER=       0
          MIX   =       F          PRTMO =       F          PUNMO =       F
          TOLZ  = 1.0E-08          TOLE  = 1.0E-05
          SYMDEN=       F          PURIFY=       F

 INITIAL GUESS ORBITALS GENERATED BY HUCKEL   ROUTINE.
 HUCKEL GUESS REQUIRES    164928 WORDS.

 SYMMETRIES FOR INITIAL GUESS ORBITALS FOLLOW.  ALPHA SET(S).
    48 ORBITALS ARE OCCUPIED (   12 CORE ORBITALS).
    13=A       14=A       15=A       16=A       17=A       18=A       19=A   
    20=A       21=A       22=A       23=A       24=A       25=A       26=A   
    27=A       28=A       29=A       30=A       31=A       32=A       33=A   
    34=A       35=A       36=A       37=A       38=A       39=A       40=A   
    41=A       42=A       43=A       44=A       45=A       46=A       47=A   
    48=A       49=A       50=A       51=A       52=A       53=A       54=A   
    55=A       56=A       57=A       58=A   

 SYMMETRIES FOR INITIAL GUESS ORBITALS FOLLOW.   BETA SET(S).
    47 ORBITALS ARE OCCUPIED (   12 CORE ORBITALS).
    13=A       14=A       15=A       16=A       17=A       18=A       19=A   
    20=A       21=A       22=A       23=A       24=A       25=A       26=A   
    27=A       28=A       29=A       30=A       31=A       32=A       33=A   
    34=A       35=A       36=A       37=A       38=A       39=A       40=A   
    41=A       42=A       43=A       44=A       45=A       46=A       47=A   
    48=A       49=A       50=A       51=A       52=A       53=A       54=A   
    55=A       56=A       57=A   
 ...... END OF INITIAL ORBITAL SELECTION ......
 CPU     0: STEP CPU TIME=     0.05 TOTAL CPU TIME=          0.1 (      0.0 MIN)
 TOTAL WALL CLOCK TIME=          0.2 SECONDS, CPU UTILIZATION IS    56.25%

                    ----------------------
                    AO INTEGRAL TECHNOLOGY
                    ----------------------
     S,P,L SHELL ROTATED AXIS INTEGRALS, REPROGRAMMED BY
        KAZUYA ISHIMURA (IMS) AND JOSE SIERRA (SYNSTAR).
     S,P,D,L SHELL ROTATED AXIS INTEGRALS PROGRAMMED BY
        KAZUYA ISHIMURA (INSTITUTE FOR MOLECULAR SCIENCE).
     S,P,D,F,G SHELL TO TOTAL QUARTET ANGULAR MOMENTUM SUM 5,
        ERIC PROGRAM BY GRAHAM FLETCHER (ELORET AND NASA ADVANCED
        SUPERCOMPUTING DIVISION, AMES RESEARCH CENTER).
     S,P,D,F,G,L SHELL GENERAL RYS QUADRATURE PROGRAMMED BY
        MICHEL DUPUIS (PACIFIC NORTHWEST NATIONAL LABORATORY).

          --------------------
          2 ELECTRON INTEGRALS
          --------------------

 DIRECT SCF METHOD SKIPS INTEGRAL STORAGE ON DISK.
 DIRECT TRANSFORMATION SKIPS AO INTEGRAL STORAGE ON DISK.
  ...... END OF TWO-ELECTRON INTEGRALS .....
 CPU     0: STEP CPU TIME=     0.02 TOTAL CPU TIME=          0.1 (      0.0 MIN)
 TOTAL WALL CLOCK TIME=          0.2 SECONDS, CPU UTILIZATION IS    61.11%

          ---------------------------
                  UHF SCF CALCULATION
          ---------------------------

     NUCLEAR ENERGY =       826.6697857877
     MAXIT = 60     NPUNCH=  2     MULT=  2
     EXTRAP=T  DAMP=F  SHIFT=F  RSTRCT=F  DIIS=F  SOSCF=T
     DENSITY MATRIX CONV=  2.00E-05
     SOSCF WILL OPTIMIZE    4032 ALPHA AND    3995 BETA ROTATION ANGLES.
     SOGTOL= 2.500E-01
     MEMORY REQUIRED FOR UHF/ROHF ITERS=    280557 WORDS.

 DIRECT SCF CALCULATION, SCHWRZ=T   FDIFF=T
 SCHWARZ INEQUALITY OVERHEAD:      8052 INTEGRALS, T=        0.00

                                                                                NONZERO     BLOCKS
 ITER EX      TOTAL ENERGY        E CHANGE  DENSITY CHANGE    ORB. GRAD       INTEGRALS    SKIPPED
   1  0     -677.1668288563  -677.1668288563   0.866576285   0.000000000       21116097     889402
          ---------------START SECOND ORDER SCF---------------
   2  1     -679.0266836988    -1.8598548425   0.143328810   0.060143050       21051079     904325
   3  2     -679.1402020389    -0.1135183402   0.125776703   0.021448941       20820663     944555
   4  3     -679.1784631586    -0.0382611197   0.043632952   0.017988661       20604082     967271
   5  4     -679.1930313557    -0.0145681971   0.071321940   0.012760693       20518283     980464
   6  5     -679.1969886363    -0.0039572806   0.049550297   0.014714966       20727807     959639
   7  6     -679.2061551200    -0.0091664837   0.016497795   0.005101961       20448259     983914
   8  7     -679.2081581317    -0.0020030116   0.032446042   0.004100099       19790214    1032095
   9  8     -679.2095563776    -0.0013982459   0.013853517   0.003686210       20011807    1016438
  10  9     -679.2100513900    -0.0004950124   0.025967470   0.002706494       19208440    1062956
  11 10     -679.2105597885    -0.0005083985   0.006178719   0.000761561       19502887    1046272
  12 11     -679.2106404315    -0.0000806430   0.002494718   0.000885145       18922051    1075867
  13 12     -679.2106645288    -0.0000240972   0.001366267   0.000280782       18509239    1094113
  14 13     -679.2106700521    -0.0000055234   0.000979051   0.000110307       17651519    1135304
  15 14     -679.2106714767    -0.0000014246   0.000283206   0.000036559       16987778    1160367
  16 15     -679.2106717478    -0.0000002711   0.000138393   0.000018400       16160242    1194802
  17 16     -679.2106718143    -0.0000000665   0.000077621   0.000007924       15392419    1222641
  18 17     -679.2106718294    -0.0000000152   0.000032475   0.000004320       14445243    1256863
  19 18     -679.2106718323    -0.0000000029   0.000018205   0.000002785       13590963    1289797
  20 19     -679.2106718334    -0.0000000011   0.000005500   0.000001067       12796863    1316889

          -----------------
          DENSITY CONVERGED
          -----------------
     TIME TO FORM FOCK OPERATORS=       4.5 SECONDS (       0.2 SEC/ITER)
     FOCK TIME ON FIRST ITERATION=       0.2, LAST ITERATION=       0.1
     TIME TO SOLVE SCF EQUATIONS=       0.3 SECONDS (       0.0 SEC/ITER)

 FINAL UHF ENERGY IS     -679.2106718334 AFTER  20 ITERATIONS

          --------------------
          SPIN SZ   =    0.500
          S-SQUARED =    0.762
          --------------------

  ----- ALPHA SET ----- 

          ------------
          EIGENVECTORS
          ------------

                      1          2          3          4          5
                  -20.9015   -20.6818   -20.6731   -20.6282   -20.6233
                     A          A          A          A          A   
    1  H  1  S   -0.001086   0.000294  -0.000867   0.000278   0.000256
    2  H  1  S   -0.000283  -0.001184   0.001480   0.001203   0.000917
    3  C  2  S   -0.000867   0.000201  -0.001033  -0.000100   0.000021
    4  C  2  S   -0.003473   0.000627  -0.004492  -0.000628  -0.000082
    5  C  2  X    0.001663   0.000658  -0.000105   0.000043  -0.000188
    6  C  2  Y    0.000093   0.000339   0.001010   0.000582   0.000436
    7  C  2  Z   -0.000291   0.000290   0.001414  -0.000147  -0.000081
    8  C  2  S    0.019111  -0.005372   0.022634   0.000622  -0.002017
    9  C  2  X    0.009472   0.003032   0.000314   0.001959   0.000160
   10  C  2  Y   -0.004954   0.002592  -0.005731  -0.002617  -0.000328
   11  C  2  Z   -0.001509  -0.003402   0.013294   0.000684   0.002006
   12  C  3  S    0.000202  -0.001020   0.000296   0.000202  -0.000107
   13  C  3  S    0.000628  -0.004509   0.001216   0.000715  -0.000830
   14  C  3  X   -0.000551  -0.001169  -0.000756  -0.000210  -0.000583
   15  C  3  Y   -0.000741   0.000140  -0.000969   0.000423   0.000087
   16  C  3  Z   -0.000044  -0.000079  -0.000157  -0.000312   0.000184
   17  C  3  S   -0.005634   0.024064  -0.009032  -0.005790   0.001153
   18  C  3  X   -0.002295  -0.007240  -0.000797   0.000103   0.003579
   19  C  3  Y    0.001246  -0.000548   0.000095   0.004451   0.000513
   20  C  3  Z   -0.000125   0.011164  -0.005557   0.002415  -0.001619
   21  H  4  S    0.000541  -0.000694  -0.000393   0.000796  -0.000523
   22  H  4  S   -0.000157   0.000444  -0.000235   0.001356  -0.000133
   23  O  5  S   -0.000237   0.983484  -0.008128  -0.001668   0.001046
   24  O  5  S   -0.000213   0.097911  -0.000658   0.000121  -0.000203
   25  O  5  X   -0.000185   0.001694   0.000114   0.000195  -0.000018
   26  O  5  Y   -0.000108   0.001659   0.000247  -0.000298  -0.000035
   27  O  5  Z   -0.000045  -0.002705   0.000241   0.000126   0.000088
   28  O  5  S    0.000289  -0.045336   0.001462  -0.000207   0.001404
   29  O  5  X    0.000747  -0.006758   0.000485  -0.000564   0.000430
   30  O  5  Y    0.000280  -0.002567  -0.001012   0.000700   0.000085
   31  O  5  Z    0.000143   0.006515  -0.001096  -0.000612  -0.000570
   32  C  6  S    0.000098   0.000265   0.000085  -0.000944   0.000247
   33  C  6  S    0.000957   0.001033   0.000808  -0.003884   0.000881
   34  C  6  X    0.000326   0.000516   0.000049  -0.000605  -0.000570
   35  C  6  Y    0.000591  -0.000388   0.000394  -0.000828   0.000156
   36  C  6  Z    0.000492   0.000166  -0.000184   0.000250   0.000197
   37  C  6  S   -0.000548  -0.009357  -0.000294   0.023445  -0.007741
   38  C  6  X   -0.003543   0.001934  -0.003478  -0.005862  -0.004764
   39  C  6  Y   -0.001653  -0.005360   0.000615  -0.010058   0.002578
   40  C  6  Z   -0.004179  -0.000519   0.000541  -0.009077  -0.001044
   41  H  7  S    0.000835   0.000799  -0.000219  -0.000634   0.000745
   42  H  7  S    0.001760   0.000381   0.000176   0.000169   0.000747
   43  O  8  S    0.000519   0.001733   0.000651   0.983406  -0.016794
   44  O  8  S    0.000618   0.000481   0.000192   0.098270  -0.001428
   45  O  8  X    0.000106  -0.000038  -0.000016  -0.000431   0.000424
   46  O  8  Y    0.000151   0.000101   0.000069   0.003185  -0.000143
   47  O  8  Z   -0.000046  -0.000019   0.000045   0.002063  -0.000178
   48  O  8  S   -0.002329  -0.000874  -0.000488  -0.046792   0.000837
   49  O  8  X   -0.000690   0.000002   0.000145  -0.001533  -0.001056
   50  O  8  Y   -0.001179  -0.000007  -0.000433  -0.009495   0.000595
   51  O  8  Z    0.000106   0.000048  -0.000249  -0.004899   0.000720
   52  C  9  S    0.000015  -0.000141  -0.000129   0.000247  -0.000999
   53  C  9  S   -0.000513  -0.000967  -0.000597   0.000985  -0.004320
   54  C  9  X   -0.000367   0.000279  -0.000094   0.000401   0.000325
   55  C  9  Y   -0.000654  -0.000462   0.000282   0.000061  -0.001205
   56  C  9  Z   -0.000391   0.000130   0.000049  -0.000227  -0.000272
   57  C  9  S   -0.000803   0.002883   0.005155  -0.008108   0.024209
   58  C  9  X   -0.000001  -0.001146  -0.000704   0.004994   0.003375
   59  C  9  Y   -0.001600   0.004087   0.000478   0.000561  -0.010323
   60  C  9  Z    0.003821  -0.000881   0.001597   0.000923   0.010805
   61  H 10  S    0.000512  -0.000687  -0.000131   0.000789  -0.000660
   62  H 10  S    0.001304   0.000106   0.000128   0.000687   0.000914
   63  O 11  S   -0.000022  -0.001087   0.000742   0.016820   0.983424
   64  O 11  S    0.000033  -0.000404   0.000262   0.001937   0.098360
   65  O 11  X   -0.000146  -0.000063   0.000005  -0.000166  -0.003321
   66  O 11  Y   -0.000147  -0.000036   0.000046   0.000024   0.001463
   67  O 11  Z   -0.000001   0.000084   0.000002   0.000088  -0.001625
   68  O 11  S   -0.000757   0.001569  -0.000864  -0.001191  -0.047275
   69  O 11  X    0.000708   0.000055   0.000148   0.000129   0.008156
   70  O 11  Y    0.000130   0.000458  -0.000490   0.000145  -0.006437
   71  O 11  Z   -0.000022  -0.000469   0.000036  -0.000422   0.004241
   72  C 12  S   -0.000738   0.000080   0.000140  -0.000072   0.000169
   73  C 12  S   -0.002919   0.000258   0.001221  -0.000458   0.000556
   74  C 12  X   -0.000830   0.000505  -0.000604   0.000649   0.000181
   75  C 12  Y    0.001342  -0.000049   0.000354   0.000248   0.000468
   76  C 12  Z    0.000094  -0.000250  -0.000021  -0.000080   0.000567
   77  C 12  S    0.015314  -0.003771  -0.002546   0.000017  -0.004843
   78  C 12  X   -0.002106  -0.001298   0.003828  -0.004355   0.001045
   79  C 12  Y    0.007639   0.000217   0.000595  -0.000146   0.005135
   80  C 12  Z   -0.006854   0.003056  -0.000809   0.000299  -0.004525
   81  H 13  S   -0.000768  -0.000254  -0.000074  -0.000316   0.001054
   82  H 13  S    0.000350  -0.000723   0.001144   0.000192   0.001745
   83  O 14  S    0.983409   0.000185  -0.000844  -0.000373   0.000053
   84  O 14  S    0.100622  -0.000179   0.001048   0.000562   0.000016
   85  O 14  X   -0.001903   0.000004  -0.000008  -0.000079   0.000283
   86  O 14  Y   -0.001934   0.000243  -0.000131  -0.000020   0.000098
   87  O 14  Z    0.002412   0.000005   0.000585   0.000170   0.000068
   88  O 14  S   -0.051127   0.000413  -0.003662  -0.002493  -0.000775
   89  O 14  X    0.005568   0.000309   0.001552   0.000849  -0.001548
   90  O 14  Y    0.005774  -0.001284   0.000135   0.000555   0.000126
   91  O 14  Z   -0.006553   0.000083  -0.003441  -0.000968  -0.000315
   92  C 15  S    0.000178  -0.000090   0.000059  -0.000045   0.000086
   93  C 15  S    0.000753  -0.000505   0.000376  -0.000203   0.000717
   94  C 15  X    0.000487  -0.000046  -0.000019  -0.000212  -0.000157
   95  C 15  Y   -0.000074   0.000003   0.000048  -0.000080  -0.000045
   96  C 15  Z   -0.000376   0.000058   0.000041  -0.000054  -0.000269
   97  C 15  S   -0.005452   0.003071  -0.002198   0.002686  -0.002297
   98  C 15  X    0.002969  -0.001732   0.000957  -0.000398   0.001154
   99  C 15  Y   -0.002327   0.000243  -0.000523   0.000763  -0.000599
  100  C 15  Z    0.002212  -0.000113  -0.000795   0.001300   0.002304
  101  O 16  S    0.000093   0.000117  -0.000190   0.001001   0.001191
  102  O 16  S    0.000066   0.000062  -0.000101   0.000275   0.000259
  103  O 16  X   -0.000184  -0.000030  -0.000033   0.000053  -0.000058
  104  O 16  Y   -0.000116   0.000016   0.000003  -0.000029  -0.000067
  105  O 16  Z    0.000117   0.000002   0.000036  -0.000047   0.000047
  106  O 16  S    0.000168  -0.000182   0.000441  -0.000895  -0.000532
  107  O 16  X    0.000369   0.000212  -0.000014   0.000012   0.000263
  108  O 16  Y    0.000401  -0.000035  -0.000113   0.000303   0.000367
  109  O 16  Z   -0.000594   0.000032  -0.000191   0.000300  -0.000214
  110  O 17  S    0.001145   0.008126   0.983531  -0.000641  -0.000674
  111  O 17  S    0.001302   0.000979   0.098550   0.000099   0.000105
  112  O 17  X    0.000445  -0.000254  -0.002096   0.000128   0.000027
  113  O 17  Y   -0.000195  -0.000229  -0.001163  -0.000013   0.000027
  114  O 17  Z   -0.000167   0.000115  -0.003188  -0.000022  -0.000016
  115  O 17  S   -0.004228   0.000159  -0.047451  -0.000729  -0.000752
  116  O 17  X   -0.002469   0.001030   0.003777  -0.000531  -0.000114
  117  O 17  Y    0.001108   0.000658   0.002817   0.000316   0.000003
  118  O 17  Z    0.002414  -0.001332   0.010034   0.000345   0.000273
  119  H 18  S   -0.000232   0.002933   0.000474  -0.000292  -0.000237
  120  H 18  S    0.000510   0.004760  -0.000642  -0.000364   0.000413
  121  H 19  S    0.000098  -0.000258   0.000211   0.003090  -0.000515
  122  H 19  S   -0.000615   0.000665  -0.000456   0.004663  -0.000453
  123  H 20  S    0.000220   0.000065   0.000021  -0.000496   0.003162
  124  H 20  S   -0.000111  -0.000021  -0.000071   0.001369   0.005030
  125  H 21  S   -0.000181  -0.000161   0.000072   0.000020  -0.000402
  126  H 21  S   -0.000226   0.000200  -0.000147  -0.000213   0.000456
  127  H 22  S    0.000671  -0.000219   0.000150   0.000036   0.000453
  128  H 22  S    0.001573  -0.000354  -0.000262   0.000125   0.001325
  129  H 23  S   -0.000168  -0.000048  -0.000078   0.000156  -0.000011
  130  H 23  S   -0.000343   0.000124  -0.000037  -0.000065  -0.000197
  131  H 24  S   -0.000257  -0.000674   0.002952  -0.000321   0.000008
  132  H 24  S   -0.000003   0.002925   0.005747   0.000340  -0.000057

                      6          7          8          9         10
                  -20.5940   -11.5282   -11.4578   -11.4572   -11.4331
                     A          A          A          A          A   
    1  H  1  S    0.000054  -0.000366  -0.001122   0.000457  -0.000146
    2  H  1  S   -0.000161   0.011193   0.002194   0.003235  -0.001300
    3  C  2  S    0.000082   0.988022   0.003480   0.003358  -0.000220
    4  C  2  S    0.000414   0.102943  -0.004690  -0.002743   0.000940
    5  C  2  X   -0.000087   0.001227  -0.000898  -0.000539  -0.000005
    6  C  2  Y   -0.000044  -0.002244  -0.000188   0.001323  -0.000122
    7  C  2  Z    0.000052   0.000010  -0.000665  -0.000489   0.000518
    8  C  2  S   -0.002200  -0.081615   0.032642   0.008018  -0.004012
    9  C  2  X    0.000029   0.004525  -0.006126   0.005386  -0.000948
   10  C  2  Y    0.001029   0.015018  -0.016399  -0.007219   0.003356
   11  C  2  Z   -0.000249   0.000564   0.000382   0.004238  -0.001896
   12  C  3  S   -0.000037  -0.004533   0.980378  -0.125234   0.011689
   13  C  3  S   -0.000202  -0.004922   0.106140  -0.011948  -0.001323
   14  C  3  X    0.000033   0.000129   0.000999  -0.000338  -0.000880
   15  C  3  Y    0.000010   0.000497   0.000178  -0.000587   0.000803
   16  C  3  Z   -0.000110  -0.000166   0.001356  -0.000130   0.000261
   17  C  3  S    0.001167   0.030579  -0.100768   0.003534   0.006036
   18  C  3  X    0.000473   0.011305  -0.013103  -0.002353   0.003456
   19  C  3  Y    0.000707   0.011154   0.003062   0.000971  -0.001835
   20  C  3  Z    0.001262   0.007099  -0.012621  -0.002075  -0.001213
   21  H  4  S    0.000079  -0.001626   0.000589   0.000222  -0.000560
   22  H  4  S    0.000461   0.002160   0.011752  -0.002505  -0.001757
   23  O  5  S   -0.000103   0.000042  -0.000312   0.000016  -0.000053
   24  O  5  S    0.000046   0.000012  -0.001277  -0.000010  -0.000549
   25  O  5  X    0.000019  -0.000160   0.000279  -0.000130  -0.000265
   26  O  5  Y    0.000036  -0.000133  -0.000016  -0.000028   0.000250
   27  O  5  Z    0.000014   0.000229  -0.000535  -0.000042  -0.000008
   28  O  5  S   -0.000285  -0.001536   0.011421  -0.000694   0.001694
   29  O  5  X   -0.000209  -0.001332   0.005746   0.000118   0.001306
   30  O  5  Y   -0.000156  -0.000157  -0.000605   0.000076  -0.001007
   31  O  5  Z   -0.000038  -0.000601  -0.000946   0.000511  -0.000062
   32  C  6  S   -0.000043  -0.002203  -0.004343  -0.002881  -0.009590
   33  C  6  S   -0.000258  -0.001940  -0.003635  -0.000851  -0.003969
   34  C  6  X    0.000144   0.000349  -0.000470  -0.000774   0.000465
   35  C  6  Y    0.000094  -0.001204   0.000581   0.000063  -0.000018
   36  C  6  Z    0.000145   0.000094  -0.000148   0.000069  -0.000234
   37  C  6  S    0.002311   0.003378   0.027481  -0.000911   0.026938
   38  C  6  X    0.000538   0.003272  -0.009246  -0.001417   0.017584
   39  C  6  Y   -0.001426  -0.000329   0.016503  -0.000386  -0.003029
   40  C  6  Z   -0.001733  -0.000024  -0.002543   0.000484  -0.002424
   41  H  7  S    0.000165  -0.000238  -0.001950   0.000157  -0.001942
   42  H  7  S    0.000305  -0.001026   0.000031  -0.001126  -0.000201
   43  O  8  S   -0.000931  -0.000025   0.000030  -0.000020   0.000053
   44  O  8  S    0.000089  -0.000291  -0.000008  -0.000215   0.000157
   45  O  8  X   -0.000035   0.000009  -0.000179  -0.000322  -0.000333
   46  O  8  Y    0.000023  -0.000280  -0.000151   0.000033  -0.000282
   47  O  8  Z    0.000014   0.000037  -0.000002   0.000111   0.000093
   48  O  8  S   -0.000922   0.000531  -0.000725   0.000468  -0.001749
   49  O  8  X   -0.000103  -0.000137   0.000983   0.001388  -0.000206
   50  O  8  Y   -0.000370   0.001113  -0.001115  -0.000058   0.000443
   51  O  8  Z   -0.000112  -0.000117   0.000028  -0.000469  -0.000486
   52  C  9  S   -0.000101   0.000749  -0.013364  -0.007725   0.988197
   53  C  9  S   -0.000667   0.001422  -0.004471  -0.004478   0.106376
   54  C  9  X   -0.000593  -0.000214   0.001085   0.000387  -0.000354
   55  C  9  Y   -0.000110  -0.000465  -0.000693   0.000289   0.001304
   56  C  9  Z    0.000105   0.000116   0.000034  -0.000053   0.000973
   57  C  9  S    0.001299  -0.009167   0.012251   0.030573  -0.099925
   58  C  9  X    0.004802   0.002772  -0.001874   0.008953   0.005195
   59  C  9  Y    0.000482  -0.003072   0.006028   0.014030  -0.011833
   60  C  9  Z   -0.000140  -0.004350   0.001037   0.005399  -0.010073
   61  H 10  S   -0.000367   0.000296  -0.001031  -0.001943   0.001016
   62  H 10  S    0.000180  -0.001387  -0.000671   0.001270   0.013323
   63  O 11  S   -0.001164  -0.000031  -0.000041   0.000051  -0.000265
   64  O 11  S    0.000082  -0.000280  -0.000511   0.000101  -0.001070
   65  O 11  X   -0.000001  -0.000006   0.000199  -0.000081  -0.000346
   66  O 11  Y    0.000008  -0.000194  -0.000301  -0.000480   0.000228
   67  O 11  Z   -0.000064  -0.000153   0.000011  -0.000038  -0.000482
   68  O 11  S   -0.000947   0.000873   0.001191  -0.001706   0.010415
   69  O 11  X   -0.000122  -0.000203  -0.000737   0.000265  -0.001196
   70  O 11  Y   -0.000473   0.001121   0.001057   0.000078   0.004877
   71  O 11  Z    0.000396   0.000668  -0.000191   0.000121   0.000193
   72  C 12  S    0.000276  -0.004755   0.125597   0.980366   0.008035
   73  C 12  S    0.001218  -0.003557   0.014652   0.105770  -0.002852
   74  C 12  X   -0.000325   0.002061  -0.000626  -0.001306  -0.000259
   75  C 12  Y   -0.000232  -0.000995   0.000256   0.000568  -0.000513
   76  C 12  Z    0.000073  -0.000600   0.000295  -0.000973  -0.000094
   77  C 12  S   -0.009555   0.007402  -0.016759  -0.098772   0.028317
   78  C 12  X   -0.004864  -0.014549   0.006454   0.001062  -0.011729
   79  C 12  Y    0.001067   0.003234   0.001212   0.007899  -0.012823
   80  C 12  Z    0.000250   0.003667  -0.000140   0.007736  -0.003442
   81  H 13  S    0.000483  -0.001745   0.000930   0.001178  -0.002123
   82  H 13  S    0.000905  -0.001497   0.002116   0.014220   0.000830
   83  O 14  S   -0.000105  -0.000138   0.000008  -0.000195  -0.000028
   84  O 14  S    0.000025  -0.000204  -0.000118  -0.000312  -0.000634
   85  O 14  X    0.000278  -0.000609   0.000274  -0.000141   0.000019
   86  O 14  Y   -0.000042   0.000061  -0.000021  -0.000584   0.000422
   87  O 14  Z   -0.000050   0.000463   0.000169   0.000752  -0.000080
   88  O 14  S    0.000316   0.006792  -0.000213   0.007835   0.000694
   89  O 14  X   -0.000719  -0.003480   0.001822   0.004701  -0.000405
   90  O 14  Y   -0.000040   0.001419  -0.000738  -0.004200   0.000157
   91  O 14  Z    0.000253  -0.000616  -0.000662  -0.001377   0.000400
   92  C 15  S   -0.000841  -0.000599   0.000223  -0.002378  -0.004102
   93  C 15  S   -0.003330  -0.001007   0.000057  -0.003196  -0.001418
   94  C 15  X    0.001134  -0.000276   0.000013  -0.000483   0.000815
   95  C 15  Y    0.000865   0.000248   0.000017  -0.000244   0.000128
   96  C 15  Z    0.000594  -0.000160  -0.000028   0.000012   0.000112
   97  C 15  S    0.020393   0.008636  -0.000352   0.024824   0.001301
   98  C 15  X    0.002094  -0.003340  -0.000541  -0.013817  -0.001135
   99  C 15  Y    0.006784  -0.001290  -0.000309   0.001041   0.001315
  100  C 15  Z    0.007344   0.003030  -0.000368   0.004010  -0.001172
  101  O 16  S    0.983458   0.000020  -0.000004   0.000071  -0.000030
  102  O 16  S    0.097513   0.000147  -0.000053   0.000333  -0.000351
  103  O 16  X    0.000499   0.000024   0.000010   0.000313   0.000356
  104  O 16  Y   -0.002380  -0.000062   0.000010   0.000095   0.000022
  105  O 16  Z   -0.002897   0.000051   0.000038   0.000061  -0.000063
  106  O 16  S   -0.043673  -0.000738   0.000219  -0.002277   0.000809
  107  O 16  X    0.000958   0.000121   0.000019   0.000315  -0.001450
  108  O 16  Y    0.006389   0.000495  -0.000097   0.000253  -0.000258
  109  O 16  Z    0.006856  -0.000112  -0.000190   0.000132   0.000306
  110  O 17  S    0.000165  -0.000266   0.000118   0.000133  -0.000037
  111  O 17  S   -0.000071  -0.001131   0.000543   0.001109  -0.000210
  112  O 17  X    0.000004  -0.000284   0.000299   0.000174   0.000049
  113  O 17  Y    0.000003   0.000015   0.000261  -0.000186  -0.000138
  114  O 17  Z    0.000018  -0.000387   0.000398  -0.000139   0.000046
  115  O 17  S    0.000446   0.010877  -0.004928  -0.004411   0.001458
  116  O 17  X    0.000002   0.001280  -0.000699  -0.001244   0.000020
  117  O 17  Y   -0.000075  -0.001363   0.000320   0.001328   0.000058
  118  O 17  Z   -0.000274  -0.004648   0.001291   0.002101  -0.000884
  119  H 18  S    0.000025  -0.000411  -0.000294   0.000103   0.000119
  120  H 18  S   -0.000034  -0.000033   0.002130  -0.000287   0.000870
  121  H 19  S    0.000098  -0.000487  -0.000054   0.000437   0.000240
  122  H 19  S   -0.000037   0.001261   0.000292   0.000015   0.001464
  123  H 20  S    0.000061   0.000039  -0.000420   0.000401  -0.000114
  124  H 20  S   -0.000052   0.000255   0.001868   0.001261   0.002061
  125  H 21  S   -0.001125  -0.000577  -0.000141  -0.001238  -0.000342
  126  H 21  S   -0.001088  -0.000889   0.000340   0.000421   0.001541
  127  H 22  S   -0.001103  -0.000089  -0.000067  -0.001708  -0.000092
  128  H 22  S   -0.000586   0.000733   0.000016   0.000801  -0.001768
  129  H 23  S    0.003053   0.000029  -0.000055   0.000182   0.000313
  130  H 23  S    0.004993   0.000234   0.000095   0.001153   0.000432
  131  H 24  S   -0.000058  -0.000353  -0.000363   0.000172   0.000072
  132  H 24  S    0.000062   0.003270   0.002003  -0.000717   0.000292

                     11         12         13         14         15
                  -11.4187   -11.3923    -1.7836    -1.5836    -1.5471
                     A          A          A          A          A   
    1  H  1  S   -0.000062  -0.000032   0.015404   0.016002   0.011640
    2  H  1  S    0.003148   0.000827  -0.009122  -0.009319  -0.003219
    3  C  2  S    0.001751   0.000208  -0.060239  -0.056806  -0.039634
    4  C  2  S   -0.002182  -0.001244   0.073176   0.063256   0.041434
    5  C  2  X    0.000640   0.000121   0.057109  -0.029459   0.000393
    6  C  2  Y    0.001517   0.000257  -0.017715  -0.010774   0.012261
    7  C  2  Z   -0.000369  -0.000169  -0.012816   0.060247   0.063673
    8  C  2  S    0.005672   0.005760   0.044693   0.092344   0.081151
    9  C  2  X   -0.001600   0.000817  -0.032196  -0.007421   0.006215
   10  C  2  Y   -0.005469  -0.003492   0.013406   0.000968  -0.010603
   11  C  2  Z    0.003108   0.000799  -0.007498  -0.003877  -0.009896
   12  C  3  S    0.003104  -0.000225  -0.012478  -0.063360   0.043001
   13  C  3  S   -0.002352   0.000757   0.010711   0.065404  -0.045973
   14  C  3  X    0.000325  -0.000179   0.012057  -0.025701   0.041341
   15  C  3  Y   -0.000604   0.000035   0.008857   0.012501   0.013754
   16  C  3  Z    0.000100   0.000025   0.003122   0.033794  -0.015917
   17  C  3  S    0.023412  -0.005672   0.030463   0.113784  -0.081007
   18  C  3  X    0.005331  -0.001935   0.011663   0.004997  -0.009918
   19  C  3  Y   -0.015727   0.000056  -0.014685   0.001386  -0.005489
   20  C  3  Z    0.002306  -0.001941   0.001670   0.013088   0.018190
   21  H  4  S   -0.001858   0.000122   0.002085   0.018708  -0.012939
   22  H  4  S    0.000469  -0.000350  -0.000884  -0.004884   0.006509
   23  O  5  S    0.000043  -0.000027  -0.003863  -0.141368   0.138360
   24  O  5  S    0.000072  -0.000230   0.003877   0.131975  -0.129525
   25  O  5  X   -0.000399  -0.000096   0.002370   0.021467  -0.010013
   26  O  5  Y    0.000202   0.000047   0.000976   0.023730  -0.019584
   27  O  5  Z   -0.000100  -0.000045  -0.000708  -0.031616   0.034473
   28  O  5  S   -0.001425   0.000840   0.011177   0.436478  -0.438758
   29  O  5  X    0.000463   0.000736  -0.000769   0.031264  -0.022351
   30  O  5  Y    0.000136  -0.000218   0.001007   0.032169  -0.022315
   31  O  5  Z    0.000683   0.000115  -0.001904  -0.039563   0.048180
   32  C  6  S    0.988311   0.004303  -0.005324  -0.026264   0.040861
   33  C  6  S    0.106658  -0.001138   0.004917   0.026619  -0.042261
   34  C  6  X    0.000729  -0.000237   0.001138  -0.012415   0.014335
   35  C  6  Y    0.001340  -0.000073   0.002238   0.008129   0.012597
   36  C  6  Z   -0.000768   0.000046  -0.002738  -0.003948   0.013273
   37  C  6  S   -0.099360   0.008082  -0.005536   0.043490  -0.070836
   38  C  6  X   -0.008690   0.003260   0.012032   0.001891   0.009706
   39  C  6  Y   -0.010519   0.001912   0.004718   0.005220  -0.010643
   40  C  6  Z    0.007797  -0.001285   0.017123  -0.000689  -0.013590
   41  H  7  S    0.001279  -0.000592   0.000072   0.010190  -0.010585
   42  H  7  S    0.014629   0.000253  -0.006500   0.001817   0.012123
   43  O  8  S   -0.000232   0.000002  -0.001545  -0.029716   0.076558
   44  O  8  S   -0.000728  -0.000021  -0.000140   0.027866  -0.071225
   45  O  8  X    0.000212  -0.000065   0.000092  -0.001505   0.003836
   46  O  8  Y    0.000445   0.000007   0.000370   0.011019  -0.022953
   47  O  8  Z    0.000477  -0.000019   0.000219   0.005537  -0.013870
   48  O  8  S    0.009014   0.000039   0.011689   0.089149  -0.236575
   49  O  8  X    0.002541   0.000126   0.002157  -0.001275   0.000983
   50  O  8  Y    0.003322  -0.000139   0.004756   0.013004  -0.030288
   51  O  8  Z   -0.000449   0.000117   0.000559   0.007410  -0.016827
   52  C  9  S    0.008479   0.003998  -0.009957  -0.004654   0.028375
   53  C  9  S   -0.002160  -0.000737   0.011262   0.007292  -0.029215
   54  C  9  X   -0.000384  -0.001228   0.003380  -0.007260   0.003092
   55  C  9  Y    0.000210  -0.000388   0.012183  -0.002059   0.009353
   56  C  9  Z    0.000228   0.000323   0.002892   0.001737  -0.008665
   57  C  9  S    0.027051  -0.000307   0.013019   0.000863  -0.058455
   58  C  9  X   -0.016799   0.005670  -0.011812   0.005611   0.009996
   59  C  9  Y    0.002021   0.000192   0.008327  -0.009907   0.001386
   60  C  9  Z    0.003321  -0.001516  -0.011870   0.003165   0.000367
   61  H 10  S   -0.001894  -0.000382   0.001688   0.002729  -0.009033
   62  H 10  S    0.000325  -0.000921  -0.004734   0.000148   0.004722
   63  O 11  S    0.000030   0.000054  -0.002199  -0.006143   0.046805
   64  O 11  S   -0.000015   0.000530   0.001662   0.006567  -0.044245
   65  O 11  X    0.000106   0.000302  -0.000261  -0.002803   0.015525
   66  O 11  Y   -0.000250   0.000178   0.001584   0.000976  -0.006363
   67  O 11  Z    0.000003  -0.000049  -0.000093  -0.000934   0.006440
   68  O 11  S   -0.000929  -0.001620   0.009977   0.014460  -0.141519
   69  O 11  X    0.001110  -0.001407  -0.002732  -0.002236   0.018838
   70  O 11  Y    0.000194  -0.001194   0.000250  -0.000474  -0.007521
   71  O 11  Z   -0.000029   0.000458  -0.001829  -0.000090   0.008140
   72  C 12  S    0.003309   0.001532  -0.046140   0.010410   0.014039
   73  C 12  S   -0.000655  -0.002095   0.053259  -0.011498  -0.014527
   74  C 12  X    0.001095  -0.000393  -0.024943   0.001082   0.006330
   75  C 12  Y    0.000678   0.000128   0.039710  -0.011854   0.000686
   76  C 12  Z   -0.000537   0.000219  -0.018266   0.006851   0.006098
   77  C 12  S   -0.000787   0.022111   0.045506  -0.013700  -0.032905
   78  C 12  X   -0.005309   0.016164   0.014332  -0.001151  -0.011588
   79  C 12  Y   -0.000575  -0.000033  -0.027596   0.003262   0.003704
   80  C 12  Z    0.003663  -0.005569   0.008865  -0.005201   0.002831
   81  H 13  S   -0.000463  -0.001183   0.013495  -0.001541  -0.003673
   82  H 13  S   -0.002408   0.001537  -0.003886   0.006668   0.005289
   83  O 14  S    0.000082   0.000068  -0.231863   0.042316   0.019326
   84  O 14  S    0.000757   0.000243   0.226324  -0.042665  -0.018857
   85  O 14  X   -0.000194  -0.000590  -0.040979  -0.012741  -0.010599
   86  O 14  Y   -0.000330   0.000176  -0.035920   0.011275   0.013957
   87  O 14  Z    0.000091   0.000094   0.044052   0.002138   0.007854
   88  O 14  S   -0.002064  -0.002316   0.751897  -0.147534  -0.075090
   89  O 14  X    0.001468   0.001343  -0.065518  -0.003755  -0.001163
   90  O 14  Y    0.001766   0.000042  -0.061706   0.016373   0.012064
   91  O 14  Z   -0.000981  -0.000559   0.072720   0.002052   0.006807
   92  C 15  S   -0.004810   0.987708  -0.007365   0.003752   0.005061
   93  C 15  S   -0.001930   0.102071   0.006345  -0.003149  -0.006859
   94  C 15  X    0.000245  -0.001119  -0.008160   0.002684   0.002755
   95  C 15  Y    0.000203  -0.000275   0.002420  -0.001848  -0.001160
   96  C 15  Z    0.000065  -0.000023   0.002534  -0.000926  -0.001524
   97  C 15  S    0.006839  -0.082209   0.008405  -0.009276   0.002240
   98  C 15  X   -0.004384   0.011829  -0.003382   0.002906  -0.003751
   99  C 15  Y   -0.000906   0.002580   0.016332  -0.002355   0.000209
  100  C 15  Z    0.000052  -0.001250  -0.010608   0.001499   0.003727
  101  O 16  S   -0.000008  -0.000178  -0.002810   0.003304   0.005498
  102  O 16  S   -0.000111  -0.000390   0.003007  -0.003179  -0.004935
  103  O 16  X    0.000053  -0.000158  -0.001389   0.000528   0.000414
  104  O 16  Y    0.000038  -0.000479  -0.000561   0.000754   0.001282
  105  O 16  Z    0.000030  -0.000497  -0.001380   0.001049   0.001502
  106  O 16  S    0.000341   0.007297   0.005673  -0.009350  -0.017657
  107  O 16  X   -0.000075  -0.002613  -0.000483   0.000229   0.000436
  108  O 16  Y   -0.000166  -0.001358  -0.001676   0.000948   0.001990
  109  O 16  Z   -0.000161  -0.000569   0.001465   0.000830   0.002077
  110  O 17  S    0.000092   0.000038  -0.026356  -0.152531  -0.149830
  111  O 17  S    0.000747   0.000276   0.021585   0.141715   0.139221
  112  O 17  X    0.000049   0.000028  -0.000316  -0.038025  -0.030990
  113  O 17  Y   -0.000114  -0.000031  -0.003987  -0.020381  -0.015642
  114  O 17  Z   -0.000184  -0.000033  -0.015244  -0.041826  -0.036183
  115  O 17  S   -0.002880  -0.001360   0.084761   0.477322   0.477756
  116  O 17  X   -0.000212  -0.000192   0.006269  -0.046450  -0.040447
  117  O 17  Y    0.001031   0.000355  -0.008718  -0.026076  -0.019549
  118  O 17  Z    0.001849   0.000732  -0.021213  -0.059023  -0.054467
  119  H 18  S    0.000345   0.000079   0.001509   0.057847  -0.061528
  120  H 18  S    0.001162   0.000080  -0.001288   0.007686  -0.007911
  121  H 19  S   -0.000159   0.000038   0.000051   0.012752  -0.032566
  122  H 19  S    0.001764   0.000333   0.001748   0.003143  -0.006436
  123  H 20  S   -0.000153  -0.000290  -0.000174   0.003515  -0.020654
  124  H 20  S    0.000807  -0.000162  -0.000289  -0.000794  -0.002737
  125  H 21  S   -0.000690   0.000592   0.003081  -0.000717  -0.002308
  126  H 21  S    0.000412   0.015069   0.004253  -0.000330  -0.000954
  127  H 22  S   -0.000512   0.000569   0.000444  -0.001080  -0.002140
  128  H 22  S   -0.000426   0.014764  -0.004742   0.001228   0.000788
  129  H 23  S   -0.000079  -0.000177   0.000946  -0.001161  -0.002029
  130  H 23  S    0.000525   0.001836  -0.000454  -0.000192   0.000214
  131  H 24  S    0.000352   0.000081   0.008052   0.070251   0.057743
  132  H 24  S   -0.001639  -0.000145  -0.003445   0.003222   0.001778

                     16         17         18         19         20
                   -1.5298    -1.4995    -1.4827    -1.2879    -1.2704
                     A          A          A          A          A   
    1  H  1  S    0.000733   0.000769  -0.001950  -0.020660   0.058561
    2  H  1  S   -0.006505  -0.003599  -0.001054  -0.010344   0.003449
    3  C  2  S   -0.007112  -0.002650   0.004227   0.023845  -0.106759
    4  C  2  S    0.009138   0.004369  -0.003505  -0.014578   0.108727
    5  C  2  X   -0.001628   0.004477  -0.005784  -0.049199  -0.018693
    6  C  2  Y    0.000854  -0.000814   0.000877  -0.042070  -0.049136
    7  C  2  Z    0.022580   0.000405   0.006732   0.016448  -0.071035
    8  C  2  S    0.020439   0.004213  -0.009821  -0.097217   0.270219
    9  C  2  X    0.004152  -0.001804  -0.001634  -0.003980  -0.005916
   10  C  2  Y    0.002341   0.004731   0.002783   0.011136  -0.039827
   11  C  2  Z   -0.010868  -0.003102  -0.000252   0.002464  -0.021742
   12  C  3  S    0.014783  -0.000913   0.000883  -0.050798  -0.120659
   13  C  3  S   -0.014883  -0.001682  -0.001617   0.048334   0.120345
   14  C  3  X    0.034870   0.013151  -0.000371   0.036029   0.079686
   15  C  3  Y   -0.016203  -0.015196  -0.001848  -0.034141   0.008204
   16  C  3  Z   -0.010763  -0.003409   0.000268   0.006217   0.001072
   17  C  3  S   -0.029613  -0.000960   0.000421   0.147237   0.305633
   18  C  3  X   -0.018364  -0.001636   0.000764   0.027895   0.037499
   19  C  3  Y   -0.008004  -0.009201  -0.001635   0.012146  -0.000700
   20  C  3  Z    0.008911  -0.009714  -0.000581   0.018793  -0.002900
   21  H  4  S   -0.002906  -0.000214  -0.000667   0.024054   0.061590
   22  H  4  S    0.002560  -0.003376  -0.000420   0.002216  -0.010112
   23  O  5  S    0.094077   0.039426   0.002591   0.024092   0.055290
   24  O  5  S   -0.086679  -0.037261  -0.002459  -0.020670  -0.049444
   25  O  5  X   -0.003532   0.000410   0.000116   0.021675   0.050673
   26  O  5  Y   -0.018654  -0.010899  -0.000856  -0.013155  -0.021330
   27  O  5  Z    0.021406   0.008004   0.000740   0.001797  -0.003295
   28  O  5  S   -0.306235  -0.125899  -0.008262  -0.093797  -0.208277
   29  O  5  X   -0.016962  -0.002936  -0.000165   0.006085   0.025198
   30  O  5  Y   -0.020705  -0.013176  -0.000193  -0.010031  -0.020736
   31  O  5  Z    0.032633   0.012085   0.000906   0.003593   0.005058
   32  C  6  S   -0.053243  -0.043258  -0.002219  -0.076272  -0.070123
   33  C  6  S    0.055394   0.045642   0.004613   0.078421   0.070373
   34  C  6  X   -0.000181  -0.045591  -0.005202   0.049818   0.006149
   35  C  6  Y   -0.040137  -0.040085  -0.003378   0.046215   0.066808
   36  C  6  Z   -0.016406  -0.016669  -0.001220  -0.011990  -0.013471
   37  C  6  S    0.091433   0.081002  -0.010018   0.169041   0.168505
   38  C  6  X    0.018520   0.007818  -0.005988   0.011436   0.025223
   39  C  6  Y    0.002276   0.023558   0.005357   0.025937   0.010124
   40  C  6  Z    0.005409   0.001171   0.004460  -0.006056  -0.007922
   41  H  7  S    0.016305   0.011659   0.001043   0.038786   0.033441
   42  H  7  S   -0.006208  -0.005522  -0.000441  -0.006089  -0.009893
   43  O  8  S   -0.120418  -0.164096  -0.014422   0.042748   0.040323
   44  O  8  S    0.111226   0.151610   0.012938  -0.038750  -0.036819
   45  O  8  X   -0.003253  -0.018726  -0.002277   0.025922   0.022496
   46  O  8  Y    0.030874   0.040525   0.003362   0.012139   0.014287
   47  O  8  Z    0.020987   0.027564   0.002346  -0.006228  -0.005736
   48  O  8  S    0.379049   0.525649   0.048688  -0.153252  -0.146012
   49  O  8  X   -0.000765  -0.015144  -0.001543   0.012472   0.013696
   50  O  8  Y    0.042686   0.062423   0.006530  -0.000699   0.000661
   51  O  8  Z    0.028930   0.040072   0.003739  -0.006345  -0.007059
   52  C  9  S   -0.068051   0.045964   0.006092  -0.101215  -0.011140
   53  C  9  S    0.070838  -0.049969  -0.005281   0.105093   0.009207
   54  C  9  X    0.005817  -0.035275   0.001519  -0.009723  -0.053395
   55  C  9  Y   -0.042653   0.042430   0.012316   0.093198  -0.006223
   56  C  9  Z    0.025462  -0.019980  -0.003729   0.011972   0.000920
   57  C  9  S    0.119737  -0.087539  -0.006855   0.226627   0.047108
   58  C  9  X   -0.012291  -0.002084  -0.015850  -0.014814   0.014517
   59  C  9  Y    0.015336  -0.023225  -0.002503   0.030569   0.021476
   60  C  9  Z   -0.013906   0.000769   0.004871   0.000255   0.012614
   61  H 10  S    0.018732  -0.013161  -0.000433   0.050939   0.006405
   62  H 10  S   -0.012161   0.006419   0.001255  -0.011602   0.003006
   63  O 11  S   -0.146623   0.149846   0.028787   0.067683   0.002526
   64  O 11  S    0.135694  -0.138132  -0.027028  -0.061648  -0.002025
   65  O 11  X   -0.045899   0.040296   0.008671   0.016596  -0.006369
   66  O 11  Y    0.015957  -0.012830  -0.000842   0.041842  -0.001588
   67  O 11  Z   -0.019308   0.018429   0.003592   0.001877   0.000826
   68  O 11  S    0.460477  -0.480306  -0.090518  -0.240463  -0.010632
   69  O 11  X   -0.059843   0.056714   0.013473   0.024776  -0.005139
   70  O 11  Y    0.028228  -0.023188  -0.002076   0.016672  -0.006072
   71  O 11  Z   -0.027393   0.029017   0.003976   0.005414  -0.000870
   72  C 12  S   -0.014992   0.017499  -0.020980  -0.130008   0.077954
   73  C 12  S    0.015368  -0.016455   0.018097   0.126584  -0.067832
   74  C 12  X   -0.007308  -0.000664   0.026480  -0.016250  -0.030633
   75  C 12  Y   -0.019703   0.013156   0.002630  -0.041830  -0.028135
   76  C 12  Z   -0.002253   0.004748  -0.002960  -0.023596   0.019289
   77  C 12  S    0.027952  -0.027418   0.055152   0.345059  -0.237030
   78  C 12  X    0.013285   0.001388   0.012653  -0.028302   0.028937
   79  C 12  Y   -0.010537   0.008148   0.011128  -0.011226   0.006467
   80  C 12  Z    0.008942  -0.015099   0.002610  -0.018253   0.008346
   81  H 13  S    0.005208  -0.004554   0.007309   0.061107  -0.031128
   82  H 13  S   -0.003785   0.007208  -0.002626  -0.013005   0.006584
   83  O 14  S    0.016846  -0.005704   0.010411   0.044811   0.023475
   84  O 14  S   -0.017309   0.005087  -0.009445  -0.042196  -0.023953
   85  O 14  X    0.000840  -0.005351   0.014983   0.065939  -0.155960
   86  O 14  Y   -0.003019   0.005910  -0.005982  -0.121294   0.057261
   87  O 14  Z    0.000684   0.000695   0.000861   0.000141  -0.019074
   88  O 14  S   -0.057751   0.020880  -0.042074  -0.189359  -0.089798
   89  O 14  X    0.005726  -0.008783   0.010911   0.053957  -0.125654
   90  O 14  Y   -0.002919   0.002170  -0.000952  -0.090260   0.047576
   91  O 14  Z    0.002195   0.002557  -0.001870  -0.004700  -0.020648
   92  C 15  S   -0.005919   0.014214  -0.078240  -0.048216   0.039016
   93  C 15  S    0.007856  -0.014605   0.084248   0.053389  -0.039313
   94  C 15  X   -0.002245   0.000333   0.036102  -0.061042   0.046663
   95  C 15  Y   -0.000908  -0.003401   0.048368  -0.012180   0.002080
   96  C 15  Z    0.002469  -0.006048   0.040032   0.002497  -0.001524
   97  C 15  S   -0.000592  -0.028182   0.136854   0.108015  -0.103715
   98  C 15  X    0.000005   0.007298  -0.001557   0.001560   0.016513
   99  C 15  Y   -0.000100  -0.001403  -0.010491  -0.016156   0.006645
  100  C 15  Z   -0.007144   0.003956  -0.008427   0.002971   0.000461
  101  O 16  S   -0.006301   0.025387  -0.217848   0.036118  -0.029732
  102  O 16  S    0.005457  -0.023623   0.202749  -0.032432   0.027282
  103  O 16  X   -0.000231  -0.000704   0.014564  -0.022949   0.021318
  104  O 16  Y   -0.001489   0.005256  -0.041133  -0.004147   0.003122
  105  O 16  Z   -0.001503   0.006296  -0.052775   0.003819  -0.002221
  106  O 16  S    0.021494  -0.079138   0.683328  -0.128848   0.105191
  107  O 16  X    0.000144  -0.001371   0.010007  -0.014155   0.016238
  108  O 16  Y   -0.003157   0.007759  -0.058726   0.005046  -0.003263
  109  O 16  Z   -0.002687   0.008536  -0.072689   0.009037  -0.006260
  110  O 17  S   -0.046655  -0.003011  -0.008044  -0.001014   0.056635
  111  O 17  S    0.042500   0.002455   0.007277  -0.000958  -0.050545
  112  O 17  X   -0.009147   0.000436  -0.002491  -0.006364   0.019941
  113  O 17  Y   -0.005061  -0.000167  -0.000895  -0.010344  -0.002823
  114  O 17  Z   -0.009973  -0.001053  -0.000404   0.006085  -0.035837
  115  O 17  S    0.154184   0.011583   0.027544   0.014613  -0.213794
  116  O 17  X   -0.011247   0.000632  -0.002787  -0.004962   0.016778
  117  O 17  Y   -0.007248  -0.000664  -0.001541  -0.011504   0.007209
  118  O 17  Z   -0.017506  -0.002096  -0.002400   0.000946  -0.006910
  119  H 18  S   -0.043162  -0.019638  -0.001584  -0.021402  -0.044707
  120  H 18  S   -0.009255  -0.003232  -0.000052  -0.010919  -0.022344
  121  H 19  S    0.049571   0.072855   0.006514  -0.030399  -0.026959
  122  H 19  S    0.004092   0.011694   0.000939  -0.015481  -0.016431
  123  H 20  S    0.063531  -0.061354  -0.012762  -0.047086   0.001647
  124  H 20  S    0.009734  -0.002254  -0.001212  -0.024655  -0.004663
  125  H 21  S    0.003561  -0.005539   0.022900   0.024241  -0.015587
  126  H 21  S    0.006087  -0.005911  -0.010956  -0.020523   0.007480
  127  H 22  S    0.001849  -0.004022   0.023925   0.025647  -0.020342
  128  H 22  S   -0.002963   0.003750  -0.008389  -0.001903   0.002671
  129  H 23  S    0.002171  -0.010486   0.095341  -0.025410   0.022295
  130  H 23  S    0.000198  -0.001797   0.015666  -0.012588   0.008510
  131  H 24  S    0.016424  -0.000198   0.003875   0.004505  -0.036083
  132  H 24  S   -0.000077  -0.001234   0.000785   0.000662  -0.029305

                     21         22         23         24         25
                   -1.1331    -1.0964    -1.0467    -1.0383    -0.9782
                     A          A          A          A          A   
    1  H  1  S    0.077019  -0.070867   0.016973   0.004005   0.057209
    2  H  1  S    0.010974  -0.025630   0.005293   0.000322   0.017705
    3  C  2  S   -0.096699   0.071598   0.007568  -0.034132  -0.000256
    4  C  2  S    0.096224  -0.062197  -0.004717   0.037040   0.002907
    5  C  2  X   -0.050196  -0.079772   0.069615   0.030381  -0.092288
    6  C  2  Y    0.004028  -0.079490   0.083183  -0.006995   0.094094
    7  C  2  Z   -0.043572   0.025685   0.018641   0.071849  -0.002894
    8  C  2  S    0.304682  -0.279750  -0.025989   0.106825   0.004512
    9  C  2  X   -0.048224   0.008612   0.044576   0.007963  -0.026819
   10  C  2  Y   -0.015852   0.015088   0.064381  -0.022864   0.102917
   11  C  2  Z   -0.029225   0.008950   0.012293   0.056372  -0.008392
   12  C  3  S   -0.040889  -0.109953   0.022510   0.002270  -0.056416
   13  C  3  S    0.037166   0.087550  -0.014769   0.002903   0.049647
   14  C  3  X    0.013949  -0.003649  -0.014961   0.004719  -0.053528
   15  C  3  Y    0.099226  -0.055308  -0.090154  -0.000197   0.035231
   16  C  3  Z   -0.017352  -0.001622   0.027558   0.036610  -0.103198
   17  C  3  S    0.137216   0.435265  -0.116626  -0.036367   0.243066
   18  C  3  X    0.008423   0.046694  -0.026893  -0.021360  -0.026765
   19  C  3  Y    0.001488  -0.009209  -0.015406  -0.002875   0.034663
   20  C  3  Z   -0.013747   0.036530   0.011391   0.015388  -0.059437
   21  H  4  S    0.028930   0.067623  -0.022960  -0.018854   0.098277
   22  H  4  S   -0.000767   0.016244  -0.009374  -0.016953   0.041743
   23  O  5  S    0.017483   0.036677  -0.007908  -0.000531   0.022129
   24  O  5  S   -0.016172  -0.031890   0.008090   0.001724  -0.020500
   25  O  5  X    0.023758   0.093874  -0.005482   0.009110   0.036763
   26  O  5  Y    0.010420  -0.050855  -0.024616  -0.007715   0.007513
   27  O  5  Z   -0.011715  -0.011758   0.008790   0.000373  -0.055497
   28  O  5  S   -0.069169  -0.159554   0.031437  -0.001886  -0.098415
   29  O  5  X    0.017394   0.068718  -0.004395   0.005557   0.029992
   30  O  5  Y    0.008402  -0.046538  -0.022628  -0.008381   0.008388
   31  O  5  Z   -0.007379  -0.005423   0.007993   0.001613  -0.048818
   32  C  6  S    0.092103  -0.025383  -0.093420  -0.007392   0.054043
   33  C  6  S   -0.079108   0.022081   0.081119   0.003017  -0.044035
   34  C  6  X   -0.055672  -0.095659   0.006680  -0.010229   0.015236
   35  C  6  Y    0.002492   0.074594  -0.006208   0.014592  -0.012264
   36  C  6  Z   -0.001157   0.007264   0.024222   0.037129  -0.095368
   37  C  6  S   -0.309721   0.087849   0.344229   0.067982  -0.231312
   38  C  6  X   -0.026255   0.011856   0.010712   0.013107  -0.011103
   39  C  6  Y   -0.039930   0.000974   0.038372   0.014918  -0.034603
   40  C  6  Z    0.003856  -0.005058   0.006068   0.013709  -0.074101
   41  H  7  S   -0.052960   0.018509   0.068225   0.023094  -0.084449
   42  H  7  S   -0.000470   0.006733   0.011989   0.009490  -0.027822
   43  O  8  S   -0.036333   0.015489   0.033943   0.000119  -0.012242
   44  O  8  S    0.032807  -0.014939  -0.030685  -0.000135   0.012422
   45  O  8  X   -0.054852  -0.007112   0.068210  -0.011160  -0.013873
   46  O  8  Y   -0.028049   0.021262   0.045839  -0.002539  -0.011124
   47  O  8  Z   -0.001759   0.001913   0.011233   0.009888  -0.037268
   48  O  8  S    0.142456  -0.059914  -0.138570  -0.001380   0.049052
   49  O  8  X   -0.045369  -0.010883   0.058030  -0.011322  -0.015871
   50  O  8  Y   -0.014258   0.018725   0.031401  -0.003117  -0.010284
   51  O  8  Z    0.000453   0.001106   0.009212   0.009459  -0.033215
   52  C  9  S    0.056064   0.112272   0.002645   0.037509  -0.071779
[...]
   15 C             0.008614                     0.004318
   16 O             0.001210                     0.001118
   17 O             0.046868                     0.039052
   18 H            -0.001156                    -0.000846
   19 H            -0.000364                    -0.000294
   20 H             0.001558                     0.001518
   21 H            -0.003155                    -0.002597
   22 H            -0.001554                    -0.001227
   23 H            -0.000208                    -0.000160
   24 H            -0.003763                    -0.002992


          ********* ALL ELECTRONS ********

               ----- POPULATIONS IN EACH AO -----
                             MULLIKEN      LOWDIN
              1  H  1  S      0.47190     0.48156
              2  H  1  S      0.19844     0.39197
              3  C  2  S      1.98923     1.97543
              4  C  2  S      0.37363     0.43683
              5  C  2  X      0.39650     0.38923
              6  C  2  Y      0.61871     0.59616
              7  C  2  Z      0.49172     0.47224
              8  C  2  S      0.90885     0.56217
              9  C  2  X      0.17655     0.38612
             10  C  2  Y      0.49108     0.54914
             11  C  2  Z      0.23379     0.42778
             12  C  3  S      1.99037     1.97570
             13  C  3  S      0.34912     0.43035
             14  C  3  X      0.43907     0.43327
             15  C  3  Y      0.55462     0.54287
             16  C  3  Z      0.56129     0.53736
             17  C  3  S      1.05104     0.56347
             18  C  3  X      0.27797     0.44436
             19  C  3  Y      0.31019     0.50209
             20  C  3  Z      0.54000     0.55244
             21  H  4  S      0.46556     0.47541
             22  H  4  S      0.23420     0.40282
             23  O  5  S      1.98615     1.98057
             24  O  5  S      0.41789     0.57793
             25  O  5  X      0.58179     0.56875
             26  O  5  Y      0.75070     0.74930
             27  O  5  Z      0.73138     0.73059
             28  O  5  S      1.51883     1.05488
             29  O  5  X      0.74788     0.79147
             30  O  5  Y      0.94852     0.94440
             31  O  5  Z      0.94672     0.96292
             32  C  6  S      1.99020     1.97555
             33  C  6  S      0.35089     0.42662
             34  C  6  X      0.52894     0.52371
             35  C  6  Y      0.47462     0.46377
             36  C  6  Z      0.56935     0.54124
             37  C  6  S      1.00227     0.54665
             38  C  6  X      0.28205     0.46745
             39  C  6  Y      0.21561     0.44450
             40  C  6  Z      0.51314     0.56233
             41  H  7  S      0.46924     0.48422
             42  H  7  S      0.25638     0.41188
             43  O  8  S      1.98613     1.98042
             44  O  8  S      0.41537     0.57420
             45  O  8  X      0.59329     0.57481
             46  O  8  Y      0.66940     0.66769
             47  O  8  Z      0.81230     0.81867
             48  O  8  S      1.52284     1.04626
             49  O  8  X      0.75352     0.77251
             50  O  8  Y      0.88733     0.91932
             51  O  8  Z      1.01303     1.02212
             52  C  9  S      1.99005     1.97541
             53  C  9  S      0.35056     0.42108
             54  C  9  X      0.53926     0.52769
             55  C  9  Y      0.45979     0.45148
             56  C  9  Z      0.56644     0.53650
             57  C  9  S      1.00967     0.54762
             58  C  9  X      0.26230     0.47232
             59  C  9  Y      0.24241     0.43914
             60  C  9  Z      0.50218     0.55742
             61  H 10  S      0.46880     0.48350
             62  H 10  S      0.26787     0.41912
             63  O 11  S      1.98619     1.98046
             64  O 11  S      0.41632     0.57515
             65  O 11  X      0.70711     0.70304
             66  O 11  Y      0.54109     0.52257
             67  O 11  Z      0.82508     0.83217
             68  O 11  S      1.52642     1.04483
             69  O 11  X      0.92512     0.92876
             70  O 11  Y      0.69532     0.74731
             71  O 11  Z      1.01559     1.03031
             72  C 12  S      1.99078     1.97643
             73  C 12  S      0.36132     0.44511
             74  C 12  X      0.57562     0.57027
             75  C 12  Y      0.38325     0.37499
             76  C 12  Z      0.59443     0.57246
             77  C 12  S      1.09003     0.56473
             78  C 12  X      0.36395     0.49976
             79  C 12  Y      0.17272     0.38330
             80  C 12  Z      0.57904     0.56534
             81  H 13  S      0.44715     0.45597
             82  H 13  S      0.16152     0.36887
             83  O 14  S      1.98756     1.98211
             84  O 14  S      0.44399     0.60773
             85  O 14  X      0.65581     0.65213
             86  O 14  Y      0.65942     0.65821
             87  O 14  Z      0.69495     0.69567
             88  O 14  S      1.54251     1.01518
             89  O 14  X      0.75287     0.74904
             90  O 14  Y      0.73943     0.73252
             91  O 14  Z      0.76116     0.75521
             92  C 15  S      1.98850     1.97564
             93  C 15  S      0.36273     0.42086
             94  C 15  X      0.48439     0.47510
             95  C 15  Y      0.54211     0.51353
             96  C 15  Z      0.53748     0.50382
             97  C 15  S      1.01920     0.57061
             98  C 15  X      0.25321     0.45766
             99  C 15  Y      0.46309     0.52951
            100  C 15  Z      0.42424     0.53594
            101  O 16  S      1.98593     1.98044
            102  O 16  S      0.41635     0.57414
            103  O 16  X      0.58065     0.56154
            104  O 16  Y      0.74824     0.75224
            105  O 16  Z      0.74624     0.74899
            106  O 16  S      1.51271     1.05435
            107  O 16  X      0.73923     0.76215
            108  O 16  Y      0.95591     0.97338
            109  O 16  Z      0.96692     0.98089
            110  O 17  S      1.98628     1.98057
            111  O 17  S      0.41882     0.57785
            112  O 17  X      0.67689     0.66529
            113  O 17  Y      0.84966     0.85874
            114  O 17  Z      0.54573     0.53352
            115  O 17  S      1.52364     1.04540
            116  O 17  X      0.87232     0.87382
            117  O 17  Y      1.03558     1.03548
            118  O 17  Z      0.72183     0.78881
            119  H 18  S      0.39632     0.41297
            120  H 18  S      0.17455     0.29670
            121  H 19  S      0.39596     0.41243
            122  H 19  S      0.18077     0.30155
            123  H 20  S      0.38764     0.40336
            124  H 20  S      0.17218     0.30042
            125  H 21  S      0.46539     0.46853
            126  H 21  S      0.24818     0.40790
            127  H 22  S      0.47387     0.47809
            128  H 22  S      0.29705     0.43100
            129  H 23  S      0.40261     0.41884
            130  H 23  S      0.18621     0.30374
            131  H 24  S      0.37895     0.39270
            132  H 24  S      0.16775     0.30708

          ----- MULLIKEN ATOMIC OVERLAP POPULATIONS -----
          (OFF-DIAGONAL ELEMENTS NEED TO BE MULTIPLIED BY 2)

             1           2           3           4           5

    1    0.3985866
    2    0.3648918   5.2686342
    3   -0.0423253   0.0367219   5.7514776
    4   -0.0003515  -0.0443730   0.3528219   0.4424653
    5    0.0003964  -0.0392404   0.2121779  -0.0216316   8.2230982
    6    0.0028785  -0.0943869   0.0619307  -0.0352441  -0.0392572
    7    0.0000733   0.0016382  -0.0607634   0.0032990   0.0001297
    8   -0.0000070   0.0016926  -0.0385656   0.0013065  -0.0006642
    9   -0.0004565   0.0163669  -0.0928056  -0.0013089   0.0016645
   10   -0.0000452   0.0008105   0.0009230   0.0025074  -0.0000284
   11    0.0000003  -0.0000274   0.0020645  -0.0000132  -0.0000004
   12    0.0023346  -0.0793851   0.0084098   0.0011018  -0.0000051
   13    0.0000396  -0.0018950   0.0012206   0.0000096  -0.0000073
   14   -0.0284292   0.0710742  -0.0247773   0.0005038   0.0001685
   15   -0.0000348   0.0022708  -0.0003614  -0.0000128   0.0000002
   16    0.0000005  -0.0000334   0.0000004   0.0000000  -0.0000000
   17   -0.0291466   0.2299072  -0.0412767   0.0014069  -0.0070939
   18    0.0006705   0.0006894  -0.0408750  -0.0033968   0.2613581
   19   -0.0000008   0.0002699  -0.0032747  -0.0003739   0.0074627
   20    0.0000001  -0.0000504   0.0007378   0.0000075  -0.0000015
   21    0.0000004  -0.0000404  -0.0000105   0.0000004   0.0000000
   22   -0.0000071  -0.0001902   0.0000342   0.0000026  -0.0000000
   23   -0.0000000   0.0000034  -0.0000001  -0.0000000   0.0000000
   24    0.0012686  -0.0552931  -0.0098242   0.0010338   0.0313344

             6           7           8           9          10

    6    5.5168701
    7    0.3613537   0.4828568
    8    0.2416406  -0.0268411   8.2348451
    9    0.1354242  -0.0507609  -0.0432993   5.4596903
   10   -0.0598108   0.0038368   0.0017782   0.3663972   0.5083044
   11   -0.0350778   0.0017631  -0.0021397   0.2387962  -0.0285474
   12   -0.0823546  -0.0008903   0.0016186   0.0462925  -0.0617937
   13   -0.0056488   0.0033005   0.0000048  -0.0255408   0.0027191
   14    0.0032642  -0.0002760   0.0000005  -0.0247282   0.0005391
   15    0.0042135  -0.0000921  -0.0000104  -0.0615848  -0.0026289
   16   -0.0000147  -0.0000001   0.0000000   0.0013138  -0.0000079
   17   -0.0011363   0.0074702   0.0000016  -0.0011853  -0.0000112
   18    0.0043822  -0.0001359  -0.0000445  -0.0001438   0.0000031
   19   -0.0478329  -0.0023451   0.2666291   0.0061409  -0.0001830
   20   -0.0042947  -0.0001861   0.0152765  -0.0527517  -0.0003841
   21    0.0003283   0.0000056  -0.0000001   0.0032839   0.0000893
   22   -0.0001986  -0.0000018   0.0000002   0.0020166   0.0022065
   23    0.0000014   0.0000000  -0.0000000  -0.0001538   0.0000005
   24    0.0000360   0.0021919  -0.0000143  -0.0000037  -0.0000024

            11          12          13          14          15

   11    8.2258112
   12   -0.0377458   5.9371427
   13    0.0021257   0.3266514   0.3416773
   14    0.0001513   0.0412001  -0.0191473   8.2640479
   15   -0.0033173   0.1674480  -0.0278589  -0.0263163   5.1120500
   16    0.0000023  -0.0485958   0.0030197   0.0006780   0.2405411
   17    0.0000000   0.0008657   0.0066035  -0.0227512   0.0000466
   18    0.0000001   0.0000037   0.0000005  -0.0000013  -0.0000001
   19   -0.0000147  -0.0001858  -0.0000044  -0.0000003   0.0000012
   20    0.2648864   0.0054054  -0.0000333  -0.0000172  -0.0000430
   21    0.0094767  -0.0617722  -0.0015513   0.0013634   0.3597481
   22    0.0000510  -0.0611966   0.0032477  -0.0005314   0.3526851
   23    0.0000011   0.0060542  -0.0000265  -0.0000283  -0.0417806
   24   -0.0000006   0.0005434  -0.0002381   0.0017120   0.0000033

            16          17          18          19          20

   16    8.2451850
   17   -0.0000000   8.2325616
   18    0.0000000   0.0004075   0.3491259
   19   -0.0000000   0.0000015  -0.0002655   0.3511372
   20    0.0000001   0.0000002   0.0000002  -0.0004267   0.3317625
   21   -0.0265213   0.0000001  -0.0000000   0.0000000  -0.0000562
   22   -0.0292177  -0.0000008   0.0000000  -0.0000000  -0.0000061
   23    0.2658272   0.0000000  -0.0000000   0.0000000  -0.0000001
   24   -0.0000000   0.2540786  -0.0009122  -0.0000014  -0.0000000

            21          22          23          24

   21    0.4606093
   22   -0.0302167   0.5344917
   23   -0.0011728  -0.0022477   0.3623450
   24   -0.0000001   0.0000000   0.0000000   0.3207911

          TOTAL MULLIKEN AND LOWDIN ATOMIC POPULATIONS
       ATOM         MULL.POP.    CHARGE          LOW.POP.     CHARGE
    1 H             0.670337    0.329663         0.873531    0.126469
    2 C             5.680056    0.319944         5.795112    0.204888
    3 C             6.073660   -0.073660         5.981906    0.018094
    4 H             0.699761    0.300239         0.878223    0.121777
    5 O             8.629861   -0.629861         8.360815   -0.360815
    6 C             5.927066    0.072934         5.951828    0.048172
    7 H             0.725626    0.274374         0.896096    0.103904
    8 O             8.653208   -0.653208         8.375998   -0.375998
    9 C             5.922664    0.077336         5.928659    0.071341
   10 H             0.736672    0.263328         0.902628    0.097372
   11 O             8.638246   -0.638246         8.364596   -0.364596
   12 C             6.111147   -0.111147         5.952401    0.047599
   13 H             0.608668    0.391332         0.824840    0.175160
   14 O             8.237699   -0.237699         7.847782    0.152218
   15 C             6.074967   -0.074967         5.982657    0.017343
   16 O             8.652177   -0.652177         8.388109   -0.388109
   17 O             8.630749   -0.630749         8.359499   -0.359499
   18 H             0.570866    0.429134         0.709672    0.290328
   19 H             0.576733    0.423267         0.713988    0.286012
   20 H             0.559825    0.440175         0.703785    0.296215
   21 H             0.713564    0.286436         0.876425    0.123575
   22 H             0.770921    0.229079         0.909086    0.090914
   23 H             0.588823    0.411177         0.722584    0.277416
   24 H             0.546703    0.453297         0.699781    0.300219

          -------------------------------
          BOND ORDER AND VALENCE ANALYSIS     BOND ORDER THRESHOLD=0.050
          -------------------------------

                   BOND                       BOND                       BOND
  ATOM PAIR DIST  ORDER      ATOM PAIR DIST  ORDER      ATOM PAIR DIST  ORDER
    1   2  1.098  0.843        2   3  1.544  0.793        2  14  1.435  0.622
    2  17  1.442  0.959        3   4  1.094  0.855        3   5  1.481  0.902
    3   6  1.518  0.834        5  18  0.996  0.776        5  24  1.992  0.062
    6   7  1.097  0.857        6   8  1.458  0.918        6   9  1.520  0.862
    8  19  0.995  0.773        9  10  1.101  0.859        9  11  1.451  0.934
    9  12  1.529  0.804       11  20  0.999  0.746       12  13  1.092  0.797
   12  14  1.478  0.553       12  15  1.517  0.888       15  16  1.458  0.913
   15  21  1.099  0.848       15  22  1.100  0.875       16  23  0.995  0.790
   17  24  1.004  0.706

                       TOTAL       BONDED        FREE
      ATOM            VALENCE     VALENCE     VALENCE
    1 H                 0.854       0.854       0.000
    2 C                 3.233       3.227       0.006
    3 C                 3.418       3.414       0.004
    4 H                 0.869       0.869       0.000
    5 O                 1.819       1.819       0.000
    6 C                 3.445       3.445       0.000
    7 H                 0.887       0.887       0.000
    8 O                 1.779       1.779       0.000
    9 C                 3.452       3.449       0.003
   10 H                 0.879       0.879       0.000
   11 O                 1.773       1.772       0.000
   12 C                 3.032       3.027       0.005
   13 H                 0.824       0.823       0.001
   14 O                 2.117       1.295       0.822
   15 C                 3.501       3.501       0.000
   16 O                 1.754       1.754       0.000
   17 O                 1.784       1.782       0.002
   18 H                 0.793       0.793       0.000
   19 H                 0.803       0.803       0.000
   20 H                 0.795       0.795       0.000
   21 H                 0.880       0.880       0.000
   22 H                 0.896       0.896       0.000
   23 H                 0.808       0.808       0.000
   24 H                 0.789       0.789       0.000

          -----------------------------------------
          ATOMIC SPIN DENSITY AT THE NUCLEUS (A.U.)
          -----------------------------------------
                            SPIN DENS    ALPHA DENS     BETA DENS
    1  H            1.0     0.0027214       0.18518       0.18246
    2  C            6.0    -0.0483482      47.01800      47.06635
    3  C            6.0     0.0292508      47.10301      47.07376
    4  H            1.0    -0.0019174       0.18129       0.18321
    5  O            8.0     0.0000028     116.77506     116.77506
    6  C            6.0    -0.0068667      47.07287      47.07973
    7  H            1.0     0.0003932       0.18467       0.18427
    8  O            8.0     0.0022598     116.75701     116.75475
    9  C            6.0     0.0326752      47.07813      47.04545
   10  H            1.0    -0.0017487       0.18311       0.18486
   11  O            8.0     0.0054206     116.76853     116.76311
   12  C            6.0    -0.0296964      47.12438      47.15408
   13  H            1.0     0.0139283       0.18173       0.16780
   14  O            8.0     0.2776739     117.18869     116.91102
   15  C            6.0     0.0021908      46.99371      46.99152
   16  O            8.0     0.0000573     116.74245     116.74239
   17  O            8.0    -0.0122516     116.77743     116.78969
   18  H            1.0    -0.0003858       0.15981       0.16019
   19  H            1.0    -0.0001070       0.15993       0.16003
   20  H            1.0     0.0010411       0.15693       0.15589
   21  H            1.0    -0.0012046       0.18085       0.18206
   22  H            1.0    -0.0006704       0.18464       0.18531
   23  H            1.0    -0.0000514       0.16251       0.16256
   24  H            1.0    -0.0014263       0.15166       0.15309

          ---------------------
          ELECTROSTATIC MOMENTS
          ---------------------

 POINT   1           X           Y           Z (BOHR)    CHARGE
                 0.098746   -0.179223    0.289315        1.00 (A.U.)
         DX          DY          DZ         /D/  (DEBYE)
    -3.189408    2.515737   -3.530811    5.382183
 ...... END OF PROPERTY EVALUATION ......
 CPU     0: STEP CPU TIME=     0.07 TOTAL CPU TIME=          5.0 (      0.1 MIN)
 TOTAL WALL CLOCK TIME=         12.5 SECONDS, CPU UTILIZATION IS    40.05%
               580000  WORDS OF DYNAMIC MEMORY USED
 EXECUTION OF GAMESS TERMINATED NORMALLY Fri May 22 15:00:05 2020
 DDI: 263640 bytes (0.3 MB / 0 MWords) used by master data server.
Note: The following floating-point exceptions are signalling:Note: The following floating-point exceptions are signalling:Note: The following floating-point exceptions are signalling: IEEE_DENORMAL IEEE_DENORMAL
Note: The following floating-point exceptions are signalling: IEEE_DENORMALNote: The following floating-point exceptions are signalling: IEEE_DENORMAL IEEE_DENORMAL

 ----------------------------------------
 CPU timing information for all processes
 ========================================
 0: 4.868 + 0.157 = 5.25
 1: 4.732 + 0.24 = 4.756
 2: 4.621 + 0.48 = 4.670
 3: 5.132 + 0.44 = 5.176
 4: 4.805 + 0.44 = 4.850
 5: 4.649 + 0.44 = 4.693
 6: 4.756 + 0.39 = 4.796
 7: 5.166 + 0.31 = 5.197
 ----------------------------------------



Note: The following floating-point exceptions are signalling: IEEE_DENORMALNote: The following floating-point exceptions are signalling: IEEE_DENORMALNote: The following floating-point exceptions are signalling: IEEE_DENORMAL


 ddikick.x: exited gracefully.
unset echo
----- accounting info -----
Files used on the master node pietdev were:
-rwxr-xr-x 1 piet piet     1456 mei 22 14:59 /home/piet/scr/beta-d-glucopyranose_fukui_base.F05*
-rw-r--r-- 1 piet piet 68812800 mei 22 15:00 /home/piet/scr/beta-d-glucopyranose_fukui_base.F10
ls: No match.
ls: No match.
ls: No match.
vr 22 mei 2020 15:00:08 CEST
0.136u 0.028s 0:15.70 0.9%	0+0k 0+8io 0pf+0w
