----- GAMESS execution script 'rungms' -----
This job is running on host pietdev
under operating system Linux at zo 17 mei 2020 12:09:36 CEST
Available scratch disk space (Kbyte units) at beginning of the job is
Filesystem     1K-blocks     Used Available Use% Mounted on
/dev/sda2      244568380 30346172 201729152  14% /
GAMESS temporary binary files will be written to /home/piet/scr
GAMESS supplementary output files will be written to /home/piet/gamess/scr
Copying input file cysteine_charge_chelpg.inp to your run's scratch directory...
cp cysteine_charge_chelpg.inp /home/piet/scr/cysteine_charge_chelpg.F05
unset echo
 
Assuming a single but multicore node.
 
/home/piet/gamess/ddikick.x /home/piet/gamess/gamess.03.x cysteine_charge_chelpg -ddi 1 6 pietdev:cpus=6 -scr /home/piet/scr

 Distributed Data Interface kickoff program.
 Initiating 6 compute processes on 1 nodes to run the following command:
 /home/piet/gamess/gamess.03.x cysteine_charge_chelpg 

          ******************************************************
          *         GAMESS VERSION = 30 SEP 2019 (R2)          *
          *             FROM IOWA STATE UNIVERSITY             *
          * M.W.SCHMIDT, K.K.BALDRIDGE, J.A.BOATZ, S.T.ELBERT, *
          *   M.S.GORDON, J.H.JENSEN, S.KOSEKI, N.MATSUNAGA,   *
          *          K.A.NGUYEN, S.J.SU, T.L.WINDUS,           *
          *       TOGETHER WITH M.DUPUIS, J.A.MONTGOMERY       *
          *         J.COMPUT.CHEM.  14, 1347-1363(1993)        *
          **************** 64 BIT LINUX VERSION ****************

  SINCE 1993, STUDENTS AND POSTDOCS WORKING AT IOWA STATE UNIVERSITY
  AND ALSO IN THEIR VARIOUS JOBS AFTER LEAVING ISU HAVE MADE IMPORTANT
  CONTRIBUTIONS TO THE CODE:
     IVANA ADAMOVIC, CHRISTINE AIKENS, YURI ALEXEEV, POOJA ARORA,
     ANDREY ASADCHEV, ROB BELL, PRADIPTA BANDYOPADHYAY, JONATHAN BENTZ,
     COLLEEN BERTONI, BRETT BODE, KURT BRORSEN, CALEB CARLIN, GALINA CHABAN,
     WEI CHEN, CHEOL HO CHOI, PAUL DAY, ALBERT DEFUSCO, NUWAN DESILVA,
     TIM DUDLEY, DMITRI FEDOROV, ALEX FINDLATER, GRAHAM FLETCHER, 
     MARK FREITAG, KURT GLAESEMANN, EMILIE B GUIDEZ, ANASTASIA GUNINA, 
     DAN KEMP, SAROM SOK LEANG, GRANT MERRILL,
     NORIYUKI MINEZAWA, JONATHAN MULLIN,
     TAKESHI NAGATA, SEAN NEDD, HEATHER NETZLOFF, BOSILJKA NJEGIC, RYAN OLSON,
     MIKE PAK, BUU PHAM, DAVID POOLE,
     SPENCER PRUITT, LUKE ROSKOP, TOSAPORN SATTASATHUCHANA,
     JIM SHOEMAKER, LYUDMILA SLIPCHENKO,
     TONY SMITH, JIE SONG, TETSUYA TAKETSUGU, SIMON WEBB,
     JORGE LUIS GALVEZ VALLEJO, PENG XU, SOOHAENG YOO,
     FEDERICO ZAHARIEV

  ADDITIONAL CODE HAS BEEN PROVIDED BY COLLABORATORS IN OTHER GROUPS:
     IOWA STATE UNIVERSITY:
          JOE IVANIC, AARON WEST, LAIMUTIS BYTAUTAS, KLAUS RUEDENBERG
     UNIVERSITY OF TOKYO: KIMIHIKO HIRAO, TAKAHITO NAKAJIMA,
          TAKAO TSUNEDA, MUNEAKI KAMIYA, SUSUMU YANAGISAWA,
          KIYOSHI YAGI, MAHITO CHIBA, SEIKEN TOKURA, NAOAKI KAWAKAMI
     UNIVERSITY OF AARHUS: FRANK JENSEN
     UNIVERSITY OF IOWA: VISVALDAS KAIRYS, HUI LI
     NATIONAL INST. OF STANDARDS AND TECHNOLOGY: WALT STEVENS, DAVID GARMER
     UNIVERSITY OF PISA: BENEDETTA MENNUCCI, JACOPO TOMASI
     UNIVERSITY OF MEMPHIS: HENRY KURTZ, PRAKASHAN KORAMBATH
     UNIVERSITY OF ALBERTA: TOBY ZENG, MARIUSZ KLOBUKOWSKI
     UNIVERSITY OF NEW ENGLAND: MARK SPACKMAN
     MIE UNIVERSITY: HIROAKI UMEDA
     NAT. INST. OF ADVANCED INDUSTRIAL SCIENCE AND TECHNOLOGY: KAZUO KITAURA
     MICHIGAN STATE UNIVERSITY:
          KAROL KOWALSKI, MARTA WLOCH, JEFFREY GOUR, JESSE LUTZ,
          WEI LI, JUN SHEN, J. EMILIANO DEUSTUA, PIOTR PIECUCH
     UNIVERSITY OF MINNESOTA:
          ANDREW SAND, PRACHI SHARMA, YINAN SHU
     UNIVERSITY OF SILESIA: MONIKA MUSIAL, STANISLAW KUCHARSKI
     FACULTES UNIVERSITAIRES NOTRE-DAME DE LA PAIX:
          OLIVIER QUINET, BENOIT CHAMPAGNE
     UNIVERSITY OF CALIFORNIA - SANTA BARBARA: BERNARD KIRTMAN
     INSTITUTE FOR MOLECULAR SCIENCE:
          KAZUYA ISHIMURA, MICHIO KATOUDA, AND SHIGERU NAGASE
     UNIVERSITY OF NOTRE DAME: ANNA POMOGAEVA, DAN CHIPMAN
     KYUSHU UNIVERSITY:
          HARUYUKI NAKANO,
          FENG LONG GU, JACEK KORCHOWIEC, MARCIN MAKOWSKI, AND YURIKO AOKI,
          HIROTOSHI MORI AND EISAKU MIYOSHI
     PENNSYLVANIA STATE UNIVERSITY:
          TZVETELIN IORDANOV, CHET SWALINA, JONATHAN SKONE,
          SHARON HAMMES-SCHIFFER
     WASEDA UNIVERSITY:
          MASATO KOBAYASHI, TOMOKO AKAMA, TSUGUKI TOUMA,
          TAKESHI YOSHIKAWA, YASUHIRO IKABATA, JUNJI SEINO,
          YUYA NAKAJIMA, HIROMI NAKAI
     NANJING UNIVERSITY: SHUHUA LI
     UNIVERSITY OF NEBRASKA:
          PEIFENG SU, DEJUN SI, NANDUN THELLAMUREGE, YALI WANG, HUI LI
     UNIVERSITY OF ZURICH: ROBERTO PEVERATI, KIM BALDRIDGE
     N. COPERNICUS UNIVERSITY AND JACKSON STATE UNIVERSITY:
          MARIA BARYSZ
     UNIVERSITY OF COPENHAGEN: Jimmy Kromann, CASPER STEINMANN
     TOKYO INSTITUTE OF TECHNOLOGY: HIROYA NAKATA
     NAGOYA UNIVERSITY: YOSHIO NISHIMOTO, STEPHAN IRLE
     MOSCOW STATE UNIVERSITY: VLADIMIR MIRONOV
     A.N.NESMEYANOV INSTITUTE OF ORGANOELEMENT COMPOUNDS OF RUSSIAN ACADEMY OF SCIENCES:
          IGOR S. GERASIMOV
     JOHANNES KEPLER UNIVERSITY LINZ:
          CHRISTIAN FRIEDL


 PARALLEL VERSION RUNNING ON        6 PROCESSORS IN        1 NODES.

 EXECUTION OF GAMESS BEGUN Sun May 17 12:09:36 2020

            ECHO OF THE FIRST FEW INPUT CARDS -
 INPUT CARD> $BASIS GBASIS=N21 NGAUSS=3 $END                                                
 INPUT CARD> $CONTRL SCFTYP=RHF DFTTYP=B3LYP MAXIT=60 MULT=1 ICHARG=0 $END                  
 INPUT CARD> $SYSTEM MEMDDI=1000 MWORDS=30 $END                                             
 INPUT CARD> $SCF DIRSCF=.TRUE. $END                                                        
 INPUT CARD> $ELPOT  IEPOT=1 WHERE=PDC $END                                                 
 INPUT CARD> $PDC PTSEL=CHELPG CONSTR=CHARGE $END                                           
 INPUT CARD> $DATA                                                                          
 INPUT CARD>                                                                                
 INPUT CARD>C1                                                                              
 INPUT CARD>C 6.0000000 -0.1941751967 0.2690941515 -0.3636675694                            
 INPUT CARD>H 1.0000000 -0.1349043522 -0.0530378188 -1.4080409073                           
 INPUT CARD>C 6.0000000 0.7392836511 -0.5700234682 0.5161276937                             
 INPUT CARD>S 16.0000000 2.5376387605 -0.3090881039 -0.1080520904                           
 INPUT CARD>H 1.0000000 0.7003948445 -0.2496769564 1.5584726406                             
 INPUT CARD>H 1.0000000 0.5110015453 -1.6342641145 0.4396897306                             
 INPUT CARD>H 1.0000000 3.1466729767 -1.1244819677 0.8188812646                             
 INPUT CARD>H 1.0000000 -1.2294302487 0.1525696752 -0.0219400040                            
 INPUT CARD>H 1.0000000 0.0722580195 1.3292886027 -0.3087207585                             
 INPUT CARD> $END                                                                           
   30000000 WORDS OF MEMORY AVAILABLE

     BASIS OPTIONS
     -------------
     GBASIS=N21          IGAUSS=       3      POLAR=NONE    
     NDFUNC=       0     NFFUNC=       0     DIFFSP=       F
     NPFUNC=       0      DIFFS=       F     BASNAM=        


     RUN TITLE
     ---------
                                                                                 

 THE POINT GROUP OF THE MOLECULE IS C1      
 THE ORDER OF THE PRINCIPAL AXIS IS     0

 ATOM      ATOMIC                      COORDINATES (BOHR)
           CHARGE         X                   Y                   Z
 C           6.0    -0.3669379154        0.5085142112       -0.6872320568
 H           1.0    -0.2549322602       -0.1002269445       -2.6608114943
 C           6.0     1.3970435278       -1.0771881615        0.9753399158
 S          16.0     4.7954419132       -0.5840918224       -0.2041888433
 H           1.0     1.3235543393       -0.4718210330        2.9450862501
 H           1.0     0.9656528999       -3.0883113680        0.8308931104
 H           1.0     5.9463496989       -2.1249627971        1.5474612066
 H           1.0    -2.3232862911        0.2883148802       -0.0414605957
 H           1.0     0.1365478573        2.5119912177       -0.5833976403

          INTERNUCLEAR DISTANCES (ANGS.)
          ------------------------------

                1 C          2 H          3 C          4 S          5 H     

   1 C       0.0000000    1.0945308 *  1.5328090 *  2.8040045 *  2.1826594 *
   2 H       1.0945308 *  0.0000000    2.1757536 *  2.9829548 *  3.0881377  
   3 C       1.5328090 *  2.1757536 *  0.0000000    1.9213976 *  1.0911541 *
   4 S       2.8040045 *  2.9829548 *  1.9213976 *  0.0000000    2.4811891 *
   5 H       2.1826594 *  3.0881377    1.0911541 *  2.4811891 *  0.0000000  
   6 H       2.1829865 *  2.5162630 *  1.0911295 *  2.4826137 *  1.7901471 *
   7 H       3.8081154    4.1080317    2.4888968 *  1.3765883 *  2.7012138 *
   8 H       1.0964072 *  1.7780712 *  2.1650617 *  3.7962287    2.5266047 *
   9 H       1.0945401 *  1.7782709 *  2.1754734 *  2.9669257 *  2.5246979 *

                6 H          7 H          8 H          9 H     

   1 C       2.1829865 *  3.8081154    1.0964072 *  1.0945401 *
   2 H       2.5162630 *  4.1080317    1.7780712 *  1.7782709 *
   3 C       1.0911295 *  2.4888968 *  2.1650617 *  2.1754734 *
   4 S       2.4826137 *  1.3765883 *  3.7962287    2.9669257 *
   5 H       1.7901471 *  2.7012138 *  2.5266047 *  2.5246979 *
   6 H       0.0000000    2.7111673 *  2.5367262 *  3.0879214  
   7 H       2.7111673 *  0.0000000    4.6355281    4.0920048  
   8 H       2.5367262 *  4.6355281    0.0000000    1.7780053 *
   9 H       3.0879214    4.0920048    1.7780053 *  0.0000000  

  * ... LESS THAN  3.000


     ATOMIC BASIS SET
     ----------------
 THE CONTRACTED PRIMITIVE FUNCTIONS HAVE BEEN UNNORMALIZED
 THE CONTRACTED BASIS FUNCTIONS ARE NOW NORMALIZED TO UNITY

  SHELL TYPE  PRIMITIVE        EXPONENT          CONTRACTION COEFFICIENT(S)

 C         

      1   S       1           172.2560000    0.061766907377
      1   S       2            25.9109000    0.358794042852
      1   S       3             5.5333500    0.700713083689

      2   L       4             3.6649800   -0.395895162119    0.236459946619
      2   L       5             0.7705450    1.215834355681    0.860618805716

      3   L       6             0.1958570    1.000000000000    1.000000000000

 H         

      4   S       7             5.4471780    0.156284978695
      4   S       8             0.8245472    0.904690876670

      5   S       9             0.1831916    1.000000000000

 C         

      6   S      10           172.2560000    0.061766907377
      6   S      11            25.9109000    0.358794042852
      6   S      12             5.5333500    0.700713083689

      7   L      13             3.6649800   -0.395895162119    0.236459946619
      7   L      14             0.7705450    1.215834355681    0.860618805716

      8   L      15             0.1958570    1.000000000000    1.000000000000

 S         

      9   S      16          1210.6200000    0.065007081871
      9   S      17           182.7470000    0.382039893458
      9   S      18            39.6673000    0.676544811328

     10   L      19            52.2236000   -0.100309939876    0.109645970225
     10   L      20            11.9629000    0.065087660988    0.457648875721
     10   L      21             3.2891100    0.981454411734    0.604260835908

     11   L      22             1.2238400   -0.286088853728    0.164776994741
     11   L      23             0.4573030    1.228059372117    0.870854972204

     12   L      24             0.1422690    1.000000000000    1.000000000000

 H         

     13   S      25             5.4471780    0.156284978695
     13   S      26             0.8245472    0.904690876670

     14   S      27             0.1831916    1.000000000000

 H         

     15   S      28             5.4471780    0.156284978695
     15   S      29             0.8245472    0.904690876670

     16   S      30             0.1831916    1.000000000000

 H         

     17   S      31             5.4471780    0.156284978695
     17   S      32             0.8245472    0.904690876670

     18   S      33             0.1831916    1.000000000000

 H         

     19   S      34             5.4471780    0.156284978695
     19   S      35             0.8245472    0.904690876670

     20   S      36             0.1831916    1.000000000000

 H         

     21   S      37             5.4471780    0.156284978695
     21   S      38             0.8245472    0.904690876670

     22   S      39             0.1831916    1.000000000000

 TOTAL NUMBER OF BASIS SET SHELLS             =   22
 NUMBER OF CARTESIAN GAUSSIAN BASIS FUNCTIONS =   43
 NUMBER OF ELECTRONS                          =   34
 CHARGE OF MOLECULE                           =    0
 SPIN MULTIPLICITY                            =    1
 NUMBER OF OCCUPIED ORBITALS (ALPHA)          =   17
 NUMBER OF OCCUPIED ORBITALS (BETA )          =   17
 TOTAL NUMBER OF ATOMS                        =    9
 THE NUCLEAR REPULSION ENERGY IS      104.9348662147

 SELECTED MURRAY-HANDY-LAMING RADIAL GRID

 LEGACY BECKE'S FUZZY CELL METHOD

 SELECTED ORIGINAL BECKE'S PARTITION FUNCTION

     LEBEDEV GRID-BASED DFT OPTIONS
     ------------------------------
     DFTTYP=B3LYP   
     NRAD  =      96     NLEB  =     302
     NRAD0 =      24     NLEB0 =     110
     SWOFF =    5.00E-03 (PURE SCF -> DFT)
     SWITCH=    3.00E-04 (COARSE -> TIGHT GRID)
     THRESH=    0.00E+00 GTHRE=    1.00E+00

 GRIMME'S EMPIRICAL DISPERSION CORRECTION= F

     $CONTRL OPTIONS
     ---------------
 SCFTYP=RHF          RUNTYP=ENERGY       EXETYP=RUN     
 MPLEVL=       0     CITYP =NONE         CCTYP =NONE         VBTYP =NONE    
 DFTTYP=B3LYP        TDDFT =NONE    
 MULT  =       1     ICHARG=       0     NZVAR =       0     COORD =UNIQUE  
 PP    =NONE         RELWFN=NONE         LOCAL =NONE         NUMGRD=       F
 ISPHER=      -1     NOSYM =       0     MAXIT =      60     UNITS =ANGS    
 PLTORB=       F     MOLPLT=       F     AIMPAC=       F     FRIEND=        
 NPRINT=       7     IREST =       0     GEOM  =INPUT   
 NORMF =       0     NORMP =       0     ITOL  =      20     ICUT  =       9
 INTTYP=BEST         GRDTYP=BEST         QMTTOL= 1.0E-06

     $SYSTEM OPTIONS
     ---------------
  REPLICATED MEMORY=    30000000 WORDS (ON EVERY NODE).
 DISTRIBUTED MEMDDI=        1000 MILLION WORDS IN AGGREGATE,
 MEMDDI DISTRIBUTED OVER   6 PROCESSORS IS   166666666 WORDS/PROCESSOR.
 TOTAL MEMORY REQUESTED ON EACH PROCESSOR=   196666666 WORDS.
 TIMLIM=      525600.00 MINUTES, OR     365.0 DAYS.
 PARALL= T  BALTYP=  DLB     KDIAG=    0  COREFL= F
 MXSEQ2=     300 MXSEQ3=     150  mem10=         0

     INPUT FOR POTENTIAL-DERIVED CHARGES 
     -----------------------------------
     VDWSCL=    1.00   RMAX=    3.00   DELR=    0.80
     VDWINC=    0.20 PTDENS=    0.28
     LAYER =       4  NFREQ=      30 MAXPDC=   10000
     CONSTR=CHARGE    UNITS=ANGS      PTSEL=CHELPG  
     CENTER=  0.0000  0.0000  0.0000
     DPOLE =  0.0000  0.0000  0.0000
     QPOLE =  0.0000  0.0000  0.0000  0.0000  0.0000  0.0000


          ----------------
          PROPERTIES INPUT
          ----------------

     MOMENTS            FIELD           POTENTIAL          DENSITY
 IEMOM =       1   IEFLD =       0   IEPOT =       1   IEDEN =       0
 WHERE =COMASS     WHERE =NUCLEI     WHERE =PDC        WHERE =NUCLEI  
 OUTPUT=BOTH       OUTPUT=BOTH       OUTPUT=BOTH       OUTPUT=BOTH    
 IEMINT=       0   IEFINT=       0                     IEDINT=       0
                                                       MORB  =       0
          EXTRAPOLATION IN EFFECT
          DIIS IN EFFECT
 ORBITAL PRINTING OPTION: NPREO=     1    43     2     1

     -------------------------------
     INTEGRAL TRANSFORMATION OPTIONS
     -------------------------------
     NWORD  =            0
     CUTOFF = 1.0E-09     MPTRAN =       0
     DIRTRF =       T     AOINTS =DUP     

          ----------------------
          INTEGRAL INPUT OPTIONS
          ----------------------
 NOPK  =       1 NORDER=       0 SCHWRZ=       T

     ------------------------------------------
     THE POINT GROUP IS C1 , NAXIS= 0, ORDER= 1
     ------------------------------------------

     DIMENSIONS OF THE SYMMETRY SUBSPACES ARE
 A   =   43

 ..... DONE SETTING UP THE RUN .....
 CPU     0: STEP CPU TIME=     0.02 TOTAL CPU TIME=          0.0 (      0.0 MIN)
 TOTAL WALL CLOCK TIME=          0.0 SECONDS, CPU UTILIZATION IS    66.67%

          ********************
          1 ELECTRON INTEGRALS
          ********************
 ...... END OF ONE-ELECTRON INTEGRALS ......
 CPU     0: STEP CPU TIME=     0.00 TOTAL CPU TIME=          0.0 (      0.0 MIN)
 TOTAL WALL CLOCK TIME=          0.0 SECONDS, CPU UTILIZATION IS    50.00%

          -------------
          GUESS OPTIONS
          -------------
          GUESS =HUCKEL            NORB  =       0          NORDER=       0
          MIX   =       F          PRTMO =       F          PUNMO =       F
          TOLZ  = 1.0E-08          TOLE  = 1.0E-05
          SYMDEN=       F          PURIFY=       F

 INITIAL GUESS ORBITALS GENERATED BY HUCKEL   ROUTINE.
 HUCKEL GUESS REQUIRES     22492 WORDS.

 SYMMETRIES FOR INITIAL GUESS ORBITALS FOLLOW.   BOTH SET(S).
    17 ORBITALS ARE OCCUPIED (    7 CORE ORBITALS).
     8=A        9=A       10=A       11=A       12=A       13=A       14=A   
    15=A       16=A       17=A       18=A       19=A       20=A       21=A   
    22=A       23=A       24=A       25=A       26=A       27=A   
 ...... END OF INITIAL ORBITAL SELECTION ......
 CPU     0: STEP CPU TIME=     0.02 TOTAL CPU TIME=          0.0 (      0.0 MIN)
 TOTAL WALL CLOCK TIME=          0.1 SECONDS, CPU UTILIZATION IS    80.00%

                    ----------------------
                    AO INTEGRAL TECHNOLOGY
                    ----------------------
     S,P,L SHELL ROTATED AXIS INTEGRALS, REPROGRAMMED BY
        KAZUYA ISHIMURA (IMS) AND JOSE SIERRA (SYNSTAR).
     S,P,D,L SHELL ROTATED AXIS INTEGRALS PROGRAMMED BY
        KAZUYA ISHIMURA (INSTITUTE FOR MOLECULAR SCIENCE).
     S,P,D,F,G SHELL TO TOTAL QUARTET ANGULAR MOMENTUM SUM 5,
        ERIC PROGRAM BY GRAHAM FLETCHER (ELORET AND NASA ADVANCED
        SUPERCOMPUTING DIVISION, AMES RESEARCH CENTER).
     S,P,D,F,G,L SHELL GENERAL RYS QUADRATURE PROGRAMMED BY
        MICHEL DUPUIS (PACIFIC NORTHWEST NATIONAL LABORATORY).

          --------------------
          2 ELECTRON INTEGRALS
          --------------------

 DIRECT SCF METHOD SKIPS INTEGRAL STORAGE ON DISK.
 DIRECT TRANSFORMATION SKIPS AO INTEGRAL STORAGE ON DISK.
  ...... END OF TWO-ELECTRON INTEGRALS .....
 CPU     0: STEP CPU TIME=     0.01 TOTAL CPU TIME=          0.0 (      0.0 MIN)
 TOTAL WALL CLOCK TIME=          0.1 SECONDS, CPU UTILIZATION IS    83.33%

          --------------------------
             R-B3LYP SCF CALCULATION
          --------------------------

     NUCLEAR ENERGY =       104.9348662147
     MAXIT =   60     NPUNCH=    2
     EXTRAP=T  DAMP=F  SHIFT=F  RSTRCT=F  DIIS=T  DEM=F  SOSCF=F
         DENSITY MATRIX CONVERGENCE THRESHOLD=  2.00E-05
     COARSE -> FINE DFT GRID SWITCH THRESHOLD=  3.00E-04 (SWITCH IN $DFT)
                   HF -> DFT SWITCH THRESHOLD=  5.00E-03 (SWOFF IN $DFT)
     MEMORY REQUIRED FOR RHF ITERS=    376845 WORDS.

 DIRECT SCF CALCULATION, SCHWRZ=T   FDIFF=T,  DIRTHR=  0.00E+00 NITDIR=10
 SCHWARZ INEQUALITY OVERHEAD:       939 INTEGRALS, T=        0.00

 DFT CODE IS SWITCHING FROM THE FINE GRID NRAD= 96,  NLEB=  302
                      TO THE COARSE GRID NRAD0= 24, NLEB0=  110

     EXCHANGE FUNCTIONAL   =B88&HFX   
     CORRELATION FUNCTIONAL=LYP88&VWN5
     DFT THRESHOLD         =.153E-07
     GRID CHANGE THRESHOLD =.300E-03
 FOR AN EULER-MACLAURIN QUADRATURE USING  96 RADIAL POINTS:
 SMALLEST GAUSSIAN PRIMITIVE EXPONENT=        0.1422690000 OF TYPE -P-
 ON ATOM NUMBER   4 HAS RADIAL NORMALIZATION=  1.000000
  LARGEST GAUSSIAN PRIMITIVE EXPONENT=     1210.6200000000 OF TYPE -S-
 ON ATOM NUMBER   4 HAS RADIAL NORMALIZATION=  1.000000
 DFT IS SWITCHED OFF, PERFORMING PURE SCF UNTIL SWOFF THRESHOLD IS REACHED.

                                                                                   NONZERO     BLOCKS
 ITER EX DEM     TOTAL ENERGY        E CHANGE  DENSITY CHANGE    DIIS ERROR      INTEGRALS    SKIPPED
   1  0  0     -474.0302358241  -474.0302358241   0.581031783   0.713081456         401533       4393
          * * *   INITIATING DIIS PROCEDURE   * * *
   2  1  0     -474.3325407448    -0.3023049206   0.095339204   0.044303581         401000       4699
   3  2  0     -474.3445260461    -0.0119853013   0.041406216   0.023427828         398470       5257
   4  3  0     -474.3460470602    -0.0015210141   0.013113561   0.006631734         395694       5822
   5  4  0     -474.3462758253    -0.0002287651   0.002367931   0.001015038         394134       6090
 CONVERGED TO SWOFF, SO DFT CALCULATION IS NOW SWITCHED ON.
          * * *   INITIATING DIIS PROCEDURE   * * *
   6  5  0     -475.4771349108    -1.1308590854   0.082310356   0.080777625         401615       4353
   7  6  0     -475.4846451385    -0.0075102278   0.055331965   0.036565545         399265       5133
   8  7  0     -475.4854177265    -0.0007725880   0.028126152   0.030196582         397562       5387
   9  8  0     -475.4873830914    -0.0019653648   0.004707660   0.002477624         395633       5786
  10  9  0     -475.4874166463    -0.0000335549   0.000702947   0.000402316         388318       6871
  11 10  0     -475.4874172743    -0.0000006280   0.000171652   0.000175414         379189       7780
 DFT CODE IS SWITCHING BACK TO THE FINE GRID
          * * *   INITIATING DIIS PROCEDURE   * * *
  12 11  0     -475.4936616166    -0.0062443423   0.003840660   0.000887468         401628       4334
  13 12  0     -475.4936687848    -0.0000071682   0.001256590   0.000360164         388748       6730
  14 13  0     -475.4936686793     0.0000001055   0.000550647   0.000461082         382128       7504
  15 14  0     -475.4936694654    -0.0000007861   0.000061026   0.000026778         376939       8165
  16 15  0     -475.4936694693    -0.0000000039   0.000015914   0.000010029         362705       9750
  17 16  0     -475.4936694696    -0.0000000002   0.000002974   0.000003523         350951      11085

          -----------------
          DENSITY CONVERGED
          -----------------
     TIME TO FORM FOCK OPERATORS=       2.1 SECONDS (       0.1 SEC/ITER)
     FOCK TIME ON FIRST ITERATION=       0.0, LAST ITERATION=       0.3
     TIME TO SOLVE SCF EQUATIONS=       0.1 SECONDS (       0.0 SEC/ITER)

 FINAL R-B3LYP ENERGY IS     -475.4936694696 AFTER  17 ITERATIONS
 DFT EXCHANGE + CORRELATION ENERGY =       -31.0689102597
 TOTAL ELECTRON NUMBER             =        34.0000569605

          ------------
          EIGENVECTORS
          ------------

                      1          2          3          4          5
                  -88.2253   -10.1616   -10.1212    -7.8681    -5.8388
                     A          A          A          A          A   
    1  C  1  S    0.000064  -0.009259   0.986242  -0.000269   0.000432
    2  C  1  S    0.000437  -0.003563   0.112018  -0.002204   0.002686
    3  C  1  X    0.000206  -0.000009   0.000137  -0.001251   0.001187
    4  C  1  Y    0.000001   0.000105  -0.000074   0.000031   0.000086
    5  C  1  Z   -0.000039  -0.000131   0.000069   0.000192  -0.000327
    6  C  1  S   -0.001384   0.022025  -0.090231   0.006944  -0.008365
    7  C  1  X   -0.001425   0.007979  -0.003482   0.008164  -0.011967
    8  C  1  Y    0.000408  -0.006964   0.002908  -0.002551   0.002129
    9  C  1  Z   -0.000244   0.007294  -0.003016   0.001632  -0.000494
   10  H  2  S    0.000282  -0.001261  -0.000104  -0.001508   0.002050
   11  H  2  S   -0.000194   0.000503   0.015729   0.001454  -0.001979
   12  C  3  S   -0.000078   0.986351   0.008698   0.000265  -0.000780
   13  C  3  S   -0.000729   0.112287  -0.001239   0.002712  -0.004543
   14  C  3  X   -0.000137   0.001035   0.000005   0.000143  -0.000131
   15  C  3  Y   -0.000024   0.000167  -0.000134   0.000052  -0.000251
   16  C  3  Z    0.000053  -0.000371   0.000161  -0.000095   0.000330
   17  C  3  S    0.001274  -0.088409   0.019450  -0.003139   0.012337
   18  C  3  X   -0.001017   0.001870  -0.008363   0.008798   0.001479
   19  C  3  Y    0.000378  -0.003352   0.007183  -0.001832   0.003306
   20  C  3  Z   -0.000305   0.003770  -0.007448   0.000857  -0.004311
   21  S  4  S    0.986297   0.000017  -0.000003  -0.300325   0.000856
   22  S  4  S    0.051755  -0.000436   0.000070   0.981653  -0.002774
   23  S  4  X   -0.000104   0.000451  -0.000190  -0.003502   0.862738
   24  S  4  Y   -0.000093   0.000018   0.000040  -0.008082  -0.338786
   25  S  4  Z    0.000135  -0.000098  -0.000019   0.010741   0.285318
   26  S  4  S   -0.018031  -0.002057  -0.001213   0.153268   0.000297
   27  S  4  X    0.000476  -0.002880   0.001280  -0.003342   0.085018
   28  S  4  Y    0.000213  -0.000071  -0.000281  -0.002886  -0.033368
   29  S  4  Z   -0.000349   0.000567   0.000148   0.004196   0.028074
   30  S  4  S    0.010823   0.014600   0.000724  -0.078006  -0.008331
   31  S  4  X   -0.000827  -0.007129  -0.002219   0.006643  -0.029922
   32  S  4  Y   -0.001002  -0.002362   0.000617   0.008361   0.015434
   33  S  4  Z    0.001402   0.004152  -0.000438  -0.011653  -0.014502
   34  H  5  S    0.000101  -0.000117  -0.001214  -0.000929  -0.000675
   35  H  5  S   -0.000887   0.015106   0.001172   0.005776  -0.001190
   36  H  6  S    0.000101  -0.000126  -0.001211  -0.000929  -0.000669
   37  H  6  S   -0.000892   0.015084   0.001181   0.005812  -0.001192
   38  H  7  S    0.000762  -0.000638  -0.000322  -0.004572  -0.005489
   39  H  7  S   -0.002499  -0.002750   0.001708   0.018479   0.014578
   40  H  8  S   -0.000055  -0.001315  -0.000157   0.000294  -0.000751
   41  H  8  S   -0.000414   0.000812   0.015638   0.002779  -0.003706
   42  H  9  S    0.000288  -0.001260  -0.000100  -0.001543   0.002072
   43  H  9  S   -0.000215   0.000468   0.015726   0.001607  -0.002052

                      6          7          8          9         10
                   -5.8344    -5.8254    -0.7946    -0.7035    -0.6048
                     A          A          A          A          A   
    1  C  1  S   -0.000174  -0.000000  -0.117106  -0.139497   0.107360
    2  C  1  S   -0.000981   0.000002   0.116129   0.132618  -0.100032
    3  C  1  X    0.000315   0.000014   0.036512  -0.010407   0.054071
    4  C  1  Y   -0.000148   0.000083  -0.028349  -0.005113  -0.068570
    5  C  1  Z    0.000112   0.000054   0.028964   0.008054   0.075577
    6  C  1  S    0.006320  -0.000032   0.280515   0.413241  -0.380477
    7  C  1  X    0.001123  -0.000150  -0.000964   0.002986   0.011439
    8  C  1  Y   -0.000861  -0.001071  -0.002131  -0.004976  -0.026491
    9  C  1  Z    0.000968  -0.000771   0.002675   0.005706   0.030729
   10  H  2  S   -0.000037   0.000518   0.055135   0.075414  -0.092843
   11  H  2  S   -0.001284  -0.002460  -0.002050   0.009279  -0.032637
   12  C  3  S    0.000610   0.000001  -0.157193  -0.018894  -0.143388
   13  C  3  S    0.003509   0.000010   0.145463   0.025489   0.133536
   14  C  3  X   -0.000434   0.000016  -0.001405  -0.108620  -0.018039
   15  C  3  Y   -0.000076   0.000108   0.021910   0.033319  -0.071967
   16  C  3  Z    0.000170   0.000085  -0.026664  -0.023056   0.091983
   17  C  3  S   -0.007000  -0.000029   0.435345   0.009450   0.508790
   18  C  3  X    0.002051   0.000064   0.025533  -0.044591  -0.004793
   19  C  3  Y   -0.001094   0.000407   0.006638   0.005295  -0.031401
   20  C  3  Z    0.000982   0.000328  -0.012208   0.000809   0.039753
   21  S  4  S    0.004630   0.000002   0.037082  -0.055327  -0.029431
   22  S  4  S   -0.015762  -0.000008  -0.206847   0.311858   0.167706
   23  S  4  X   -0.432240   0.098083   0.030412   0.004609   0.039655
   24  S  4  Y   -0.505631   0.756211   0.016167  -0.031727  -0.011485
   25  S  4  Z    0.706334   0.601357  -0.025403   0.039128   0.008092
   26  S  4  S    0.003413   0.000013   0.262710  -0.384332  -0.203151
   27  S  4  X   -0.041572   0.009107  -0.054936  -0.010416  -0.075085
   28  S  4  Y   -0.048487   0.070300  -0.032995   0.066073   0.025994
   29  S  4  Z    0.067753   0.055898   0.050650  -0.081360  -0.020668
   30  S  4  S   -0.008540  -0.000012   0.160200  -0.335684  -0.235460
   31  S  4  X    0.012270  -0.002768   0.004691   0.006600  -0.006767
   32  S  4  Y    0.018085  -0.021518  -0.007444   0.025931   0.011669
   33  S  4  Z   -0.024736  -0.017094   0.008681  -0.033667  -0.013824
   34  H  5  S    0.000041  -0.000593   0.074341   0.009362   0.127798
   35  H  5  S    0.004854   0.002661  -0.005949   0.007215   0.049452
   36  H  6  S    0.000033   0.000604   0.074262   0.009458   0.127864
   37  H  6  S    0.004823  -0.002670  -0.005915   0.007242   0.049462
   38  H  7  S   -0.003846   0.000000   0.058845  -0.120811  -0.083132
   39  H  7  S    0.009729  -0.000012   0.025189  -0.061645  -0.051825
   40  H  8  S   -0.000131   0.000006   0.052384   0.085135  -0.079496
   41  H  8  S   -0.000871  -0.000025  -0.002178   0.015803  -0.030095
   42  H  9  S   -0.000036  -0.000533   0.055241   0.075196  -0.093095
   43  H  9  S   -0.001372   0.002598  -0.001896   0.009136  -0.032690

                     11         12         13         14         15
                   -0.4632    -0.4521    -0.3910    -0.3649    -0.3631
                     A          A          A          A          A   
    1  C  1  S   -0.000042   0.010062  -0.003670   0.001693  -0.018311
    2  C  1  S    0.000023  -0.006610   0.007908  -0.001523   0.016097
    3  C  1  X    0.023561   0.245165  -0.003120   0.007531   0.278316
    4  C  1  Y    0.181029   0.025764  -0.218362   0.246424  -0.026440
    5  C  1  Z    0.147058  -0.070599   0.272035   0.192855   0.031484
    6  C  1  S    0.000328  -0.063295  -0.024076  -0.007676   0.085704
    7  C  1  X    0.016872   0.168630  -0.012259   0.007368   0.223392
    8  C  1  Y    0.128634   0.031541  -0.152585   0.205662  -0.016179
    9  C  1  Z    0.104518  -0.065787   0.191739   0.162049   0.020927
   10  H  2  S   -0.119167   0.040460  -0.133758  -0.196069   0.009307
   11  H  2  S   -0.092559   0.030301  -0.130671  -0.190533  -0.004190
   12  C  3  S    0.000107  -0.016388  -0.006725   0.001367  -0.014045
   13  C  3  S   -0.000021   0.002633   0.007989  -0.002685   0.028926
   14  C  3  X    0.032622   0.101719  -0.163254  -0.007574  -0.180988
   15  C  3  Y    0.243065   0.118305   0.164964  -0.184168   0.068362
   16  C  3  Z    0.197807  -0.160811  -0.177540  -0.133721  -0.088527
   17  C  3  S   -0.000697   0.107331   0.019032  -0.000336  -0.001022
   18  C  3  X    0.025126   0.103571  -0.142973  -0.005975  -0.158194
   19  C  3  Y    0.188445   0.106243   0.137284  -0.151697   0.034486
   20  C  3  Z    0.153670  -0.146499  -0.146737  -0.114123  -0.044602
   21  S  4  S   -0.000117   0.004357   0.013379   0.001720  -0.018332
   22  S  4  S    0.000666  -0.024644  -0.077119  -0.009971   0.106240
   23  S  4  X   -0.004416   0.108909  -0.014822   0.013842  -0.113114
   24  S  4  Y   -0.028350  -0.055154  -0.035320   0.021995   0.073462
   25  S  4  Z   -0.023482   0.050781   0.046762   0.029562  -0.068993
   26  S  4  S   -0.000906   0.036224   0.097998   0.011916  -0.128538
   27  S  4  X    0.008815  -0.222706   0.028006  -0.028724   0.236081
   28  S  4  Y    0.056197   0.112492   0.071669  -0.044796  -0.152113
   29  S  4  Z    0.046566  -0.103530  -0.094529  -0.060578   0.142666
   30  S  4  S   -0.000825   0.017569   0.137928   0.019818  -0.206289
   31  S  4  X    0.005577  -0.085478   0.030194  -0.016656   0.122894
   32  S  4  Y    0.039164   0.062063   0.037529  -0.035477  -0.083126
   33  S  4  Z    0.032221  -0.062932  -0.052179  -0.041746   0.077268
   34  H  5  S    0.162085  -0.067640  -0.077671  -0.144394  -0.023681
   35  H  5  S    0.120849  -0.057814  -0.077148  -0.144252  -0.024976
   36  H  6  S   -0.161298  -0.069352  -0.076884   0.147192   0.004137
   37  H  6  S   -0.120209  -0.058726  -0.076510   0.146998   0.003018
   38  H  7  S    0.001004  -0.144472  -0.033771  -0.017709   0.192597
   39  H  7  S    0.001176  -0.160096  -0.058395  -0.025186   0.273011
   40  H  8  S    0.002777  -0.172262   0.086081   0.019029  -0.176347
   41  H  8  S    0.002306  -0.137331   0.081073   0.020460  -0.193226
   42  H  9  S    0.116805   0.045652  -0.135894   0.188782   0.047905
   43  H  9  S    0.090524   0.034652  -0.132389   0.185892   0.033496

                     16         17         18         19         20
                   -0.3138    -0.2322     0.0333     0.0639     0.1382
                     A          A          A          A          A   
    1  C  1  S    0.006635   0.000300  -0.027423   0.022721  -0.100606
    2  C  1  S   -0.005178  -0.000226   0.020483  -0.023652   0.043981
    3  C  1  X    0.064730  -0.001667  -0.008744  -0.006350  -0.112468
    4  C  1  Y    0.041137  -0.003054   0.024216   0.015396   0.036887
    5  C  1  Z   -0.062933  -0.002588  -0.027402  -0.018155  -0.032821
    6  C  1  S   -0.052128  -0.002038   0.284524  -0.167604   1.376767
    7  C  1  X    0.075204  -0.006048  -0.115011   0.137572  -0.268345
    8  C  1  Y    0.041835  -0.032447   0.086123   0.025645   0.180583
    9  C  1  Z   -0.065412  -0.025998  -0.082928  -0.055799  -0.202874
   10  H  2  S    0.041838  -0.008737  -0.008789  -0.036553  -0.011806
   11  H  2  S    0.058364  -0.041906  -0.170935  -0.048110  -0.598538
   12  C  3  S    0.014038   0.000010  -0.104177  -0.047094  -0.079371
   13  C  3  S   -0.004328  -0.000041   0.056105   0.030003   0.031438
   14  C  3  X   -0.192157  -0.009435   0.257199   0.206360  -0.111133
   15  C  3  Y   -0.082174  -0.072969   0.023185   0.030099  -0.114549
   16  C  3  Z    0.135764  -0.058271  -0.071670  -0.074150   0.157560
   17  C  3  S   -0.097912   0.000051   0.988274   0.363807   1.151682
   18  C  3  X   -0.222182  -0.002706   0.567865   0.501826  -0.166585
   19  C  3  Y   -0.053656  -0.021209   0.064726   0.041204  -0.432638
   20  C  3  Z    0.105051  -0.017430  -0.174226  -0.144017   0.556924
   21  S  4  S    0.022648  -0.000003  -0.005386  -0.032512   0.005128
   22  S  4  S   -0.132028   0.000014   0.034085   0.197193  -0.026113
   23  S  4  X   -0.126457  -0.026670  -0.174653  -0.020602   0.061898
   24  S  4  Y   -0.093603  -0.206690   0.032578  -0.099766  -0.032523
   25  S  4  Z    0.137949  -0.164392  -0.012662   0.128636   0.030884
   26  S  4  S    0.147187  -0.000031  -0.008731  -0.250867   0.135165
   27  S  4  X    0.260515   0.055900   0.373032   0.034182  -0.148207
   28  S  4  Y    0.193542   0.433257  -0.070530   0.227476   0.072611
   29  S  4  Z   -0.285089   0.344591   0.028296  -0.291171  -0.067743
   30  S  4  S    0.327397   0.000011  -0.151181  -0.930186  -0.235061
   31  S  4  X    0.183921   0.056826   0.926770   0.139645  -0.242597
   32  S  4  Y    0.141952   0.439352  -0.181276   0.550530   0.205238
   33  S  4  Z   -0.207632   0.349532   0.076608  -0.715047  -0.215515
   34  H  5  S    0.081125  -0.077246  -0.014896   0.005278  -0.033480
   35  H  5  S    0.107321  -0.117058  -0.225317   0.086327  -0.914059
   36  H  6  S    0.079814   0.077718  -0.014354   0.004139  -0.035245
   37  H  6  S    0.105907   0.118043  -0.221568   0.074521  -0.928367
   38  H  7  S   -0.090861   0.000028  -0.115633   0.151257   0.055346
   39  H  7  S   -0.130409  -0.000155  -0.638872   1.252074   0.427422
   40  H  8  S   -0.081077   0.000742   0.020125   0.075335  -0.032128
   41  H  8  S   -0.078839   0.000999  -0.080834   0.379126  -0.822619
   42  H  9  S    0.042899   0.008369  -0.010096  -0.037562  -0.008684
   43  H  9  S    0.059650   0.042310  -0.176491  -0.052221  -0.562144

                     21         22         23         24         25
                    0.1617     0.1714     0.1921     0.2066     0.2262
                     A          A          A          A          A   
    1  C  1  S    0.000851  -0.150173   0.019161   0.000933   0.067835
    2  C  1  S   -0.000278   0.059086  -0.004253  -0.000084  -0.009517
    3  C  1  X   -0.015323   0.035103   0.287992   0.025120  -0.172927
    4  C  1  Y   -0.157197   0.051706   0.106156   0.226006   0.181379
    5  C  1  Z   -0.130593  -0.066274  -0.170798   0.181267  -0.201368
    6  C  1  S   -0.012575   1.995009  -0.272539  -0.012966  -0.980449
    7  C  1  X   -0.038219   0.217311   1.073064   0.114616  -0.920593
    8  C  1  Y   -0.434212   0.076100   0.446355   1.004853   0.857189
    9  C  1  Z   -0.364593  -0.115147  -0.703107   0.800663  -0.930632
   10  H  2  S   -0.076018  -0.039551  -0.033015   0.064548  -0.042796
   11  H  2  S   -0.770010  -0.950797  -0.613007   1.197279  -0.324030
   12  C  3  S    0.000945   0.118705  -0.020300  -0.001849  -0.075934
   13  C  3  S   -0.000410  -0.042233   0.003681   0.000524   0.015493
   14  C  3  X   -0.030171   0.071441  -0.075406  -0.028927  -0.174356
   15  C  3  Y   -0.223613   0.041331  -0.035670  -0.181064   0.180780
   16  C  3  Z   -0.182481  -0.064313   0.062668  -0.147238  -0.189926
   17  C  3  S   -0.012247  -1.581942   0.375523   0.026706   1.089176
   18  C  3  X   -0.109400   0.334675  -0.429066  -0.122297  -0.804224
   19  C  3  Y   -0.766050   0.027033  -0.198088  -0.802879   0.914198
   20  C  3  Z   -0.619909  -0.096223   0.333797  -0.665148  -0.975916
   21  S  4  S    0.000142   0.000921   0.006777   0.000237   0.003428
   22  S  4  S   -0.000943  -0.006988  -0.040954  -0.001296  -0.017815
   23  S  4  X    0.000083   0.003800  -0.005222  -0.001717   0.027535
   24  S  4  Y    0.012493  -0.016031   0.023149  -0.021686  -0.005261
   25  S  4  Z    0.007083   0.018305  -0.030404  -0.016529   0.002671
   26  S  4  S    0.000172  -0.020470   0.080358   0.004704   0.090847
   27  S  4  X   -0.002315  -0.005640   0.013181   0.004114  -0.083442
   28  S  4  Y   -0.045116   0.051027  -0.058893   0.051883   0.021405
   29  S  4  Z   -0.029174  -0.059981   0.078359   0.039407  -0.014426
   30  S  4  S    0.011543   0.077395   0.220827  -0.004158  -0.087025
   31  S  4  X    0.017792  -0.046993  -0.128842   0.010408   0.079107
   32  S  4  Y    0.101001  -0.043883  -0.100749   0.096847  -0.101344
   33  S  4  Z    0.096921   0.064053   0.144247   0.076625   0.109518
   34  H  5  S    0.088435   0.044431  -0.006823   0.016833   0.057674
   35  H  5  S    1.119062   0.810150  -0.389737   0.896144   0.317711
   36  H  6  S   -0.087954   0.044959  -0.003612  -0.016092   0.057781
   37  H  6  S   -1.106586   0.805885  -0.361684  -0.907539   0.337826
   38  H  7  S   -0.001923  -0.033947   0.005117   0.001102   0.056195
   39  H  7  S   -0.018042  -0.038355  -0.212887   0.003935   0.021165
   40  H  8  S    0.002736   0.016762   0.087839  -0.002437  -0.047616
   41  H  8  S    0.046054  -0.407050   1.656699  -0.037213  -0.173101
   42  H  9  S    0.074131  -0.041840  -0.038588  -0.063599  -0.041199
   43  H  9  S    0.744878  -0.977789  -0.692632  -1.170955  -0.293820

                     26         27         28         29         30
                    0.5054     0.5190     0.5376     0.5778     0.7024
                     A          A          A          A          A   
    1  C  1  S   -0.007271   0.003558   0.000209   0.012651  -0.000057
    2  C  1  S    0.001692   0.033965   0.000463  -0.040329   0.000197
    3  C  1  X   -0.021244   0.290927   0.007178  -0.066046  -0.068170
    4  C  1  Y    0.023967  -0.025943   0.011640   0.027733  -0.473862
    5  C  1  Z   -0.024365  -0.023125   0.012550  -0.023583  -0.377894
    6  C  1  S    0.086517  -0.280228  -0.008549  -0.046407  -0.001527
    7  C  1  X    0.091354  -0.159887  -0.025058   0.044819   0.102208
    8  C  1  Y    0.027209  -0.113130  -0.140703   0.137090   0.707199
    9  C  1  Z   -0.047441   0.173955  -0.108004  -0.172610   0.564331
   10  H  2  S   -0.012664   0.138769  -0.089737  -0.028208   0.432750
   11  H  2  S   -0.060953   0.127489  -0.095197  -0.048035  -0.022407
   12  C  3  S    0.016306   0.006585   0.000047  -0.014513   0.000151
   13  C  3  S   -0.070235  -0.093826  -0.001725   0.115689   0.000396
   14  C  3  X   -0.153327  -0.081052   0.001234  -0.049095  -0.038195
   15  C  3  Y   -0.016769  -0.039412   0.018446   0.055598  -0.273235
   16  C  3  Z    0.045152   0.060275   0.015772  -0.062432  -0.216503
   17  C  3  S    0.083484   0.343525   0.007121  -0.408500  -0.000972
   18  C  3  X   -0.025804   0.368032   0.008747  -0.736673   0.056183
   19  C  3  Y   -0.023020   0.142027   0.024183  -0.119519   0.412899
   20  C  3  Z    0.032413  -0.238432   0.011726   0.271019   0.328279
   21  S  4  S   -0.044090   0.023254   0.000467  -0.037463  -0.000025
   22  S  4  S    0.232244  -0.121234  -0.002457   0.179946   0.000184
   23  S  4  X    0.227866   0.206299  -0.032296  -0.110604  -0.005916
   24  S  4  Y    0.067962  -0.135587  -0.275199  -0.124221  -0.041019
   25  S  4  Z   -0.124253   0.147485  -0.212965   0.175476  -0.033255
   26  S  4  S   -1.260307   0.649776   0.012627  -1.442294   0.000394
   27  S  4  X   -0.802205  -0.747153   0.113327   0.409404   0.024092
   28  S  4  Y   -0.213141   0.489595   0.970271   0.485849   0.166916
   29  S  4  Z    0.404510  -0.531077   0.750230  -0.682182   0.135347
   30  S  4  S    1.431401  -0.853682  -0.015728   2.392071  -0.001911
   31  S  4  X    0.851394   1.053849  -0.101501  -0.741818  -0.039595
   32  S  4  Y    0.010596  -0.477608  -0.926699  -0.918592  -0.285703
   33  S  4  Z   -0.157186   0.463121  -0.715889   1.281711  -0.231401
   34  H  5  S   -0.049114  -0.029033   0.113618  -0.140718  -0.346392
   35  H  5  S    0.019163   0.105846   0.018066  -0.253821   0.054393
   36  H  6  S   -0.048783  -0.022804  -0.116416  -0.138709   0.350565
   37  H  6  S    0.016856   0.106544  -0.014014  -0.254746  -0.054064
   38  H  7  S   -0.138427  -0.183448  -0.004168  -0.193425   0.002704
   39  H  7  S   -0.365058   0.034350   0.000155  -0.802901  -0.000471
   40  H  8  S   -0.018760  -0.168095  -0.003898  -0.016118  -0.002522
   41  H  8  S    0.051745   0.241901   0.003814   0.026523   0.000005
   42  H  9  S   -0.013784   0.135719   0.094958  -0.030130  -0.430157
   43  H  9  S   -0.065023   0.131476   0.106078  -0.053616   0.022502

                     31         32         33         34         35
                    0.7265     0.7524     0.7912     0.8810     0.8930
                     A          A          A          A          A   
    1  C  1  S    0.001776   0.026123   0.047648   0.000088   0.023828
    2  C  1  S    0.026541  -0.105951  -0.077769  -0.000391   0.013765
    3  C  1  X   -0.196098  -0.135791  -0.484653   0.077887  -0.632440
    4  C  1  Y    0.408959   0.337746   0.254569   0.496031  -0.223307
    5  C  1  Z   -0.475580  -0.393740  -0.238918   0.389808   0.405724
    6  C  1  S   -0.570009   0.454752   0.065882  -0.000881  -0.283346
    7  C  1  X    0.103775   0.251812   0.933356  -0.192740   1.449815
    8  C  1  Y   -0.523992  -0.575715  -0.563942  -1.253644   0.454270
    9  C  1  Z    0.635471   0.669849   0.548035  -0.990641  -0.857919
   10  H  2  S    0.201332   0.208386   0.110686  -0.045776   0.118369
   11  H  2  S    0.088937   0.048766   0.195205  -0.591073  -0.327592
   12  C  3  S   -0.007201  -0.047684  -0.007610   0.000331   0.005076
   13  C  3  S    0.043840   0.054253   0.095485   0.000764  -0.041275
   14  C  3  X    0.471205   0.088490  -0.679959  -0.104669   0.502397
   15  C  3  Y   -0.379657   0.433959   0.059476  -0.700489   0.164825
   16  C  3  Z    0.390353  -0.560513   0.050887  -0.556292  -0.307503
   17  C  3  S   -0.477073  -0.082864  -0.522041  -0.005439   0.215834
   18  C  3  X   -0.601932   0.150433   1.096095   0.240829  -1.088832
   19  C  3  Y    0.570113  -0.821376  -0.122707   1.622834  -0.281991
   20  C  3  Z   -0.607690   1.007676  -0.052026   1.286614   0.580784
   21  S  4  S   -0.007619   0.007983   0.007518  -0.000001   0.005040
   22  S  4  S    0.035930  -0.040602  -0.032827   0.000183  -0.035402
   23  S  4  X    0.016950  -0.005289  -0.003812  -0.001962   0.106411
   24  S  4  Y   -0.024313   0.031533  -0.005878  -0.000334  -0.050068
   25  S  4  Z    0.027123  -0.039368   0.007583  -0.001273   0.045687
   26  S  4  S   -0.266067   0.301227   0.297241   0.001264   0.075851
   27  S  4  X   -0.065971  -0.015824   0.014165   0.011502  -0.459926
   28  S  4  Y    0.085508  -0.133553   0.049207   0.025926   0.193500
   29  S  4  Z   -0.093992   0.172815  -0.062737   0.023651  -0.167540
   30  S  4  S    0.648082  -0.423443  -0.791260  -0.017207   0.630374
   31  S  4  X    0.018812  -0.133796   0.372645  -0.040320   0.348136
   32  S  4  Y   -0.308246   0.375633  -0.012231  -0.269902  -0.502392
   33  S  4  Z    0.379844  -0.453501  -0.044886  -0.229956   0.566325
   34  H  5  S    0.083558  -0.343080   0.175195  -0.132432   0.078483
   35  H  5  S    0.093296  -0.153528   0.005970  -0.713950  -0.317096
   36  H  6  S    0.081363  -0.336639   0.170718   0.142726   0.083654
   37  H  6  S    0.092392  -0.151115   0.001475   0.722866  -0.296596
   38  H  7  S    0.298458  -0.134496  -0.251569  -0.008479   0.238564
   39  H  7  S   -0.550646   0.455946   0.278412   0.017335  -0.731438
   40  H  8  S   -0.041164  -0.249579   0.529217   0.003240   0.307337
   41  H  8  S   -0.004073   0.136396   0.077275  -0.004962   0.677665
   42  H  9  S    0.204801   0.207865   0.108588   0.043655   0.116021
   43  H  9  S    0.088948   0.050301   0.192837   0.595787  -0.317381

                     36         37         38         39         40
                    0.9477     1.0523     1.0557     1.0687     1.0748
                     A          A          A          A          A   
    1  C  1  S   -0.026859  -0.043134  -0.004301   0.005397   0.000305
    2  C  1  S    0.042760   0.051812   0.005238   0.003150   0.000226
    3  C  1  X   -0.324541  -0.491082   0.008953  -0.344321   0.029881
    4  C  1  Y    0.009419  -0.046974   0.482680  -0.211882   0.247908
    5  C  1  Z    0.043721   0.045112   0.408209   0.285976   0.209633
    6  C  1  S   -0.430775   0.070972   0.008676   0.057817  -0.001707
    7  C  1  X    0.386309   0.784975  -0.020486   0.186609   0.003727
    8  C  1  Y    0.262690   0.078388  -0.739128   0.133814   0.031350
    9  C  1  Z   -0.394691  -0.090193  -0.612797  -0.162576   0.018127
   10  H  2  S   -0.239349  -0.314996   0.386551   0.501562   0.746380
   11  H  2  S   -0.012153   0.125380  -0.910572  -0.583441  -0.731015
   12  C  3  S   -0.017739  -0.045277  -0.004292   0.026825   0.001011
   13  C  3  S   -0.092904   0.078666   0.009621  -0.013750  -0.001852
   14  C  3  X    0.333280  -0.358680   0.016975  -0.199119  -0.011749
   15  C  3  Y   -0.225607  -0.220039   0.441999  -0.026294  -0.080878
   16  C  3  Z    0.228662   0.218823   0.405123   0.046762  -0.065209
   17  C  3  S    0.300975  -0.240733  -0.033496  -0.125990   0.000359
   18  C  3  X   -0.611235   0.778726   0.030062   0.367804  -0.039570
   19  C  3  Y    0.339749   0.095885  -0.500470   0.154653  -0.285383
   20  C  3  Z   -0.318575  -0.115695  -0.443387  -0.211490  -0.239786
   21  S  4  S    0.015758   0.004289   0.000277  -0.006200  -0.000103
   22  S  4  S   -0.083634  -0.011734  -0.000154   0.034967   0.000517
   23  S  4  X   -0.028538   0.031744  -0.001657  -0.060201  -0.001860
   24  S  4  Y    0.050918  -0.026946  -0.028295   0.025847   0.002134
   25  S  4  Z   -0.059382   0.034943  -0.017020  -0.020513  -0.000198
   26  S  4  S    0.443409   0.371071   0.035787  -0.192760  -0.004981
   27  S  4  X    0.029964  -0.127547   0.007374   0.254131   0.005474
   28  S  4  Y   -0.131734   0.074345   0.112576  -0.089913  -0.020534
   29  S  4  Z    0.161199  -0.097969   0.074561   0.063215  -0.011059
   30  S  4  S   -0.821894  -0.650315  -0.073471  -0.032691  -0.000370
   31  S  4  X   -0.090099   0.663180   0.054486  -0.252487   0.002315
   32  S  4  Y    0.180714  -0.066932  -0.116393   0.159368   0.109967
   33  S  4  Z   -0.215773  -0.000051  -0.091041  -0.153365   0.081400
   34  H  5  S   -0.187564  -0.472116  -0.652640   0.295693   0.640454
   35  H  5  S    0.183136   0.478597   1.038246  -0.105542  -0.450571
   36  H  6  S   -0.177924  -0.612861   0.549321   0.295643  -0.617981
   37  H  6  S    0.174868   0.710369  -0.904630  -0.074630   0.437605
   38  H  7  S   -1.034107   0.538245   0.058267  -0.159208  -0.013446
   39  H  7  S    1.355800  -0.605845  -0.064230   0.302533   0.018687
   40  H  8  S   -0.139295  -0.483556  -0.077571  -0.893404  -0.026324
   41  H  8  S    0.339222   0.844548   0.123480   1.078908   0.029221
   42  H  9  S   -0.237449  -0.236223  -0.412229   0.572460  -0.711050
   43  H  9  S   -0.017098  -0.052377   0.880789  -0.682554   0.692780

                     41         42         43
                    1.1167     1.6696     2.0013
                     A          A          A   
    1  C  1  S    0.082172   0.005070  -0.073830
    2  C  1  S   -0.314230  -1.378881  -1.556809
    3  C  1  X    0.194416  -0.058580   0.010542
    4  C  1  Y   -0.240557   0.032251  -0.005469
    5  C  1  Z    0.263680  -0.029528   0.004799
    6  C  1  S    0.194838   2.199724   4.061738
    7  C  1  X   -0.478326  -0.125898   0.553719
    8  C  1  Y    0.507632   0.142867  -0.488358
    9  C  1  Z   -0.546168  -0.157207   0.512713
   10  H  2  S    0.557095  -0.059027  -0.293232
   11  H  2  S   -0.680206  -0.548399  -0.424223
   12  C  3  S   -0.060855   0.004759   0.064859
   13  C  3  S    0.298470  -1.409182   1.520278
   14  C  3  X   -0.009420  -0.021176   0.110275
   15  C  3  Y   -0.231716  -0.043362   0.005890
   16  C  3  Z    0.285622   0.056936  -0.025033
   17  C  3  S   -0.131109   2.111036  -3.843448
   18  C  3  X   -0.249471   0.277931   0.480980
   19  C  3  Y    0.529989  -0.150224  -0.526556
   20  C  3  Z   -0.608630   0.140750   0.565012
   21  S  4  S    0.000627  -0.001785   0.005446
   22  S  4  S   -0.001249   0.021332  -0.042789
   23  S  4  X   -0.024958  -0.027526   0.064608
   24  S  4  Y    0.028067  -0.007724  -0.004294
   25  S  4  Z   -0.030617   0.014365  -0.005288
   26  S  4  S    0.058457   0.145255  -0.031684
   27  S  4  X    0.094247   0.099029  -0.269014
   28  S  4  Y   -0.114575   0.026255   0.027851
   29  S  4  Z    0.126146  -0.049796   0.009451
   30  S  4  S   -0.212337  -0.585488   0.585980
   31  S  4  X   -0.125288   0.339669  -0.104714
   32  S  4  Y    0.195947   0.060879  -0.166314
   33  S  4  Z   -0.223533  -0.131601   0.227906
   34  H  5  S   -0.517226  -0.060121   0.283098
   35  H  5  S    0.752354  -0.520312   0.338640
   36  H  6  S   -0.520396  -0.059573   0.282146
   37  H  6  S    0.759016  -0.519880   0.336829
   38  H  7  S   -0.075786   0.092020  -0.017238
   39  H  7  S    0.298610  -0.007190  -0.249312
   40  H  8  S    0.471453  -0.043785  -0.297205
   41  H  8  S   -0.484174  -0.542182  -0.420914
   42  H  9  S    0.558598  -0.059417  -0.293417
   43  H  9  S   -0.683684  -0.546538  -0.425666
 ...... END OF RHF CALCULATION ......
 CPU     0: STEP CPU TIME=     2.22 TOTAL CPU TIME=          2.3 (      0.0 MIN)
 TOTAL WALL CLOCK TIME=          3.0 SECONDS, CPU UTILIZATION IS    75.67%

     ---------------------------------------------------------------------
     PROPERTIES FOR THE B3LYP    DFT FUNCTIONAL (RHF  TYPE) DENSITY MATRIX
     ---------------------------------------------------------------------

          -----------------
          ENERGY COMPONENTS
          -----------------

         WAVEFUNCTION NORMALIZATION =       1.0000000000

                ONE ELECTRON ENERGY =    -861.5991144354
                TWO ELECTRON ENERGY =     281.1705787511
           NUCLEAR REPULSION ENERGY =     104.9348662147
                                      ------------------
                       TOTAL ENERGY =    -475.4936694696

 ELECTRON-ELECTRON POTENTIAL ENERGY =     281.1705787511
  NUCLEUS-ELECTRON POTENTIAL ENERGY =   -1335.1901035441
   NUCLEUS-NUCLEUS POTENTIAL ENERGY =     104.9348662147
                                      ------------------
             TOTAL POTENTIAL ENERGY =    -949.0846585783
               TOTAL KINETIC ENERGY =     473.5909891087
                 VIRIAL RATIO (V/T) =       2.0040175603

          ---------------------------------------
          MULLIKEN AND LOWDIN POPULATION ANALYSES
          ---------------------------------------

     ATOMIC MULLIKEN POPULATION IN EACH MOLECULAR ORBITAL

                      1          2          3          4          5

                  2.000000   2.000000   2.000000   2.000000   2.000000

    1            -0.000004   0.005019   1.985418   0.000217   0.000238
    2            -0.000000   0.000011   0.003149   0.000005   0.000005
    3            -0.000010   1.986745   0.005031   0.001373  -0.000669
    4             2.000085   0.002169   0.000077   1.994098   1.999487
    5            -0.000002   0.003029   0.000027   0.000104   0.000008
    6            -0.000002   0.003024   0.000027   0.000104   0.000008
    7            -0.000069  -0.000025   0.000000   0.004094   0.000916
    8            -0.000000   0.000018   0.003121   0.000000   0.000001
    9            -0.000000   0.000010   0.003149   0.000006   0.000006

                      6          7          8          9         10

                  2.000000   2.000000   2.000000   2.000000   2.000000

    1             0.000015  -0.000003   0.485092   0.635817   0.460629
    2            -0.000000   0.000002   0.018772   0.043921   0.074824
    3            -0.000070   0.000014   0.914202   0.122518   0.714865
    4             1.999521   1.999958   0.446279   0.947843   0.277293
    5             0.000051   0.000013   0.031674   0.000977   0.139805
    6             0.000051   0.000013   0.031622   0.000999   0.139952
    7             0.000433  -0.000000   0.036318   0.144489   0.062178
    8            -0.000000  -0.000000   0.017083   0.059846   0.055218
    9            -0.000000   0.000003   0.018958   0.043589   0.075235

                     11         12         13         14         15

                  2.000000   2.000000   2.000000   2.000000   2.000000

    1             0.446243   0.523548   0.783130   0.664887   0.499490
    2             0.130774   0.014400   0.161656   0.319365   0.000492
    3             0.791255   0.462824   0.563933   0.321775   0.262408
    4             0.049435   0.409581   0.141582   0.043599   0.562849
    5             0.229460   0.043117   0.054035   0.168454   0.005131
    6             0.227244   0.045055   0.053039   0.175644   0.000050
    7             0.000012   0.213954   0.016431   0.003193   0.374878
    8             0.000073   0.269040   0.059702   0.003226   0.279972
    9             0.125505   0.018482   0.166491   0.299857   0.014730

                     16         17

                  2.000000   2.000000

    1             0.068895   0.000276
    2             0.018081   0.002708
    3             0.424811   0.026666
    4             1.236419   1.889540
    5             0.055241   0.038734
    6             0.053643   0.039290
    7             0.074385   0.000000
    8             0.049536   0.000004
    9             0.018990   0.002781

               ----- POPULATIONS IN EACH AO -----
                             MULLIKEN      LOWDIN
              1  C  1  S      1.98633     1.97429
              2  C  1  S      0.36833     0.42094
              3  C  1  X      0.55568     0.52172
              4  C  1  Y      0.56498     0.52830
              5  C  1  Z      0.56356     0.52675
              6  C  1  S      1.10392     0.57995
              7  C  1  X      0.45903     0.56362
              8  C  1  Y      0.48160     0.57465
              9  C  1  Z      0.47547     0.57262
             10  H  2  S      0.46877     0.46812
             11  H  2  S      0.31940     0.43055
             12  C  3  S      1.98679     1.97484
             13  C  3  S      0.36293     0.43371
             14  C  3  X      0.45170     0.43329
             15  C  3  Y      0.58585     0.54889
             16  C  3  Z      0.57147     0.53645
             17  C  3  S      1.16294     0.61014
             18  C  3  X      0.46431     0.56086
             19  C  3  Y      0.50980     0.57339
             20  C  3  Z      0.50187     0.57160
             21  S  4  S      1.99858     1.99854
             22  S  4  S      1.95890     1.95366
             23  S  4  X      1.95290     1.92635
             24  S  4  Y      1.96183     1.94244
             25  S  4  Z      1.95985     1.93872
             26  S  4  S      1.06239     0.96134
             27  S  4  X      0.67883     0.64274
             28  S  4  Y      0.91247     0.88950
             29  S  4  Z      0.86029     0.83002
             30  S  4  S      0.87102     0.82682
             31  S  4  X      0.30339     0.48143
             32  S  4  Y      0.79010     0.86644
             33  S  4  Z      0.68925     0.79944
             34  H  5  S      0.47198     0.47476
             35  H  5  S      0.29788     0.42376
             36  H  6  S      0.47197     0.47471
             37  H  6  S      0.29780     0.42375
             38  H  7  S      0.44096     0.43603
             39  H  7  S      0.49023     0.50550
             40  H  8  S      0.46830     0.46726
             41  H  8  S      0.32854     0.43367
             42  H  9  S      0.46869     0.46804
             43  H  9  S      0.31911     0.43040

          ----- MULLIKEN ATOMIC OVERLAP POPULATIONS -----
          (OFF-DIAGONAL ELEMENTS NEED TO BE MULTIPLIED BY 2)

             1           2           3           4           5

    1    5.3350668
    2    0.3697575   0.5116121
    3    0.2541315  -0.0427542   5.5571727
    4   -0.0660339   0.0010041   0.2127789  15.6938493
    5   -0.0359058   0.0033975   0.3568426  -0.0431498   0.5250613
    6   -0.0359878  -0.0029211   0.3568705  -0.0431718  -0.0302166
    7    0.0019450  -0.0000011  -0.0175789   0.2400023  -0.0014027
    8    0.3663209  -0.0254195  -0.0370103   0.0035238  -0.0020178
    9    0.3696129  -0.0265085  -0.0427803   0.0010117  -0.0027506

             6           7           8           9

    6    0.5249202
    7   -0.0013135   0.7095788
    8   -0.0018186  -0.0000450   0.5186424
    9    0.0034029   0.0000011  -0.0253363   0.5111381

          TOTAL MULLIKEN AND LOWDIN ATOMIC POPULATIONS
       ATOM         MULL.POP.    CHARGE          LOW.POP.     CHARGE
    1 C             6.558907   -0.558907         6.262845   -0.262845
    2 H             0.788167    0.211833         0.898666    0.101334
    3 C             6.597673   -0.597673         6.243175   -0.243175
    4 S            15.999815    0.000185        16.057434   -0.057434
    5 H             0.769858    0.230142         0.898520    0.101480
    6 H             0.769764    0.230236         0.898464    0.101536
    7 H             0.931186    0.068814         0.941530    0.058470
    8 H             0.796840    0.203160         0.900926    0.099074
    9 H             0.787791    0.212209         0.898439    0.101561

          -------------------------------
          BOND ORDER AND VALENCE ANALYSIS     BOND ORDER THRESHOLD=0.050
          -------------------------------

                   BOND                       BOND                       BOND
  ATOM PAIR DIST  ORDER      ATOM PAIR DIST  ORDER      ATOM PAIR DIST  ORDER
    1   2  1.095  0.916        1   3  1.533  0.940        1   8  1.096  0.918
    1   9  1.095  0.916        3   4  1.921  0.937        3   5  1.091  0.893
    3   6  1.091  0.893        4   7  1.377  0.942

                       TOTAL       BONDED        FREE
      ATOM            VALENCE     VALENCE     VALENCE
    1 C                 3.671       3.671       0.000
    2 H                 0.913       0.913       0.000
    3 C                 3.649       3.649      -0.000
    4 S                 1.891       1.891      -0.000
    5 H                 0.893       0.893       0.000
    6 H                 0.893       0.893       0.000
    7 H                 0.960       0.960      -0.000
    8 H                 0.916       0.916       0.000
    9 H                 0.913       0.913       0.000

          ---------------------
          ELECTROSTATIC MOMENTS
          ---------------------

 POINT   1           X           Y           Z (BOHR)    CHARGE
                 2.765614   -0.459651   -0.016404       -0.00 (A.U.)
         DX          DY          DZ         /D/  (DEBYE)
    -1.435709   -0.793016    1.241470    2.057033

          -----------------------
          ELECTROSTATIC POTENTIAL
          -----------------------

   POINT      X          Y          Z           ELECTRONIC      NUCLEAR         TOTAL
                       (BOHR)                                    (A.U.)
 BRENEMAN (CHELPG) RADII USED FOR CHARGE FITTING
 NUMBER OF POINTS SELECTED FOR FITTING =     504
      1   -7.25915   -1.04405   -2.12553        -3.515530       3.520819       0.005289
      2   -7.25915   -1.04405   -0.61375        -3.600346       3.606911       0.006565
      3   -7.25915   -1.04405    0.89803        -3.580614       3.587743       0.007130
      4   -7.25915    0.46773   -2.12553        -3.530139       3.535345       0.005207
      5   -7.25915    0.46773   -0.61375        -3.615633       3.622177       0.006544
      6   -7.25915    0.46773    0.89803        -3.592773       3.599865       0.007092
      7   -7.25915    0.46773    2.40981        -3.471144       3.477801       0.006657
      8   -7.25915    1.97951   -2.12553        -3.444430       3.448972       0.004541
      9   -7.25915    1.97951   -0.61375        -3.522336       3.527943       0.005607
     10   -7.25915    1.97951    0.89803        -3.500074       3.506151       0.006076
     11   -5.74737   -4.06761   -0.61375        -3.818218       3.824603       0.006385
     12   -5.74737   -4.06761    0.89803        -3.804380       3.811477       0.007097
     13   -5.74737   -2.55583   -2.12553        -3.987689       3.993729       0.006040
     14   -5.74737   -2.55583   -0.61375        -4.115620       4.123507       0.007887
     15   -5.74737   -2.55583    0.89803        -4.090101       4.098909       0.008809
     16   -5.74737   -2.55583    2.40981        -3.923731       3.932067       0.008336
     17   -5.74737   -1.04405   -3.63731        -3.896211       3.900907       0.004696
     18   -5.74737   -1.04405   -2.12553        -4.177422       4.184344       0.006922
     19   -5.74737   -1.04405   -0.61375        -4.328236       4.338292       0.010056
     20   -5.74737   -1.04405    0.89803        -4.287574       4.298726       0.011152
     21   -5.74737   -1.04405    2.40981        -4.080098       4.089685       0.009587
     22   -5.74737   -1.04405    3.92159        -3.784141       3.791937       0.007796
     23   -5.74737    0.46773   -3.63731        -3.920895       3.925425       0.004531
     24   -5.74737    0.46773   -2.12553        -4.213916       4.220919       0.007002
     25   -5.74737    0.46773   -0.61375        -4.370308       4.381065       0.010757
     26   -5.74737    0.46773    0.89803        -4.320120       4.331918       0.011797
     27   -5.74737    0.46773    2.40981        -4.095792       4.105399       0.009607
     28   -5.74737    0.46773    3.92159        -3.787900       3.795451       0.007551
     29   -5.74737    1.97951   -3.63731        -3.805629       3.809514       0.003886
     30   -5.74737    1.97951   -2.12553        -4.068439       4.074137       0.005698
     31   -5.74737    1.97951   -0.61375        -4.203931       4.211986       0.008055
     32   -5.74737    1.97951    0.89803        -4.157412       4.166302       0.008890
     33   -5.74737    1.97951    2.40981        -3.956426       3.964217       0.007791
     34   -5.74737    1.97951    3.92159        -3.676089       3.682556       0.006468
     35   -5.74737    3.49129   -2.12553        -3.794871       3.799050       0.004179
     36   -5.74737    3.49129   -0.61375        -3.898932       3.904252       0.005321
     37   -5.74737    3.49129    0.89803        -3.863703       3.869583       0.005880
     38   -5.74737    3.49129    2.40981        -3.706615       3.712269       0.005654
     39   -4.23559   -4.06761   -2.12553        -4.304882       4.310799       0.005917
     40   -4.23559   -4.06761   -0.61375        -4.470125       4.477857       0.007732
     41   -4.23559   -4.06761    0.89803        -4.452677       4.461594       0.008917
     42   -4.23559   -4.06761    2.40981        -4.259471       4.268306       0.008835
     43   -4.23559   -2.55583   -5.14910        -3.916715       3.920300       0.003585
     44   -4.23559   -2.55583   -3.63731        -4.361131       4.365969       0.004838
     45   -4.23559   -2.55583   -2.12553        -4.758847       4.765480       0.006633
     46   -4.23559   -2.55583   -0.61375        -4.986687       4.996657       0.009970
     47   -4.23559   -2.55583    0.89803        -4.940440       4.952270       0.011830
     48   -4.23559   -2.55583    2.40981        -4.652369       4.663066       0.010697
     49   -4.23559   -2.55583    3.92159        -4.244535       4.253559       0.009024
     50   -4.23559   -1.04405   -5.14910        -4.082670       4.086531       0.003861
     51   -4.23559   -1.04405   -3.63731        -4.618002       4.623026       0.005024
     52   -4.23559   -1.04405   -2.12553        -5.132306       5.140492       0.008186
     53   -4.23559   -1.04405    2.40981        -4.927290       4.940890       0.013600
     54   -4.23559   -1.04405    3.92159        -4.422466       4.432261       0.009795
     55   -4.23559    0.46773   -5.14910        -4.109318       4.112884       0.003566
     56   -4.23559    0.46773   -3.63731        -4.673289       4.677979       0.004690
     57   -4.23559    0.46773   -2.12553        -5.235377       5.244850       0.009473
     58   -4.23559    0.46773    2.40981        -4.962346       4.976708       0.014362
     59   -4.23559    0.46773    3.92159        -4.425645       4.435073       0.009427
     60   -4.23559    1.97951   -5.14910        -3.978251       3.981071       0.002820
     61   -4.23559    1.97951   -3.63731        -4.479378       4.483224       0.003846
     62   -4.23559    1.97951   -2.12553        -4.954614       4.960946       0.006331
     63   -4.23559    1.97951    2.40981        -4.713575       4.723494       0.009919
     64   -4.23559    1.97951    3.92159        -4.246469       4.254146       0.007678
     65   -4.23559    3.49129   -3.63731        -4.122490       4.125473       0.002983
     66   -4.23559    3.49129   -2.12553        -4.462771       4.466955       0.004184
     67   -4.23559    3.49129   -0.61375        -4.638383       4.644061       0.005678
     68   -4.23559    3.49129    0.89803        -4.566632       4.573138       0.006506
     69   -4.23559    3.49129    2.40981        -4.298155       4.304443       0.006287
     70   -4.23559    3.49129    3.92159        -3.944990       3.950690       0.005700
     71   -4.23559    5.00307   -2.12553        -3.950550       3.953716       0.003166
     72   -4.23559    5.00307   -0.61375        -4.064261       4.068217       0.003957
     73   -4.23559    5.00307    0.89803        -4.023139       4.027505       0.004367
     74   -4.23559    5.00307    2.40981        -3.848944       3.853323       0.004378
     75   -2.72381   -7.09117   -0.61375        -3.916807       3.923071       0.006263
     76   -2.72381   -7.09117    0.89803        -3.917131       3.924458       0.007327
     77   -2.72381   -7.09117    2.40981        -3.799046       3.806502       0.007456
     78   -2.72381   -5.57939   -2.12553        -4.350377       4.356195       0.005818
     79   -2.72381   -5.57939   -0.61375        -4.528795       4.536941       0.008146
     80   -2.72381   -5.57939    0.89803        -4.529602       4.539244       0.009642
     81   -2.72381   -5.57939    2.40981        -4.345842       4.355311       0.009470
     82   -2.72381   -5.57939    3.92159        -4.036228       4.044645       0.008417
     83   -2.72381   -4.06761   -5.14910        -4.077834       4.080848       0.003014
     84   -2.72381   -4.06761   -3.63731        -4.562841       4.567399       0.004558
     85   -2.72381   -4.06761   -2.12553        -5.004609       5.011144       0.006535
     86   -2.72381   -4.06761   -0.61375        -5.280149       5.289601       0.009452
     87   -2.72381   -4.06761    0.89803        -5.271869       5.283382       0.011513
     88   -2.72381   -4.06761    2.40981        -4.974316       4.985360       0.011044
     89   -2.72381   -4.06761    3.92159        -4.512562       4.522200       0.009638
     90   -2.72381   -2.55583   -6.66088        -3.849197       3.851488       0.002291
     91   -2.72381   -2.55583   -5.14910        -4.426083       4.430290       0.004207
     92   -2.72381   -2.55583   -3.63731        -5.096272       5.101776       0.005504
     93   -2.72381   -2.55583   -2.12553        -5.759871       5.765908       0.006037
     94   -2.72381   -2.55583   -0.61375        -6.180542       6.191249       0.010708
     95   -2.72381   -2.55583    0.89803        -6.111814       6.125853       0.014039
     96   -2.72381   -2.55583    2.40981        -5.612108       5.624564       0.012456
     97   -2.72381   -2.55583    3.92159        -4.948725       4.959370       0.010645
     98   -2.72381   -2.55583    5.43337        -4.307615       4.316729       0.009115
     99   -2.72381   -1.04405   -6.66088        -3.992939       3.995761       0.002822
    100   -2.72381   -1.04405   -5.14910        -4.676297       4.681884       0.005587
    101   -2.72381   -1.04405   -3.63731        -5.551253       5.558912       0.007659
    102   -2.72381   -1.04405    2.40981        -6.088449       6.104925       0.016476
    103   -2.72381   -1.04405    3.92159        -5.220492       5.232087       0.011595
    104   -2.72381   -1.04405    5.43337        -4.469978       4.479606       0.009628
    105   -2.72381    0.46773   -6.66088        -4.009776       4.012356       0.002580
    106   -2.72381    0.46773   -5.14910        -4.721286       4.726367       0.005080
    107   -2.72381    0.46773    3.92159        -5.208452       5.219448       0.010996
    108   -2.72381    0.46773    5.43337        -4.452121       4.461212       0.009091
    109   -2.72381    1.97951   -6.66088        -3.888220       3.889889       0.001669
    110   -2.72381    1.97951   -5.14910        -4.522336       4.525326       0.002989
    111   -2.72381    1.97951   -3.63731        -5.324255       5.327985       0.003730
    112   -2.72381    1.97951    2.40981        -5.679006       5.688700       0.009695
    113   -2.72381    1.97951    3.92159        -4.913169       4.921620       0.008451
    114   -2.72381    1.97951    5.43337        -4.261196       4.268605       0.007410
    115   -2.72381    3.49129   -5.14910        -4.166323       4.168010       0.001687
    116   -2.72381    3.49129   -3.63731        -4.740048       4.742569       0.002521
    117   -2.72381    3.49129   -2.12553        -5.297141       5.301134       0.003992
    118   -2.72381    3.49129   -0.61375        -5.603029       5.608763       0.005734
    119   -2.72381    3.49129    0.89803        -5.449136       5.454683       0.005547
    120   -2.72381    3.49129    2.40981        -4.989897       4.995762       0.005865
    121   -2.72381    3.49129    3.92159        -4.460466       4.466436       0.005969
    122   -2.72381    5.00307   -3.63731        -4.149918       4.151974       0.002055
    123   -2.72381    5.00307   -2.12553        -4.482102       4.485594       0.003493
    124   -2.72381    5.00307   -0.61375        -4.650202       4.654880       0.004679
    125   -2.72381    5.00307    0.89803        -4.581168       4.585898       0.004730
    126   -2.72381    5.00307    2.40981        -4.323668       4.328105       0.004437
    127   -2.72381    6.51485   -2.12553        -3.844025       3.846344       0.002318
    128   -2.72381    6.51485   -0.61375        -3.944875       3.947942       0.003067
    129   -2.72381    6.51485    0.89803        -3.911344       3.914571       0.003227
    130   -1.21203   -7.09117   -2.12553        -4.136112       4.140906       0.004795
    131   -1.21203   -7.09117   -0.61375        -4.290939       4.298352       0.007413
    132   -1.21203   -7.09117    0.89803        -4.298016       4.307188       0.009172
    133   -1.21203   -7.09117    2.40981        -4.148174       4.157305       0.009131
    134   -1.21203   -7.09117    3.92159        -3.884030       3.892125       0.008094
    135   -1.21203   -5.57939   -3.63731        -4.449408       4.452617       0.003209
    136   -1.21203   -5.57939   -2.12553        -4.850744       4.857157       0.006413
    137   -1.21203   -5.57939   -0.61375        -5.117171       5.128442       0.011271
    138   -1.21203   -5.57939    0.89803        -5.140771       5.155423       0.014652
    139   -1.21203   -5.57939    2.40981        -4.887248       4.900165       0.012918
    140   -1.21203   -5.57939    3.92159        -4.461748       4.471969       0.010221
    141   -1.21203   -5.57939    5.43337        -3.993396       4.001781       0.008385
    142   -1.21203   -4.06761   -5.14910        -4.470697       4.472876       0.002179
    143   -1.21203   -4.06761   -3.63731        -5.117953       5.122146       0.004193
    144   -1.21203   -4.06761   -2.12553        -5.759089       5.766560       0.007471
    145   -1.21203   -4.06761   -0.61375        -6.230246       6.245784       0.015538
    146   -1.21203   -4.06761    2.40981        -5.829117       5.845310       0.016193
    147   -1.21203   -4.06761    3.92159        -5.125252       5.136765       0.011513
    148   -1.21203   -4.06761    5.43337        -4.437243       4.446904       0.009661
    149   -1.21203   -2.55583   -6.66088        -4.175587       4.177195       0.001608
    150   -1.21203   -2.55583   -5.14910        -4.924291       4.929146       0.004855
    151   -1.21203   -2.55583   -3.63731        -5.870661       5.879479       0.008818
    152   -1.21203   -2.55583    2.40981        -6.877788       6.895201       0.017412
    153   -1.21203   -2.55583    3.92159        -5.777598       5.790007       0.012409
    154   -1.21203   -2.55583    5.43337        -4.827382       4.838479       0.011097
    155   -1.21203   -2.55583    6.94515        -4.090146       4.098995       0.008850
    156   -1.21203   -1.04405   -6.66088        -4.354106       4.356845       0.002739
    157   -1.21203   -1.04405   -5.14910        -5.269396       5.280121       0.010725
    158   -1.21203   -1.04405    3.92159        -6.188438       6.204831       0.016393
    159   -1.21203   -1.04405    5.43337        -5.047933       5.060809       0.012876
    160   -1.21203   -1.04405    6.94515        -4.216583       4.225980       0.009398
    161   -1.21203    0.46773   -8.17266        -3.707679       3.707779       0.000100
    162   -1.21203    0.46773   -6.66088        -4.372255       4.374762       0.002507
    163   -1.21203    0.46773    3.92159        -6.110209       6.125997       0.015788
    164   -1.21203    0.46773    5.43337        -5.003505       5.015789       0.012284
    165   -1.21203    0.46773    6.94515        -4.191710       4.200465       0.008755
    166   -1.21203    1.97951   -6.66088        -4.215239       4.216256       0.001017
    167   -1.21203    1.97951   -5.14910        -5.042563       5.045877       0.003314
    168   -1.21203    1.97951    2.40981        -6.740425       6.749653       0.009228
    169   -1.21203    1.97951    3.92159        -5.614269       5.624249       0.009980
    170   -1.21203    1.97951    5.43337        -4.722114       4.731054       0.008940
    171   -1.21203    1.97951    6.94515        -4.026020       4.032942       0.006922
    172   -1.21203    3.49129   -6.66088        -3.934878       3.934784      -0.000094
    173   -1.21203    3.49129   -5.14910        -4.565314       4.566065       0.000752
    174   -1.21203    3.49129   -3.63731        -5.340456       5.342382       0.001926
    175   -1.21203    3.49129    2.40981        -5.688655       5.694470       0.005815
    176   -1.21203    3.49129    3.92159        -4.963812       4.969909       0.006097
    177   -1.21203    3.49129    5.43337        -4.316514       4.322271       0.005757
    178   -1.21203    5.00307   -5.14910        -4.055285       4.055429       0.000144
    179   -1.21203    5.00307   -3.63731        -4.544267       4.545949       0.001681
    180   -1.21203    5.00307   -2.12553        -4.989751       4.995258       0.005508
    181   -1.21203    5.00307   -0.61375        -5.225961       5.235738       0.009777
    182   -1.21203    5.00307    0.89803        -5.121617       5.128695       0.007078
    183   -1.21203    5.00307    2.40981        -4.771921       4.776414       0.004493
    184   -1.21203    5.00307    3.92159        -4.329911       4.333777       0.003866
    185   -1.21203    6.51485   -3.63731        -3.902280       3.903066       0.000785
    186   -1.21203    6.51485   -2.12553        -4.157070       4.159400       0.002330
    187   -1.21203    6.51485   -0.61375        -4.284197       4.287718       0.003521
    188   -1.21203    6.51485    0.89803        -4.241684       4.245037       0.003354
    189   -1.21203    6.51485    2.40981        -4.053463       4.056154       0.002691
    190    0.29975   -8.60295    0.89803        -3.876874       3.883243       0.006369
    191    0.29975   -7.09117   -2.12553        -4.416087       4.420070       0.003984
    192    0.29975   -7.09117   -0.61375        -4.608970       4.616796       0.007826
    193    0.29975   -7.09117    0.89803        -4.622946       4.633562       0.010616
    194    0.29975   -7.09117    2.40981        -4.441947       4.452459       0.010512
    195    0.29975   -7.09117    3.92159        -4.124670       4.133700       0.009030
    196    0.29975   -5.57939   -3.63731        -4.781546       4.782547       0.001001
    197    0.29975   -5.57939   -2.12553        -5.288092       5.293598       0.005506
    198    0.29975   -5.57939   -0.61375        -5.654768       5.669980       0.015213
    199    0.29975   -5.57939    2.40981        -5.378681       5.396356       0.017675
    200    0.29975   -5.57939    3.92159        -4.828690       4.840641       0.011951
    201    0.29975   -5.57939    5.43337        -4.253494       4.262863       0.009368
    202    0.29975   -4.06761   -6.66088        -4.115972       4.114369      -0.001603
    203    0.29975   -4.06761   -5.14910        -4.789922       4.789163      -0.000759
    204    0.29975   -4.06761   -3.63731        -5.587387       5.588457       0.001070
    205    0.29975   -4.06761   -2.12553        -6.439905       6.446578       0.006673
    206    0.29975   -4.06761    3.92159        -5.692087       5.705779       0.013691
    207    0.29975   -4.06761    5.43337        -4.794316       4.805364       0.011048
    208    0.29975   -4.06761    6.94515        -4.080895       4.089705       0.008810
    209    0.29975   -2.55583   -6.66088        -4.429169       4.428227      -0.000942
    210    0.29975   -2.55583   -5.14910        -5.316308       5.318092       0.001784
[...]
    314    3.32331   -4.06761    2.40981        -7.188712       7.212959       0.024248
    315    3.32331   -4.06761    3.92159        -6.034307       6.051696       0.017389
    316    3.32331   -4.06761    5.43337        -5.018198       5.030925       0.012726
    317    3.32331   -2.55583   -5.14910        -5.608170       5.589348      -0.018822
    318    3.32331   -2.55583   -3.63731        -7.056204       7.023149      -0.033055
    319    3.32331   -2.55583    3.92159        -7.038961       7.061898       0.022938
    320    3.32331   -2.55583    5.43337        -5.553017       5.567962       0.014945
    321    3.32331   -2.55583    6.94515        -4.528557       4.538658       0.010101
    322    3.32331   -1.04405   -6.66088        -4.784660       4.773065      -0.011595
    323    3.32331   -1.04405   -5.14910        -5.954221       5.934704      -0.019517
    324    3.32331   -1.04405    5.43337        -5.841434       5.857273       0.015839
    325    3.32331   -1.04405    6.94515        -4.681416       4.691185       0.009769
    326    3.32331    0.46773   -6.66088        -4.767265       4.756675      -0.010590
    327    3.32331    0.46773   -5.14910        -5.912978       5.897001      -0.015977
    328    3.32331    0.46773   -3.63731        -7.642531       7.624141      -0.018390
    329    3.32331    0.46773    5.43337        -5.735059       5.746247       0.011188
    330    3.32331    0.46773    6.94515        -4.631872       4.639340       0.007468
    331    3.32331    1.97951   -5.14910        -5.509881       5.497405      -0.012475
    332    3.32331    1.97951   -3.63731        -6.805465       6.790356      -0.015109
    333    3.32331    1.97951    2.40981        -8.026447       8.011640      -0.014806
    334    3.32331    1.97951    3.92159        -6.519669       6.518380      -0.001289
    335    3.32331    1.97951    5.43337        -5.305433       5.309163       0.003730
    336    3.32331    1.97951    6.94515        -4.402619       4.406707       0.004087
    337    3.32331    3.49129   -5.14910        -4.927557       4.917818      -0.009739
    338    3.32331    3.49129   -3.63731        -5.786137       5.773941      -0.012196
    339    3.32331    3.49129   -2.12553        -6.660157       6.645693      -0.014464
    340    3.32331    3.49129   -0.61375        -7.215405       7.197369      -0.018036
    341    3.32331    3.49129    0.89803        -7.104566       7.083978      -0.020588
    342    3.32331    3.49129    2.40981        -6.427112       6.412888      -0.014223
    343    3.32331    3.49129    3.92159        -5.558787       5.553366      -0.005421
    344    3.32331    3.49129    5.43337        -4.745819       4.745380      -0.000439
    345    3.32331    5.00307   -3.63731        -4.877048       4.868290      -0.008758
    346    3.32331    5.00307   -2.12553        -5.366799       5.356898      -0.009900
    347    3.32331    5.00307   -0.61375        -5.642903       5.631930      -0.010973
    348    3.32331    5.00307    0.89803        -5.585367       5.574238      -0.011129
    349    3.32331    5.00307    2.40981        -5.230527       5.221898      -0.008630
    350    3.32331    6.51485   -2.12553        -4.433734       4.427022      -0.006712
    351    3.32331    6.51485   -0.61375        -4.585896       4.579005      -0.006891
    352    3.32331    6.51485    0.89803        -4.555017       4.548421      -0.006596
    353    4.83509   -7.09117   -0.61375        -4.728000       4.728097       0.000096
    354    4.83509   -7.09117    0.89803        -4.727129       4.732129       0.005000
    355    4.83509   -7.09117    2.40981        -4.523462       4.531360       0.007898
    356    4.83509   -7.09117    3.92159        -4.184403       4.192673       0.008270
    357    4.83509   -5.57939   -2.12553        -5.513942       5.501577      -0.012364
    358    4.83509   -5.57939   -0.61375        -5.892554       5.888929      -0.003625
    359    4.83509   -5.57939    0.89803        -5.889047       5.897291       0.008244
    360    4.83509   -5.57939    2.40981        -5.501031       5.514747       0.013716
    361    4.83509   -5.57939    3.92159        -4.912311       4.924970       0.012659
    362    4.83509   -5.57939    5.43337        -4.307009       4.316877       0.009868
    363    4.83509   -4.06761   -3.63731        -5.865164       5.836735      -0.028429
    364    4.83509   -4.06761   -2.12553        -6.957076       6.923818      -0.033258
    365    4.83509   -4.06761    3.92159        -5.794168       5.814143       0.019974
    366    4.83509   -4.06761    5.43337        -4.853115       4.865753       0.012638
    367    4.83509   -2.55583   -5.14910        -5.454764       5.428830      -0.025934
    368    4.83509   -2.55583   -3.63731        -6.902950       6.854093      -0.048856
    369    4.83509   -2.55583    5.43337        -5.330866       5.344685       0.013819
    370    4.83509   -2.55583    6.94515        -4.394067       4.402911       0.008843
    371    4.83509   -1.04405   -5.14910        -5.772485       5.743972      -0.028513
    372    4.83509   -1.04405    3.92159        -7.186213       7.206906       0.020694
    373    4.83509   -1.04405    5.43337        -5.576359       5.587164       0.010805
    374    4.83509   -1.04405    6.94515        -4.530635       4.538057       0.007422
    375    4.83509    0.46773   -5.14910        -5.709614       5.685501      -0.024112
    376    4.83509    0.46773    3.92159        -6.964988       6.964740      -0.000248
    377    4.83509    0.46773    5.43337        -5.480726       5.484899       0.004173
    378    4.83509    0.46773    6.94515        -4.483866       4.488394       0.004527
    379    4.83509    1.97951   -5.14910        -5.309227       5.290943      -0.018284
    380    4.83509    1.97951   -3.63731        -6.539609       6.513106      -0.026503
    381    4.83509    1.97951    3.92159        -6.212440       6.200275      -0.012165
    382    4.83509    1.97951    5.43337        -5.101028       5.099426      -0.001602
    383    4.83509    3.49129   -3.63731        -5.547393       5.528265      -0.019127
    384    4.83509    3.49129   -2.12553        -6.360997       6.333572      -0.027425
    385    4.83509    3.49129   -0.61375        -6.892684       6.854630      -0.038054
    386    4.83509    3.49129    0.89803        -6.791858       6.752112      -0.039746
    387    4.83509    3.49129    2.40981        -6.149391       6.123300      -0.026091
    388    4.83509    3.49129    3.92159        -5.341451       5.329659      -0.011792
    389    4.83509    5.00307   -2.12553        -5.146946       5.130350      -0.016596
    390    4.83509    5.00307   -0.61375        -5.401670       5.381907      -0.019763
    391    4.83509    5.00307    0.89803        -5.355940       5.336584      -0.019356
    392    6.34687   -7.09117   -0.61375        -4.451915       4.451181      -0.000734
    393    6.34687   -7.09117    0.89803        -4.447824       4.451612       0.003788
    394    6.34687   -7.09117    2.40981        -4.270027       4.276674       0.006646
    395    6.34687   -7.09117    3.92159        -3.973974       3.981167       0.007193
    396    6.34687   -5.57939   -2.12553        -5.119404       5.108255      -0.011149
    397    6.34687   -5.57939   -0.61375        -5.427151       5.423890      -0.003262
    398    6.34687   -5.57939    0.89803        -5.419931       5.427271       0.007340
    399    6.34687   -5.57939    2.40981        -5.095642       5.108167       0.012526
    400    6.34687   -5.57939    3.92159        -4.597872       4.609315       0.011443
    401    6.34687   -5.57939    5.43337        -4.077350       4.086122       0.008773
    402    6.34687   -4.06761   -3.63731        -5.410598       5.386134      -0.024464
    403    6.34687   -4.06761   -2.12553        -6.278603       6.253295      -0.025308
    404    6.34687   -4.06761   -0.61375        -6.910840       6.907438      -0.003402
    405    6.34687   -4.06761    3.92159        -5.330633       5.350029       0.019396
    406    6.34687   -4.06761    5.43337        -4.541619       4.552889       0.011269
    407    6.34687   -2.55583   -5.14910        -5.067455       5.043315      -0.024141
    408    6.34687   -2.55583   -3.63731        -6.234236       6.194532      -0.039704
    409    6.34687   -2.55583    5.43337        -4.935632       4.947439       0.011807
    410    6.34687   -2.55583    6.94515        -4.146316       4.153566       0.007250
    411    6.34687   -1.04405   -5.14910        -5.324348       5.297224      -0.027124
    412    6.34687   -1.04405   -3.63731        -6.775617       6.731243      -0.044374
    413    6.34687   -1.04405    5.43337        -5.130739       5.138517       0.007778
    414    6.34687   -1.04405    6.94515        -4.260868       4.266271       0.005403
    415    6.34687    0.46773   -5.14910        -5.265267       5.240812      -0.024455
    416    6.34687    0.46773   -3.63731        -6.624407       6.587185      -0.037222
    417    6.34687    0.46773    3.92159        -6.230099       6.226137      -0.003962
    418    6.34687    0.46773    5.43337        -5.051007       5.052065       0.001058
    419    6.34687    1.97951   -3.63731        -5.925213       5.896011      -0.029202
    420    6.34687    1.97951    2.40981        -6.773619       6.738971      -0.034648
    421    6.34687    1.97951    3.92159        -5.645895       5.632141      -0.013754
    422    6.34687    1.97951    5.43337        -4.740861       4.736980      -0.003882
    423    6.34687    3.49129   -3.63731        -5.116376       5.095308      -0.021068
    424    6.34687    3.49129   -2.12553        -5.773221       5.743391      -0.029830
    425    6.34687    3.49129   -0.61375        -6.189453       6.150478      -0.038975
    426    6.34687    3.49129    0.89803        -6.110448       6.071935      -0.038513
    427    6.34687    3.49129    2.40981        -5.602179       5.576275      -0.025904
    428    7.85865   -7.09117    0.89803        -4.071834       4.074624       0.002791
    429    7.85865   -7.09117    2.40981        -3.930275       3.935345       0.005069
    430    7.85865   -5.57939   -2.12553        -4.580641       4.573270      -0.007371
    431    7.85865   -5.57939   -0.61375        -4.799666       4.798173      -0.001493
    432    7.85865   -5.57939    0.89803        -4.792078       4.797522       0.005444
    433    7.85865   -5.57939    2.40981        -4.556808       4.565841       0.009032
    434    7.85865   -5.57939    3.92159        -4.182964       4.191617       0.008652
    435    7.85865   -5.57939    5.43337        -3.773121       3.780018       0.006897
    436    7.85865   -4.06761   -2.12553        -5.360841       5.347798      -0.013043
    437    7.85865   -4.06761   -0.61375        -5.742247       5.741514      -0.000733
    438    7.85865   -4.06761    0.89803        -5.732263       5.747269       0.015005
    439    7.85865   -4.06761    2.40981        -5.320310       5.339328       0.019018
    440    7.85865   -4.06761    3.92159        -4.720777       4.733863       0.013086
    441    7.85865   -4.06761    5.43337        -4.137551       4.146047       0.008496
    442    7.85865   -2.55583   -3.63731        -5.326613       5.303852      -0.022761
    443    7.85865   -2.55583   -2.12553        -6.204458       6.187020      -0.017439
    444    7.85865   -2.55583    3.92159        -5.203668       5.219591       0.015923
    445    7.85865   -2.55583    5.43337        -4.434358       4.442769       0.008411
    446    7.85865   -1.04405   -3.63731        -5.645906       5.619492      -0.026414
    447    7.85865   -1.04405    3.92159        -5.442843       5.451886       0.009043
    448    7.85865   -1.04405    5.43337        -4.577743       4.582876       0.005134
    449    7.85865    0.46773   -3.63731        -5.558704       5.532857      -0.025847
    450    7.85865    0.46773    2.40981        -6.309861       6.303854      -0.006007
    451    7.85865    0.46773    3.92159        -5.330684       5.327956      -0.002728
    452    7.85865    0.46773    5.43337        -4.520298       4.520377       0.000078
    453    7.85865    1.97951   -3.63731        -5.126204       5.103491      -0.022713
    454    7.85865    1.97951   -2.12553        -5.854562       5.826112      -0.028450
    455    7.85865    1.97951   -0.61375        -6.337612       6.306193      -0.031419
    456    7.85865    1.97951    0.89803        -6.241616       6.212301      -0.029315
    457    7.85865    1.97951    2.40981        -5.659302       5.639578      -0.019724
    458    7.85865    1.97951    3.92159        -4.944029       4.934375      -0.009654
    459    7.85865    3.49129   -2.12553        -5.025271       5.002343      -0.022928
    460    7.85865    3.49129   -0.61375        -5.296518       5.269911      -0.026607
    461    7.85865    3.49129    0.89803        -5.248469       5.223392      -0.025077
    462    9.37044   -5.57939   -0.61375        -4.172124       4.171155      -0.000969
    463    9.37044   -5.57939    0.89803        -4.164716       4.167701       0.002985
    464    9.37044   -5.57939    2.40981        -4.006030       4.011299       0.005269
    465    9.37044   -5.57939    3.92159        -3.744383       3.749920       0.005536
    466    9.37044   -4.06761   -2.12553        -4.518794       4.511870      -0.006924
    467    9.37044   -4.06761   -0.61375        -4.733448       4.732597      -0.000851
    468    9.37044   -4.06761    0.89803        -4.721195       4.726571       0.005376
    469    9.37044   -4.06761    2.40981        -4.483567       4.491560       0.007992
    470    9.37044   -4.06761    3.92159        -4.112881       4.120060       0.007179
    471    9.37044   -4.06761    5.43337        -3.711255       3.716738       0.005483
    472    9.37044   -2.55583   -2.12553        -4.968289       4.959147      -0.009142
    473    9.37044   -2.55583   -0.61375        -5.264711       5.264461      -0.000250
    474    9.37044   -2.55583    0.89803        -5.240798       5.248454       0.007656
    475    9.37044   -2.55583    2.40981        -4.905883       4.915280       0.009397
    476    9.37044   -2.55583    3.92159        -4.417257       4.424482       0.007225
    477    9.37044   -2.55583    5.43337        -3.922137       3.927162       0.005025
    478    9.37044   -1.04405   -2.12553        -5.221576       5.209938      -0.011638
    479    9.37044   -1.04405   -0.61375        -5.568034       5.565608      -0.002426
    480    9.37044   -1.04405    0.89803        -5.524428       5.528600       0.004171
    481    9.37044   -1.04405    2.40981        -5.121015       5.125907       0.004892
    482    9.37044   -1.04405    3.92159        -4.565539       4.569276       0.003737
    483    9.37044   -1.04405    5.43337        -4.022520       4.025344       0.002824
    484    9.37044    0.46773   -2.12553        -5.147321       5.132019      -0.015303
    485    9.37044    0.46773   -0.61375        -5.469175       5.458445      -0.010730
    486    9.37044    0.46773    0.89803        -5.418074       5.411469      -0.006604
    487    9.37044    0.46773    2.40981        -5.032257       5.028211      -0.004046
    488    9.37044    0.46773    3.92159        -4.505616       4.503741      -0.001875
    489    9.37044    1.97951   -2.12553        -4.790198       4.772997      -0.017201
    490    9.37044    1.97951   -0.61375        -5.034414       5.017513      -0.016901
    491    9.37044    1.97951    0.89803        -4.994028       4.979582      -0.014445
    492    9.37044    1.97951    2.40981        -4.694917       4.684620      -0.010296
    493   10.88222   -4.06761    0.89803        -3.960561       3.962004       0.001443
    494   10.88222   -4.06761    2.40981        -3.819208       3.822376       0.003168
    495   10.88222   -2.55583   -0.61375        -4.254401       4.251983      -0.002418
    496   10.88222   -2.55583    0.89803        -4.240281       4.241279       0.000998
    497   10.88222   -2.55583    2.40981        -4.062687       4.065423       0.002736
    498   10.88222   -2.55583    3.92159        -3.780326       3.783299       0.002973
    499   10.88222   -1.04405   -0.61375        -4.401280       4.396771      -0.004509
    500   10.88222   -1.04405    0.89803        -4.381831       4.380482      -0.001349
    501   10.88222   -1.04405    2.40981        -4.182262       4.182654       0.000392
    502   10.88222   -1.04405    3.92159        -3.873148       3.874171       0.001023
    503   10.88222    0.46773    0.89803        -4.334194       4.328907      -0.005287
    504   10.88222    0.46773    2.40981        -4.139806       4.136527      -0.003279

 NET CHARGES:
 -------------------------------------
 ATOM                CHARGE    E.S.D.
 -------------------------------------
 C                  -0.1865    0.9015
 H                   0.0924    0.0627
 C                   0.0349    0.4355
 S                  -0.4032    0.0238
 H                   0.0590    0.0410
 H                   0.0600    0.0431
 H                   0.2067    0.0072
 H                   0.0455    0.0701
 H                   0.0914    0.0617
 -------------------------------------

 RMS DEVIATION IS            1.899 KCAL/MOLE
 RELATIVE RMS DEVIATION IS  25.280 %

 MULTIPOLE MOMENTS:
 ---------------------------------------------------------
 STATUS  ACTUAL VALUE       QUANTITY        FITTED VALUE 
 ---------------------------------------------------------
 FIXED       0.0000       TOTAL CHARGE        -0.0000
             2.0570 D    DIPOLE MOMENT         2.0644 D
 FREE       -1.4357 D          DX             -1.4446 D
 FREE       -0.7930 D          DY             -0.8025 D
 FREE        1.2415 D          DZ              1.2373 D
 FREE        0.0000 BU         QXX            -0.0495 BU
 FREE        0.0000 BU         QYY             0.0116 BU
 FREE        0.0000 BU         QZZ             0.0380 BU
 FREE        0.0000 BU         QXY            -2.2196 BU
 FREE        0.0000 BU         QXZ             2.5807 BU
 FREE        0.0000 BU         QYZ            -1.6670 BU
 ---------------------------------------------------------
 ...... END OF PROPERTY EVALUATION ......
 CPU     0: STEP CPU TIME=     0.06 TOTAL CPU TIME=          2.3 (      0.0 MIN)
 TOTAL WALL CLOCK TIME=          3.1 SECONDS, CPU UTILIZATION IS    75.16%
               580000  WORDS OF DYNAMIC MEMORY USED
 EXECUTION OF GAMESS TERMINATED NORMALLY Sun May 17 12:09:39 2020
 DDI: 263640 bytes (0.3 MB / 0 MWords) used by master data server.
Note: The following floating-point exceptions are signalling:Note: The following floating-point exceptions are signalling:Note: The following floating-point exceptions are signalling: IEEE_UNDERFLOW_FLAG IEEE_UNDERFLOW_FLAG IEEE_DENORMALNote: The following floating-point exceptions are signalling: IEEE_UNDERFLOW_FLAG IEEE_UNDERFLOW_FLAG
 ----------------------------------------
 CPU timing information for all processes
 ========================================
 0: 2.162 + 0.171 = 2.333
 1: 1.870 + 0.36 = 1.907
 2: 1.747 + 0.28 = 1.776
 3: 2.155 + 0.14 = 2.169
 4: 1.772 + 0.33 = 1.806
 5: 1.735 + 0.29 = 1.765
 ----------------------------------------
 IEEE_DENORMAL

 IEEE_DENORMAL
 IEEE_DENORMAL
Note: The following floating-point exceptions are signalling: IEEE_UNDERFLOW_FLAGNote: The following floating-point exceptions are signalling: IEEE_DENORMAL
 IEEE_UNDERFLOW_FLAG IEEE_DENORMAL
 ddikick.x: exited gracefully.
unset echo
----- accounting info -----
Files used on the master node pietdev were:
-rwxr-xr-x 1 piet piet      718 mei 17 12:09 /home/piet/scr/cysteine_charge_chelpg.F05*
-rw-r--r-- 1 piet piet 50790400 mei 17 12:09 /home/piet/scr/cysteine_charge_chelpg.F10
ls: No match.
ls: No match.
ls: No match.
zo 17 mei 2020 12:09:42 CEST
0.104u 0.023s 0:06.23 1.9%	0+0k 0+8io 0pf+0w
