----- GAMESS execution script 'rungms' -----
This job is running on host pietdev
under operating system Linux at zo 17 mei 2020 12:09:36 CEST
Available scratch disk space (Kbyte units) at beginning of the job is
Filesystem     1K-blocks     Used Available Use% Mounted on
/dev/sda2      244568380 30346176 201729148  14% /
GAMESS temporary binary files will be written to /home/piet/scr
GAMESS supplementary output files will be written to /home/piet/gamess/scr
Copying input file cysteine_charge_geodisk.inp to your run's scratch directory...
cp cysteine_charge_geodisk.inp /home/piet/scr/cysteine_charge_geodisk.F05
unset echo
 
Assuming a single but multicore node.
 
/home/piet/gamess/ddikick.x /home/piet/gamess/gamess.03.x cysteine_charge_geodisk -ddi 1 6 pietdev:cpus=6 -scr /home/piet/scr

 Distributed Data Interface kickoff program.
 Initiating 6 compute processes on 1 nodes to run the following command:
 /home/piet/gamess/gamess.03.x cysteine_charge_geodisk 

          ******************************************************
          *         GAMESS VERSION = 30 SEP 2019 (R2)          *
          *             FROM IOWA STATE UNIVERSITY             *
          * M.W.SCHMIDT, K.K.BALDRIDGE, J.A.BOATZ, S.T.ELBERT, *
          *   M.S.GORDON, J.H.JENSEN, S.KOSEKI, N.MATSUNAGA,   *
          *          K.A.NGUYEN, S.J.SU, T.L.WINDUS,           *
          *       TOGETHER WITH M.DUPUIS, J.A.MONTGOMERY       *
          *         J.COMPUT.CHEM.  14, 1347-1363(1993)        *
          **************** 64 BIT LINUX VERSION ****************

  SINCE 1993, STUDENTS AND POSTDOCS WORKING AT IOWA STATE UNIVERSITY
  AND ALSO IN THEIR VARIOUS JOBS AFTER LEAVING ISU HAVE MADE IMPORTANT
  CONTRIBUTIONS TO THE CODE:
     IVANA ADAMOVIC, CHRISTINE AIKENS, YURI ALEXEEV, POOJA ARORA,
     ANDREY ASADCHEV, ROB BELL, PRADIPTA BANDYOPADHYAY, JONATHAN BENTZ,
     COLLEEN BERTONI, BRETT BODE, KURT BRORSEN, CALEB CARLIN, GALINA CHABAN,
     WEI CHEN, CHEOL HO CHOI, PAUL DAY, ALBERT DEFUSCO, NUWAN DESILVA,
     TIM DUDLEY, DMITRI FEDOROV, ALEX FINDLATER, GRAHAM FLETCHER, 
     MARK FREITAG, KURT GLAESEMANN, EMILIE B GUIDEZ, ANASTASIA GUNINA, 
     DAN KEMP, SAROM SOK LEANG, GRANT MERRILL,
     NORIYUKI MINEZAWA, JONATHAN MULLIN,
     TAKESHI NAGATA, SEAN NEDD, HEATHER NETZLOFF, BOSILJKA NJEGIC, RYAN OLSON,
     MIKE PAK, BUU PHAM, DAVID POOLE,
     SPENCER PRUITT, LUKE ROSKOP, TOSAPORN SATTASATHUCHANA,
     JIM SHOEMAKER, LYUDMILA SLIPCHENKO,
     TONY SMITH, JIE SONG, TETSUYA TAKETSUGU, SIMON WEBB,
     JORGE LUIS GALVEZ VALLEJO, PENG XU, SOOHAENG YOO,
     FEDERICO ZAHARIEV

  ADDITIONAL CODE HAS BEEN PROVIDED BY COLLABORATORS IN OTHER GROUPS:
     IOWA STATE UNIVERSITY:
          JOE IVANIC, AARON WEST, LAIMUTIS BYTAUTAS, KLAUS RUEDENBERG
     UNIVERSITY OF TOKYO: KIMIHIKO HIRAO, TAKAHITO NAKAJIMA,
          TAKAO TSUNEDA, MUNEAKI KAMIYA, SUSUMU YANAGISAWA,
          KIYOSHI YAGI, MAHITO CHIBA, SEIKEN TOKURA, NAOAKI KAWAKAMI
     UNIVERSITY OF AARHUS: FRANK JENSEN
     UNIVERSITY OF IOWA: VISVALDAS KAIRYS, HUI LI
     NATIONAL INST. OF STANDARDS AND TECHNOLOGY: WALT STEVENS, DAVID GARMER
     UNIVERSITY OF PISA: BENEDETTA MENNUCCI, JACOPO TOMASI
     UNIVERSITY OF MEMPHIS: HENRY KURTZ, PRAKASHAN KORAMBATH
     UNIVERSITY OF ALBERTA: TOBY ZENG, MARIUSZ KLOBUKOWSKI
     UNIVERSITY OF NEW ENGLAND: MARK SPACKMAN
     MIE UNIVERSITY: HIROAKI UMEDA
     NAT. INST. OF ADVANCED INDUSTRIAL SCIENCE AND TECHNOLOGY: KAZUO KITAURA
     MICHIGAN STATE UNIVERSITY:
          KAROL KOWALSKI, MARTA WLOCH, JEFFREY GOUR, JESSE LUTZ,
          WEI LI, JUN SHEN, J. EMILIANO DEUSTUA, PIOTR PIECUCH
     UNIVERSITY OF MINNESOTA:
          ANDREW SAND, PRACHI SHARMA, YINAN SHU
     UNIVERSITY OF SILESIA: MONIKA MUSIAL, STANISLAW KUCHARSKI
     FACULTES UNIVERSITAIRES NOTRE-DAME DE LA PAIX:
          OLIVIER QUINET, BENOIT CHAMPAGNE
     UNIVERSITY OF CALIFORNIA - SANTA BARBARA: BERNARD KIRTMAN
     INSTITUTE FOR MOLECULAR SCIENCE:
          KAZUYA ISHIMURA, MICHIO KATOUDA, AND SHIGERU NAGASE
     UNIVERSITY OF NOTRE DAME: ANNA POMOGAEVA, DAN CHIPMAN
     KYUSHU UNIVERSITY:
          HARUYUKI NAKANO,
          FENG LONG GU, JACEK KORCHOWIEC, MARCIN MAKOWSKI, AND YURIKO AOKI,
          HIROTOSHI MORI AND EISAKU MIYOSHI
     PENNSYLVANIA STATE UNIVERSITY:
          TZVETELIN IORDANOV, CHET SWALINA, JONATHAN SKONE,
          SHARON HAMMES-SCHIFFER
     WASEDA UNIVERSITY:
          MASATO KOBAYASHI, TOMOKO AKAMA, TSUGUKI TOUMA,
          TAKESHI YOSHIKAWA, YASUHIRO IKABATA, JUNJI SEINO,
          YUYA NAKAJIMA, HIROMI NAKAI
     NANJING UNIVERSITY: SHUHUA LI
     UNIVERSITY OF NEBRASKA:
          PEIFENG SU, DEJUN SI, NANDUN THELLAMUREGE, YALI WANG, HUI LI
     UNIVERSITY OF ZURICH: ROBERTO PEVERATI, KIM BALDRIDGE
     N. COPERNICUS UNIVERSITY AND JACKSON STATE UNIVERSITY:
          MARIA BARYSZ
     UNIVERSITY OF COPENHAGEN: Jimmy Kromann, CASPER STEINMANN
     TOKYO INSTITUTE OF TECHNOLOGY: HIROYA NAKATA
     NAGOYA UNIVERSITY: YOSHIO NISHIMOTO, STEPHAN IRLE
     MOSCOW STATE UNIVERSITY: VLADIMIR MIRONOV
     A.N.NESMEYANOV INSTITUTE OF ORGANOELEMENT COMPOUNDS OF RUSSIAN ACADEMY OF SCIENCES:
          IGOR S. GERASIMOV
     JOHANNES KEPLER UNIVERSITY LINZ:
          CHRISTIAN FRIEDL


 PARALLEL VERSION RUNNING ON        6 PROCESSORS IN        1 NODES.

 EXECUTION OF GAMESS BEGUN Sun May 17 12:09:36 2020

            ECHO OF THE FIRST FEW INPUT CARDS -
 INPUT CARD> $BASIS GBASIS=N21 NGAUSS=3 $END                                                
 INPUT CARD> $CONTRL SCFTYP=RHF DFTTYP=B3LYP MAXIT=60 MULT=1 ICHARG=0 $END                  
 INPUT CARD> $SYSTEM MEMDDI=1000 MWORDS=30 $END                                             
 INPUT CARD> $SCF DIRSCF=.TRUE. $END                                                        
 INPUT CARD> $ELPOT  IEPOT=1 WHERE=PDC $END                                                 
 INPUT CARD> $PDC PTSEL=GEODESIC CONSTR=CHARGE $END                                         
 INPUT CARD> $DATA                                                                          
 INPUT CARD>                                                                                
 INPUT CARD>C1                                                                              
 INPUT CARD>C 6.0000000 -0.1941751967 0.2690941515 -0.3636675694                            
 INPUT CARD>H 1.0000000 -0.1349043522 -0.0530378188 -1.4080409073                           
 INPUT CARD>C 6.0000000 0.7392836511 -0.5700234682 0.5161276937                             
 INPUT CARD>S 16.0000000 2.5376387605 -0.3090881039 -0.1080520904                           
 INPUT CARD>H 1.0000000 0.7003948445 -0.2496769564 1.5584726406                             
 INPUT CARD>H 1.0000000 0.5110015453 -1.6342641145 0.4396897306                             
 INPUT CARD>H 1.0000000 3.1466729767 -1.1244819677 0.8188812646                             
 INPUT CARD>H 1.0000000 -1.2294302487 0.1525696752 -0.0219400040                            
 INPUT CARD>H 1.0000000 0.0722580195 1.3292886027 -0.3087207585                             
 INPUT CARD> $END                                                                           
   30000000 WORDS OF MEMORY AVAILABLE

     BASIS OPTIONS
     -------------
     GBASIS=N21          IGAUSS=       3      POLAR=NONE    
     NDFUNC=       0     NFFUNC=       0     DIFFSP=       F
     NPFUNC=       0      DIFFS=       F     BASNAM=        


     RUN TITLE
     ---------
                                                                                 

 THE POINT GROUP OF THE MOLECULE IS C1      
 THE ORDER OF THE PRINCIPAL AXIS IS     0

 ATOM      ATOMIC                      COORDINATES (BOHR)
           CHARGE         X                   Y                   Z
 C           6.0    -0.3669379154        0.5085142112       -0.6872320568
 H           1.0    -0.2549322602       -0.1002269445       -2.6608114943
 C           6.0     1.3970435278       -1.0771881615        0.9753399158
 S          16.0     4.7954419132       -0.5840918224       -0.2041888433
 H           1.0     1.3235543393       -0.4718210330        2.9450862501
 H           1.0     0.9656528999       -3.0883113680        0.8308931104
 H           1.0     5.9463496989       -2.1249627971        1.5474612066
 H           1.0    -2.3232862911        0.2883148802       -0.0414605957
 H           1.0     0.1365478573        2.5119912177       -0.5833976403

          INTERNUCLEAR DISTANCES (ANGS.)
          ------------------------------

                1 C          2 H          3 C          4 S          5 H     

   1 C       0.0000000    1.0945308 *  1.5328090 *  2.8040045 *  2.1826594 *
   2 H       1.0945308 *  0.0000000    2.1757536 *  2.9829548 *  3.0881377  
   3 C       1.5328090 *  2.1757536 *  0.0000000    1.9213976 *  1.0911541 *
   4 S       2.8040045 *  2.9829548 *  1.9213976 *  0.0000000    2.4811891 *
   5 H       2.1826594 *  3.0881377    1.0911541 *  2.4811891 *  0.0000000  
   6 H       2.1829865 *  2.5162630 *  1.0911295 *  2.4826137 *  1.7901471 *
   7 H       3.8081154    4.1080317    2.4888968 *  1.3765883 *  2.7012138 *
   8 H       1.0964072 *  1.7780712 *  2.1650617 *  3.7962287    2.5266047 *
   9 H       1.0945401 *  1.7782709 *  2.1754734 *  2.9669257 *  2.5246979 *

                6 H          7 H          8 H          9 H     

   1 C       2.1829865 *  3.8081154    1.0964072 *  1.0945401 *
   2 H       2.5162630 *  4.1080317    1.7780712 *  1.7782709 *
   3 C       1.0911295 *  2.4888968 *  2.1650617 *  2.1754734 *
   4 S       2.4826137 *  1.3765883 *  3.7962287    2.9669257 *
   5 H       1.7901471 *  2.7012138 *  2.5266047 *  2.5246979 *
   6 H       0.0000000    2.7111673 *  2.5367262 *  3.0879214  
   7 H       2.7111673 *  0.0000000    4.6355281    4.0920048  
   8 H       2.5367262 *  4.6355281    0.0000000    1.7780053 *
   9 H       3.0879214    4.0920048    1.7780053 *  0.0000000  

  * ... LESS THAN  3.000


     ATOMIC BASIS SET
     ----------------
 THE CONTRACTED PRIMITIVE FUNCTIONS HAVE BEEN UNNORMALIZED
 THE CONTRACTED BASIS FUNCTIONS ARE NOW NORMALIZED TO UNITY

  SHELL TYPE  PRIMITIVE        EXPONENT          CONTRACTION COEFFICIENT(S)

 C         

      1   S       1           172.2560000    0.061766907377
      1   S       2            25.9109000    0.358794042852
      1   S       3             5.5333500    0.700713083689

      2   L       4             3.6649800   -0.395895162119    0.236459946619
      2   L       5             0.7705450    1.215834355681    0.860618805716

      3   L       6             0.1958570    1.000000000000    1.000000000000

 H         

      4   S       7             5.4471780    0.156284978695
      4   S       8             0.8245472    0.904690876670

      5   S       9             0.1831916    1.000000000000

 C         

      6   S      10           172.2560000    0.061766907377
      6   S      11            25.9109000    0.358794042852
      6   S      12             5.5333500    0.700713083689

      7   L      13             3.6649800   -0.395895162119    0.236459946619
      7   L      14             0.7705450    1.215834355681    0.860618805716

      8   L      15             0.1958570    1.000000000000    1.000000000000

 S         

      9   S      16          1210.6200000    0.065007081871
      9   S      17           182.7470000    0.382039893458
      9   S      18            39.6673000    0.676544811328

     10   L      19            52.2236000   -0.100309939876    0.109645970225
     10   L      20            11.9629000    0.065087660988    0.457648875721
     10   L      21             3.2891100    0.981454411734    0.604260835908

     11   L      22             1.2238400   -0.286088853728    0.164776994741
     11   L      23             0.4573030    1.228059372117    0.870854972204

     12   L      24             0.1422690    1.000000000000    1.000000000000

 H         

     13   S      25             5.4471780    0.156284978695
     13   S      26             0.8245472    0.904690876670

     14   S      27             0.1831916    1.000000000000

 H         

     15   S      28             5.4471780    0.156284978695
     15   S      29             0.8245472    0.904690876670

     16   S      30             0.1831916    1.000000000000

 H         

     17   S      31             5.4471780    0.156284978695
     17   S      32             0.8245472    0.904690876670

     18   S      33             0.1831916    1.000000000000

 H         

     19   S      34             5.4471780    0.156284978695
     19   S      35             0.8245472    0.904690876670

     20   S      36             0.1831916    1.000000000000

 H         

     21   S      37             5.4471780    0.156284978695
     21   S      38             0.8245472    0.904690876670

     22   S      39             0.1831916    1.000000000000

 TOTAL NUMBER OF BASIS SET SHELLS             =   22
 NUMBER OF CARTESIAN GAUSSIAN BASIS FUNCTIONS =   43
 NUMBER OF ELECTRONS                          =   34
 CHARGE OF MOLECULE                           =    0
 SPIN MULTIPLICITY                            =    1
 NUMBER OF OCCUPIED ORBITALS (ALPHA)          =   17
 NUMBER OF OCCUPIED ORBITALS (BETA )          =   17
 TOTAL NUMBER OF ATOMS                        =    9
 THE NUCLEAR REPULSION ENERGY IS      104.9348662147

 SELECTED MURRAY-HANDY-LAMING RADIAL GRID

 LEGACY BECKE'S FUZZY CELL METHOD

 SELECTED ORIGINAL BECKE'S PARTITION FUNCTION

     LEBEDEV GRID-BASED DFT OPTIONS
     ------------------------------
     DFTTYP=B3LYP   
     NRAD  =      96     NLEB  =     302
     NRAD0 =      24     NLEB0 =     110
     SWOFF =    5.00E-03 (PURE SCF -> DFT)
     SWITCH=    3.00E-04 (COARSE -> TIGHT GRID)
     THRESH=    0.00E+00 GTHRE=    1.00E+00

 GRIMME'S EMPIRICAL DISPERSION CORRECTION= F

     $CONTRL OPTIONS
     ---------------
 SCFTYP=RHF          RUNTYP=ENERGY       EXETYP=RUN     
 MPLEVL=       0     CITYP =NONE         CCTYP =NONE         VBTYP =NONE    
 DFTTYP=B3LYP        TDDFT =NONE    
 MULT  =       1     ICHARG=       0     NZVAR =       0     COORD =UNIQUE  
 PP    =NONE         RELWFN=NONE         LOCAL =NONE         NUMGRD=       F
 ISPHER=      -1     NOSYM =       0     MAXIT =      60     UNITS =ANGS    
 PLTORB=       F     MOLPLT=       F     AIMPAC=       F     FRIEND=        
 NPRINT=       7     IREST =       0     GEOM  =INPUT   
 NORMF =       0     NORMP =       0     ITOL  =      20     ICUT  =       9
 INTTYP=BEST         GRDTYP=BEST         QMTTOL= 1.0E-06

     $SYSTEM OPTIONS
     ---------------
  REPLICATED MEMORY=    30000000 WORDS (ON EVERY NODE).
 DISTRIBUTED MEMDDI=        1000 MILLION WORDS IN AGGREGATE,
 MEMDDI DISTRIBUTED OVER   6 PROCESSORS IS   166666666 WORDS/PROCESSOR.
 TOTAL MEMORY REQUESTED ON EACH PROCESSOR=   196666666 WORDS.
 TIMLIM=      525600.00 MINUTES, OR     365.0 DAYS.
 PARALL= T  BALTYP=  DLB     KDIAG=    0  COREFL= F
 MXSEQ2=     300 MXSEQ3=     150  mem10=         0

     INPUT FOR POTENTIAL-DERIVED CHARGES 
     -----------------------------------
     VDWSCL=    1.40   RMAX=    3.00   DELR=    0.80
     VDWINC=    0.20 PTDENS=    0.28
     LAYER =       4  NFREQ=      30 MAXPDC=   10000
     CONSTR=CHARGE    UNITS=ANGS      PTSEL=GEODESIC
     CENTER=  0.0000  0.0000  0.0000
     DPOLE =  0.0000  0.0000  0.0000
     QPOLE =  0.0000  0.0000  0.0000  0.0000  0.0000  0.0000


          ----------------
          PROPERTIES INPUT
          ----------------

     MOMENTS            FIELD           POTENTIAL          DENSITY
 IEMOM =       1   IEFLD =       0   IEPOT =       1   IEDEN =       0
 WHERE =COMASS     WHERE =NUCLEI     WHERE =PDC        WHERE =NUCLEI  
 OUTPUT=BOTH       OUTPUT=BOTH       OUTPUT=BOTH       OUTPUT=BOTH    
 IEMINT=       0   IEFINT=       0                     IEDINT=       0
                                                       MORB  =       0
          EXTRAPOLATION IN EFFECT
          DIIS IN EFFECT
 ORBITAL PRINTING OPTION: NPREO=     1    43     2     1

     -------------------------------
     INTEGRAL TRANSFORMATION OPTIONS
     -------------------------------
     NWORD  =            0
     CUTOFF = 1.0E-09     MPTRAN =       0
     DIRTRF =       T     AOINTS =DUP     

          ----------------------
          INTEGRAL INPUT OPTIONS
          ----------------------
 NOPK  =       1 NORDER=       0 SCHWRZ=       T

     ------------------------------------------
     THE POINT GROUP IS C1 , NAXIS= 0, ORDER= 1
     ------------------------------------------

     DIMENSIONS OF THE SYMMETRY SUBSPACES ARE
 A   =   43

 ..... DONE SETTING UP THE RUN .....
 CPU     0: STEP CPU TIME=     0.02 TOTAL CPU TIME=          0.0 (      0.0 MIN)
 TOTAL WALL CLOCK TIME=          0.0 SECONDS, CPU UTILIZATION IS    66.67%

          ********************
          1 ELECTRON INTEGRALS
          ********************
 ...... END OF ONE-ELECTRON INTEGRALS ......
 CPU     0: STEP CPU TIME=     0.01 TOTAL CPU TIME=          0.0 (      0.0 MIN)
 TOTAL WALL CLOCK TIME=          0.0 SECONDS, CPU UTILIZATION IS   100.00%

          -------------
          GUESS OPTIONS
          -------------
          GUESS =HUCKEL            NORB  =       0          NORDER=       0
          MIX   =       F          PRTMO =       F          PUNMO =       F
          TOLZ  = 1.0E-08          TOLE  = 1.0E-05
          SYMDEN=       F          PURIFY=       F

 INITIAL GUESS ORBITALS GENERATED BY HUCKEL   ROUTINE.
 HUCKEL GUESS REQUIRES     22492 WORDS.

 SYMMETRIES FOR INITIAL GUESS ORBITALS FOLLOW.   BOTH SET(S).
    17 ORBITALS ARE OCCUPIED (    7 CORE ORBITALS).
     8=A        9=A       10=A       11=A       12=A       13=A       14=A   
    15=A       16=A       17=A       18=A       19=A       20=A       21=A   
    22=A       23=A       24=A       25=A       26=A       27=A   
 ...... END OF INITIAL ORBITAL SELECTION ......
 CPU     0: STEP CPU TIME=     0.01 TOTAL CPU TIME=          0.0 (      0.0 MIN)
 TOTAL WALL CLOCK TIME=          0.0 SECONDS, CPU UTILIZATION IS    80.00%

                    ----------------------
                    AO INTEGRAL TECHNOLOGY
                    ----------------------
     S,P,L SHELL ROTATED AXIS INTEGRALS, REPROGRAMMED BY
        KAZUYA ISHIMURA (IMS) AND JOSE SIERRA (SYNSTAR).
     S,P,D,L SHELL ROTATED AXIS INTEGRALS PROGRAMMED BY
        KAZUYA ISHIMURA (INSTITUTE FOR MOLECULAR SCIENCE).
     S,P,D,F,G SHELL TO TOTAL QUARTET ANGULAR MOMENTUM SUM 5,
        ERIC PROGRAM BY GRAHAM FLETCHER (ELORET AND NASA ADVANCED
        SUPERCOMPUTING DIVISION, AMES RESEARCH CENTER).
     S,P,D,F,G,L SHELL GENERAL RYS QUADRATURE PROGRAMMED BY
        MICHEL DUPUIS (PACIFIC NORTHWEST NATIONAL LABORATORY).

          --------------------
          2 ELECTRON INTEGRALS
          --------------------

 DIRECT SCF METHOD SKIPS INTEGRAL STORAGE ON DISK.
 DIRECT TRANSFORMATION SKIPS AO INTEGRAL STORAGE ON DISK.
  ...... END OF TWO-ELECTRON INTEGRALS .....
 CPU     0: STEP CPU TIME=     0.02 TOTAL CPU TIME=          0.1 (      0.0 MIN)
 TOTAL WALL CLOCK TIME=          0.1 SECONDS, CPU UTILIZATION IS    85.71%

          --------------------------
             R-B3LYP SCF CALCULATION
          --------------------------

     NUCLEAR ENERGY =       104.9348662147
     MAXIT =   60     NPUNCH=    2
     EXTRAP=T  DAMP=F  SHIFT=F  RSTRCT=F  DIIS=T  DEM=F  SOSCF=F
         DENSITY MATRIX CONVERGENCE THRESHOLD=  2.00E-05
     COARSE -> FINE DFT GRID SWITCH THRESHOLD=  3.00E-04 (SWITCH IN $DFT)
                   HF -> DFT SWITCH THRESHOLD=  5.00E-03 (SWOFF IN $DFT)
     MEMORY REQUIRED FOR RHF ITERS=    376845 WORDS.

 DIRECT SCF CALCULATION, SCHWRZ=T   FDIFF=T,  DIRTHR=  0.00E+00 NITDIR=10
 SCHWARZ INEQUALITY OVERHEAD:       939 INTEGRALS, T=        0.00

 DFT CODE IS SWITCHING FROM THE FINE GRID NRAD= 96,  NLEB=  302
                      TO THE COARSE GRID NRAD0= 24, NLEB0=  110

     EXCHANGE FUNCTIONAL   =B88&HFX   
     CORRELATION FUNCTIONAL=LYP88&VWN5
     DFT THRESHOLD         =.153E-07
     GRID CHANGE THRESHOLD =.300E-03
 FOR AN EULER-MACLAURIN QUADRATURE USING  96 RADIAL POINTS:
 SMALLEST GAUSSIAN PRIMITIVE EXPONENT=        0.1422690000 OF TYPE -P-
 ON ATOM NUMBER   4 HAS RADIAL NORMALIZATION=  1.000000
  LARGEST GAUSSIAN PRIMITIVE EXPONENT=     1210.6200000000 OF TYPE -S-
 ON ATOM NUMBER   4 HAS RADIAL NORMALIZATION=  1.000000
 DFT IS SWITCHED OFF, PERFORMING PURE SCF UNTIL SWOFF THRESHOLD IS REACHED.

                                                                                   NONZERO     BLOCKS
 ITER EX DEM     TOTAL ENERGY        E CHANGE  DENSITY CHANGE    DIIS ERROR      INTEGRALS    SKIPPED
   1  0  0     -474.0302358241  -474.0302358241   0.581031783   0.713081456         401533       4393
          * * *   INITIATING DIIS PROCEDURE   * * *
   2  1  0     -474.3325407448    -0.3023049206   0.095339204   0.044303581         401000       4699
   3  2  0     -474.3445260461    -0.0119853013   0.041406216   0.023427828         398470       5257
   4  3  0     -474.3460470602    -0.0015210141   0.013113561   0.006631734         395694       5822
   5  4  0     -474.3462758253    -0.0002287651   0.002367931   0.001015038         394134       6090
 CONVERGED TO SWOFF, SO DFT CALCULATION IS NOW SWITCHED ON.
          * * *   INITIATING DIIS PROCEDURE   * * *
   6  5  0     -475.4771349108    -1.1308590854   0.082310356   0.080777625         401615       4353
   7  6  0     -475.4846451385    -0.0075102278   0.055331965   0.036565545         399265       5133
   8  7  0     -475.4854177265    -0.0007725880   0.028126152   0.030196582         397562       5387
   9  8  0     -475.4873830914    -0.0019653648   0.004707660   0.002477624         395633       5786
  10  9  0     -475.4874166463    -0.0000335549   0.000702947   0.000402316         388318       6871
  11 10  0     -475.4874172743    -0.0000006280   0.000171652   0.000175414         379189       7780
 DFT CODE IS SWITCHING BACK TO THE FINE GRID
          * * *   INITIATING DIIS PROCEDURE   * * *
  12 11  0     -475.4936616166    -0.0062443423   0.003840660   0.000887468         401628       4334
  13 12  0     -475.4936687848    -0.0000071682   0.001256590   0.000360164         388748       6730
  14 13  0     -475.4936686793     0.0000001055   0.000550647   0.000461082         382128       7504
  15 14  0     -475.4936694654    -0.0000007861   0.000061026   0.000026778         376939       8165
  16 15  0     -475.4936694693    -0.0000000039   0.000015914   0.000010029         362705       9750
  17 16  0     -475.4936694696    -0.0000000002   0.000002974   0.000003523         350951      11085

          -----------------
          DENSITY CONVERGED
          -----------------
     TIME TO FORM FOCK OPERATORS=       2.0 SECONDS (       0.1 SEC/ITER)
     FOCK TIME ON FIRST ITERATION=       0.0, LAST ITERATION=       0.3
     TIME TO SOLVE SCF EQUATIONS=       0.1 SECONDS (       0.0 SEC/ITER)

 FINAL R-B3LYP ENERGY IS     -475.4936694696 AFTER  17 ITERATIONS
 DFT EXCHANGE + CORRELATION ENERGY =       -31.0689102597
 TOTAL ELECTRON NUMBER             =        34.0000569605

          ------------
          EIGENVECTORS
          ------------

                      1          2          3          4          5
                  -88.2253   -10.1616   -10.1212    -7.8681    -5.8388
                     A          A          A          A          A   
    1  C  1  S    0.000064  -0.009259   0.986242  -0.000269   0.000432
    2  C  1  S    0.000437  -0.003563   0.112018  -0.002204   0.002686
    3  C  1  X    0.000206  -0.000009   0.000137  -0.001251   0.001187
    4  C  1  Y    0.000001   0.000105  -0.000074   0.000031   0.000086
    5  C  1  Z   -0.000039  -0.000131   0.000069   0.000192  -0.000327
    6  C  1  S   -0.001384   0.022025  -0.090231   0.006944  -0.008365
    7  C  1  X   -0.001425   0.007979  -0.003482   0.008164  -0.011967
    8  C  1  Y    0.000408  -0.006964   0.002908  -0.002551   0.002129
    9  C  1  Z   -0.000244   0.007294  -0.003016   0.001632  -0.000494
   10  H  2  S    0.000282  -0.001261  -0.000104  -0.001508   0.002050
   11  H  2  S   -0.000194   0.000503   0.015729   0.001454  -0.001979
   12  C  3  S   -0.000078   0.986351   0.008698   0.000265  -0.000780
   13  C  3  S   -0.000729   0.112287  -0.001239   0.002712  -0.004543
   14  C  3  X   -0.000137   0.001035   0.000005   0.000143  -0.000131
   15  C  3  Y   -0.000024   0.000167  -0.000134   0.000052  -0.000251
   16  C  3  Z    0.000053  -0.000371   0.000161  -0.000095   0.000330
   17  C  3  S    0.001274  -0.088409   0.019450  -0.003139   0.012337
   18  C  3  X   -0.001017   0.001870  -0.008363   0.008798   0.001479
   19  C  3  Y    0.000378  -0.003352   0.007183  -0.001832   0.003306
   20  C  3  Z   -0.000305   0.003770  -0.007448   0.000857  -0.004311
   21  S  4  S    0.986297   0.000017  -0.000003  -0.300325   0.000856
   22  S  4  S    0.051755  -0.000436   0.000070   0.981653  -0.002774
   23  S  4  X   -0.000104   0.000451  -0.000190  -0.003502   0.862738
   24  S  4  Y   -0.000093   0.000018   0.000040  -0.008082  -0.338786
   25  S  4  Z    0.000135  -0.000098  -0.000019   0.010741   0.285318
   26  S  4  S   -0.018031  -0.002057  -0.001213   0.153268   0.000297
   27  S  4  X    0.000476  -0.002880   0.001280  -0.003342   0.085018
   28  S  4  Y    0.000213  -0.000071  -0.000281  -0.002886  -0.033368
   29  S  4  Z   -0.000349   0.000567   0.000148   0.004196   0.028074
   30  S  4  S    0.010823   0.014600   0.000724  -0.078006  -0.008331
   31  S  4  X   -0.000827  -0.007129  -0.002219   0.006643  -0.029922
   32  S  4  Y   -0.001002  -0.002362   0.000617   0.008361   0.015434
   33  S  4  Z    0.001402   0.004152  -0.000438  -0.011653  -0.014502
   34  H  5  S    0.000101  -0.000117  -0.001214  -0.000929  -0.000675
   35  H  5  S   -0.000887   0.015106   0.001172   0.005776  -0.001190
   36  H  6  S    0.000101  -0.000126  -0.001211  -0.000929  -0.000669
   37  H  6  S   -0.000892   0.015084   0.001181   0.005812  -0.001192
   38  H  7  S    0.000762  -0.000638  -0.000322  -0.004572  -0.005489
   39  H  7  S   -0.002499  -0.002750   0.001708   0.018479   0.014578
   40  H  8  S   -0.000055  -0.001315  -0.000157   0.000294  -0.000751
   41  H  8  S   -0.000414   0.000812   0.015638   0.002779  -0.003706
   42  H  9  S    0.000288  -0.001260  -0.000100  -0.001543   0.002072
   43  H  9  S   -0.000215   0.000468   0.015726   0.001607  -0.002052

                      6          7          8          9         10
                   -5.8344    -5.8254    -0.7946    -0.7035    -0.6048
                     A          A          A          A          A   
    1  C  1  S   -0.000174  -0.000000  -0.117106  -0.139497   0.107360
    2  C  1  S   -0.000981   0.000002   0.116129   0.132618  -0.100032
    3  C  1  X    0.000315   0.000014   0.036512  -0.010407   0.054071
    4  C  1  Y   -0.000148   0.000083  -0.028349  -0.005113  -0.068570
    5  C  1  Z    0.000112   0.000054   0.028964   0.008054   0.075577
    6  C  1  S    0.006320  -0.000032   0.280515   0.413241  -0.380477
    7  C  1  X    0.001123  -0.000150  -0.000964   0.002986   0.011439
    8  C  1  Y   -0.000861  -0.001071  -0.002131  -0.004976  -0.026491
    9  C  1  Z    0.000968  -0.000771   0.002675   0.005706   0.030729
   10  H  2  S   -0.000037   0.000518   0.055135   0.075414  -0.092843
   11  H  2  S   -0.001284  -0.002460  -0.002050   0.009279  -0.032637
   12  C  3  S    0.000610   0.000001  -0.157193  -0.018894  -0.143388
   13  C  3  S    0.003509   0.000010   0.145463   0.025489   0.133536
   14  C  3  X   -0.000434   0.000016  -0.001405  -0.108620  -0.018039
   15  C  3  Y   -0.000076   0.000108   0.021910   0.033319  -0.071967
   16  C  3  Z    0.000170   0.000085  -0.026664  -0.023056   0.091983
   17  C  3  S   -0.007000  -0.000029   0.435345   0.009450   0.508790
   18  C  3  X    0.002051   0.000064   0.025533  -0.044591  -0.004793
   19  C  3  Y   -0.001094   0.000407   0.006638   0.005295  -0.031401
   20  C  3  Z    0.000982   0.000328  -0.012208   0.000809   0.039753
   21  S  4  S    0.004630   0.000002   0.037082  -0.055327  -0.029431
   22  S  4  S   -0.015762  -0.000008  -0.206847   0.311858   0.167706
   23  S  4  X   -0.432240   0.098083   0.030412   0.004609   0.039655
   24  S  4  Y   -0.505631   0.756211   0.016167  -0.031727  -0.011485
   25  S  4  Z    0.706334   0.601357  -0.025403   0.039128   0.008092
   26  S  4  S    0.003413   0.000013   0.262710  -0.384332  -0.203151
   27  S  4  X   -0.041572   0.009107  -0.054936  -0.010416  -0.075085
   28  S  4  Y   -0.048487   0.070300  -0.032995   0.066073   0.025994
   29  S  4  Z    0.067753   0.055898   0.050650  -0.081360  -0.020668
   30  S  4  S   -0.008540  -0.000012   0.160200  -0.335684  -0.235460
   31  S  4  X    0.012270  -0.002768   0.004691   0.006600  -0.006767
   32  S  4  Y    0.018085  -0.021518  -0.007444   0.025931   0.011669
   33  S  4  Z   -0.024736  -0.017094   0.008681  -0.033667  -0.013824
   34  H  5  S    0.000041  -0.000593   0.074341   0.009362   0.127798
   35  H  5  S    0.004854   0.002661  -0.005949   0.007215   0.049452
   36  H  6  S    0.000033   0.000604   0.074262   0.009458   0.127864
   37  H  6  S    0.004823  -0.002670  -0.005915   0.007242   0.049462
   38  H  7  S   -0.003846   0.000000   0.058845  -0.120811  -0.083132
   39  H  7  S    0.009729  -0.000012   0.025189  -0.061645  -0.051825
   40  H  8  S   -0.000131   0.000006   0.052384   0.085135  -0.079496
   41  H  8  S   -0.000871  -0.000025  -0.002178   0.015803  -0.030095
   42  H  9  S   -0.000036  -0.000533   0.055241   0.075196  -0.093095
   43  H  9  S   -0.001372   0.002598  -0.001896   0.009136  -0.032690

                     11         12         13         14         15
                   -0.4632    -0.4521    -0.3910    -0.3649    -0.3631
                     A          A          A          A          A   
    1  C  1  S   -0.000042   0.010062  -0.003670   0.001693  -0.018311
    2  C  1  S    0.000023  -0.006610   0.007908  -0.001523   0.016097
    3  C  1  X    0.023561   0.245165  -0.003120   0.007531   0.278316
    4  C  1  Y    0.181029   0.025764  -0.218362   0.246424  -0.026440
    5  C  1  Z    0.147058  -0.070599   0.272035   0.192855   0.031484
    6  C  1  S    0.000328  -0.063295  -0.024076  -0.007676   0.085704
    7  C  1  X    0.016872   0.168630  -0.012259   0.007368   0.223392
    8  C  1  Y    0.128634   0.031541  -0.152585   0.205662  -0.016179
    9  C  1  Z    0.104518  -0.065787   0.191739   0.162049   0.020927
   10  H  2  S   -0.119167   0.040460  -0.133758  -0.196069   0.009307
   11  H  2  S   -0.092559   0.030301  -0.130671  -0.190533  -0.004190
   12  C  3  S    0.000107  -0.016388  -0.006725   0.001367  -0.014045
   13  C  3  S   -0.000021   0.002633   0.007989  -0.002685   0.028926
   14  C  3  X    0.032622   0.101719  -0.163254  -0.007574  -0.180988
   15  C  3  Y    0.243065   0.118305   0.164964  -0.184168   0.068362
   16  C  3  Z    0.197807  -0.160811  -0.177540  -0.133721  -0.088527
   17  C  3  S   -0.000697   0.107331   0.019032  -0.000336  -0.001022
   18  C  3  X    0.025126   0.103571  -0.142973  -0.005975  -0.158194
   19  C  3  Y    0.188445   0.106243   0.137284  -0.151697   0.034486
   20  C  3  Z    0.153670  -0.146499  -0.146737  -0.114123  -0.044602
   21  S  4  S   -0.000117   0.004357   0.013379   0.001720  -0.018332
   22  S  4  S    0.000666  -0.024644  -0.077119  -0.009971   0.106240
   23  S  4  X   -0.004416   0.108909  -0.014822   0.013842  -0.113114
   24  S  4  Y   -0.028350  -0.055154  -0.035320   0.021995   0.073462
   25  S  4  Z   -0.023482   0.050781   0.046762   0.029562  -0.068993
   26  S  4  S   -0.000906   0.036224   0.097998   0.011916  -0.128538
   27  S  4  X    0.008815  -0.222706   0.028006  -0.028724   0.236081
   28  S  4  Y    0.056197   0.112492   0.071669  -0.044796  -0.152113
   29  S  4  Z    0.046566  -0.103530  -0.094529  -0.060578   0.142666
   30  S  4  S   -0.000825   0.017569   0.137928   0.019818  -0.206289
   31  S  4  X    0.005577  -0.085478   0.030194  -0.016656   0.122894
   32  S  4  Y    0.039164   0.062063   0.037529  -0.035477  -0.083126
   33  S  4  Z    0.032221  -0.062932  -0.052179  -0.041746   0.077268
   34  H  5  S    0.162085  -0.067640  -0.077671  -0.144394  -0.023681
   35  H  5  S    0.120849  -0.057814  -0.077148  -0.144252  -0.024976
   36  H  6  S   -0.161298  -0.069352  -0.076884   0.147192   0.004137
   37  H  6  S   -0.120209  -0.058726  -0.076510   0.146998   0.003018
   38  H  7  S    0.001004  -0.144472  -0.033771  -0.017709   0.192597
   39  H  7  S    0.001176  -0.160096  -0.058395  -0.025186   0.273011
   40  H  8  S    0.002777  -0.172262   0.086081   0.019029  -0.176347
   41  H  8  S    0.002306  -0.137331   0.081073   0.020460  -0.193226
   42  H  9  S    0.116805   0.045652  -0.135894   0.188782   0.047905
   43  H  9  S    0.090524   0.034652  -0.132389   0.185892   0.033496

                     16         17         18         19         20
                   -0.3138    -0.2322     0.0333     0.0639     0.1382
                     A          A          A          A          A   
    1  C  1  S    0.006635   0.000300  -0.027423   0.022721  -0.100606
    2  C  1  S   -0.005178  -0.000226   0.020483  -0.023652   0.043981
    3  C  1  X    0.064730  -0.001667  -0.008744  -0.006350  -0.112468
    4  C  1  Y    0.041137  -0.003054   0.024216   0.015396   0.036887
    5  C  1  Z   -0.062933  -0.002588  -0.027402  -0.018155  -0.032821
    6  C  1  S   -0.052128  -0.002038   0.284524  -0.167604   1.376767
    7  C  1  X    0.075204  -0.006048  -0.115011   0.137572  -0.268345
    8  C  1  Y    0.041835  -0.032447   0.086123   0.025645   0.180583
    9  C  1  Z   -0.065412  -0.025998  -0.082928  -0.055799  -0.202874
   10  H  2  S    0.041838  -0.008737  -0.008789  -0.036553  -0.011806
   11  H  2  S    0.058364  -0.041906  -0.170935  -0.048110  -0.598538
   12  C  3  S    0.014038   0.000010  -0.104177  -0.047094  -0.079371
   13  C  3  S   -0.004328  -0.000041   0.056105   0.030003   0.031438
   14  C  3  X   -0.192157  -0.009435   0.257199   0.206360  -0.111133
   15  C  3  Y   -0.082174  -0.072969   0.023185   0.030099  -0.114549
   16  C  3  Z    0.135764  -0.058271  -0.071670  -0.074150   0.157560
   17  C  3  S   -0.097912   0.000051   0.988274   0.363807   1.151682
   18  C  3  X   -0.222182  -0.002706   0.567865   0.501826  -0.166585
   19  C  3  Y   -0.053656  -0.021209   0.064726   0.041204  -0.432638
   20  C  3  Z    0.105051  -0.017430  -0.174226  -0.144017   0.556924
   21  S  4  S    0.022648  -0.000003  -0.005386  -0.032512   0.005128
   22  S  4  S   -0.132028   0.000014   0.034085   0.197193  -0.026113
   23  S  4  X   -0.126457  -0.026670  -0.174653  -0.020602   0.061898
   24  S  4  Y   -0.093603  -0.206690   0.032578  -0.099766  -0.032523
   25  S  4  Z    0.137949  -0.164392  -0.012662   0.128636   0.030884
   26  S  4  S    0.147187  -0.000031  -0.008731  -0.250867   0.135165
   27  S  4  X    0.260515   0.055900   0.373032   0.034182  -0.148207
   28  S  4  Y    0.193542   0.433257  -0.070530   0.227476   0.072611
   29  S  4  Z   -0.285089   0.344591   0.028296  -0.291171  -0.067743
   30  S  4  S    0.327397   0.000011  -0.151181  -0.930186  -0.235061
   31  S  4  X    0.183921   0.056826   0.926770   0.139645  -0.242597
   32  S  4  Y    0.141952   0.439352  -0.181276   0.550530   0.205238
   33  S  4  Z   -0.207632   0.349532   0.076608  -0.715047  -0.215515
   34  H  5  S    0.081125  -0.077246  -0.014896   0.005278  -0.033480
   35  H  5  S    0.107321  -0.117058  -0.225317   0.086327  -0.914059
   36  H  6  S    0.079814   0.077718  -0.014354   0.004139  -0.035245
   37  H  6  S    0.105907   0.118043  -0.221568   0.074521  -0.928367
   38  H  7  S   -0.090861   0.000028  -0.115633   0.151257   0.055346
   39  H  7  S   -0.130409  -0.000155  -0.638872   1.252074   0.427422
   40  H  8  S   -0.081077   0.000742   0.020125   0.075335  -0.032128
   41  H  8  S   -0.078839   0.000999  -0.080834   0.379126  -0.822619
   42  H  9  S    0.042899   0.008369  -0.010096  -0.037562  -0.008684
   43  H  9  S    0.059650   0.042310  -0.176491  -0.052221  -0.562144

                     21         22         23         24         25
                    0.1617     0.1714     0.1921     0.2066     0.2262
                     A          A          A          A          A   
    1  C  1  S    0.000851  -0.150173   0.019161   0.000933   0.067835
    2  C  1  S   -0.000278   0.059086  -0.004253  -0.000084  -0.009517
    3  C  1  X   -0.015323   0.035103   0.287992   0.025120  -0.172927
    4  C  1  Y   -0.157197   0.051706   0.106156   0.226006   0.181379
    5  C  1  Z   -0.130593  -0.066274  -0.170798   0.181267  -0.201368
    6  C  1  S   -0.012575   1.995009  -0.272539  -0.012966  -0.980449
    7  C  1  X   -0.038219   0.217311   1.073064   0.114616  -0.920593
    8  C  1  Y   -0.434212   0.076100   0.446355   1.004853   0.857189
    9  C  1  Z   -0.364593  -0.115147  -0.703107   0.800663  -0.930632
   10  H  2  S   -0.076018  -0.039551  -0.033015   0.064548  -0.042796
   11  H  2  S   -0.770010  -0.950797  -0.613007   1.197279  -0.324030
   12  C  3  S    0.000945   0.118705  -0.020300  -0.001849  -0.075934
   13  C  3  S   -0.000410  -0.042233   0.003681   0.000524   0.015493
   14  C  3  X   -0.030171   0.071441  -0.075406  -0.028927  -0.174356
   15  C  3  Y   -0.223613   0.041331  -0.035670  -0.181064   0.180780
   16  C  3  Z   -0.182481  -0.064313   0.062668  -0.147238  -0.189926
   17  C  3  S   -0.012247  -1.581942   0.375523   0.026706   1.089176
   18  C  3  X   -0.109400   0.334675  -0.429066  -0.122297  -0.804224
   19  C  3  Y   -0.766050   0.027033  -0.198088  -0.802879   0.914198
   20  C  3  Z   -0.619909  -0.096223   0.333797  -0.665148  -0.975916
   21  S  4  S    0.000142   0.000921   0.006777   0.000237   0.003428
   22  S  4  S   -0.000943  -0.006988  -0.040954  -0.001296  -0.017815
   23  S  4  X    0.000083   0.003800  -0.005222  -0.001717   0.027535
   24  S  4  Y    0.012493  -0.016031   0.023149  -0.021686  -0.005261
   25  S  4  Z    0.007083   0.018305  -0.030404  -0.016529   0.002671
   26  S  4  S    0.000172  -0.020470   0.080358   0.004704   0.090847
   27  S  4  X   -0.002315  -0.005640   0.013181   0.004114  -0.083442
   28  S  4  Y   -0.045116   0.051027  -0.058893   0.051883   0.021405
   29  S  4  Z   -0.029174  -0.059981   0.078359   0.039407  -0.014426
   30  S  4  S    0.011543   0.077395   0.220827  -0.004158  -0.087025
   31  S  4  X    0.017792  -0.046993  -0.128842   0.010408   0.079107
   32  S  4  Y    0.101001  -0.043883  -0.100749   0.096847  -0.101344
   33  S  4  Z    0.096921   0.064053   0.144247   0.076625   0.109518
   34  H  5  S    0.088435   0.044431  -0.006823   0.016833   0.057674
   35  H  5  S    1.119062   0.810150  -0.389737   0.896144   0.317711
   36  H  6  S   -0.087954   0.044959  -0.003612  -0.016092   0.057781
   37  H  6  S   -1.106586   0.805885  -0.361684  -0.907539   0.337826
   38  H  7  S   -0.001923  -0.033947   0.005117   0.001102   0.056195
   39  H  7  S   -0.018042  -0.038355  -0.212887   0.003935   0.021165
   40  H  8  S    0.002736   0.016762   0.087839  -0.002437  -0.047616
   41  H  8  S    0.046054  -0.407050   1.656699  -0.037213  -0.173101
   42  H  9  S    0.074131  -0.041840  -0.038588  -0.063599  -0.041199
   43  H  9  S    0.744878  -0.977789  -0.692632  -1.170955  -0.293820

                     26         27         28         29         30
                    0.5054     0.5190     0.5376     0.5778     0.7024
                     A          A          A          A          A   
    1  C  1  S   -0.007271   0.003558   0.000209   0.012651  -0.000057
    2  C  1  S    0.001692   0.033965   0.000463  -0.040329   0.000197
    3  C  1  X   -0.021244   0.290927   0.007178  -0.066046  -0.068170
    4  C  1  Y    0.023967  -0.025943   0.011640   0.027733  -0.473862
    5  C  1  Z   -0.024365  -0.023125   0.012550  -0.023583  -0.377894
    6  C  1  S    0.086517  -0.280228  -0.008549  -0.046407  -0.001527
    7  C  1  X    0.091354  -0.159887  -0.025058   0.044819   0.102208
    8  C  1  Y    0.027209  -0.113130  -0.140703   0.137090   0.707199
    9  C  1  Z   -0.047441   0.173955  -0.108004  -0.172610   0.564331
   10  H  2  S   -0.012664   0.138769  -0.089737  -0.028208   0.432750
   11  H  2  S   -0.060953   0.127489  -0.095197  -0.048035  -0.022407
   12  C  3  S    0.016306   0.006585   0.000047  -0.014513   0.000151
   13  C  3  S   -0.070235  -0.093826  -0.001725   0.115689   0.000396
   14  C  3  X   -0.153327  -0.081052   0.001234  -0.049095  -0.038195
   15  C  3  Y   -0.016769  -0.039412   0.018446   0.055598  -0.273235
   16  C  3  Z    0.045152   0.060275   0.015772  -0.062432  -0.216503
   17  C  3  S    0.083484   0.343525   0.007121  -0.408500  -0.000972
   18  C  3  X   -0.025804   0.368032   0.008747  -0.736673   0.056183
   19  C  3  Y   -0.023020   0.142027   0.024183  -0.119519   0.412899
   20  C  3  Z    0.032413  -0.238432   0.011726   0.271019   0.328279
   21  S  4  S   -0.044090   0.023254   0.000467  -0.037463  -0.000025
   22  S  4  S    0.232244  -0.121234  -0.002457   0.179946   0.000184
   23  S  4  X    0.227866   0.206299  -0.032296  -0.110604  -0.005916
   24  S  4  Y    0.067962  -0.135587  -0.275199  -0.124221  -0.041019
   25  S  4  Z   -0.124253   0.147485  -0.212965   0.175476  -0.033255
   26  S  4  S   -1.260307   0.649776   0.012627  -1.442294   0.000394
   27  S  4  X   -0.802205  -0.747153   0.113327   0.409404   0.024092
   28  S  4  Y   -0.213141   0.489595   0.970271   0.485849   0.166916
   29  S  4  Z    0.404510  -0.531077   0.750230  -0.682182   0.135347
   30  S  4  S    1.431401  -0.853682  -0.015728   2.392071  -0.001911
   31  S  4  X    0.851394   1.053849  -0.101501  -0.741818  -0.039595
   32  S  4  Y    0.010596  -0.477608  -0.926699  -0.918592  -0.285703
   33  S  4  Z   -0.157186   0.463121  -0.715889   1.281711  -0.231401
   34  H  5  S   -0.049114  -0.029033   0.113618  -0.140718  -0.346392
   35  H  5  S    0.019163   0.105846   0.018066  -0.253821   0.054393
   36  H  6  S   -0.048783  -0.022804  -0.116416  -0.138709   0.350565
   37  H  6  S    0.016856   0.106544  -0.014014  -0.254746  -0.054064
   38  H  7  S   -0.138427  -0.183448  -0.004168  -0.193425   0.002704
   39  H  7  S   -0.365058   0.034350   0.000155  -0.802901  -0.000471
   40  H  8  S   -0.018760  -0.168095  -0.003898  -0.016118  -0.002522
   41  H  8  S    0.051745   0.241901   0.003814   0.026523   0.000005
   42  H  9  S   -0.013784   0.135719   0.094958  -0.030130  -0.430157
   43  H  9  S   -0.065023   0.131476   0.106078  -0.053616   0.022502

                     31         32         33         34         35
                    0.7265     0.7524     0.7912     0.8810     0.8930
                     A          A          A          A          A   
    1  C  1  S    0.001776   0.026123   0.047648   0.000088   0.023828
    2  C  1  S    0.026541  -0.105951  -0.077769  -0.000391   0.013765
    3  C  1  X   -0.196098  -0.135791  -0.484653   0.077887  -0.632440
    4  C  1  Y    0.408959   0.337746   0.254569   0.496031  -0.223307
    5  C  1  Z   -0.475580  -0.393740  -0.238918   0.389808   0.405724
    6  C  1  S   -0.570009   0.454752   0.065882  -0.000881  -0.283346
    7  C  1  X    0.103775   0.251812   0.933356  -0.192740   1.449815
    8  C  1  Y   -0.523992  -0.575715  -0.563942  -1.253644   0.454270
    9  C  1  Z    0.635471   0.669849   0.548035  -0.990641  -0.857919
   10  H  2  S    0.201332   0.208386   0.110686  -0.045776   0.118369
   11  H  2  S    0.088937   0.048766   0.195205  -0.591073  -0.327592
   12  C  3  S   -0.007201  -0.047684  -0.007610   0.000331   0.005076
   13  C  3  S    0.043840   0.054253   0.095485   0.000764  -0.041275
   14  C  3  X    0.471205   0.088490  -0.679959  -0.104669   0.502397
   15  C  3  Y   -0.379657   0.433959   0.059476  -0.700489   0.164825
   16  C  3  Z    0.390353  -0.560513   0.050887  -0.556292  -0.307503
   17  C  3  S   -0.477073  -0.082864  -0.522041  -0.005439   0.215834
   18  C  3  X   -0.601932   0.150433   1.096095   0.240829  -1.088832
   19  C  3  Y    0.570113  -0.821376  -0.122707   1.622834  -0.281991
   20  C  3  Z   -0.607690   1.007676  -0.052026   1.286614   0.580784
   21  S  4  S   -0.007619   0.007983   0.007518  -0.000001   0.005040
   22  S  4  S    0.035930  -0.040602  -0.032827   0.000183  -0.035402
   23  S  4  X    0.016950  -0.005289  -0.003812  -0.001962   0.106411
   24  S  4  Y   -0.024313   0.031533  -0.005878  -0.000334  -0.050068
   25  S  4  Z    0.027123  -0.039368   0.007583  -0.001273   0.045687
   26  S  4  S   -0.266067   0.301227   0.297241   0.001264   0.075851
   27  S  4  X   -0.065971  -0.015824   0.014165   0.011502  -0.459926
   28  S  4  Y    0.085508  -0.133553   0.049207   0.025926   0.193500
   29  S  4  Z   -0.093992   0.172815  -0.062737   0.023651  -0.167540
   30  S  4  S    0.648082  -0.423443  -0.791260  -0.017207   0.630374
   31  S  4  X    0.018812  -0.133796   0.372645  -0.040320   0.348136
   32  S  4  Y   -0.308246   0.375633  -0.012231  -0.269902  -0.502392
   33  S  4  Z    0.379844  -0.453501  -0.044886  -0.229956   0.566325
   34  H  5  S    0.083558  -0.343080   0.175195  -0.132432   0.078483
   35  H  5  S    0.093296  -0.153528   0.005970  -0.713950  -0.317096
   36  H  6  S    0.081363  -0.336639   0.170718   0.142726   0.083654
   37  H  6  S    0.092392  -0.151115   0.001475   0.722866  -0.296596
   38  H  7  S    0.298458  -0.134496  -0.251569  -0.008479   0.238564
   39  H  7  S   -0.550646   0.455946   0.278412   0.017335  -0.731438
   40  H  8  S   -0.041164  -0.249579   0.529217   0.003240   0.307337
   41  H  8  S   -0.004073   0.136396   0.077275  -0.004962   0.677665
   42  H  9  S    0.204801   0.207865   0.108588   0.043655   0.116021
   43  H  9  S    0.088948   0.050301   0.192837   0.595787  -0.317381

                     36         37         38         39         40
                    0.9477     1.0523     1.0557     1.0687     1.0748
                     A          A          A          A          A   
    1  C  1  S   -0.026859  -0.043134  -0.004301   0.005397   0.000305
    2  C  1  S    0.042760   0.051812   0.005238   0.003150   0.000226
    3  C  1  X   -0.324541  -0.491082   0.008953  -0.344321   0.029881
    4  C  1  Y    0.009419  -0.046974   0.482680  -0.211882   0.247908
    5  C  1  Z    0.043721   0.045112   0.408209   0.285976   0.209633
    6  C  1  S   -0.430775   0.070972   0.008676   0.057817  -0.001707
    7  C  1  X    0.386309   0.784975  -0.020486   0.186609   0.003727
    8  C  1  Y    0.262690   0.078388  -0.739128   0.133814   0.031350
    9  C  1  Z   -0.394691  -0.090193  -0.612797  -0.162576   0.018127
   10  H  2  S   -0.239349  -0.314996   0.386551   0.501562   0.746380
   11  H  2  S   -0.012153   0.125380  -0.910572  -0.583441  -0.731015
   12  C  3  S   -0.017739  -0.045277  -0.004292   0.026825   0.001011
   13  C  3  S   -0.092904   0.078666   0.009621  -0.013750  -0.001852
   14  C  3  X    0.333280  -0.358680   0.016975  -0.199119  -0.011749
   15  C  3  Y   -0.225607  -0.220039   0.441999  -0.026294  -0.080878
   16  C  3  Z    0.228662   0.218823   0.405123   0.046762  -0.065209
   17  C  3  S    0.300975  -0.240733  -0.033496  -0.125990   0.000359
   18  C  3  X   -0.611235   0.778726   0.030062   0.367804  -0.039570
   19  C  3  Y    0.339749   0.095885  -0.500470   0.154653  -0.285383
   20  C  3  Z   -0.318575  -0.115695  -0.443387  -0.211490  -0.239786
   21  S  4  S    0.015758   0.004289   0.000277  -0.006200  -0.000103
   22  S  4  S   -0.083634  -0.011734  -0.000154   0.034967   0.000517
   23  S  4  X   -0.028538   0.031744  -0.001657  -0.060201  -0.001860
   24  S  4  Y    0.050918  -0.026946  -0.028295   0.025847   0.002134
   25  S  4  Z   -0.059382   0.034943  -0.017020  -0.020513  -0.000198
   26  S  4  S    0.443409   0.371071   0.035787  -0.192760  -0.004981
   27  S  4  X    0.029964  -0.127547   0.007374   0.254131   0.005474
   28  S  4  Y   -0.131734   0.074345   0.112576  -0.089913  -0.020534
   29  S  4  Z    0.161199  -0.097969   0.074561   0.063215  -0.011059
   30  S  4  S   -0.821894  -0.650315  -0.073471  -0.032691  -0.000370
   31  S  4  X   -0.090099   0.663180   0.054486  -0.252487   0.002315
   32  S  4  Y    0.180714  -0.066932  -0.116393   0.159368   0.109967
   33  S  4  Z   -0.215773  -0.000051  -0.091041  -0.153365   0.081400
   34  H  5  S   -0.187564  -0.472116  -0.652640   0.295693   0.640454
   35  H  5  S    0.183136   0.478597   1.038246  -0.105542  -0.450571
   36  H  6  S   -0.177924  -0.612861   0.549321   0.295643  -0.617981
   37  H  6  S    0.174868   0.710369  -0.904630  -0.074630   0.437605
   38  H  7  S   -1.034107   0.538245   0.058267  -0.159208  -0.013446
   39  H  7  S    1.355800  -0.605845  -0.064230   0.302533   0.018687
   40  H  8  S   -0.139295  -0.483556  -0.077571  -0.893404  -0.026324
   41  H  8  S    0.339222   0.844548   0.123480   1.078908   0.029221
   42  H  9  S   -0.237449  -0.236223  -0.412229   0.572460  -0.711050
   43  H  9  S   -0.017098  -0.052377   0.880789  -0.682554   0.692780

                     41         42         43
                    1.1167     1.6696     2.0013
                     A          A          A   
    1  C  1  S    0.082172   0.005070  -0.073830
    2  C  1  S   -0.314230  -1.378881  -1.556809
    3  C  1  X    0.194416  -0.058580   0.010542
    4  C  1  Y   -0.240557   0.032251  -0.005469
    5  C  1  Z    0.263680  -0.029528   0.004799
    6  C  1  S    0.194838   2.199724   4.061738
    7  C  1  X   -0.478326  -0.125898   0.553719
    8  C  1  Y    0.507632   0.142867  -0.488358
    9  C  1  Z   -0.546168  -0.157207   0.512713
   10  H  2  S    0.557095  -0.059027  -0.293232
   11  H  2  S   -0.680206  -0.548399  -0.424223
   12  C  3  S   -0.060855   0.004759   0.064859
   13  C  3  S    0.298470  -1.409182   1.520278
   14  C  3  X   -0.009420  -0.021176   0.110275
   15  C  3  Y   -0.231716  -0.043362   0.005890
   16  C  3  Z    0.285622   0.056936  -0.025033
   17  C  3  S   -0.131109   2.111036  -3.843448
   18  C  3  X   -0.249471   0.277931   0.480980
   19  C  3  Y    0.529989  -0.150224  -0.526556
   20  C  3  Z   -0.608630   0.140750   0.565012
   21  S  4  S    0.000627  -0.001785   0.005446
   22  S  4  S   -0.001249   0.021332  -0.042789
   23  S  4  X   -0.024958  -0.027526   0.064608
   24  S  4  Y    0.028067  -0.007724  -0.004294
   25  S  4  Z   -0.030617   0.014365  -0.005288
   26  S  4  S    0.058457   0.145255  -0.031684
   27  S  4  X    0.094247   0.099029  -0.269014
   28  S  4  Y   -0.114575   0.026255   0.027851
   29  S  4  Z    0.126146  -0.049796   0.009451
   30  S  4  S   -0.212337  -0.585488   0.585980
   31  S  4  X   -0.125288   0.339669  -0.104714
   32  S  4  Y    0.195947   0.060879  -0.166314
   33  S  4  Z   -0.223533  -0.131601   0.227906
   34  H  5  S   -0.517226  -0.060121   0.283098
   35  H  5  S    0.752354  -0.520312   0.338640
   36  H  6  S   -0.520396  -0.059573   0.282146
   37  H  6  S    0.759016  -0.519880   0.336829
   38  H  7  S   -0.075786   0.092020  -0.017238
   39  H  7  S    0.298610  -0.007190  -0.249312
   40  H  8  S    0.471453  -0.043785  -0.297205
   41  H  8  S   -0.484174  -0.542182  -0.420914
   42  H  9  S    0.558598  -0.059417  -0.293417
   43  H  9  S   -0.683684  -0.546538  -0.425666
 ...... END OF RHF CALCULATION ......
 CPU     0: STEP CPU TIME=     2.18 TOTAL CPU TIME=          2.2 (      0.0 MIN)
 TOTAL WALL CLOCK TIME=          3.1 SECONDS, CPU UTILIZATION IS    72.49%

     ---------------------------------------------------------------------
     PROPERTIES FOR THE B3LYP    DFT FUNCTIONAL (RHF  TYPE) DENSITY MATRIX
     ---------------------------------------------------------------------

          -----------------
          ENERGY COMPONENTS
          -----------------

         WAVEFUNCTION NORMALIZATION =       1.0000000000

                ONE ELECTRON ENERGY =    -861.5991144354
                TWO ELECTRON ENERGY =     281.1705787511
           NUCLEAR REPULSION ENERGY =     104.9348662147
                                      ------------------
                       TOTAL ENERGY =    -475.4936694696

 ELECTRON-ELECTRON POTENTIAL ENERGY =     281.1705787511
  NUCLEUS-ELECTRON POTENTIAL ENERGY =   -1335.1901035441
   NUCLEUS-NUCLEUS POTENTIAL ENERGY =     104.9348662147
                                      ------------------
             TOTAL POTENTIAL ENERGY =    -949.0846585783
               TOTAL KINETIC ENERGY =     473.5909891087
                 VIRIAL RATIO (V/T) =       2.0040175603

          ---------------------------------------
          MULLIKEN AND LOWDIN POPULATION ANALYSES
          ---------------------------------------

     ATOMIC MULLIKEN POPULATION IN EACH MOLECULAR ORBITAL

                      1          2          3          4          5

                  2.000000   2.000000   2.000000   2.000000   2.000000

    1            -0.000004   0.005019   1.985418   0.000217   0.000238
    2            -0.000000   0.000011   0.003149   0.000005   0.000005
    3            -0.000010   1.986745   0.005031   0.001373  -0.000669
    4             2.000085   0.002169   0.000077   1.994098   1.999487
    5            -0.000002   0.003029   0.000027   0.000104   0.000008
    6            -0.000002   0.003024   0.000027   0.000104   0.000008
    7            -0.000069  -0.000025   0.000000   0.004094   0.000916
    8            -0.000000   0.000018   0.003121   0.000000   0.000001
    9            -0.000000   0.000010   0.003149   0.000006   0.000006

                      6          7          8          9         10

                  2.000000   2.000000   2.000000   2.000000   2.000000

    1             0.000015  -0.000003   0.485092   0.635817   0.460629
    2            -0.000000   0.000002   0.018772   0.043921   0.074824
    3            -0.000070   0.000014   0.914202   0.122518   0.714865
    4             1.999521   1.999958   0.446279   0.947843   0.277293
    5             0.000051   0.000013   0.031674   0.000977   0.139805
    6             0.000051   0.000013   0.031622   0.000999   0.139952
    7             0.000433  -0.000000   0.036318   0.144489   0.062178
    8            -0.000000  -0.000000   0.017083   0.059846   0.055218
    9            -0.000000   0.000003   0.018958   0.043589   0.075235

                     11         12         13         14         15

                  2.000000   2.000000   2.000000   2.000000   2.000000

    1             0.446243   0.523548   0.783130   0.664887   0.499490
    2             0.130774   0.014400   0.161656   0.319365   0.000492
    3             0.791255   0.462824   0.563933   0.321775   0.262408
    4             0.049435   0.409581   0.141582   0.043599   0.562849
    5             0.229460   0.043117   0.054035   0.168454   0.005131
    6             0.227244   0.045055   0.053039   0.175644   0.000050
    7             0.000012   0.213954   0.016431   0.003193   0.374878
    8             0.000073   0.269040   0.059702   0.003226   0.279972
    9             0.125505   0.018482   0.166491   0.299857   0.014730

                     16         17

                  2.000000   2.000000

    1             0.068895   0.000276
    2             0.018081   0.002708
    3             0.424811   0.026666
    4             1.236419   1.889540
    5             0.055241   0.038734
    6             0.053643   0.039290
    7             0.074385   0.000000
    8             0.049536   0.000004
    9             0.018990   0.002781

               ----- POPULATIONS IN EACH AO -----
                             MULLIKEN      LOWDIN
              1  C  1  S      1.98633     1.97429
              2  C  1  S      0.36833     0.42094
              3  C  1  X      0.55568     0.52172
              4  C  1  Y      0.56498     0.52830
              5  C  1  Z      0.56356     0.52675
              6  C  1  S      1.10392     0.57995
              7  C  1  X      0.45903     0.56362
              8  C  1  Y      0.48160     0.57465
              9  C  1  Z      0.47547     0.57262
             10  H  2  S      0.46877     0.46812
             11  H  2  S      0.31940     0.43055
             12  C  3  S      1.98679     1.97484
             13  C  3  S      0.36293     0.43371
             14  C  3  X      0.45170     0.43329
             15  C  3  Y      0.58585     0.54889
             16  C  3  Z      0.57147     0.53645
             17  C  3  S      1.16294     0.61014
             18  C  3  X      0.46431     0.56086
             19  C  3  Y      0.50980     0.57339
             20  C  3  Z      0.50187     0.57160
             21  S  4  S      1.99858     1.99854
             22  S  4  S      1.95890     1.95366
             23  S  4  X      1.95290     1.92635
             24  S  4  Y      1.96183     1.94244
             25  S  4  Z      1.95985     1.93872
             26  S  4  S      1.06239     0.96134
             27  S  4  X      0.67883     0.64274
             28  S  4  Y      0.91247     0.88950
             29  S  4  Z      0.86029     0.83002
             30  S  4  S      0.87102     0.82682
             31  S  4  X      0.30339     0.48143
             32  S  4  Y      0.79010     0.86644
             33  S  4  Z      0.68925     0.79944
             34  H  5  S      0.47198     0.47476
             35  H  5  S      0.29788     0.42376
             36  H  6  S      0.47197     0.47471
             37  H  6  S      0.29780     0.42375
             38  H  7  S      0.44096     0.43603
             39  H  7  S      0.49023     0.50550
             40  H  8  S      0.46830     0.46726
             41  H  8  S      0.32854     0.43367
             42  H  9  S      0.46869     0.46804
             43  H  9  S      0.31911     0.43040

          ----- MULLIKEN ATOMIC OVERLAP POPULATIONS -----
          (OFF-DIAGONAL ELEMENTS NEED TO BE MULTIPLIED BY 2)

             1           2           3           4           5

    1    5.3350668
    2    0.3697575   0.5116121
    3    0.2541315  -0.0427542   5.5571727
    4   -0.0660339   0.0010041   0.2127789  15.6938493
    5   -0.0359058   0.0033975   0.3568426  -0.0431498   0.5250613
    6   -0.0359878  -0.0029211   0.3568705  -0.0431718  -0.0302166
    7    0.0019450  -0.0000011  -0.0175789   0.2400023  -0.0014027
    8    0.3663209  -0.0254195  -0.0370103   0.0035238  -0.0020178
    9    0.3696129  -0.0265085  -0.0427803   0.0010117  -0.0027506

             6           7           8           9

    6    0.5249202
    7   -0.0013135   0.7095788
    8   -0.0018186  -0.0000450   0.5186424
    9    0.0034029   0.0000011  -0.0253363   0.5111381

          TOTAL MULLIKEN AND LOWDIN ATOMIC POPULATIONS
       ATOM         MULL.POP.    CHARGE          LOW.POP.     CHARGE
    1 C             6.558907   -0.558907         6.262845   -0.262845
    2 H             0.788167    0.211833         0.898666    0.101334
    3 C             6.597673   -0.597673         6.243175   -0.243175
    4 S            15.999815    0.000185        16.057434   -0.057434
    5 H             0.769858    0.230142         0.898520    0.101480
    6 H             0.769764    0.230236         0.898464    0.101536
    7 H             0.931186    0.068814         0.941530    0.058470
    8 H             0.796840    0.203160         0.900926    0.099074
    9 H             0.787791    0.212209         0.898439    0.101561

          -------------------------------
          BOND ORDER AND VALENCE ANALYSIS     BOND ORDER THRESHOLD=0.050
          -------------------------------

                   BOND                       BOND                       BOND
  ATOM PAIR DIST  ORDER      ATOM PAIR DIST  ORDER      ATOM PAIR DIST  ORDER
    1   2  1.095  0.916        1   3  1.533  0.940        1   8  1.096  0.918
    1   9  1.095  0.916        3   4  1.921  0.937        3   5  1.091  0.893
    3   6  1.091  0.893        4   7  1.377  0.942

                       TOTAL       BONDED        FREE
      ATOM            VALENCE     VALENCE     VALENCE
    1 C                 3.671       3.671       0.000
    2 H                 0.913       0.913       0.000
    3 C                 3.649       3.649      -0.000
    4 S                 1.891       1.891      -0.000
    5 H                 0.893       0.893       0.000
    6 H                 0.893       0.893       0.000
    7 H                 0.960       0.960      -0.000
    8 H                 0.916       0.916       0.000
    9 H                 0.913       0.913       0.000

          ---------------------
          ELECTROSTATIC MOMENTS
          ---------------------

 POINT   1           X           Y           Z (BOHR)    CHARGE
                 2.765614   -0.459651   -0.016404       -0.00 (A.U.)
         DX          DY          DZ         /D/  (DEBYE)
    -1.435709   -0.793016    1.241470    2.057033

          -----------------------
          ELECTROSTATIC POTENTIAL
          -----------------------

   POINT      X          Y          Z           ELECTRONIC      NUCLEAR         TOTAL
                       (BOHR)                                    (A.U.)
 GAVEZZOTTI RADII USED FOR CHARGE FITTING
 {3,5+}NH,NK TEMPLATE USED, NH= 3 NK= 0
 NUMBER OF POINTS SELECTED FOR FITTING =     889
      1   -0.36694    2.59484    2.68851        -6.531427       6.539434       0.008007
      2   -3.26399    3.09972   -1.48796        -5.344343       5.349340       0.004997
      3   -2.65811    2.79969   -2.97840        -5.373071       5.376415       0.003344
      4   -2.95814    1.30924   -3.58428        -5.400821       5.405460       0.004639
      5   -1.66254    2.10996    2.70469        -6.140218       6.148374       0.008156
      6   -2.45326   -2.86723   -0.68723        -6.198642       6.208619       0.009977
      7   -1.96839   -2.88341   -1.98283        -6.172407       6.179241       0.006834
      8   -0.25493   -1.76929   -5.36141        -5.261215       5.267147       0.005931
      9    0.78155   -1.38139   -5.37435        -5.543765       5.546139       0.002374
     10    1.81803   -0.74081   -4.97845        -6.111203       6.106788      -0.004415
     11    0.38565   -2.41787   -4.73377        -5.680936       5.684203       0.003267
     12    1.57800   -1.93316   -4.49375        -6.285802       6.281409      -0.004393
     13    1.02623   -2.81377   -3.69729        -6.482766       6.481708      -0.001058
     14   -0.25493    1.56883   -5.36141        -5.254779       5.258293       0.003513
     15    0.78155    1.18093   -5.37435        -5.510285       5.511537       0.001252
     16    1.81803    0.54035   -4.97845        -6.066791       6.063003      -0.003788
     17   -0.25493    0.54035   -5.77025        -5.124244       5.129387       0.005143
     18    0.87788   -0.10023   -5.62657        -5.461888       5.463990       0.002102
     19   -0.25493   -0.74081   -5.77025        -5.127815       5.133862       0.006047
     20    1.57800    1.73271   -4.49375        -6.169155       6.165565      -0.003589
     21    0.38565    2.21741   -4.73377        -5.645960       5.646411       0.000452
     22   -0.89551    2.21741   -4.73377        -5.346148       5.349167       0.003019
     23   -2.08787    1.73271   -4.49375        -5.205990       5.210504       0.004514
     24   -1.29141    1.18093   -5.37435        -5.045885       5.051426       0.005542
     25   -2.96847    0.93625   -3.94197        -5.248384       5.253450       0.005065
     26   -2.32789    0.54035   -4.97845        -4.987308       4.993731       0.006423
     27   -2.95553   -0.10023   -4.32987        -5.085865       5.092087       0.006222
     28   -2.32789   -0.74081   -4.97845        -4.970708       4.978150       0.007442
     29   -1.38775   -0.10023   -5.62657        -4.947093       4.954309       0.007216
     30   -1.29141   -1.38139   -5.37435        -5.032104       5.039713       0.007609
     31   -3.36437   -0.10023   -3.30139        -5.413531       5.418993       0.005462
     32   -1.92399   -2.80082   -2.66081        -5.926309       5.932670       0.006361
     33   -2.57257   -2.17319   -3.30139        -5.488484       5.494612       0.006128
     34   -2.96847   -1.13671   -3.94197        -5.194430       5.200772       0.006342
     35   -0.89551   -2.41787   -4.73377        -5.319219       5.325940       0.006722
     36   -1.53609   -2.81377   -3.69729        -5.551111       5.557788       0.006676
     37   -2.08787   -1.93316   -4.49375        -5.149624       5.156986       0.007362
     38   -0.89551   -3.20967   -2.66081        -6.256142       6.262952       0.006810
     39   -0.25493   -3.06598   -3.79363        -5.884453       5.889440       0.004987
     40    0.38565   -3.20967   -2.66081        -6.851027       6.855376       0.004349
     41   -1.97870   -1.07719    3.06166        -6.288836       6.303032       0.014196
     42   -1.99488   -2.37279    2.57679        -6.173676       6.186943       0.013267
     43    9.04888   -0.58409    2.42458        -5.372607       5.376159       0.003552
     44    4.79544   -1.59301    4.69318        -6.209647       6.226157       0.016509
     45    6.57963   -0.58409    4.46687        -5.773701       5.780686       0.006985
     46    8.06036    0.42482    3.44610        -5.494635       5.491314      -0.003321
     47    4.79544    0.42482    4.69318        -6.150553       6.153709       0.003156
     48    6.42790    1.43374    4.06964        -5.733311       5.722958      -0.010352
     49    4.79544    2.04468    4.04925        -6.081056       6.070279      -0.010777
     50    7.42421   -4.83753   -0.20419        -5.512508       5.513700       0.001191
     51    9.06927    1.04837    1.81364        -5.320824       5.311289      -0.009534
     52    8.44573    2.68082    0.80473        -5.349949       5.327104      -0.022844
     53    7.42421    3.66935   -0.20419        -5.450713       5.421453      -0.029259
     54    7.68232    2.30278    2.68269        -5.490202       5.470714      -0.019488
     55    6.81327    3.68974    1.42827        -5.574170       5.544715      -0.029455
     56    5.80436    3.06619    3.06073        -5.796358       5.773304      -0.023054
     57    8.44573    2.68082   -1.21310        -5.307786       5.283704      -0.024082
     58    9.46650    1.20010   -0.20419        -5.230356       5.217027      -0.013328
     59    9.69281   -0.58409    0.80473        -5.253577       5.253241      -0.000335
     60    9.06927    1.04837   -2.22202        -5.226791       5.208502      -0.018289
     61    9.69281   -0.58409   -1.21310        -5.197874       5.189967      -0.007907
     62    9.04888   -0.58409   -2.83296        -5.221365       5.204785      -0.016579
     63    8.44573   -3.84901   -1.21310        -5.345547       5.340550      -0.004997
     64    9.06927   -2.21655   -2.22202        -5.240940       5.229725      -0.011215
     65    9.46650   -2.36828   -0.20419        -5.266645       5.268562       0.001917
     66    4.79544   -3.21286   -4.45763        -5.750516       5.720793      -0.029723
     67    6.42790   -2.60192   -4.47802        -5.486480       5.456746      -0.029734
     68    8.06036   -1.59301   -3.85447        -5.302520       5.279328      -0.023192
     69    5.80436   -4.23438   -3.46910        -5.602834       5.576878      -0.025956
     70    7.68232   -3.47097   -3.09106        -5.366447       5.346210      -0.020237
     71    6.81327   -4.85792   -1.83665        -5.516516       5.503254      -0.013261
     72    4.79544    2.04468   -4.45763        -5.802701       5.781170      -0.021531
     73    6.42790    1.43374   -4.47802        -5.497324       5.471607      -0.025717
     74    8.06036    0.42482   -3.85447        -5.300240       5.276599      -0.023640
     75    4.79544    0.42482   -5.10156        -5.767677       5.743111      -0.024566
     76    6.57963   -0.58409   -4.87525        -5.460790       5.432303      -0.028487
     77    4.79544   -1.59301   -5.10156        -5.746066       5.717028      -0.029038
     78    6.81327    3.68974   -1.83665        -5.502440       5.474299      -0.028141
     79    7.68232    2.30278   -3.09106        -5.358848       5.333790      -0.025058
     80    5.80436    3.06619   -3.46910        -5.629681       5.605262      -0.024419
     81    5.80436    4.31328   -0.20419        -5.709432       5.679709      -0.029723
     82    3.78653    4.31328   -0.20419        -6.242515       6.222984      -0.019531
     83    4.79544    4.08697    1.58000        -5.976710       5.950396      -0.026315
     84    2.77761    3.68974    1.42827        -6.734938       6.723992      -0.010945
     85    3.78653    3.06619    3.06073        -6.341960       6.327170      -0.014791
     86    4.79544    4.08697   -1.98838        -5.887750       5.864562      -0.023188
     87    3.78653    3.06619   -3.46910        -6.128953       6.112615      -0.016338
     88    3.16298    1.43374   -4.47802        -6.287790       6.273493      -0.014296
     89    3.01125   -0.58409   -4.87525        -6.266672       6.249302      -0.017370
     90    3.16298   -2.60192   -4.47802        -6.165643       6.143004      -0.022639
     91    3.78653   -4.23438   -3.46910        -6.003052       5.980068      -0.022985
     92    2.77761   -4.85792   -1.83665        -6.420767       6.413999      -0.006768
     93    1.90857   -3.47097   -3.09106        -6.739127       6.729091      -0.010036
     94    3.78653   -5.48146   -0.20419        -6.202279       6.204799       0.002521
     95    4.79544   -5.25515   -1.98838        -5.837993       5.823010      -0.014982
     96    5.80436   -5.48146   -0.20419        -5.744292       5.743562      -0.000730
     97    3.78653   -4.23438    3.06073        -6.483438       6.504568       0.021129
     98    4.79544   -5.25515    1.58000        -6.061827       6.075797       0.013970
     99    1.32355   -2.14088    5.64568        -5.439181       5.455431       0.016249
    100    2.36003   -1.75298    5.65863        -5.590207       5.607109       0.016903
    101    3.39652   -1.11240    5.26273        -5.992433       6.008953       0.016519
    102    1.32355   -1.11240    6.05453        -5.262126       5.278881       0.016755
    103    2.45637   -0.47182    5.91084        -5.466402       5.482475       0.016073
    104    3.39652    0.16876    5.26273        -5.938164       5.950982       0.012818
    105    1.32355    0.16876    6.05453        -5.233253       5.249425       0.016172
    106    2.36003    0.80934    5.65863        -5.512192       5.525945       0.013754
    107    1.32355    1.19724    5.64568        -5.356622       5.371070       0.014448
    108    3.15649   -2.30476    4.77802        -6.243551       6.262058       0.018507
    109    1.96413   -2.78946    5.01805        -5.838587       5.854860       0.016273
    110    3.15649    1.36112    4.77802        -6.074912       6.082582       0.007670
    111    2.60471    2.24172    3.98157        -6.342914       6.346382       0.003468
    112    1.96413    1.84582    5.01805        -5.684492       5.695370       0.010878
    113    1.96413    2.63762    2.94509        -6.876916       6.878740       0.001824
    114    0.68297    2.63762    2.94509        -6.666333       6.674170       0.007837
    115   -0.34551    2.22877    2.94509        -6.612325       6.622179       0.009854
    116    1.32355    2.49393    4.07790        -6.022435       6.031067       0.008632
    117    0.04239    2.24172    3.98157        -5.941183       5.952419       0.011236
    118    0.68297    1.84582    5.01805        -5.515727       5.528824       0.013097
    119    0.28707    0.80934    5.65863        -5.250299       5.265841       0.015542
    120   -0.50938    1.36112    4.77802        -5.524009       5.538016       0.014007
    121   -0.99409    1.60114    3.58567        -6.127419       6.139397       0.011977
    122   -0.74941    0.16876    5.26273        -5.323242       5.338594       0.015352
    123   -1.38999    0.56466    4.22625        -5.742482       5.756412       0.013930
    124   -1.37704   -0.47182    4.61415        -5.559762       5.574258       0.014496
    125   -1.78589   -0.47182    3.58567        -6.092187       6.106284       0.014098
    126   -1.38999   -1.50830    4.22625        -5.753062       5.766806       0.013744
    127   -0.74941   -1.11240    5.26273        -5.340429       5.355626       0.015197
    128   -0.50938   -2.30476    4.77802        -5.583781       5.597832       0.014051
    129    0.28707   -1.75298    5.65863        -5.299145       5.314989       0.015844
    130    0.68297   -2.78946    5.01805        -5.630201       5.645059       0.014859
    131    0.19074   -0.47182    5.91084        -5.175933       5.192317       0.016384
    132    0.96565   -4.75737    3.53149        -5.650127       5.665572       0.015446
    133    2.00213   -4.36947    3.54443        -6.089720       6.106247       0.016528
    134    0.96565   -3.72889    3.94033        -6.090540       6.105346       0.014806
    135    2.63471   -5.78891    0.83089        -5.913880       5.927704       0.013824
    136    3.28329   -5.16127    1.47147        -6.420600       6.436979       0.016379
    137    2.24681   -5.80185    1.86737        -5.687418       5.703783       0.016365
    138    2.79859   -4.92125    2.66383        -6.183553       6.201620       0.018067
    139    1.60623   -5.40595    2.90385        -5.588876       5.605455       0.016579
    140    0.96565   -4.75737   -1.86970        -6.187755       6.193782       0.006027
    141    1.60623   -5.40595   -1.24207        -5.979236       5.986652       0.007416
    142    2.24681   -5.80185   -0.20559        -5.888361       5.898929       0.010568
    143    0.96565   -3.72889   -2.27855        -6.890938       6.893451       0.002513
    144   -1.10731   -3.72889   -1.48675        -6.319409       6.329767       0.010359
    145   -0.07083   -4.36947   -1.88265        -6.156762       6.165592       0.008830
    146   -1.73494   -3.08831    2.49995        -6.050127       6.063602       0.013475
    147   -2.14379   -3.08831    1.47147        -6.146749       6.160759       0.014010
    148   -2.14379   -3.08831    0.19031        -6.370135       6.383326       0.013191
    149   -0.70341   -5.78891    0.83089        -5.201399       5.217325       0.015926
    150   -1.35199   -5.16127    1.47147        -5.281843       5.297332       0.015489
    151   -1.74789   -4.12479    2.11205        -5.579187       5.593401       0.014214
    152   -1.35199   -5.16127    0.19031        -5.385950       5.400710       0.014760
    153   -2.00010   -4.22113    0.83089        -5.638578       5.652749       0.014171
    154   -1.74789   -4.12479   -0.45027        -5.862408       5.875214       0.012806
    155    0.32507   -5.40595   -1.24207        -5.672626       5.683784       0.011158
    156   -0.31551   -5.80185   -0.20559        -5.328211       5.342837       0.014626
    157   -0.86728   -4.92125   -1.00204        -5.655597       5.668224       0.012627
    158    0.32507   -6.19775    0.83089        -5.222157       5.238181       0.016024
    159    0.96565   -6.05407   -0.30192        -5.471051       5.484358       0.013307
    160    1.60623   -6.19775    0.83089        -5.466689       5.481817       0.015128
    161   -1.10731   -3.72889    3.14853        -5.745217       5.758669       0.013453
    162   -0.86728   -4.92125    2.66383        -5.338255       5.353431       0.015176
    163   -0.31551   -5.80185    1.86737        -5.178594       5.194994       0.016400
    164   -0.07083   -4.36947    3.54443        -5.605645       5.620012       0.014367
    165    0.32507   -5.40595    2.90385        -5.335120       5.351151       0.016031
    166    0.96565   -6.05407    1.96371        -5.299204       5.315837       0.016633
    167    5.94635   -3.79402    4.24806        -5.407678       5.426749       0.019071
    168    6.98283   -3.40612    4.26100        -5.168737       5.186133       0.017396
    169    8.01931   -2.76554    3.86510        -5.089358       5.104499       0.015141
    170    8.64694   -2.12496    3.21652        -5.181365       5.194208       0.012842
    171    5.94635   -2.76554    4.65690        -5.541189       5.559194       0.018005
    172    7.07917   -2.12496    4.51322        -5.340636       5.355438       0.014802
    173    8.01931   -1.48438    3.86510        -5.343021       5.354457       0.011436
    174    5.94635   -1.48438    4.65690        -5.854064       5.868410       0.014346
    175    7.61541   -4.82556    1.54746        -5.259811       5.272489       0.012679
    176    8.26399   -4.19792    2.18804        -5.085090       5.099379       0.014289
    177    8.65989   -3.16144    2.82862        -5.057546       5.071955       0.014409
    178    7.22751   -4.83850    2.58394        -5.153601       5.169362       0.015761
    179    7.77929   -3.95790    3.38040        -5.025512       5.041934       0.016422
    180    6.58693   -4.44260    3.62042        -5.206999       5.225026       0.018027
    181    9.05579   -2.12496    2.18804        -5.302077       5.314026       0.011949
    182    8.26399   -4.19792    0.90688        -5.358681       5.369241       0.010559
    183    8.91210   -3.25778    1.54746        -5.241183       5.253626       0.012443
    184    6.58693   -5.23440    1.54746        -5.475420       5.488214       0.012794
    185    4.66519   -4.83850    2.58394        -6.073801       6.093159       0.019358
    186    4.90987   -3.40612    4.26100        -5.901185       5.921921       0.020736
    187    5.30577   -4.44260    3.62042        -5.631001       5.650757       0.019756
    188    5.94635   -5.09072    2.68028        -5.463805       5.480878       0.017073
    189   -2.32329   -1.38074    2.65913        -6.206430       6.220907       0.014476
    190   -2.32329   -0.35227    3.06798        -6.068514       6.082540       0.014026
    191   -2.32329    0.92890    3.06798        -5.910643       5.922515       0.011873
    192   -2.32329    1.95737    2.65913        -5.817280       5.826210       0.008930
    193   -3.99235    2.98891   -0.04146        -5.001836       5.009516       0.007680
    194   -3.60445    3.00186    0.99502        -5.128305       5.136054       0.007750
    195   -2.96387    2.60596    2.03150        -5.416894       5.424795       0.007901
    196   -3.60445    3.00186   -1.07794        -5.225188       5.231175       0.005988
    197   -4.64093    2.36128   -0.68204        -4.788427       4.797496       0.009068
    198   -4.15622    2.12125   -1.87440        -5.034138       5.040938       0.006801
    199   -5.03683    1.32480   -1.32262        -4.696065       4.706029       0.009964
    200   -4.39625    0.92890   -2.35910        -4.987071       4.994396       0.007325
    201   -5.02388    0.28831   -1.71052        -4.740278       4.750237       0.009958
    202   -4.39625   -0.35227   -2.35910        -5.024910       5.032693       0.007783
    203   -3.35977    1.56948    2.67208        -5.257129       5.268278       0.011149
    204   -4.15622    2.12125    1.79148        -4.904654       4.915629       0.010975
    205   -4.64093    2.36128    0.59912        -4.748653       4.759182       0.010529
    206   -4.39625    0.92890    2.27618        -4.853338       4.866809       0.013471
    207   -5.03683    1.32480    1.23970        -4.631827       4.645047       0.013220
    208   -5.02388    0.28831    1.62760        -4.666298       4.680882       0.014584
    209   -5.43273    0.28831    0.59912        -4.551479       4.565640       0.014161
[...]
    699   -2.84328    5.17723    0.24021        -4.504594       4.509157       0.004563
    700   -0.36694    3.48898   -5.50972        -4.562541       4.562107      -0.000434
    701   -1.51083    4.64716   -4.38895        -4.376702       4.377761       0.001058
    702   -4.50558    4.21023   -1.83113        -4.142667       4.146553       0.003886
    703   -3.64004    3.78162   -3.96033        -4.176987       4.179494       0.002506
    704   -5.21255    2.35937   -2.97502        -4.111864       4.116261       0.004397
    705   -4.06865    1.65241   -4.82588        -4.191706       4.194933       0.003227
    706   -5.18943    0.50851   -3.66770        -4.163207       4.167832       0.004625
    707   -2.21780    2.79630    4.15838        -4.774521       4.781650       0.007128
    708   -3.64004    3.78162    2.58587        -4.415229       4.421018       0.005788
    709   -3.34740   -4.31398   -0.68723        -4.811905       4.820225       0.008321
    710   -2.65472   -4.33710   -2.53809        -4.808046       4.813902       0.005856
    711   -0.25493   -2.48460   -6.51880        -4.429373       4.429934       0.000561
    712    1.22575   -1.93046   -6.53730        -4.706986       4.703623      -0.003363
    713    0.66018   -3.41114   -5.62218        -4.823540       4.821703      -0.001837
    714   -0.25493    2.28414   -6.51880        -4.394238       4.394005      -0.000233
    715    1.22575    1.73000   -6.53730        -4.650338       4.647236      -0.003101
    716   -0.25493    0.81489   -7.10287        -4.294222       4.294470       0.000248
    717    1.36338   -0.10023   -6.89760        -4.625646       4.622294      -0.003352
    718   -0.25493   -1.01534   -7.10287        -4.307185       4.307728       0.000543
    719    0.66018    3.21069   -5.62218        -4.735090       4.732917      -0.002173
    720   -1.17005    3.21069   -5.62218        -4.442310       4.442972       0.000663
    721   -1.73562    1.73000   -6.53730        -4.198737       4.200473       0.001736
    722   -3.21631    0.81489   -5.97173        -4.133703       4.136811       0.003108
    723   -4.11292   -0.10023   -5.04518        -4.203797       4.207699       0.003901
    724   -3.21631   -1.01534   -5.97173        -4.129900       4.133522       0.003622
    725   -1.87324   -0.10023   -6.89760        -4.125141       4.127587       0.002445
    726   -1.73562   -1.93046   -6.53730        -4.206766       4.209426       0.002659
    727   -4.13142   -1.58091   -4.49104        -4.298908       4.303311       0.004403
    728   -1.17005   -3.41114   -5.62218        -4.466682       4.468927       0.002245
    729   -2.08516   -3.97671   -4.14150        -4.647784       4.651808       0.004024
    730   -2.87341   -2.71871   -5.27929        -4.290658       4.294494       0.003836
    731   -0.25493   -4.33702   -4.27912        -4.983884       4.985372       0.001488
    732    1.39704   -4.05765    5.79783        -4.761825       4.773077       0.011251
    733   -3.44857   -2.92805    3.26313        -4.734673       4.744969       0.010297
    734   -2.30467   -2.22108    5.11398        -4.653646       4.663797       0.010152
    735   -1.87606   -4.35029    4.24844        -4.620634       4.630728       0.010094
    736    4.79544   -4.33948    5.87215        -4.541032       4.551957       0.010924
    737    7.12752   -3.46670    5.90128        -4.282249       4.291207       0.008958
    738    9.45960   -2.02540    5.01050        -4.078823       4.083544       0.004721
    739   10.87178   -0.58409    3.55119        -3.962683       3.962740       0.000057
    740    4.79544   -2.02540    6.79206        -4.551690       4.560640       0.008950
    741    7.34428   -0.58409    6.46876        -4.250870       4.254575       0.003704
    742    9.45960    0.85721    5.01050        -4.058220       4.056599      -0.001621
    743    4.79544    0.85721    6.79206        -4.531717       4.535463       0.003747
    744    7.12752    2.29852    5.90128        -4.242808       4.239640      -0.003169
    745    4.79544    3.17129    5.87215        -4.499124       4.496847      -0.002277
    746    8.55083   -6.66043   -0.20419        -4.065410       4.065597       0.000186
    747   10.01013   -5.24825    1.23712        -3.999286       4.002228       0.002942
    748   10.90091   -2.91617    2.67842        -3.962622       3.965697       0.003074
    749    7.67805   -6.68956    2.12789        -4.173168       4.178927       0.005760
    750    8.91955   -4.70820    3.91992        -4.114621       4.122392       0.007772
    751    6.23675   -5.79878    4.45997        -4.346881       4.356899       0.010018
    752   10.90091    1.74799    2.67842        -3.938977       3.933477      -0.005500
    753   10.01013    4.08007    1.23712        -3.969304       3.958271      -0.011033
    754    8.55083    5.49225   -0.20419        -4.051120       4.037502      -0.013618
    755    8.91955    3.54002    3.91992        -4.069304       4.061032      -0.008272
    756    7.67805    5.52138    2.12789        -4.140767       4.128330      -0.012437
    757    6.23675    4.63060    4.45997        -4.301219       4.292802      -0.008418
    758   10.01013    4.08007   -1.64549        -3.942540       3.929966      -0.012574
    759   11.46839    1.96475   -0.20419        -3.878217       3.869986      -0.008232
    760   11.79169   -0.58409    1.23712        -3.885055       3.882553      -0.002502
    761   10.90091    1.74799   -3.08680        -3.880444       3.869615      -0.010828
    762   11.79169   -0.58409   -1.64549        -3.852447       3.846116      -0.006331
    763   10.87178   -0.58409   -3.95957        -3.874609       3.864658      -0.009951
    764   10.01013   -5.24825   -1.64549        -3.952586       3.949169      -0.003416
    765   10.90091   -2.91617   -3.08680        -3.883976       3.876846      -0.007129
    766   11.46839   -3.13293   -0.20419        -3.891857       3.890374      -0.001483
    767    4.79544   -4.33948   -6.28053        -4.276152       4.264139      -0.012013
    768    7.12752   -3.46670   -6.30966        -4.076318       4.063010      -0.013308
    769    9.45960   -2.02540   -5.41888        -3.936472       3.924526      -0.011946
    770    6.23675   -5.79878   -4.86835        -4.158030       4.147539      -0.010491
    771    8.91955   -4.70820   -4.32830        -3.978907       3.969299      -0.009608
    772    7.67805   -6.68956   -2.53627        -4.083836       4.078376      -0.005460
    773    4.79544    3.17129   -6.28053        -4.333608       4.322410      -0.011198
    774    7.12752    2.29852   -6.30966        -4.095440       4.081993      -0.013447
    775    9.45960    0.85721   -5.41888        -3.939110       3.926254      -0.012856
    776    4.79544    0.85721   -7.20043        -4.303603       4.291688      -0.011915
    777    7.34428   -0.58409   -6.87714        -4.062833       4.048906      -0.013927
    778    4.79544   -2.02540   -7.20043        -4.280160       4.267494      -0.012666
    779    7.67805    5.52138   -2.53627        -4.096239       4.082431      -0.013808
    780    8.91955    3.54002   -4.32830        -3.986207       3.972773      -0.013434
    781    6.23675    4.63060   -4.86835        -4.199102       4.186441      -0.012661
    782    6.23675    6.41215   -0.20419        -4.251373       4.238430      -0.012943
    783    3.35414    6.41215   -0.20419        -4.654681       4.647488      -0.007193
    784    4.79544    6.08885    2.34465        -4.445944       4.436071      -0.009873
    785    3.35414    4.63060    4.45997        -4.697479       4.693771      -0.003709
    786    4.79544    6.08885   -2.75303        -4.394869       4.384022      -0.010847
    787    3.35414    4.63060   -4.86835        -4.581984       4.573662      -0.008322
    788    2.46336    2.29852   -6.30966        -4.699892       4.693016      -0.006875
    789    2.24660   -0.58409   -6.87714        -4.677135       4.670365      -0.006770
    790    2.46336   -3.46670   -6.30966        -4.590519       4.582355      -0.008164
    791    3.35414   -5.79878   -4.86835        -4.457422       4.449445      -0.007977
    792    1.91283   -6.68956   -2.53627        -4.736884       4.736937       0.000053
    793    0.67133   -4.70820   -4.32830        -4.984565       4.983254      -0.001312
    794    3.35414   -7.58034   -0.20419        -4.568549       4.572169       0.003620
    795    4.79544   -7.25704   -2.75303        -4.324504       4.319769      -0.004735
    796    6.23675   -7.58034   -0.20419        -4.240174       4.240920       0.000745
    797    3.35414   -5.79878    4.45997        -4.725571       4.736912       0.011341
    798    4.79544   -7.25704    2.34465        -4.451190       4.458651       0.007462
    799    1.32355   -2.85619    6.80308        -4.512203       4.522922       0.010719
    800    2.80424   -2.30205    6.82157        -4.655316       4.666203       0.010887
    801    1.32355   -1.38694    7.38715        -4.370464       4.380602       0.010138
    802    2.94186   -0.47182    7.18188        -4.557888       4.567020       0.009132
    803    1.32355    0.44329    7.38715        -4.351868       4.360871       0.009002
    804    2.80424    1.35841    6.82157        -4.600847       4.607511       0.006664
    805    1.32355    1.91255    6.80308        -4.460199       4.467626       0.007426
    806    2.23867   -3.78274    5.90646        -4.848701       4.860473       0.011772
    807    2.23867    2.83909    5.90646        -4.748050       4.752368       0.004318
    808    1.32355    3.76497    4.56340        -5.035363       5.038569       0.003206
    809   -0.50667    3.40467    4.42577        -4.957152       4.963397       0.006245
    810    0.40844    2.83909    5.90646        -4.593756       4.600514       0.006758
    811   -0.15713    1.35841    6.82157        -4.362404       4.371181       0.008777
    812   -1.29493    2.14666    5.56357        -4.593352       4.601663       0.008311
    813   -1.63782    0.44329    6.25600        -4.415886       4.425421       0.009534
    814   -2.55293    1.00887    4.77532        -4.771881       4.781410       0.009528
    815   -2.53444   -0.47182    5.32946        -4.607155       4.617175       0.010020
    816   -1.63782   -1.38694    6.25600        -4.421235       4.431264       0.010029
    817   -1.29493   -3.09030    5.56357        -4.611340       4.621607       0.010267
    818   -0.15713   -2.30205    6.82157        -4.388956       4.399253       0.010297
    819    0.40844   -3.78274    5.90646        -4.656162       4.666943       0.010781
    820   -0.29476   -0.47182    7.18188        -4.293452       4.303294       0.009842
    821    0.96565   -5.47268    4.68889        -4.680773       4.691791       0.011017
    822    2.79588   -6.96480    2.31158        -4.750285       4.760287       0.010002
    823    1.88077   -6.39923    3.79227        -4.647287       4.658289       0.011002
    824   -0.51503   -4.91854   -3.04559        -5.149009       5.153000       0.003991
    825   -1.41872   -6.94630    0.83089        -4.318464       4.327695       0.009231
    826   -2.34526   -6.04968    1.74601        -4.378598       4.388314       0.009716
    827   -2.91083   -4.56900    2.66112        -4.617373       4.627464       0.010091
    828   -2.34526   -6.04968   -0.08422        -4.474091       4.482879       0.008788
    829   -3.27114   -4.70662    0.83089        -4.680544       4.690174       0.009630
    830   -2.91083   -4.56900   -0.99934        -4.882309       4.890506       0.008197
    831    0.05054   -6.39923   -2.13048        -4.733280       4.738198       0.004919
    832   -0.86458   -6.96480   -0.64979        -4.432191       4.440045       0.007854
    833   -1.65283   -5.70679   -1.78759        -4.710746       4.717696       0.006950
    834    0.05054   -7.53037    0.83089        -4.342051       4.350936       0.008884
    835    0.96565   -7.32510   -0.78742        -4.563030       4.569335       0.006304
    836    1.88077   -7.53037    0.83089        -4.560302       4.568374       0.008071
    837   -1.65283   -5.70679    3.44937        -4.417771       4.427866       0.010095
    838   -0.86458   -6.96480    2.31158        -4.295592       4.305486       0.009894
    839   -0.51503   -4.91854    4.70738        -4.631429       4.641942       0.010513
    840    0.05054   -6.39923    3.79227        -4.422138       4.432537       0.010399
    841    0.96565   -7.32510    2.44920        -4.405430       4.415339       0.009909
    842   -4.70766    4.14631   -0.04146        -4.171061       4.176106       0.005045
    843   -4.15352    4.16480    1.43923        -4.288439       4.293814       0.005375
    844   -5.63420    3.24969   -0.95658        -3.990327       3.995805       0.005478
    845   -6.19977    1.76900   -1.87169        -3.913677       3.919553       0.005876
    846   -6.18128    0.28831   -2.42583        -3.953782       3.959778       0.005996
    847   -5.28466   -0.62680   -3.35238        -4.192934       4.198148       0.005214
    848   -3.80397    2.11854    3.83503        -4.431059       4.438867       0.007808
    849   -4.94177    2.90680    2.57702        -4.110203       4.117167       0.006964
    850   -5.63420    3.24969    0.87365        -3.965884       3.972255       0.006370
    851   -5.28466    1.20343    3.26946        -4.076083       4.084535       0.008452
    852   -6.19977    1.76900    1.78877        -3.875121       3.882951       0.007830
    853   -6.18128    0.28831    2.34291        -3.911869       3.920631       0.008762
    854   -6.76535    0.28831    0.87365        -3.806822       3.815082       0.008260
    855   -6.56008    1.90663   -0.04146        -3.819486       3.826535       0.007049
    856   -6.76535    0.28831   -0.95658        -3.821674       3.828895       0.007221
    857   -4.70766   -3.56968   -0.04146        -4.408547       4.416945       0.008398
    858   -5.63420   -2.67306    0.87365        -4.125490       4.134336       0.008846
    859   -6.19977   -1.19237    1.78877        -3.950447       3.959501       0.009054
    860   -5.63420   -2.67306   -0.95658        -4.132503       4.140012       0.007508
    861   -6.56008   -1.33000   -0.04146        -3.889012       3.897162       0.008150
    862   -6.19977   -1.19237   -1.87169        -3.974729       3.981465       0.006737
    863   -4.94177   -2.33017   -2.65994        -4.316041       4.321896       0.005855
    864   -5.28466   -0.62680    3.26946        -4.137504       4.146896       0.009392
    865   -4.94177   -2.33017    2.57702        -4.292919       4.302638       0.009720
    866   -4.15352   -3.58817    1.43923        -4.592899       4.602648       0.009749
    867   -3.80397   -1.54191    3.83503        -4.618116       4.628383       0.010267
    868   -3.94160    0.28831    4.19533        -4.473801       4.483225       0.009424
    869    0.13655    4.89636    3.27460        -4.849752       4.852833       0.003081
    870    2.52092    6.36998   -0.58340        -4.709099       4.705046      -0.004052
    871    1.96678    6.38848    0.89729        -4.660435       4.658454      -0.001981
    872    1.05166    5.82291    2.37798        -4.706862       4.707524       0.000662
    873    0.13655    4.89636   -4.44139        -4.546880       4.546134      -0.000746
    874    1.61723    4.34222   -4.45989        -4.919060       4.915017      -0.004043
    875    1.96678    6.38848   -2.06408        -4.548398       4.545796      -0.002602
    876    1.05166    5.82291   -3.54477        -4.486983       4.485517      -0.001466
    877    1.05166    6.95405   -0.58340        -4.343658       4.343809       0.000150
    878   -0.77857    6.95405   -0.58340        -4.144156       4.146692       0.002537
    879   -2.24782    6.36998   -0.58340        -4.123448       4.126870       0.003422
    880    0.13655    6.74878    1.03491        -4.321684       4.323622       0.001938
    881   -1.69368    6.38848    0.89729        -4.202245       4.205793       0.003548
    882   -0.77857    5.82291    2.37798        -4.452832       4.456156       0.003324
    883   -1.69368    6.38848   -2.06408        -4.128452       4.131041       0.002589
    884    0.13655    6.74878   -2.20171        -4.229517       4.230464       0.000946
    885   -0.77857    5.82291   -3.54477        -4.276262       4.277337       0.001076
    886   -3.17437    5.47336   -1.49851        -4.199784       4.203236       0.003452
    887   -2.48193    5.13047   -3.20188        -4.275313       4.277687       0.002374
    888   -2.48193    5.13047    2.03508        -4.421241       4.425662       0.004421
    889   -3.17437    5.47336    0.33172        -4.245436       4.249550       0.004115

 NET CHARGES:
 -------------------------------------
 ATOM                CHARGE    E.S.D.
 -------------------------------------
 C                  -0.3120    0.2668
 H                   0.1254    0.0179
 C                  -0.0032    0.2089
 S                  -0.3832    0.0109
 H                   0.0827    0.0188
 H                   0.0823    0.0189
 H                   0.1949    0.0030
 H                   0.0876    0.0191
 H                   0.1254    0.0178
 -------------------------------------

 RMS DEVIATION IS            1.331 KCAL/MOLE
 RELATIVE RMS DEVIATION IS  19.817 %

 MULTIPOLE MOMENTS:
 ---------------------------------------------------------
 STATUS  ACTUAL VALUE       QUANTITY        FITTED VALUE 
 ---------------------------------------------------------
 FIXED       0.0000       TOTAL CHARGE        -0.0000
             2.0570 D    DIPOLE MOMENT         2.1225 D
 FREE       -1.4357 D          DX             -1.5205 D
 FREE       -0.7930 D          DY             -0.7906 D
 FREE        1.2415 D          DZ              1.2523 D
 FREE        0.0000 BU         QXX             0.0569 BU
 FREE        0.0000 BU         QYY            -0.0675 BU
 FREE        0.0000 BU         QZZ             0.0106 BU
 FREE        0.0000 BU         QXY            -2.1194 BU
 FREE        0.0000 BU         QXZ             2.3909 BU
 FREE        0.0000 BU         QYZ            -1.6754 BU
 ---------------------------------------------------------
 ...... END OF PROPERTY EVALUATION ......
 CPU     0: STEP CPU TIME=     0.06 TOTAL CPU TIME=          2.3 (      0.0 MIN)
 TOTAL WALL CLOCK TIME=          3.2 SECONDS, CPU UTILIZATION IS    72.78%
               580000  WORDS OF DYNAMIC MEMORY USED
 EXECUTION OF GAMESS TERMINATED NORMALLY Sun May 17 12:09:39 2020
 DDI: 263640 bytes (0.3 MB / 0 MWords) used by master data server.
Note: The following floating-point exceptions are signalling: IEEE_UNDERFLOW_FLAGNote: The following floating-point exceptions are signalling: IEEE_UNDERFLOW_FLAGNote: The following floating-point exceptions are signalling: IEEE_UNDERFLOW_FLAGNote: The following floating-point exceptions are signalling: IEEE_DENORMAL

 ----------------------------------------
 CPU timing information for all processes
 ========================================
 0: 2.135 + 0.173 = 2.308
 1: 1.937 + 0.28 = 1.965
 2: 1.751 + 0.20 = 1.772
 3: 2.81 + 0.28 = 2.109
 4: 1.819 + 0.32 = 1.851
 5: 1.776 + 0.08 = 1.784
 ----------------------------------------
 IEEE_DENORMAL
 IEEE_DENORMAL
 IEEE_UNDERFLOW_FLAG IEEE_DENORMALNote: The following floating-point exceptions are signalling: IEEE_UNDERFLOW_FLAGNote: The following floating-point exceptions are signalling:
 IEEE_DENORMAL
 IEEE_UNDERFLOW_FLAG IEEE_DENORMAL
 ddikick.x: exited gracefully.
unset echo
----- accounting info -----
Files used on the master node pietdev were:
-rwxr-xr-x 1 piet piet      720 mei 17 12:09 /home/piet/scr/cysteine_charge_geodisk.F05*
-rw-r--r-- 1 piet piet 50790400 mei 17 12:09 /home/piet/scr/cysteine_charge_geodisk.F10
ls: No match.
ls: No match.
ls: No match.
zo 17 mei 2020 12:09:42 CEST
0.116u 0.022s 0:06.30 2.0%	0+0k 0+8io 0pf+0w
