----- GAMESS execution script 'rungms' -----
This job is running on host pietdev
under operating system Linux at ma 25 mei 2020 18:23:03 CEST
Available scratch disk space (Kbyte units) at beginning of the job is
Filesystem     1K-blocks     Used Available Use% Mounted on
/dev/sda2      244568380 31071308 201004016  14% /
GAMESS temporary binary files will be written to /home/piet/scr
GAMESS supplementary output files will be written to /home/piet/gamess/scr
Copying input file carnesol_fukui_neu.inp to your run's scratch directory...
cp carnesol_fukui_neu.inp /home/piet/scr/carnesol_fukui_neu.F05
unset echo
 
Assuming a single but multicore node.
 
/home/piet/gamess/ddikick.x /home/piet/gamess/gamess.03.x carnesol_fukui_neu -ddi 1 6 pietdev:cpus=6 -scr /home/piet/scr

 Distributed Data Interface kickoff program.
 Initiating 6 compute processes on 1 nodes to run the following command:
 /home/piet/gamess/gamess.03.x carnesol_fukui_neu 

          ******************************************************
          *         GAMESS VERSION = 30 SEP 2019 (R2)          *
          *             FROM IOWA STATE UNIVERSITY             *
          * M.W.SCHMIDT, K.K.BALDRIDGE, J.A.BOATZ, S.T.ELBERT, *
          *   M.S.GORDON, J.H.JENSEN, S.KOSEKI, N.MATSUNAGA,   *
          *          K.A.NGUYEN, S.J.SU, T.L.WINDUS,           *
          *       TOGETHER WITH M.DUPUIS, J.A.MONTGOMERY       *
          *         J.COMPUT.CHEM.  14, 1347-1363(1993)        *
          **************** 64 BIT LINUX VERSION ****************

  SINCE 1993, STUDENTS AND POSTDOCS WORKING AT IOWA STATE UNIVERSITY
  AND ALSO IN THEIR VARIOUS JOBS AFTER LEAVING ISU HAVE MADE IMPORTANT
  CONTRIBUTIONS TO THE CODE:
     IVANA ADAMOVIC, CHRISTINE AIKENS, YURI ALEXEEV, POOJA ARORA,
     ANDREY ASADCHEV, ROB BELL, PRADIPTA BANDYOPADHYAY, JONATHAN BENTZ,
     COLLEEN BERTONI, BRETT BODE, KURT BRORSEN, CALEB CARLIN, GALINA CHABAN,
     WEI CHEN, CHEOL HO CHOI, PAUL DAY, ALBERT DEFUSCO, NUWAN DESILVA,
     TIM DUDLEY, DMITRI FEDOROV, ALEX FINDLATER, GRAHAM FLETCHER, 
     MARK FREITAG, KURT GLAESEMANN, EMILIE B GUIDEZ, ANASTASIA GUNINA, 
     DAN KEMP, SAROM SOK LEANG, GRANT MERRILL,
     NORIYUKI MINEZAWA, JONATHAN MULLIN,
     TAKESHI NAGATA, SEAN NEDD, HEATHER NETZLOFF, BOSILJKA NJEGIC, RYAN OLSON,
     MIKE PAK, BUU PHAM, DAVID POOLE,
     SPENCER PRUITT, LUKE ROSKOP, TOSAPORN SATTASATHUCHANA,
     JIM SHOEMAKER, LYUDMILA SLIPCHENKO,
     TONY SMITH, JIE SONG, TETSUYA TAKETSUGU, SIMON WEBB,
     JORGE LUIS GALVEZ VALLEJO, PENG XU, SOOHAENG YOO,
     FEDERICO ZAHARIEV

  ADDITIONAL CODE HAS BEEN PROVIDED BY COLLABORATORS IN OTHER GROUPS:
     IOWA STATE UNIVERSITY:
          JOE IVANIC, AARON WEST, LAIMUTIS BYTAUTAS, KLAUS RUEDENBERG
     UNIVERSITY OF TOKYO: KIMIHIKO HIRAO, TAKAHITO NAKAJIMA,
          TAKAO TSUNEDA, MUNEAKI KAMIYA, SUSUMU YANAGISAWA,
          KIYOSHI YAGI, MAHITO CHIBA, SEIKEN TOKURA, NAOAKI KAWAKAMI
     UNIVERSITY OF AARHUS: FRANK JENSEN
     UNIVERSITY OF IOWA: VISVALDAS KAIRYS, HUI LI
     NATIONAL INST. OF STANDARDS AND TECHNOLOGY: WALT STEVENS, DAVID GARMER
     UNIVERSITY OF PISA: BENEDETTA MENNUCCI, JACOPO TOMASI
     UNIVERSITY OF MEMPHIS: HENRY KURTZ, PRAKASHAN KORAMBATH
     UNIVERSITY OF ALBERTA: TOBY ZENG, MARIUSZ KLOBUKOWSKI
     UNIVERSITY OF NEW ENGLAND: MARK SPACKMAN
     MIE UNIVERSITY: HIROAKI UMEDA
     NAT. INST. OF ADVANCED INDUSTRIAL SCIENCE AND TECHNOLOGY: KAZUO KITAURA
     MICHIGAN STATE UNIVERSITY:
          KAROL KOWALSKI, MARTA WLOCH, JEFFREY GOUR, JESSE LUTZ,
          WEI LI, JUN SHEN, J. EMILIANO DEUSTUA, PIOTR PIECUCH
     UNIVERSITY OF MINNESOTA:
          ANDREW SAND, PRACHI SHARMA, YINAN SHU
     UNIVERSITY OF SILESIA: MONIKA MUSIAL, STANISLAW KUCHARSKI
     FACULTES UNIVERSITAIRES NOTRE-DAME DE LA PAIX:
          OLIVIER QUINET, BENOIT CHAMPAGNE
     UNIVERSITY OF CALIFORNIA - SANTA BARBARA: BERNARD KIRTMAN
     INSTITUTE FOR MOLECULAR SCIENCE:
          KAZUYA ISHIMURA, MICHIO KATOUDA, AND SHIGERU NAGASE
     UNIVERSITY OF NOTRE DAME: ANNA POMOGAEVA, DAN CHIPMAN
     KYUSHU UNIVERSITY:
          HARUYUKI NAKANO,
          FENG LONG GU, JACEK KORCHOWIEC, MARCIN MAKOWSKI, AND YURIKO AOKI,
          HIROTOSHI MORI AND EISAKU MIYOSHI
     PENNSYLVANIA STATE UNIVERSITY:
          TZVETELIN IORDANOV, CHET SWALINA, JONATHAN SKONE,
          SHARON HAMMES-SCHIFFER
     WASEDA UNIVERSITY:
          MASATO KOBAYASHI, TOMOKO AKAMA, TSUGUKI TOUMA,
          TAKESHI YOSHIKAWA, YASUHIRO IKABATA, JUNJI SEINO,
          YUYA NAKAJIMA, HIROMI NAKAI
     NANJING UNIVERSITY: SHUHUA LI
     UNIVERSITY OF NEBRASKA:
          PEIFENG SU, DEJUN SI, NANDUN THELLAMUREGE, YALI WANG, HUI LI
     UNIVERSITY OF ZURICH: ROBERTO PEVERATI, KIM BALDRIDGE
     N. COPERNICUS UNIVERSITY AND JACKSON STATE UNIVERSITY:
          MARIA BARYSZ
     UNIVERSITY OF COPENHAGEN: Jimmy Kromann, CASPER STEINMANN
     TOKYO INSTITUTE OF TECHNOLOGY: HIROYA NAKATA
     NAGOYA UNIVERSITY: YOSHIO NISHIMOTO, STEPHAN IRLE
     MOSCOW STATE UNIVERSITY: VLADIMIR MIRONOV
     A.N.NESMEYANOV INSTITUTE OF ORGANOELEMENT COMPOUNDS OF RUSSIAN ACADEMY OF SCIENCES:
          IGOR S. GERASIMOV
     JOHANNES KEPLER UNIVERSITY LINZ:
          CHRISTIAN FRIEDL


 PARALLEL VERSION RUNNING ON        6 PROCESSORS IN        1 NODES.

 EXECUTION OF GAMESS BEGUN Mon May 25 18:23:03 2020

            ECHO OF THE FIRST FEW INPUT CARDS -
 INPUT CARD> $BASIS GBASIS=N21 NGAUSS=3 $END                                                
 INPUT CARD> $CONTRL SCFTYP=RHF MAXIT=60 MULT=1 ICHARG=0 $END                               
 INPUT CARD> $SYSTEM MEMDDI=1000 MWORDS=30 $END                                             
 INPUT CARD> $SCF DIRSCF=.TRUE. $END                                                        
 INPUT CARD> $DATA                                                                          
 INPUT CARD>                                                                                
 INPUT CARD>C1                                                                              
 INPUT CARD>C 6.0000000 1.43293 0.23902 0.68409                                             
 INPUT CARD>C 6.0000000 -2.00419 1.11615 -0.58777                                           
 INPUT CARD>C 6.0000000 3.46490 -0.48538 -2.65575                                           
 INPUT CARD>C 6.0000000 1.28719 -1.56957 -2.07502                                           
 INPUT CARD>C 6.0000000 -5.08515 1.18650 0.33186                                            
 INPUT CARD>C 6.0000000 -4.63191 0.26801 -1.99625                                           
 INPUT CARD>H 1.0000000 0.26350 -1.92278 2.12304                                            
 INPUT CARD>H 1.0000000 -2.56633 -2.54199 1.59852                                           
 INPUT CARD>C 6.0000000 -0.93480 -0.96870 0.92167                                           
 INPUT CARD>C 6.0000000 -2.30864 -0.94226 0.59371                                           
 INPUT CARD>C 6.0000000 -2.86556 0.08596 -0.17507                                           
 INPUT CARD>O 8.0000000 2.04114 1.86848 2.42005                                             
 INPUT CARD>C 6.0000000 2.21375 -0.78532 1.52518                                            
 INPUT CARD>C 6.0000000 3.28306 -1.80246 -0.53100                                           
 INPUT CARD>C 6.0000000 2.53164 -2.08988 0.77521                                            
 INPUT CARD>O 8.0000000 -0.58517 -2.06551 1.68713                                           
 INPUT CARD>O 8.0000000 -3.11203 -1.94785 1.05977                                           
 INPUT CARD>C 6.0000000 -4.35604 0.10242 -0.48920                                           
 INPUT CARD>C 6.0000000 1.44787 1.55650 -1.51461                                            
 INPUT CARD>C 6.0000000 2.52189 -0.85139 -1.48934                                           
 INPUT CARD>C 6.0000000 2.18255 0.45578 -0.70350                                            
 INPUT CARD>C 6.0000000 0.34303 2.15152 -0.63044                                            
 INPUT CARD>C 6.0000000 1.51986 1.63150 1.35351                                             
 INPUT CARD>C 6.0000000 -0.07574 0.03094 0.46153                                            
 INPUT CARD>C 6.0000000 -0.65378 1.08802 -0.26880                                           
 INPUT CARD>O 8.0000000 0.97807 2.62428 0.60622                                             
 INPUT CARD>H 1.0000000 3.15917 0.86431 -0.40956                                            
 INPUT CARD>H 1.0000000 -0.11846 3.03815 -1.06655                                           
 INPUT CARD>H 1.0000000 -2.40212 1.95522 -1.15249                                           
 INPUT CARD>H 1.0000000 2.14188 2.34639 -1.81942                                            
 INPUT CARD>H 1.0000000 0.98432 1.15936 -2.42211                                            
 INPUT CARD>H 1.0000000 -4.75959 -0.86764 -0.18409                                          
 INPUT CARD>H 1.0000000 3.15748 -0.30782 1.81207                                            
 INPUT CARD>H 1.0000000 1.71806 -0.95786 2.49148                                            
 INPUT CARD>H 1.0000000 4.25710 -1.35315 -0.28795                                           
 INPUT CARD>H 1.0000000 3.49605 -2.74269 -1.05570                                           
 INPUT CARD>H 1.0000000 3.14673 -2.73031 1.41938                                            
 INPUT CARD>H 1.0000000 1.62046 -2.65795 0.55627                                            
 INPUT CARD>H 1.0000000 4.35969 0.03898 -2.29881                                            
 INPUT CARD>H 1.0000000 3.79436 -1.39198 -3.17676                                           
 INPUT CARD>H 1.0000000 2.97089 0.15498 -3.39448                                            
 INPUT CARD>H 1.0000000 0.74110 -0.93346 -2.77912                                           
 INPUT CARD>H 1.0000000 1.60885 -2.45986 -2.62891                                           
   30000000 WORDS OF MEMORY AVAILABLE

     BASIS OPTIONS
     -------------
     GBASIS=N21          IGAUSS=       3      POLAR=NONE    
     NDFUNC=       0     NFFUNC=       0     DIFFSP=       F
     NPFUNC=       0      DIFFS=       F     BASNAM=        


     RUN TITLE
     ---------
                                                                                 

 THE POINT GROUP OF THE MOLECULE IS C1      
 THE ORDER OF THE PRINCIPAL AXIS IS     0

 ATOM      ATOMIC                      COORDINATES (BOHR)
           CHARGE         X                   Y                   Z
 C           6.0     2.7078450596        0.4516823056        1.2927426509
 C           6.0    -3.7873699273        2.1092176612       -1.1107242438
 C           6.0     6.5477115749       -0.9172351999       -5.0186397919
 C           6.0     2.4324363941       -2.9660572185       -3.9212192190
 C           6.0    -9.6095401065        2.2421598844        0.6271244663
 C           6.0    -8.7530406998        0.5064654620       -3.7723655030
 H           1.0     0.4979427978       -3.6335273347        4.0119638610
 H           1.0    -4.8496604941       -4.8036645635        3.0207647859
 C           6.0    -1.7665158533       -1.8305775643        1.7417037511
 C           6.0    -4.3626970043       -1.7806132092        1.1219492162
 C           6.0    -5.4151232014        0.1624408459       -0.3308343287
 O           8.0     3.8571953026        3.5309152135        4.5732313766
 C           6.0     4.1833809053       -1.4840396127        2.8821722820
 C           6.0     6.2040838013       -3.4061555038       -1.0034444995
 C           6.0     4.7841058996       -3.9493005472        1.4649344829
 O           8.0    -1.1058109562       -3.9032479249        3.1882134057
 O           8.0    -5.8808839656       -3.6809027652        2.0026749100
 C           6.0    -8.2317219916        0.1935457357       -0.9244539532
 C           6.0     2.7360775658        2.9413584999       -2.8621978783
 C           6.0     4.7656810712       -1.6088938087       -2.8144445026
 C           6.0     4.1244214545        0.8612993107       -1.3294222324
 C           6.0     0.6482327056        4.0657832571       -1.1913588517
 C           6.0     2.8721189397        3.0830879490        2.5577630216
 C           6.0    -0.1431278463        0.0584681221        0.8721652351
 C           6.0    -1.2354650563        2.0560596692       -0.5079583455
 O           8.0     1.8482842968        4.9591701151        1.1455896883
 H           1.0     5.9699656486        1.6333090684       -0.7739561755
 H           1.0    -0.2238569405        5.7412710096       -2.0154872522
 H           1.0    -4.5393485896        3.6948300457       -2.1778903036
 H           1.0     4.0475662986        4.4340341603       -3.4382052566
 H           1.0     1.8600950842        2.1908727211       -4.5771242121
 H           1.0    -8.9943209139       -1.6396018560       -0.3478796571
 H           1.0     5.9667720117       -0.5816954535        3.4243157706
 H           1.0     3.2466626305       -1.8100929346        4.7082145039
 H           1.0     8.0447525023       -2.5570827203       -0.5441465982
 H           1.0     6.6065765394       -5.1829325693       -1.9949837252
 H           1.0     5.9464574573       -5.1595377615        2.6822392725
 H           1.0     3.0622253741       -5.0227971891        1.0511978752
 H           1.0     8.2386194914        0.0736615190       -4.3441209978
 H           1.0     7.1703006988       -2.6304607804       -6.0032059288
 H           1.0     5.6141680397        0.2928697336       -6.4146370708
 H           1.0     1.4004759295       -1.7639836205       -5.2517752870
 H           1.0     3.0402856553       -4.6484613682       -4.9679195464
 H           1.0     1.0903718949       -3.5760418701       -2.4779220987
 H           1.0    -8.9559027846        4.1398983103        0.1111158881
 H           1.0   -11.6514835225        2.1588607629        0.2872950419
 H           1.0    -9.2847529010        1.9879728418        2.6547626566
 H           1.0    -7.8115036237       -0.9705254728       -4.8749261305
 H           1.0   -10.7868771913        0.3898693685       -4.1456052828
 H           1.0    -8.0967955560        2.3411059371       -4.4757593101

          INTERNUCLEAR DISTANCES (ANGS.)
          ------------------------------

                1 C          2 C          3 C          4 C          5 C     

   1 C       0.0000000    3.7683921    3.9759513    3.3022607    6.5959951  
   2 C       3.7683921    0.0000000    6.0623745    4.5009096    3.2160508  
   3 C       3.9759513    6.0623745    0.0000000    2.5010270 *  9.2100136  
   4 C       3.3022607    4.5009096    2.5010270 *  0.0000000    7.3481773  
   5 C       6.5959951    3.2160508    9.2100136    7.3481773    0.0000000  
   6 C       6.6307878    3.0996887    8.1584845    6.1982780    2.5434517 *
   7 H       2.8480735 *  4.6611162    5.9289050    4.3354822    6.4408078  
   8 H       4.9562364    4.2985874    7.6618662    5.4120341    4.6744539  
   9 C       2.6685534 *  2.7872215 *  5.6911240    3.7786817    4.7136152  
  10 C       3.9246576    2.3928302 *  6.6408956    4.5216845    3.5084459  
  11 C       4.3861828    1.4048384 *  6.8231171    4.8575634    2.5287835 *
  12 O       2.4573596 *  5.0968300    5.7733435    5.7091403    7.4571874  
  13 C       1.5383058 *  5.0863704    4.3744161    3.7993423    7.6541510  
  14 C       3.0111568    6.0395794    2.5064573 *  2.5341138 *  8.9277852  
  15 C       2.5766726 *  5.7192741    3.9008821    3.1532823    8.3034159  
  16 O       3.2233019    4.1607389    6.1449560    4.2314845    5.7150806  
  17 O       5.0576869    3.6509990    7.6941481    5.4150846    3.7745470  
  18 C       5.9082521    2.5629208 *  8.1367408    6.0956067    1.5430393 *
  19 C       2.5632515 *  3.6013412    3.0886703    3.1799672    6.7990221  
  20 C       2.6643246 *  5.0169156    1.5439377 *  1.5437900 *  8.0831196  
  21 C       1.5919551 *  4.2400795    2.5182303 *  2.6047609 *  7.3773563  
  22 C       2.5638891 *  2.5657852 *  4.5608327    4.1017996    5.5966439  
  23 C       1.5474755 *  4.0562399    4.9334093    4.6963606    6.6983543  
  24 C       1.5391281 *  2.4490061 *  4.7455403    3.2944341    5.1425987  
  25 C       2.4460497 *  1.3878546 *  5.0136457    3.7540085    4.4729778  
  26 O       2.4294910 *  3.5487946    5.1473058    4.9872819    6.2373970  
  27 H       2.1370453 *  5.1725689    2.6382766 *  3.4931129    8.2838591  
  28 H       3.6478322    2.7348294 *  5.2707959    4.9217829    5.4819858  
  29 H       4.5854091    1.0868742 *  6.5297965    5.1851918    3.1611510  
  30 H       3.3483101    4.4967042    3.2355449    4.0162880    7.6291096  
  31 H       3.2705894    3.5068308    2.9854706 *  2.7675369 *  6.6650997  
  32 H       6.3502549    3.4191533    8.5963633    6.3743133    2.1428217 *
  33 H       2.1320051 *  5.8676878    4.4819025    4.4943816    8.5067599  
  34 H       2.1864308 *  5.2572277    5.4560667    4.6273924    7.4529125  
  35 H       3.3846423    6.7372908    2.6433090 *  3.4728694    9.7011145  
  36 H       4.0216822    6.7351499    2.7670524 *  2.7007936 *  9.5394366  
  37 H       3.5063774    6.7346776    4.6634351    4.1250500    9.1808468  
  38 H       2.9058459 *  5.3563743    4.2940764    2.8669369 *  7.7327460  
  39 H       4.1837343    6.6773439    1.0968175 *  3.4753088    9.8712831  
  40 H       4.8106835    6.8276473    1.0963206 *  2.7443161 *  9.8896244  
  41 H       4.3597152    5.7924856    1.0953670 *  2.7477069 *  8.9358505  
  42 H       3.7211774    4.0668825    2.7631653 *  1.0948091 *  6.9366862  
  43 H       4.2767827    5.4779703    2.7100209 *  1.0967568 *  8.1775141  
  44 H       3.0425020    4.0295300    3.4824147    1.0917383 *  6.6512529  
  45 H       6.5035473    3.0088876    9.0464712    7.4169548    1.0966766 *
  46 H       7.6706191    4.2268380   10.1627662    8.2377309    1.0962984 *
  47 H       6.4385388    3.5266720    9.4364081    7.5781152    1.0949513 *
  48 H       6.4965966    3.3404326    7.5990029    5.5457677    3.5032510  
  49 H       7.6992467    4.1384152    9.2107048    7.2182346    2.7798710 *
  50 H       6.5580797    2.8959286 *  7.9442371    6.2464935    2.8169735 *

                6 C          7 H          8 H          9 C         10 C     

   1 C       6.6307878    2.8480735 *  4.9562364    2.6685534 *  3.9246576  
   2 C       3.0996887    4.6611162    4.2985874    2.7872215 *  2.3928302 *
   3 C       8.1584845    5.9289050    7.6618662    5.6911240    6.6408956  
   4 C       6.1982780    4.3354822    5.4120341    3.7786817    4.5216845  
   5 C       2.5434517 *  6.4408078    4.6744539    4.7136152    3.5084459  
   6 C       0.0000000    6.7626289    5.0085020    4.8695309    3.6837793  
   7 H       6.7626289    0.0000000    2.9438886 *  1.9466590 *  3.1489957  
   8 H       5.0085020    2.9438886 *  0.0000000    2.3654297 *  1.9066157 *
   9 C       4.8695309    1.9466590 *  2.3654297 *  0.0000000    1.4126901 *
  10 C       3.6837793    3.1489957    1.9066157 *  1.4126901 *  0.0000000  
  11 C       2.5435863 *  4.3711969    3.1845378    2.4582474 *  1.3994352 *
  12 O       8.1605641    4.1978413    6.4308582    4.3761801    5.4914810  
  13 C       7.7700086    2.3355357 *  5.0931751    3.2111088    4.6199868  
  14 C       8.3114712    4.0219582    6.2687418    4.5382539    5.7681908  
  15 C       8.0347423    2.6436768 *  5.1837767    3.6461900    4.9777791  
  16 O       5.9488409    0.9646917 *  2.0395784 *  1.3824479 *  2.3297225 *
  17 O       4.0693155    3.5391206    0.9700734 *  2.3912626 *  1.3688896 *
  18 C       1.5410140 *  5.6802626    3.8150414    3.8526271    2.5408458 *
  19 C       6.2334508    5.1711333    6.5270974    4.2413691    4.9799781  
  20 C       7.2585721    4.3928910    6.1873250    4.2160926    5.2613092  
  21 C       6.9385391    4.1628871    6.0694137    3.7931770    4.8793501  
  22 C       5.4920920    4.9181193    5.9549706    3.7118281    4.2545707  
  23 C       7.1361244    3.8475347    5.8459385    3.6017887    4.6753555  
  24 C       5.1822360    2.5870294 *  3.7570938    1.3960634 *  2.4393508 *
  25 C       4.4138439    3.9531276    4.5079601    2.3929664 *  2.7576298 *
  26 O       6.6179101    4.8463500    6.3433253    4.0826567    4.8500337  
  27 H       7.9733360    4.7504566    6.9582049    4.6789624    5.8452709  
  28 H       5.3767321    5.9101780    6.6507615    4.5468975    4.8370462  
  29 H       2.9207143 *  5.7335426    5.2744591    3.8735611    3.3842788  
  30 H       7.0876769    6.1071364    7.5990667    5.2886062    6.0370145  
  31 H       5.7024469    5.5387324    6.5170985    4.4036945    4.9351355  
  32 H       2.1424115 *  5.6273975    3.2850473    3.9827047    2.5724885 *
  33 H       8.6896190    3.3286511    6.1480989    4.2398502    5.6360787  
  34 H       7.8717594    1.7839741 *  4.6543359    3.0825456    4.4515264  
  35 H       9.1957027    4.6995949    7.1785309    5.3447926    6.6374014  
  36 H       8.7185253    4.6071705    6.6209981    5.1661847    6.2973429  
  37 H       9.0090894    3.0757531    5.7189693    4.4732396    5.7999927  
  38 H       7.3599410    2.1992234 *  4.3161258    3.0848722    4.2875192  
  39 H       8.9996038    6.3387721    8.3558566    6.2784182    7.3345844  
  40 H       8.6689790    6.3903522    8.0364295    6.2722603    7.1878579  
  41 H       7.7311313    6.4876864    7.9287137    5.9284249    6.7069391  
  42 H       5.5610837    5.0237465    5.7175339    4.0627244    4.5471940  
  43 H       6.8402207    4.9678416    5.9422250    4.6152283    5.2948199  
  44 H       5.6805944    3.4487134    4.3323622    2.8503795 *  3.5858777  
  45 H       2.8163177 *  6.7977747    5.4305705    5.0200121    4.0012162  
  46 H       2.7806854 *  7.3901924    5.3500163    5.6931088    4.4065728  
  47 H       3.5016006    6.0136610    4.2967870    4.4883120    3.3792180  
  48 H       1.0952351 *  6.5906534    4.9018899    4.7643987    3.6857878  
  49 H       1.0959711 *  7.6699823    5.6396542    5.8199325    4.5437877  
  50 H       1.0962180 *  7.1312837    5.7432069    5.1884266    4.1756881  

               11 C         12 O         13 C         14 C         15 C     

   1 C       4.3861828    2.4573596 *  1.5383058 *  3.0111568    2.5766726 *
   2 C       1.4048384 *  5.0968300    5.0863704    6.0395794    5.7192741  
   3 C       6.8231171    5.7733435    4.3744161    2.5064573 *  3.9008821  
   4 C       4.8575634    5.7091403    3.7993423    2.5341138 *  3.1532823  
   5 C       2.5287835 *  7.4571874    7.6541510    8.9277852    8.3034159  
   6 C       2.5435863 *  8.1605641    7.7700086    8.3114712    8.0347423  
   7 H       4.3711969    4.1978413    2.3355357 *  4.0219582    2.6436768 *
   8 H       3.1845378    6.4308582    5.0931751    6.2687418    5.1837767  
   9 C       2.4582474 *  4.3761801    3.2111088    4.5382539    3.6461900  
  10 C       1.3994352 *  5.4914810    4.6199868    5.7681908    4.9777791  
  11 C       0.0000000    5.8298997    5.4267273    6.4419208    5.8963616  
  12 O       5.8298997    0.0000000    2.8059296 *  4.8710227    4.3144760  
  13 C       5.4267273    2.8059296 *  0.0000000    2.5309828 *  1.5379811 *
  14 C       6.4419208    4.8710227    2.5309828 *  0.0000000    1.5340883 *
  15 C       5.8963616    4.3144760    1.5379811 *  1.5340883 *  0.0000000  
  16 O       3.6464765    4.7865388    3.0820557    4.4668221    3.2475678  
  17 O       2.3920620 *  6.5551428    5.4710159    6.5915752    5.6526240  
  18 C       1.5233119 *  7.2461449    6.9287769    7.8731292    7.3379185  
  19 C       4.7500035    3.9913469    3.9129294    3.9519645    4.4400361  
  20 C       5.6241042    4.7866631    3.0309481    1.5499450 *  2.5811120 *
  21 C       5.0891472    3.4310760    2.5511404 *  2.5180402 *  2.9645964 *
  22 C       3.8430391    3.5027387    4.0952802    4.9282474    4.9754738  
  23 C       4.8946051    1.2105370 *  2.5203121 *  4.2956179    3.8995896  
  24 C       2.8620591 *  3.4195811    2.6531860 *  3.9532276    3.3756041  
  25 C       2.4299960 *  3.8860811    3.8665870    4.8910462    4.6190806  
  26 O       4.6719347    2.2341286 *  3.7412250    5.1188158    4.9664315  
  27 H       6.0793245    3.2039103    2.7126218 *  2.6724069 *  3.2441813  
  28 H       4.1299783    4.2647837    5.1744749    5.9404257    6.0590265  
  29 H       2.1596897 *  5.7020282    5.9988942    6.8430754    6.6648968  
  30 H       5.7347961    4.2675113    4.5824799    4.4916895    5.1540770  
  31 H       4.5850793    5.0066189    4.5688485    4.1991523    4.8140020  
  32 H       2.1205622 *  7.7793204    7.1802403    8.1042245    7.4549421  
  33 H       6.3545888    2.5203445 *  1.0958734 *  2.7820309 *  2.1546443 *
  34 H       5.4045926    2.8456424 *  1.0996428 *  3.5068447    2.2111003 *
  35 H       7.2674662    4.7563266    2.7901883 *  1.0998667 *  2.1564537 *
  36 H       7.0176101    5.9548711    3.4837526    1.0975916 *  2.1699030 *
  37 H       6.8279776    4.8345154    2.1597758 *  2.1641335 *  1.0970147 *
  38 H       5.3092632    4.9131676    2.1903248 *  2.1629281 *  1.0958500 *
  39 H       7.5310501    5.5669008    4.4617741    2.7704125 *  4.1621402  
  40 H       7.4531191    6.7103399    4.9974598    2.7257967 *  4.2070884  
  41 H       6.6658468    6.1326402    5.0656174    3.4826052    4.7559070  
  42 H       4.5638021    6.0475070    4.5516636    3.5029652    4.1444665  
  43 H       5.7028830    6.6643378    4.5195632    2.7634001 *  3.5463304  
  44 H       4.1298786    5.4963895    3.4568598    2.8177382 *  2.8658312 *
  45 H       2.8276396 *  7.1870145    7.7039958    8.9805973    8.4677587  
  46 H       3.4805210    8.5453672    8.7072903    9.9205803    9.2994537  
  47 H       2.7608851 *  7.0753986    7.3610289    8.8924322    8.1052215  
  48 H       2.7838457 *  8.2945758    7.5639687    7.8016836    7.6266965  
  49 H       3.4885563    9.1707065    8.8074208    9.3617383    9.0543769  
  50 H       2.8555157 *  7.9587586    7.8413575    8.3603832    8.2112671  

               16 O         17 O         18 C         19 C         20 C     

   1 C       3.2233019    5.0576869    5.9082521    2.5632515 *  2.6643246 *
   2 C       4.1607389    3.6509990    2.5629208 *  3.6013412    5.0169156  
   3 C       6.1449560    7.6941481    8.1367408    3.0886703    1.5439377 *
   4 C       4.2314845    5.4150846    6.0956067    3.1799672    1.5437900 *
   5 C       5.7150806    3.7745470    1.5430393 *  6.7990221    8.0831196  
   6 C       5.9488409    4.0693155    1.5410140 *  6.2334508    7.2585721  
   7 H       0.9646917 *  3.5391206    5.6802626    5.1711333    4.3928910  
   8 H       2.0395784 *  0.9700734 *  3.8150414    6.5270974    6.1873250  
   9 C       1.3824479 *  2.3912626 *  3.8526271    4.2413691    4.2160926  
  10 C       2.3297225 *  1.3688896 *  2.5408458 *  4.9799781    5.2613092  
  11 C       3.6464765    2.3920620 *  1.5233119 *  4.7500035    5.6241042  
  12 O       4.7865388    6.5551428    7.2461449    3.9913469    4.7866631  
  13 C       3.0820557    5.4710159    6.9287769    3.9129294    3.0309481  
  14 C       4.4668221    6.5915752    7.8731292    3.9519645    1.5499450 *
  15 C       3.2475678    5.6526240    7.3379185    4.4400361    2.5811120 *
  16 O       0.0000000    2.6062321 *  4.8637222    5.2443634    4.6062860  
  17 O       2.6062321 *  0.0000000    2.8549039 *  6.3008404    6.2802262  
  18 C       4.8637222    2.8549039 *  0.0000000    6.0705177    7.0154084  
  19 C       5.2443634    6.3008404    6.0705177    0.0000000    2.6366820 *
  20 C       4.6062860    6.2802262    7.0154084    2.6366820 *  0.0000000  
  21 C       4.4421041    6.0761119    6.5516370    1.5521722 *  1.5624947 *
  22 C       4.9006151    5.6213062    5.1283544    1.5350820 *  3.8082291  
  23 C       4.2673571    5.8610950    6.3450663    2.8700035 *  3.9052020  
  24 C       2.4812732 *  3.6732217    4.3851984    2.9246966 *  3.3663157  
  25 C       3.7114850    4.1260875    3.8375399    2.4876593 *  3.9161089  
  26 O       5.0602585    6.1513412    6.0010376    2.4204929 *  4.3422383  
  27 H       5.1961559    7.0281665    7.5541512    2.1514670 *  2.1250123 *
  28 H       5.8178963    6.1921639    5.1873816    2.2021431 *  4.7200340  
  29 H       5.2470009    4.5422486    2.7731976 *  3.8874840    5.6777110  
  30 H       6.2607952    7.3711466    7.0019891    1.0947535 *  3.2371527  
  31 H       5.4542588    6.2095351    5.7769116    1.0936887 *  2.6976466 *
  32 H       4.7288624    2.3299132 *  1.0940572 *  6.7955351    7.3975599  
  33 H       4.1367273    6.5239872    7.8687434    4.1791453    3.4056939  
  34 H       2.6793163 *  5.1341643    6.8486012    4.7374852    4.0625616  
  35 H       5.2778761    7.5149248    8.7375835    4.2264088    2.1693443 *
  36 H       4.9636726    6.9838174    8.3708357    4.7842109    2.1711856 *
  37 H       3.8000956    6.3177243    8.2437003    5.4654517    3.5187238  
  38 H       2.5484570 *  4.8118828    6.6656734    4.6989275    2.8741530 *
  39 H       6.6909070    8.4293625    8.9018348    3.3758750    2.1967042 *
  40 H       6.5796164    8.1212930    8.7112129    4.1185304    2.1814682 *
  41 H       6.5877841    7.8271421    7.8820884    2.7960257 *  2.2008953 *
  42 H       4.7945718    5.5328722    5.6830993    2.8806961 *  2.2003366 *
  43 H       4.8577193    6.0129213    6.8354627    4.1711781    2.1724267 *
  44 H       3.2203979    4.3856362    5.3842189    3.5629203    2.2131263 *
  45 H       6.1663268    4.5582612    2.1927704 *  6.4154857    8.0234401  
  46 H       6.6173758    4.4383174    2.1834938 *  7.8048446    9.0633103  
  47 H       5.3414446    3.5160510    2.1907960 *  7.0172607    8.2024927  
  48 H       5.7624801    4.0430954    2.1906836 *  6.0475811    6.7527387  
  49 H       6.8167149    4.6867692    2.1782042 *  7.3139023    8.3275942  
  50 H       6.4072483    4.8252424    2.1973278 *  5.8044503    7.1743198  

               21 C         22 C         23 C         24 C         25 C     

   1 C       1.5919551 *  2.5638891 *  1.5474755 *  1.5391281 *  2.4460497 *
   2 C       4.2400795    2.5657852 *  4.0562399    2.4490061 *  1.3878546 *
   3 C       2.5182303 *  4.5608327    4.9334093    4.7455403    5.0136457  
   4 C       2.6047609 *  4.1017996    4.6963606    3.2944341    3.7540085  
   5 C       7.3773563    5.5966439    6.6983543    5.1425987    4.4729778  
   6 C       6.9385391    5.4920920    7.1361244    5.1822360    4.4138439  
   7 H       4.1628871    4.9181193    3.8475347    2.5870294 *  3.9531276  
   8 H       6.0694137    5.9549706    5.8459385    3.7570938    4.5079601  
   9 C       3.7931770    3.7118281    3.6017887    1.3960634 *  2.3929664 *
  10 C       4.8793501    4.2545707    4.6753555    2.4393508 *  2.7576298 *
  11 C       5.0891472    3.8430391    4.8946051    2.8620591 *  2.4299960 *
  12 O       3.4310760    3.5027387    1.2105370 *  3.4195811    3.8860811  
  13 C       2.5511404 *  4.0952802    2.5203121 *  2.6531860 *  3.8665870  
  14 C       2.5180402 *  4.9282474    4.2956179    3.9532276    4.8910462  
  15 C       2.9645964 *  4.9754738    3.8995896    3.3756041    4.6190806  
  16 O       4.4421041    4.9006151    4.2673571    2.4812732 *  3.7114850  
  17 O       6.0761119    5.6213062    5.8610950    3.6732217    4.1260875  
  18 C       6.5516370    5.1283544    6.3450663    4.3851984    3.8375399  
  19 C       1.5521722 *  1.5350820 *  2.8700035 *  2.9246966 *  2.4876593 *
  20 C       1.5624947 *  3.8082291    3.9052020    3.3663157    3.9161089  
  21 C       0.0000000    2.5029394 *  2.4602369 *  2.5763652 *  2.9382749 *
  22 C       2.5029394 *  0.0000000    2.3646157 *  2.4216991 *  1.5018142 *
  23 C       2.4602369 *  2.3646157 *  0.0000000    2.4296831 *  2.7662196 *
  24 C       2.5763652 *  2.4216991 *  2.4296831 *  0.0000000    1.4088755 *
  25 C       2.9382749 *  1.5018142 *  2.7662196 *  1.4088755 *  0.0000000  
  26 O       2.8050902 *  1.4683684 *  1.3555777 *  2.8030096 *  2.4059695 *
  27 H       1.0986738 *  3.1042458    2.5267239 *  3.4522378    3.8220998  
  28 H       3.4777992    1.0905401 *  3.2433697    3.3734501    2.1739318 *
  29 H       4.8444929    2.8012352 *  4.6654858    3.4234424    2.1423437 *
  30 H       2.1957545 *  2.1650656 *  3.3114138    3.9347020    3.4356415  
  31 H       2.2100679 *  2.1460931 *  3.8425285    3.2729862    2.7065116 *
  32 H       7.0862215    5.9456948    6.9311909    4.8127666    4.5485665  
  33 H       2.8038662 *  4.4649006    2.5793485 *  3.5202881    4.5611503  
  34 H       3.5244895    4.6157704    2.8353208 *  2.8837720 *  4.1749725  
  35 H       2.7836428 *  5.2649744    4.3697837    4.6098729    5.4841973  
  36 H       3.4755629    5.8374372    5.3705826    4.7699784    5.7021610  
  37 H       3.9480922    5.9912236    4.6557955    4.3504357    5.6456596  
  38 H       3.4056248    5.1157707    4.3640684    3.1805974    4.4592824  
  39 H       2.7310575 *  4.8352705    4.8928719    5.2242302    5.5096558  
  40 H       3.4826949    5.5634357    5.9023832    5.4990481    5.8645188  
  41 H       2.8201656 *  4.3048504    5.1796726    4.9159082    4.8763379  
  42 H       2.8837414 *  3.7805274    4.9258621    3.4783771    3.5119479  
  43 H       3.5408039    5.1827607    5.7102377    4.3119308    4.8246312  
  44 H       2.9087668 *  4.1074595    4.5174742    2.6959111 *  3.3888357  
  45 H       7.1765341    5.1289630    6.4160429    5.1551282    4.2443445  
  46 H       8.4200169    6.6328055    7.7942662    6.1982893    5.5282293  
  47 H       7.4263967    5.7428326    6.4593929    5.0333061    4.5766483  
  48 H       6.6599114    5.5626626    7.2134534    5.1002331    4.4738145  
  49 H       8.0340881    6.5455964    8.1767175    6.2294131    5.4799399  
  50 H       6.7238297    5.0268306    6.9064840    5.2137136    4.1969645  

               26 O         27 H         28 H         29 H         30 H     

   1 C       2.4294910 *  2.1370453 *  3.6478322    4.5854091    3.3483101  
   2 C       3.5487946    5.1725689    2.7348294 *  1.0868742 *  4.4967042  
   3 C       5.1473058    2.6382766 *  5.2707959    6.5297965    3.2355449  
   4 C       4.9872819    3.4931129    4.9217829    5.1851918    4.0162880  
   5 C       6.2373970    8.2838591    5.4819858    3.1611510    7.6291096  
   6 C       6.6179101    7.9733360    5.3767321    2.9207143 *  7.0876769  
   7 H       4.8463500    4.7504566    5.9101780    5.7335426    6.1071364  
   8 H       6.3433253    6.9582049    6.6507615    5.2744591    7.5990667  
   9 C       4.0826567    4.6789624    4.5468975    3.8735611    5.2886062  
  10 C       4.8500337    5.8452709    4.8370462    3.3842788    6.0370145  
  11 C       4.6719347    6.0793245    4.1299783    2.1596897 *  5.7347961  
  12 O       2.2341286 *  3.2039103    4.2647837    5.7020282    4.2675113  
  13 C       3.7412250    2.7126218 *  5.1744749    5.9988942    4.5824799  
  14 C       5.1188158    2.6724069 *  5.9404257    6.8430754    4.4916895  
  15 C       4.9664315    3.2441813    6.0590265    6.6648968    5.1540770  
  16 O       5.0602585    5.1961559    5.8178963    5.2470009    6.2607952  
  17 O       6.1513412    7.0281665    6.1921639    4.5422486    7.3711466  
  18 C       6.0010376    7.5541512    5.1873816    2.7731976 *  7.0019891  
  19 C       2.4204929 *  2.1514670 *  2.2021431 *  3.8874840    1.0947535 *
  20 C       4.3422383    2.1250123 *  4.7200340    5.6777110    3.2371527  
  21 C       2.8050902 *  1.0986738 *  3.4777992    4.8444929    2.1957545 *
  22 C       1.4683684 *  3.1042458    1.0905401 *  2.8012352 *  2.1650656 *
  23 C       1.3555777 *  2.5267239 *  3.2433697    4.6654858    3.3114138  
  24 C       2.8030096 *  3.4522378    3.3734501    3.4234424    3.9347020  
  25 C       2.4059695 *  3.8220998    2.1739318 *  2.1423437 *  3.4356415  
  26 O       0.0000000    2.9810234 *  2.0425048 *  3.8686414    2.7047007 *
  27 H       2.9810234 *  0.0000000    3.9874898    5.7157656    2.2845449 *
  28 H       2.0425048 *  3.9874898    0.0000000    2.5288784 *  2.4808229 *
  29 H       3.8686414    5.7157656    2.5288784 *  0.0000000    4.6093108  
  30 H       2.7047007 *  2.2845449 *  2.4808229 *  4.6093108    0.0000000  
  31 H       3.3640470    2.9778154 *  2.5658368 *  3.7031478    1.7641487 *
  32 H       6.7630494    8.1090843    6.1297650    3.8031568    7.7868210  
  33 H       3.8472214    2.5118781 *  5.4967037    6.6947082    4.6112898  
  34 H       4.1150355    3.7166026    5.6568966    6.2241815    5.4480777  
  35 H       5.2317805    2.4773712 *  6.2478203    7.4858502    4.5283719  
  36 H       6.1568310    3.6798688    6.8178377    7.5410965    5.3212574  
  37 H       5.8340337    4.0331711    7.0792969    7.7044431    6.1051152  
  38 H       5.3213827    3.9631770    6.1727581    6.3547107    5.5640993  
  39 H       5.1534774    2.3857249 *  5.5287714    7.1209620    3.2361454  
  40 H       6.1945760    3.6265282    6.2760815    7.3278770    4.3067937  
  41 H       5.1063073    3.0738162    4.8245218    6.0939823    2.8231807 *
  42 H       4.9167261    3.8332563    4.4096967    4.5683946    3.6933216  
  43 H       6.0590782    4.2870867    5.9709867    6.1449677    4.9030026  
  44 H       4.9231721    3.8832840    4.9853261    4.8686996    4.5468756  
  45 H       5.7598167    8.0227161    4.8307669    2.6428993 *  7.1345655  
  46 H       7.3099690    9.3459044    6.4535139    4.0653352    8.6227631  
  47 H       6.1496256    8.2759725    5.7482953    3.6961718    7.8642613  
  48 H       6.7916226    7.7326324    5.5701275    3.3361905    6.9382982  
  49 H       7.6414836    9.0689609    6.3666929    3.8823828    8.1451432  
  50 H       6.2019582    7.7063560    4.7211753    2.3527985 *  6.5443287  

               31 H         32 H         33 H         34 H         35 H     

   1 C       3.2705894    6.3502549    2.1320051 *  2.1864308 *  3.3846423  
   2 C       3.5068308    3.4191533    5.8676878    5.2572277    6.7372908  
   3 C       2.9854706 *  8.5963633    4.4819025    5.4560667    2.6433090 *
   4 C       2.7675369 *  6.3743133    4.4943816    4.6273924    3.4728694  
   5 C       6.6650997    2.1428217 *  8.5067599    7.4529125    9.7011145  
   6 C       5.7024469    2.1424115 *  8.6896190    7.8717594    9.1957027  
   7 H       5.5387324    5.6273975    3.3286511    1.7839741 *  4.6995949  
   8 H       6.5170985    3.2850473    6.1480989    4.6543359    7.1785309  
   9 C       4.4036945    3.9827047    4.2398502    3.0825456    5.3447926  
  10 C       4.9351355    2.5724885 *  5.6360787    4.4515264    6.6374014  
  11 C       4.5850793    2.1205622 *  6.3545888    5.4045926    7.2674662  
  12 O       5.0066189    7.7793204    2.5203445 *  2.8456424 *  4.7563266  
  13 C       4.5688485    7.1802403    1.0958734 *  1.0996428 *  2.7901883 *
  14 C       4.1991523    8.1042245    2.7820309 *  3.5068447    1.0998667 *
  15 C       4.8140020    7.4549421    2.1546443 *  2.2111003 *  2.1564537 *
  16 O       5.4542588    4.7288624    4.1367273    2.6793163 *  5.2778761  
  17 O       6.2095351    2.3299132 *  6.5239872    5.1341643    7.5149248  
  18 C       5.7769116    1.0940572 *  7.8687434    6.8486012    8.7375835  
  19 C       1.0936887 *  6.7955351    4.1791453    4.7374852    4.2264088  
  20 C       2.6976466 *  7.3975599    3.4056939    4.0625616    2.1693443 *
  21 C       2.2100679 *  7.0862215    2.8038662 *  3.5244895    2.7836428 *
  22 C       2.1460931 *  5.9456948    4.4649006    4.6157704    5.2649744  
  23 C       3.8425285    6.9311909    2.5793485 *  2.8353208 *  4.3697837  
  24 C       3.2729862    4.8127666    3.5202881    2.8837720 *  4.6098729  
  25 C       2.7065116 *  4.5485665    4.5611503    4.1749725    5.4841973  
  26 O       3.3640470    6.7630494    3.8472214    4.1150355    5.2317805  
  27 H       2.9778154 *  8.1090843    2.5118781 *  3.7166026    2.4773712 *
  28 H       2.5658368 *  6.1297650    5.4967037    5.6568966    6.2478203  
  29 H       3.7031478    3.8031568    6.6947082    6.2241815    7.4858502  
  30 H       1.7641487 *  7.7868210    4.6112898    5.4480777    4.5283719  
  31 H       0.0000000    6.4892191    4.9803134    5.4004038    4.6452593  
  32 H       6.4892191    0.0000000    8.1840119    7.0090487    9.0303491  
  33 H       4.9803134    8.1840119    0.0000000    1.7193254 *  2.5907456 *
  34 H       5.4004038    7.0090487    1.7193254 *  0.0000000    3.7852621  
  35 H       4.6452593    9.0303491    2.5907456 *  3.7852621    0.0000000  
  36 H       4.8375467    8.5106468    3.7772114    4.3507876    1.7605279 *
  37 H       5.8789961    8.2795260    2.4541350 *  2.5163615 *  2.4585498 *
  38 H       4.8833674    6.6677118    3.0761299    2.5777644 *  3.0605687  
  39 H       3.5585920    9.4050661    4.2970820    5.5604656    2.4478784 *
  40 H       3.8697748    9.0775033    5.1448463    6.0521423    2.9258946 *
  41 H       2.4291445 *  8.4328333    5.2304075    6.1198465    3.6850130  
  42 H       2.1369389 *  6.0824422    5.2258342    5.3604357    4.3294715  
  43 H       3.6785265    7.0049509    5.1722176    5.3372582    3.7037992  
  44 H       3.2730555    5.5497528    4.3502683    4.0787424    3.8575960  
  45 H       6.3228180    3.0680771    8.4661243    7.5847607    9.6754269  
  46 H       7.5992940    2.4759772 *  9.5802199    8.4875128   10.7264259  
  47 H       7.0312702    2.4966575 *  8.1946377    7.0139114    9.6304780  
  48 H       5.3867787    2.5012160 *  8.5141558    7.7560941    8.7385363  
  49 H       6.7638651    2.4681868 *  9.7422150    8.8575198   10.2650199  
  50 H       5.2698327    3.0715527    8.6749227    8.0297634    9.1656097  

               36 H         37 H         38 H         39 H         40 H     

   1 C       4.0216822    3.5063774    2.9058459 *  4.1837343    4.8106835  
   2 C       6.7351499    6.7346776    5.3563743    6.6773439    6.8276473  
   3 C       2.7670524 *  4.6634351    4.2940764    1.0968175 *  1.0963206 *
   4 C       2.7007936 *  4.1250500    2.8669369 *  3.4753088    2.7443161 *
   5 C       9.5394366    9.1808468    7.7327460    9.8712831    9.8896244  
   6 C       8.7185253    9.0090894    7.3599410    8.9996038    8.6689790  
   7 H       4.6071705    3.0757531    2.1992234 *  6.3387721    6.3903522  
   8 H       6.6209981    5.7189693    4.3161258    8.3558566    8.0364295  
   9 C       5.1661847    4.4732396    3.0848722    6.2784182    6.2722603  
  10 C       6.2973429    5.7999927    4.2875192    7.3345844    7.1878579  
  11 C       7.0176101    6.8279776    5.3092632    7.5310501    7.4531191  
  12 O       5.9548711    4.8345154    4.9131676    5.5669008    6.7103399  
  13 C       3.4837526    2.1597758 *  2.1903248 *  4.4617741    4.9974598  
  14 C       1.0975916 *  2.1641335 *  2.1629281 *  2.7704125 *  2.7257967 *
  15 C       2.1699030 *  1.0970147 *  1.0958500 *  4.1621402    4.2070884  
  16 O       4.9636726    3.8000956    2.5484570 *  6.6909070    6.5796164  
  17 O       6.9838174    6.3177243    4.8118828    8.4293625    8.1212930  
  18 C       8.3708357    8.2437003    6.6656734    8.9018348    8.7112129  
  19 C       4.7842109    5.4654517    4.6989275    3.3758750    4.1185304  
  20 C       2.1711856 *  3.5187238    2.8741530 *  2.1967042 *  2.1814682 *
  21 C       3.4755629    3.9480922    3.4056248    2.7310575 *  3.4826949  
  22 C       5.8374372    5.9912236    5.1157707    4.8352705    5.5634357  
  23 C       5.3705826    4.6557955    4.3640684    4.8928719    5.9023832  
  24 C       4.7699784    4.3504357    3.1805974    5.2242302    5.4990481  
  25 C       5.7021610    5.6456596    4.4592824    5.5096558    5.8645188  
  26 O       6.1568310    5.8340337    5.3213827    5.1534774    6.1945760  
  27 H       3.6798688    4.0331711    3.9631770    2.3857249 *  3.6265282  
  28 H       6.8178377    7.0792969    6.1727581    5.5287714    6.2760815  
  29 H       7.5410965    7.7044431    6.3547107    7.1209620    7.3278770  
  30 H       5.3212574    6.1051152    5.5640993    3.2361454    4.3067937  
  31 H       4.8375467    5.8789961    4.8833674    3.5585920    3.8697748  
  32 H       8.5106468    8.2795260    6.6677118    9.4050661    9.0775033  
  33 H       3.7772114    2.4541350 *  3.0761299    4.2970820    5.1448463  
  34 H       4.3507876    2.5163615 *  2.5777644 *  5.5604656    6.0521423  
  35 H       1.7605279 *  2.4585498 *  3.0605687    2.4478784 *  2.9258946 *
  36 H       0.0000000    2.4996397 *  2.4745638 *  3.1668414    2.5322523 *
  37 H       2.4996397 *  0.0000000    1.7549060 *  4.7921995    4.8306371  
  38 H       2.4745638 *  1.7549060 *  0.0000000    4.7883498    4.5015591  
  39 H       3.1668414    4.7921995    4.7883498    0.0000000    1.7714516 *
  40 H       2.5322523 *  4.8306371    4.5015591    1.7714516 *  0.0000000  
  41 H       3.7606085    5.6150749    5.0343482    1.7727702 *  1.7659530 *
  42 H       3.7193063    5.1616982    3.8564188    3.7776356    3.1129977  
  43 H       2.4731572 *  4.3389941    3.1913549    3.7309902    2.4933835 *
  44 H       3.0511022    3.8421436    2.2721367 *  4.3605129    3.7525825  
  45 H       9.6644282    9.3945063    8.0126968    9.6425768    9.8044582  
  46 H      10.4834205   10.1649184    8.6735523   10.8631502   10.8030931  
  47 H       9.5483341    8.9033570    7.5613150   10.0364927   10.1383945  
  48 H       8.0934625    8.5971366    6.8951173    8.5159489    7.9988578  
  49 H       9.7318779   10.0043876    8.3351945   10.0697984    9.6860155  
  50 H       8.8382828    9.2372820    7.6556801    8.7274856    8.5349220  

               41 H         42 H         43 H         44 H         45 H     

   1 C       4.3597152    3.7211774    4.2767827    3.0425020    6.5035473  
   2 C       5.7924856    4.0668825    5.4779703    4.0295300    3.0088876  
   3 C       1.0953670 *  2.7631653 *  2.7100209 *  3.4824147    9.0464712  
   4 C       2.7477069 *  1.0948091 *  1.0967568 *  1.0917383 *  7.4169548  
   5 C       8.9358505    6.9366862    8.1775141    6.6512529    1.0966766 *
   6 C       7.7311313    5.5610837    6.8402207    5.6805944    2.8163177 *
   7 H       6.4876864    5.0237465    4.9678416    3.4487134    6.7977747  
   8 H       7.9287137    5.7175339    5.9422250    4.3323622    5.4305705  
   9 C       5.9284249    4.0627244    4.6152283    2.8503795 *  5.0200121  
  10 C       6.7069391    4.5471940    5.2948199    3.5858777    4.0012162  
  11 C       6.6658468    4.5638021    5.7028830    4.1298786    2.8276396 *
  12 O       6.1326402    6.0475070    6.6643378    5.4963895    7.1870145  
  13 C       5.0656174    4.5516636    4.5195632    3.4568598    7.7039958  
  14 C       3.4826052    3.5029652    2.7634001 *  2.8177382 *  8.9805973  
  15 C       4.7559070    4.1444665    3.5463304    2.8658312 *  8.4677587  
  16 O       6.5877841    4.7945718    4.8577193    3.2203979    6.1663268  
  17 O       7.8271421    5.5328722    6.0129213    4.3856362    4.5582612  
  18 C       7.8820884    5.6830993    6.8354627    5.3842189    2.1927704 *
  19 C       2.7960257 *  2.8806961 *  4.1711781    3.5629203    6.4154857  
  20 C       2.2008953 *  2.2003366 *  2.1724267 *  2.2131263 *  8.0234401  
  21 C       2.8201656 *  2.8837414 *  3.5408039    2.9087668 *  7.1765341  
  22 C       4.3048504    3.7805274    5.1827607    4.1074595    5.1289630  
  23 C       5.1796726    4.9258621    5.7102377    4.5174742    6.4160429  
  24 C       4.9159082    3.4783771    4.3119308    2.6959111 *  5.1551282  
  25 C       4.8763379    3.5119479    4.8246312    3.3888357    4.2443445  
  26 O       5.1063073    4.9167261    6.0590782    4.9231721    5.7598167  
  27 H       3.0738162    3.8332563    4.2870867    3.8832840    8.0227161  
  28 H       4.8245218    4.4096967    5.9709867    4.9853261    4.8307669  
  29 H       6.0939823    4.5683946    6.1449677    4.8686996    2.6428993 *
  30 H       2.8231807 *  3.6933216    4.9030026    4.5468756    7.1345655  
  31 H       2.4291445 *  2.1369389 *  3.6785265    3.2730555    6.3228180  
  32 H       8.4328333    6.0824422    7.0049509    5.5497528    3.0680771  
  33 H       5.2304075    5.2258342    5.1722176    4.3502683    8.4661243  
  34 H       6.1198465    5.3604357    5.3372582    4.0787424    7.5847607  
  35 H       3.6850130    4.3294715    3.7037992    3.8575960    9.6754269  
  36 H       3.7606085    3.7193063    2.4731572 *  3.0511022    9.6644282  
  37 H       5.6150749    5.1616982    4.3389941    3.8421436    9.3945063  
  38 H       5.0343482    3.8564188    3.1913549    2.2721367 *  8.0126968  
  39 H       1.7727702 *  3.7776356    3.7309902    4.3605129    9.6425768  
  40 H       1.7659530 *  3.1129977    2.4933835 *  3.7525825    9.8044582  
  41 H       0.0000000    2.5564297 *  3.0460858    3.7765217    8.6899870  
  42 H       2.5564297 *  0.0000000    1.7622287 *  1.7609744 *  6.9172799  
  43 H       3.0460858    1.7622287 *  0.0000000    1.7671933 *  8.3156699  
  44 H       3.7765217    1.7609744 *  1.7671933 *  0.0000000    6.8418850  
  45 H       8.6899870    6.9172799    8.3156699    6.8418850    0.0000000  
  46 H       9.8503831    7.7849088    9.0085335    7.5375799    1.7726809 *
  47 H       9.2735234    7.3088676    8.4345960    6.7962909    1.7716823 *
  48 H       7.1823124    4.8968817    6.0635768    5.0695548    3.8264563  
  49 H       8.7618746    6.5753179    7.7997820    6.6848025    3.1544850  
  50 H       7.4074427    5.4905073    6.9628718    5.8785862    2.6465817 *

               46 H         47 H         48 H         49 H         50 H     

   1 C       7.6706191    6.4385388    6.4965966    7.6992467    6.5580797  
   2 C       4.2268380    3.5266720    3.3404326    4.1384152    2.8959286 *
   3 C      10.1627662    9.4364081    7.5990029    9.2107048    7.9442371  
   4 C       8.2377309    7.5781152    5.5457677    7.2182346    6.2464935  
   5 C       1.0962984 *  1.0949513 *  3.5032510    2.7798710 *  2.8169735 *
   6 C       2.7806854 *  3.5016006    1.0952351 *  1.0959711 *  1.0962180 *
   7 H       7.3901924    6.0136610    6.5906534    7.6699823    7.1312837  
   8 H       5.3500163    4.2967870    4.9018899    5.6396542    5.7432069  
   9 C       5.6931088    4.4883120    4.7643987    5.8199325    5.1884266  
  10 C       4.4065728    3.3792180    3.6857878    4.5437877    4.1756881  
  11 C       3.4805210    2.7608851 *  2.7838457 *  3.4885563    2.8555157 *
  12 O       8.5453672    7.0753986    8.2945758    9.1707065    7.9587586  
  13 C       8.7072903    7.3610289    7.5639687    8.8074208    7.8413575  
  14 C       9.9205803    8.8924322    7.8016836    9.3617383    8.3603832  
  15 C       9.2994537    8.1052215    7.6266965    9.0543769    8.2112671  
  16 O       6.6173758    5.3414446    5.7624801    6.8167149    6.4072483  
  17 O       4.4383174    3.5160510    4.0430954    4.6867692    4.8252424  
  18 C       2.1834938 *  2.1907960 *  2.1906836 *  2.1782042 *  2.1973278 *
  19 C       7.8048446    7.0172607    6.0475811    7.3139023    5.8044503  
  20 C       9.0633103    8.2024927    6.7527387    8.3275942    7.1743198  
  21 C       8.4200169    7.4263967    6.6599114    8.0340881    6.7238297  
  22 C       6.6328055    5.7428326    5.5626626    6.5455964    5.0268306  
  23 C       7.7942662    6.4593929    7.2134534    8.1767175    6.9064840  
  24 C       6.1982893    5.0333061    5.1002331    6.2294131    5.2137136  
  25 C       5.5282293    4.5766483    4.4738145    5.4799399    4.1969645  
  26 O       7.3099690    6.1496256    6.7916226    7.6414836    6.2019582  
  27 H       9.3459044    8.2759725    7.7326324    9.0689609    7.7063560  
  28 H       6.4535139    5.7482953    5.5701275    6.3666929    4.7211753  
  29 H       4.0653352    3.6961718    3.3361905    3.8823828    2.3527985 *
  30 H       8.6227631    7.8642613    6.9382982    8.1451432    6.5443287  
  31 H       7.5992940    7.0312702    5.3867787    6.7638651    5.2698327  
  32 H       2.4759772 *  2.4966575 *  2.5012160 *  2.4681868 *  3.0715527  
  33 H       9.5802199    8.1946377    8.5141558    9.7422150    8.6749227  
  34 H       8.4875128    7.0139114    7.7560941    8.8575198    8.0297634  
  35 H      10.7264259    9.6304780    8.7385363   10.2650199    9.1656097  
  36 H      10.4834205    9.5483341    8.0934625    9.7318779    8.8382828  
  37 H      10.1649184    8.9033570    8.5971366   10.0043876    9.2372820  
  38 H       8.6735523    7.5613150    6.8951173    8.3351945    7.6556801  
  39 H      10.8631502   10.0364927    8.5159489   10.0697984    8.7274856  
  40 H      10.8030931   10.1383945    7.9988578    9.6860155    8.5349220  
  41 H       9.8503831    9.2735234    7.1823124    8.7618746    7.4074427  
  42 H       7.7849088    7.3088676    4.8968817    6.5753179    5.4905073  
  43 H       9.0085335    8.4345960    6.0635768    7.7997820    6.9628718  
  44 H       7.5375799    6.7962909    5.0695548    6.6848025    5.8785862  
  45 H       1.7726809 *  1.7716823 *  3.8264563    3.1544850    2.6465817 *
  46 H       0.0000000    1.7737718 *  3.7860046    2.5667813 *  3.1465231  
  47 H       1.7737718 *  0.0000000    4.3514779    3.7811304    3.8298795  
  48 H       3.7860046    4.3514779    0.0000000    1.7737648 *  1.7715688 *
  49 H       2.5667813 *  3.7811304    1.7737648 *  0.0000000    1.7672353 *
  50 H       3.1465231    3.8298795    1.7715688 *  1.7672353 *  0.0000000  

  * ... LESS THAN  3.000


     ATOMIC BASIS SET
     ----------------
 THE CONTRACTED PRIMITIVE FUNCTIONS HAVE BEEN UNNORMALIZED
 THE CONTRACTED BASIS FUNCTIONS ARE NOW NORMALIZED TO UNITY

  SHELL TYPE  PRIMITIVE        EXPONENT          CONTRACTION COEFFICIENT(S)

 C         

      1   S       1           172.2560000    0.061766907377
      1   S       2            25.9109000    0.358794042852
      1   S       3             5.5333500    0.700713083689

      2   L       4             3.6649800   -0.395895162119    0.236459946619
      2   L       5             0.7705450    1.215834355681    0.860618805716

      3   L       6             0.1958570    1.000000000000    1.000000000000

 C         

      4   S       7           172.2560000    0.061766907377
      4   S       8            25.9109000    0.358794042852
      4   S       9             5.5333500    0.700713083689

      5   L      10             3.6649800   -0.395895162119    0.236459946619
      5   L      11             0.7705450    1.215834355681    0.860618805716

      6   L      12             0.1958570    1.000000000000    1.000000000000

 C         

      7   S      13           172.2560000    0.061766907377
      7   S      14            25.9109000    0.358794042852
      7   S      15             5.5333500    0.700713083689

      8   L      16             3.6649800   -0.395895162119    0.236459946619
      8   L      17             0.7705450    1.215834355681    0.860618805716

      9   L      18             0.1958570    1.000000000000    1.000000000000

 C         

     10   S      19           172.2560000    0.061766907377
     10   S      20            25.9109000    0.358794042852
     10   S      21             5.5333500    0.700713083689

     11   L      22             3.6649800   -0.395895162119    0.236459946619
     11   L      23             0.7705450    1.215834355681    0.860618805716

     12   L      24             0.1958570    1.000000000000    1.000000000000

 C         

     13   S      25           172.2560000    0.061766907377
     13   S      26            25.9109000    0.358794042852
     13   S      27             5.5333500    0.700713083689

     14   L      28             3.6649800   -0.395895162119    0.236459946619
     14   L      29             0.7705450    1.215834355681    0.860618805716

     15   L      30             0.1958570    1.000000000000    1.000000000000

 C         

     16   S      31           172.2560000    0.061766907377
     16   S      32            25.9109000    0.358794042852
     16   S      33             5.5333500    0.700713083689

     17   L      34             3.6649800   -0.395895162119    0.236459946619
     17   L      35             0.7705450    1.215834355681    0.860618805716

     18   L      36             0.1958570    1.000000000000    1.000000000000

 H         

     19   S      37             5.4471780    0.156284978695
     19   S      38             0.8245472    0.904690876670

     20   S      39             0.1831916    1.000000000000

 H         

     21   S      40             5.4471780    0.156284978695
     21   S      41             0.8245472    0.904690876670

     22   S      42             0.1831916    1.000000000000

 C         

     23   S      43           172.2560000    0.061766907377
     23   S      44            25.9109000    0.358794042852
     23   S      45             5.5333500    0.700713083689

     24   L      46             3.6649800   -0.395895162119    0.236459946619
     24   L      47             0.7705450    1.215834355681    0.860618805716

     25   L      48             0.1958570    1.000000000000    1.000000000000

 C         

     26   S      49           172.2560000    0.061766907377
     26   S      50            25.9109000    0.358794042852
     26   S      51             5.5333500    0.700713083689

     27   L      52             3.6649800   -0.395895162119    0.236459946619
     27   L      53             0.7705450    1.215834355681    0.860618805716

     28   L      54             0.1958570    1.000000000000    1.000000000000

 C         

     29   S      55           172.2560000    0.061766907377
     29   S      56            25.9109000    0.358794042852
     29   S      57             5.5333500    0.700713083689

     30   L      58             3.6649800   -0.395895162119    0.236459946619
     30   L      59             0.7705450    1.215834355681    0.860618805716

     31   L      60             0.1958570    1.000000000000    1.000000000000

 O         

     32   S      61           322.0370000    0.059239393389
     32   S      62            48.4308000    0.351499960776
     32   S      63            10.4206000    0.707657921031

     33   L      64             7.4029400   -0.404453583190    0.244586106967
     33   L      65             1.5762000    1.221561761397    0.853955373466

     34   L      66             0.3736840    1.000000000000    1.000000000000

 C         

     35   S      67           172.2560000    0.061766907377
     35   S      68            25.9109000    0.358794042852
     35   S      69             5.5333500    0.700713083689

     36   L      70             3.6649800   -0.395895162119    0.236459946619
     36   L      71             0.7705450    1.215834355681    0.860618805716

     37   L      72             0.1958570    1.000000000000    1.000000000000

 C         

     38   S      73           172.2560000    0.061766907377
     38   S      74            25.9109000    0.358794042852
     38   S      75             5.5333500    0.700713083689

     39   L      76             3.6649800   -0.395895162119    0.236459946619
     39   L      77             0.7705450    1.215834355681    0.860618805716

     40   L      78             0.1958570    1.000000000000    1.000000000000

 C         

     41   S      79           172.2560000    0.061766907377
     41   S      80            25.9109000    0.358794042852
     41   S      81             5.5333500    0.700713083689

     42   L      82             3.6649800   -0.395895162119    0.236459946619
     42   L      83             0.7705450    1.215834355681    0.860618805716

     43   L      84             0.1958570    1.000000000000    1.000000000000

 O         

     44   S      85           322.0370000    0.059239393389
     44   S      86            48.4308000    0.351499960776
     44   S      87            10.4206000    0.707657921031

     45   L      88             7.4029400   -0.404453583190    0.244586106967
     45   L      89             1.5762000    1.221561761397    0.853955373466

     46   L      90             0.3736840    1.000000000000    1.000000000000

 O         

     47   S      91           322.0370000    0.059239393389
     47   S      92            48.4308000    0.351499960776
     47   S      93            10.4206000    0.707657921031

     48   L      94             7.4029400   -0.404453583190    0.244586106967
     48   L      95             1.5762000    1.221561761397    0.853955373466

     49   L      96             0.3736840    1.000000000000    1.000000000000

 C         

     50   S      97           172.2560000    0.061766907377
     50   S      98            25.9109000    0.358794042852
     50   S      99             5.5333500    0.700713083689

     51   L     100             3.6649800   -0.395895162119    0.236459946619
     51   L     101             0.7705450    1.215834355681    0.860618805716

     52   L     102             0.1958570    1.000000000000    1.000000000000

 C         

     53   S     103           172.2560000    0.061766907377
     53   S     104            25.9109000    0.358794042852
     53   S     105             5.5333500    0.700713083689

     54   L     106             3.6649800   -0.395895162119    0.236459946619
     54   L     107             0.7705450    1.215834355681    0.860618805716

     55   L     108             0.1958570    1.000000000000    1.000000000000

 C         

     56   S     109           172.2560000    0.061766907377
     56   S     110            25.9109000    0.358794042852
     56   S     111             5.5333500    0.700713083689

     57   L     112             3.6649800   -0.395895162119    0.236459946619
     57   L     113             0.7705450    1.215834355681    0.860618805716

     58   L     114             0.1958570    1.000000000000    1.000000000000

 C         

     59   S     115           172.2560000    0.061766907377
     59   S     116            25.9109000    0.358794042852
     59   S     117             5.5333500    0.700713083689

     60   L     118             3.6649800   -0.395895162119    0.236459946619
     60   L     119             0.7705450    1.215834355681    0.860618805716

     61   L     120             0.1958570    1.000000000000    1.000000000000

 C         

     62   S     121           172.2560000    0.061766907377
     62   S     122            25.9109000    0.358794042852
     62   S     123             5.5333500    0.700713083689

     63   L     124             3.6649800   -0.395895162119    0.236459946619
     63   L     125             0.7705450    1.215834355681    0.860618805716

     64   L     126             0.1958570    1.000000000000    1.000000000000

 C         

     65   S     127           172.2560000    0.061766907377
     65   S     128            25.9109000    0.358794042852
     65   S     129             5.5333500    0.700713083689

     66   L     130             3.6649800   -0.395895162119    0.236459946619
     66   L     131             0.7705450    1.215834355681    0.860618805716

     67   L     132             0.1958570    1.000000000000    1.000000000000

 C         

     68   S     133           172.2560000    0.061766907377
     68   S     134            25.9109000    0.358794042852
     68   S     135             5.5333500    0.700713083689

     69   L     136             3.6649800   -0.395895162119    0.236459946619
     69   L     137             0.7705450    1.215834355681    0.860618805716

     70   L     138             0.1958570    1.000000000000    1.000000000000

 C         

     71   S     139           172.2560000    0.061766907377
     71   S     140            25.9109000    0.358794042852
     71   S     141             5.5333500    0.700713083689

     72   L     142             3.6649800   -0.395895162119    0.236459946619
     72   L     143             0.7705450    1.215834355681    0.860618805716

     73   L     144             0.1958570    1.000000000000    1.000000000000

 O         

     74   S     145           322.0370000    0.059239393389
     74   S     146            48.4308000    0.351499960776
     74   S     147            10.4206000    0.707657921031

     75   L     148             7.4029400   -0.404453583190    0.244586106967
     75   L     149             1.5762000    1.221561761397    0.853955373466

     76   L     150             0.3736840    1.000000000000    1.000000000000

 H         

     77   S     151             5.4471780    0.156284978695
     77   S     152             0.8245472    0.904690876670

     78   S     153             0.1831916    1.000000000000

 H         

     79   S     154             5.4471780    0.156284978695
     79   S     155             0.8245472    0.904690876670

     80   S     156             0.1831916    1.000000000000

 H         

     81   S     157             5.4471780    0.156284978695
     81   S     158             0.8245472    0.904690876670

     82   S     159             0.1831916    1.000000000000

 H         

     83   S     160             5.4471780    0.156284978695
     83   S     161             0.8245472    0.904690876670

     84   S     162             0.1831916    1.000000000000

 H         

     85   S     163             5.4471780    0.156284978695
     85   S     164             0.8245472    0.904690876670

     86   S     165             0.1831916    1.000000000000

 H         

     87   S     166             5.4471780    0.156284978695
     87   S     167             0.8245472    0.904690876670

     88   S     168             0.1831916    1.000000000000

 H         

     89   S     169             5.4471780    0.156284978695
     89   S     170             0.8245472    0.904690876670

     90   S     171             0.1831916    1.000000000000

 H         

     91   S     172             5.4471780    0.156284978695
     91   S     173             0.8245472    0.904690876670

     92   S     174             0.1831916    1.000000000000

 H         

     93   S     175             5.4471780    0.156284978695
     93   S     176             0.8245472    0.904690876670

     94   S     177             0.1831916    1.000000000000

 H         

     95   S     178             5.4471780    0.156284978695
     95   S     179             0.8245472    0.904690876670

     96   S     180             0.1831916    1.000000000000

 H         

     97   S     181             5.4471780    0.156284978695
     97   S     182             0.8245472    0.904690876670

     98   S     183             0.1831916    1.000000000000

 H         

     99   S     184             5.4471780    0.156284978695
     99   S     185             0.8245472    0.904690876670

    100   S     186             0.1831916    1.000000000000

 H         

    101   S     187             5.4471780    0.156284978695
    101   S     188             0.8245472    0.904690876670

    102   S     189             0.1831916    1.000000000000

 H         

    103   S     190             5.4471780    0.156284978695
    103   S     191             0.8245472    0.904690876670

    104   S     192             0.1831916    1.000000000000

 H         

    105   S     193             5.4471780    0.156284978695
    105   S     194             0.8245472    0.904690876670

    106   S     195             0.1831916    1.000000000000

 H         

    107   S     196             5.4471780    0.156284978695
    107   S     197             0.8245472    0.904690876670

    108   S     198             0.1831916    1.000000000000

 H         

    109   S     199             5.4471780    0.156284978695
    109   S     200             0.8245472    0.904690876670

    110   S     201             0.1831916    1.000000000000

 H         

    111   S     202             5.4471780    0.156284978695
    111   S     203             0.8245472    0.904690876670

    112   S     204             0.1831916    1.000000000000

 H         

    113   S     205             5.4471780    0.156284978695
    113   S     206             0.8245472    0.904690876670

    114   S     207             0.1831916    1.000000000000

 H         

    115   S     208             5.4471780    0.156284978695
    115   S     209             0.8245472    0.904690876670

    116   S     210             0.1831916    1.000000000000

 H         

    117   S     211             5.4471780    0.156284978695
    117   S     212             0.8245472    0.904690876670

    118   S     213             0.1831916    1.000000000000

 H         

    119   S     214             5.4471780    0.156284978695
    119   S     215             0.8245472    0.904690876670

    120   S     216             0.1831916    1.000000000000

 H         

    121   S     217             5.4471780    0.156284978695
    121   S     218             0.8245472    0.904690876670

    122   S     219             0.1831916    1.000000000000

 H         

    123   S     220             5.4471780    0.156284978695
    123   S     221             0.8245472    0.904690876670

    124   S     222             0.1831916    1.000000000000

 TOTAL NUMBER OF BASIS SET SHELLS             =  124
 NUMBER OF CARTESIAN GAUSSIAN BASIS FUNCTIONS =  268
 NUMBER OF ELECTRONS                          =  178
 CHARGE OF MOLECULE                           =    0
 SPIN MULTIPLICITY                            =    1
 NUMBER OF OCCUPIED ORBITALS (ALPHA)          =   89
 NUMBER OF OCCUPIED ORBITALS (BETA )          =   89
 TOTAL NUMBER OF ATOMS                        =   50
 THE NUCLEAR REPULSION ENERGY IS     2290.9839198012

     $CONTRL OPTIONS
     ---------------
 SCFTYP=RHF          RUNTYP=ENERGY       EXETYP=RUN     
 MPLEVL=       0     CITYP =NONE         CCTYP =NONE         VBTYP =NONE    
 DFTTYP=NONE         TDDFT =NONE    
 MULT  =       1     ICHARG=       0     NZVAR =       0     COORD =UNIQUE  
 PP    =NONE         RELWFN=NONE         LOCAL =NONE         NUMGRD=       F
 ISPHER=      -1     NOSYM =       0     MAXIT =      60     UNITS =ANGS    
 PLTORB=       F     MOLPLT=       F     AIMPAC=       F     FRIEND=        
 NPRINT=       7     IREST =       0     GEOM  =INPUT   
 NORMF =       0     NORMP =       0     ITOL  =      20     ICUT  =       9
 INTTYP=BEST         GRDTYP=BEST         QMTTOL= 1.0E-06

     $SYSTEM OPTIONS
     ---------------
  REPLICATED MEMORY=    30000000 WORDS (ON EVERY NODE).
 DISTRIBUTED MEMDDI=        1000 MILLION WORDS IN AGGREGATE,
 MEMDDI DISTRIBUTED OVER   6 PROCESSORS IS   166666666 WORDS/PROCESSOR.
 TOTAL MEMORY REQUESTED ON EACH PROCESSOR=   196666666 WORDS.
 TIMLIM=      525600.00 MINUTES, OR     365.0 DAYS.
 PARALL= T  BALTYP=  DLB     KDIAG=    0  COREFL= F
 MXSEQ2=     300 MXSEQ3=     150  mem10=         0

          ----------------
          PROPERTIES INPUT
          ----------------

     MOMENTS            FIELD           POTENTIAL          DENSITY
 IEMOM =       1   IEFLD =       0   IEPOT =       0   IEDEN =       0
 WHERE =COMASS     WHERE =NUCLEI     WHERE =NUCLEI     WHERE =NUCLEI  
 OUTPUT=BOTH       OUTPUT=BOTH       OUTPUT=BOTH       OUTPUT=BOTH    
 IEMINT=       0   IEFINT=       0                     IEDINT=       0
                                                       MORB  =       0
          EXTRAPOLATION IN EFFECT
          SOSCF IN EFFECT
 ORBITAL PRINTING OPTION: NPREO=     1   268     2     1

     -------------------------------
     INTEGRAL TRANSFORMATION OPTIONS
     -------------------------------
     NWORD  =            0
     CUTOFF = 1.0E-09     MPTRAN =       0
     DIRTRF =       T     AOINTS =DUP     

          ----------------------
          INTEGRAL INPUT OPTIONS
          ----------------------
 NOPK  =       1 NORDER=       0 SCHWRZ=       T

     ------------------------------------------
     THE POINT GROUP IS C1 , NAXIS= 0, ORDER= 1
     ------------------------------------------

     DIMENSIONS OF THE SYMMETRY SUBSPACES ARE
 A   =  268

 ..... DONE SETTING UP THE RUN .....
 CPU     0: STEP CPU TIME=     0.04 TOTAL CPU TIME=          0.0 (      0.0 MIN)
 TOTAL WALL CLOCK TIME=          0.1 SECONDS, CPU UTILIZATION IS    57.14%

          ********************
          1 ELECTRON INTEGRALS
          ********************
 ...... END OF ONE-ELECTRON INTEGRALS ......
 CPU     0: STEP CPU TIME=     0.02 TOTAL CPU TIME=          0.1 (      0.0 MIN)
 TOTAL WALL CLOCK TIME=          0.1 SECONDS, CPU UTILIZATION IS    54.55%

          -------------
          GUESS OPTIONS
          -------------
          GUESS =HUCKEL            NORB  =       0          NORDER=       0
          MIX   =       F          PRTMO =       F          PUNMO =       F
          TOLZ  = 1.0E-08          TOLE  = 1.0E-05
          SYMDEN=       F          PURIFY=       F

 INITIAL GUESS ORBITALS GENERATED BY HUCKEL   ROUTINE.
 HUCKEL GUESS REQUIRES    642998 WORDS.

 SYMMETRIES FOR INITIAL GUESS ORBITALS FOLLOW.   BOTH SET(S).
    89 ORBITALS ARE OCCUPIED (   24 CORE ORBITALS).
    25=A       26=A       27=A       28=A       29=A       30=A       31=A   
    32=A       33=A       34=A       35=A       36=A       37=A       38=A   
    39=A       40=A       41=A       42=A       43=A       44=A       45=A   
    46=A       47=A       48=A       49=A       50=A       51=A       52=A   
    53=A       54=A       55=A       56=A       57=A       58=A       59=A   
    60=A       61=A       62=A       63=A       64=A       65=A       66=A   
    67=A       68=A       69=A       70=A       71=A       72=A       73=A   
    74=A       75=A       76=A       77=A       78=A       79=A       80=A   
    81=A       82=A       83=A       84=A       85=A       86=A       87=A   
    88=A       89=A       90=A       91=A       92=A       93=A       94=A   
    95=A       96=A       97=A       98=A       99=A   
 ...... END OF INITIAL ORBITAL SELECTION ......
 CPU     0: STEP CPU TIME=     0.14 TOTAL CPU TIME=          0.2 (      0.0 MIN)
 TOTAL WALL CLOCK TIME=          0.4 SECONDS, CPU UTILIZATION IS    50.00%

                    ----------------------
                    AO INTEGRAL TECHNOLOGY
                    ----------------------
     S,P,L SHELL ROTATED AXIS INTEGRALS, REPROGRAMMED BY
        KAZUYA ISHIMURA (IMS) AND JOSE SIERRA (SYNSTAR).
     S,P,D,L SHELL ROTATED AXIS INTEGRALS PROGRAMMED BY
        KAZUYA ISHIMURA (INSTITUTE FOR MOLECULAR SCIENCE).
     S,P,D,F,G SHELL TO TOTAL QUARTET ANGULAR MOMENTUM SUM 5,
        ERIC PROGRAM BY GRAHAM FLETCHER (ELORET AND NASA ADVANCED
        SUPERCOMPUTING DIVISION, AMES RESEARCH CENTER).
     S,P,D,F,G,L SHELL GENERAL RYS QUADRATURE PROGRAMMED BY
        MICHEL DUPUIS (PACIFIC NORTHWEST NATIONAL LABORATORY).

          --------------------
          2 ELECTRON INTEGRALS
          --------------------

 DIRECT SCF METHOD SKIPS INTEGRAL STORAGE ON DISK.
 DIRECT TRANSFORMATION SKIPS AO INTEGRAL STORAGE ON DISK.
  ...... END OF TWO-ELECTRON INTEGRALS .....
 CPU     0: STEP CPU TIME=     0.02 TOTAL CPU TIME=          0.2 (      0.0 MIN)
 TOTAL WALL CLOCK TIME=          0.4 SECONDS, CPU UTILIZATION IS    51.16%

          --------------------------
                 RHF SCF CALCULATION
          --------------------------

     NUCLEAR ENERGY =      2290.9839198012
     MAXIT =   60     NPUNCH=    2
     EXTRAP=T  DAMP=F  SHIFT=F  RSTRCT=F  DIIS=F  DEM=F  SOSCF=T
     DENSITY MATRIX CONV=  2.00E-05
     SOSCF WILL OPTIMIZE   15931 ORBITAL ROTATIONS, SOGTOL=   0.250
     MEMORY REQUIRED FOR RHF ITERS=    630100 WORDS.

 DIRECT SCF CALCULATION, SCHWRZ=T   FDIFF=T,  DIRTHR=  0.00E+00 NITDIR=10
 SCHWARZ INEQUALITY OVERHEAD:     30377 INTEGRALS, T=        0.00

                                                                                   NONZERO     BLOCKS
 ITER EX DEM     TOTAL ENERGY        E CHANGE  DENSITY CHANGE     ORB. GRAD      INTEGRALS    SKIPPED
   1  0  0    -1063.5964546682 -1063.5964546682   1.247209206   0.000000000      212189714   22941555
          ---------------START SECOND ORDER SCF---------------
   2  1  0    -1065.8262206899    -2.2297660217   0.231458077   0.112445762      211754774   23092650
   3  2  0    -1065.9117708063    -0.0855501164   0.249377625   0.101025912      208482520   23581904
   4  3  0    -1066.0346686152    -0.1228978089   0.050552873   0.011448310      203370365   24044880
   5  4  0    -1066.0377686845    -0.0031000692   0.009812524   0.001923918      195359575   24480791
   6  5  0    -1066.0381512796    -0.0003825951   0.002164298   0.000923724      183673424   24952804
   7  6  0    -1066.0381927281    -0.0000414486   0.000589742   0.000300812      170539513   25495457
   8  7  0    -1066.0381980332    -0.0000053051   0.000390633   0.000210618      157808775   25926156
   9  8  0    -1066.0381987893    -0.0000007561   0.000110433   0.000051971      145253231   26383347
  10  9  0    -1066.0381989156    -0.0000001263   0.000133277   0.000018528      133127248   26732651
  11 10  0    -1066.0381989406    -0.0000000250   0.000031556   0.000006283      125767627   26961718
  12 11  0    -1066.0381989431    -0.0000000025   0.000012667   0.000003140      109732222   27399916
  13 12  0    -1066.0381989419     0.0000000013   0.000002600   0.000001248      100893339   27658384

          -----------------
          DENSITY CONVERGED
          -----------------
     TIME TO FORM FOCK OPERATORS=      41.4 SECONDS (       3.2 SEC/ITER)
     FOCK TIME ON FIRST ITERATION=       3.6, LAST ITERATION=       2.1
     TIME TO SOLVE SCF EQUATIONS=       0.5 SECONDS (       0.0 SEC/ITER)

 FINAL RHF ENERGY IS    -1066.0381989419 AFTER  13 ITERATIONS

          ------------
          EIGENVECTORS
          ------------

                      1          2          3          4          5
                  -20.5047   -20.4973   -20.4767   -20.4446   -11.3304
                     A          A          A          A          A   
    1  C  1  S   -0.000401   0.000312   0.000050  -0.000054   0.002154
    2  C  1  S   -0.002186   0.001596   0.000199  -0.000284   0.002183
    3  C  1  X   -0.000474  -0.000815   0.000303   0.000719  -0.000127
    4  C  1  Y    0.000021   0.000728   0.000313  -0.000664   0.001657
    5  C  1  Z    0.000105  -0.001438  -0.000169   0.001131  -0.000384
    6  C  1  S    0.020282  -0.008554  -0.005961   0.008652  -0.001341
    7  C  1  X   -0.010874   0.011011   0.003010  -0.011171   0.009339
    8  C  1  Y   -0.004631  -0.011286  -0.002920   0.010624   0.002463
    9  C  1  Z   -0.001218   0.010509   0.002632  -0.011216   0.012582
   10  C  2  S   -0.000187   0.000080   0.000295  -0.000012  -0.000052
   11  C  2  S   -0.000879   0.000340   0.001208  -0.000037   0.000173
   12  C  2  X   -0.000011  -0.000287   0.000369   0.000011  -0.000362
   13  C  2  Y    0.000143  -0.000050   0.000643  -0.000058   0.000078
   14  C  2  Z   -0.000079   0.000011  -0.000305   0.000145   0.000079
   15  C  2  S    0.013974  -0.009608  -0.028768   0.002665  -0.009282
   16  C  2  X    0.003938  -0.003813  -0.004975   0.001870  -0.004178
   17  C  2  Y   -0.009253   0.002229   0.013040  -0.000095   0.000524
   18  C  2  Z    0.006094  -0.001872  -0.008589  -0.000047  -0.002154
   19  C  3  S   -0.000001  -0.000004   0.000004   0.000005  -0.000221
   20  C  3  S   -0.000016   0.000029   0.000023   0.000070  -0.000238
   21  C  3  X    0.000040  -0.000085   0.000010  -0.000033   0.000147
   22  C  3  Y    0.000055   0.000028  -0.000009   0.000065  -0.000067
   23  C  3  Z    0.000016   0.000120  -0.000007   0.000090  -0.000160
   24  C  3  S   -0.000198   0.000351  -0.000172   0.000501   0.000045
   25  C  3  X    0.000172  -0.000304   0.000010   0.000184  -0.000299
   26  C  3  Y   -0.000247   0.000166   0.000068  -0.000681   0.000043
[...]
   39   -0.0000000  -0.0000000   0.0000110  -0.0010440  -0.0000450
   40   -0.0000000  -0.0000000   0.0000032  -0.0017181  -0.0000016
   41    0.0000000   0.0000000   0.0000006   0.0035867  -0.0000656
   42    0.0000072   0.0000000  -0.0000085   0.0032853  -0.0000362
   43   -0.0000006  -0.0000000   0.0000047  -0.0018805   0.0002288
   44    0.0000430  -0.0000000   0.0000387  -0.0012960  -0.0002390
   45   -0.0020889  -0.0000000   0.0000000  -0.0000000   0.0000000
   46    0.0048758   0.0000000  -0.0000000  -0.0000000   0.0000000
   47   -0.0018767   0.0000000   0.0000000  -0.0000000   0.0000000
   48   -0.0007585   0.0000000   0.0000000   0.0000000   0.0000000
   49    0.0046629   0.0000000   0.0000000   0.0000000  -0.0000000
   50   -0.0023257  -0.0000000   0.0000000  -0.0000000  -0.0000000

            16          17          18          19          20

   16    8.3547036
   17   -0.0059205   8.3361260
   18   -0.0000055  -0.0037001   5.5870103
   19   -0.0000003  -0.0000000   0.0000008   5.5389073
   20   -0.0000041  -0.0000000  -0.0000000  -0.0460699   5.7482228
   21    0.0000157   0.0000000  -0.0000000   0.2245180   0.2445102
   22   -0.0000042  -0.0000002  -0.0000349   0.2206113   0.0027684
   23    0.0000169   0.0000000   0.0000000   0.0009906   0.0014263
   24   -0.0804579   0.0048278  -0.0003806   0.0117445  -0.0006854
   25    0.0028467  -0.0004303   0.0024046  -0.1426440   0.0003843
   26   -0.0000000  -0.0000000   0.0000000  -0.0551341   0.0000425
   27   -0.0000001  -0.0000000   0.0000000  -0.0450721  -0.0506119
   28    0.0000000   0.0000000  -0.0000015  -0.0352579  -0.0000363
   29   -0.0000001  -0.0000031  -0.0033391  -0.0001037   0.0000001
   30   -0.0000000   0.0000000  -0.0000000   0.3922561   0.0015081
   31    0.0000000  -0.0000000   0.0000000   0.3716182  -0.0039034
   32   -0.0000001   0.0085235   0.4038801  -0.0000000   0.0000000
   33    0.0000606  -0.0000000   0.0000000  -0.0000274   0.0001231
   34   -0.0008210   0.0000002  -0.0000000  -0.0000543  -0.0001633
   35   -0.0000002  -0.0000000   0.0000000  -0.0000496  -0.0482662
   36   -0.0000001   0.0000000  -0.0000000  -0.0000423  -0.0438627
   37    0.0000208  -0.0000000  -0.0000000   0.0000013   0.0033727
   38    0.0100630   0.0000002   0.0000000  -0.0000129  -0.0024890
   39    0.0000000  -0.0000000   0.0000000   0.0000483  -0.0438835
   40   -0.0000000  -0.0000000   0.0000000  -0.0000483  -0.0443603
   41   -0.0000000  -0.0000000   0.0000000   0.0007552  -0.0423263
   42   -0.0000002   0.0000000  -0.0000001  -0.0002960  -0.0416364
   43   -0.0000004   0.0000000   0.0000000  -0.0000127  -0.0453699
   44    0.0000104  -0.0000040  -0.0000000   0.0002795  -0.0381594
   45    0.0000000  -0.0000030  -0.0454784   0.0000000   0.0000000
   46   -0.0000000  -0.0000025  -0.0433196   0.0000000   0.0000000
   47   -0.0000000   0.0001593  -0.0401685  -0.0000000  -0.0000000
   48    0.0000000   0.0000078  -0.0413583  -0.0000000   0.0000000
   49   -0.0000000  -0.0000009  -0.0434318  -0.0000000  -0.0000000
   50    0.0000000  -0.0000013  -0.0443084  -0.0000000   0.0000000

            21          22          23          24          25

   21    5.6463714
   22   -0.0540919   5.4048187
   23   -0.0950772  -0.0800054   4.3712801
   24   -0.0849579  -0.0408579  -0.1195300   5.8083725
   25    0.0035723   0.1327758   0.0043263   0.2676568   5.6088600
   26    0.0089166   0.2017656   0.2150228   0.0034508  -0.0573766
   27    0.4041372   0.0031386  -0.0003770   0.0055727  -0.0005453
   28    0.0031122   0.4177949   0.0015751   0.0030420  -0.0516672
   29    0.0000030  -0.0010054   0.0000038   0.0024704  -0.0361868
   30   -0.0421739  -0.0433669   0.0000853  -0.0006282   0.0061677
   31   -0.0397881  -0.0426371   0.0002167   0.0005912   0.0015489
   32   -0.0000000   0.0000003  -0.0000000  -0.0000267  -0.0000394
   33   -0.0005222   0.0000065  -0.0015852   0.0042913  -0.0000751
   34    0.0031589  -0.0000213   0.0003067  -0.0012211   0.0001399
   35   -0.0008347   0.0000004  -0.0000335   0.0000087  -0.0000002
   36    0.0039874   0.0000004   0.0000028  -0.0000086   0.0000003
   37   -0.0002329   0.0000002  -0.0000419  -0.0000806  -0.0000004
   38    0.0005938   0.0000010  -0.0000664   0.0000250   0.0000244
   39   -0.0013468  -0.0000081  -0.0000027  -0.0000002   0.0000002
   40    0.0041682  -0.0000004   0.0000004   0.0000010   0.0000003
   41   -0.0023255   0.0000376  -0.0000008   0.0000048  -0.0000084
   42   -0.0018897  -0.0000221  -0.0000040   0.0000116   0.0002458
   43    0.0036152   0.0000023   0.0000007   0.0001221   0.0000166
   44   -0.0013745  -0.0000066   0.0000134  -0.0027599  -0.0006530
   45   -0.0000000   0.0000000   0.0000000   0.0000000  -0.0000042
   46   -0.0000000  -0.0000000   0.0000000  -0.0000000  -0.0000003
   47   -0.0000000   0.0000001   0.0000000  -0.0000043  -0.0000069
   48    0.0000000   0.0000001  -0.0000000  -0.0000025  -0.0000250
   49    0.0000000  -0.0000000  -0.0000000   0.0000000  -0.0000007
   50    0.0000000  -0.0000004  -0.0000000   0.0000011   0.0000069

            26          27          28          29          30

   26    8.5229997
   27   -0.0002182   0.4971253
   28   -0.0216715  -0.0000637   0.4243080
   29   -0.0000282  -0.0000001   0.0011947   0.4181635
   30    0.0010687  -0.0039622  -0.0028881   0.0000025   0.4697049
   31    0.0016566   0.0020708  -0.0000052   0.0000464  -0.0211560
   32   -0.0000000   0.0000000  -0.0000000   0.0000417   0.0000000
   33    0.0000601   0.0019913   0.0000001  -0.0000000  -0.0000029
   34    0.0000070  -0.0000715   0.0000000   0.0000000   0.0000005
   35    0.0000001   0.0021980   0.0000000  -0.0000000  -0.0000010
   36   -0.0000000  -0.0000404  -0.0000000  -0.0000000   0.0000004
   37    0.0000000  -0.0000294   0.0000000   0.0000000  -0.0000000
   38    0.0000001   0.0000158   0.0000000  -0.0000000   0.0000001
   39    0.0000001   0.0025305   0.0000000   0.0000000   0.0000541
   40    0.0000000  -0.0000062  -0.0000000   0.0000000   0.0000056
   41   -0.0000001   0.0000943   0.0000002  -0.0000000  -0.0002030
   42    0.0000002  -0.0000281   0.0000021  -0.0000005   0.0000150
   43    0.0000000  -0.0000448  -0.0000000  -0.0000000  -0.0000000
   44   -0.0000003  -0.0000319   0.0000002  -0.0000000  -0.0000058
   45    0.0000000   0.0000000   0.0000000   0.0008089   0.0000000
   46    0.0000000   0.0000000  -0.0000000   0.0000027   0.0000000
   47    0.0000000   0.0000000   0.0000000  -0.0000065   0.0000000
   48   -0.0000000  -0.0000000   0.0000000  -0.0000067  -0.0000000
   49    0.0000000  -0.0000000   0.0000000   0.0000056  -0.0000000
   50    0.0000000  -0.0000000   0.0000000   0.0018398   0.0000000

            31          32          33          34          35

   31    0.4922655
   32   -0.0000000   0.4437370
   33   -0.0000008  -0.0000000   0.4581439
   34    0.0000007  -0.0000000  -0.0257490   0.5147945
   35   -0.0000012  -0.0000000   0.0023910  -0.0000536   0.5199456
   36   -0.0000016  -0.0000000  -0.0000298  -0.0000375  -0.0240900
   37   -0.0000000   0.0000000  -0.0020374  -0.0012732  -0.0021903
   38    0.0000004   0.0000000   0.0027349  -0.0023261   0.0029845
   39    0.0000406   0.0000000   0.0000000  -0.0000001   0.0021816
   40   -0.0000134   0.0000000   0.0000003  -0.0000000   0.0000051
   41    0.0008845  -0.0000000   0.0000004  -0.0000000   0.0000274
   42    0.0024614  -0.0000000   0.0000002  -0.0000000  -0.0000483
   43   -0.0000253   0.0000000   0.0000000  -0.0000000  -0.0000265
   44   -0.0000204  -0.0000000  -0.0000038   0.0000056  -0.0000340
   45   -0.0000000   0.0026831  -0.0000000  -0.0000000  -0.0000000
   46   -0.0000000  -0.0016204  -0.0000000  -0.0000000  -0.0000000
   47   -0.0000000  -0.0011928  -0.0000000  -0.0000000  -0.0000000
   48    0.0000000  -0.0011612  -0.0000000   0.0000000   0.0000000
   49    0.0000000  -0.0020745   0.0000000   0.0000000   0.0000000
   50   -0.0000001   0.0026372  -0.0000000   0.0000000  -0.0000000

            36          37          38          39          40

   36    0.4965401
   37   -0.0014310   0.4934888
   38   -0.0017204  -0.0248708   0.5071572
   39    0.0000224  -0.0000005  -0.0000008   0.5138422
   40    0.0019754  -0.0000011  -0.0000000  -0.0248563   0.5071723
   41   -0.0000486   0.0000004   0.0000010  -0.0251411  -0.0255125
   42   -0.0000224   0.0000005  -0.0000058  -0.0000284  -0.0000153
   43    0.0021790  -0.0000102   0.0000428  -0.0000184   0.0020350
   44    0.0000270   0.0000260   0.0004717  -0.0000509  -0.0000270
   45    0.0000000   0.0000000  -0.0000000   0.0000000   0.0000000
   46   -0.0000000   0.0000000  -0.0000000   0.0000000   0.0000000
   47   -0.0000000   0.0000000   0.0000000   0.0000000   0.0000000
   48    0.0000000  -0.0000000  -0.0000000  -0.0000000  -0.0000000
   49   -0.0000000  -0.0000000   0.0000000  -0.0000000  -0.0000000
   50    0.0000000   0.0000000  -0.0000000   0.0000000  -0.0000000

            41          42          43          44          45

   41    0.5106890
   42    0.0013526   0.5096615
   43   -0.0000180  -0.0268675   0.5210424
   44   -0.0000163  -0.0245603  -0.0251181   0.4840157
   45    0.0000000  -0.0000000   0.0000000  -0.0000000   0.5289714
   46    0.0000000  -0.0000000   0.0000000  -0.0000000  -0.0264304
   47   -0.0000000  -0.0000000   0.0000000  -0.0000000  -0.0253396
   48    0.0000000   0.0000002  -0.0000000   0.0000002  -0.0000451
   49   -0.0000000   0.0000000  -0.0000000   0.0000000  -0.0000696
   50   -0.0000000   0.0000000  -0.0000000   0.0000000   0.0021479

            46          47          48          49          50

   46    0.5184312
   47   -0.0242776   0.4956229
   48   -0.0000366  -0.0000514   0.5031887
   49    0.0012920  -0.0000293  -0.0242199   0.5133673
   50   -0.0000381  -0.0000442  -0.0260975  -0.0272087   0.5340523

          TOTAL MULLIKEN AND LOWDIN ATOMIC POPULATIONS
       ATOM         MULL.POP.    CHARGE          LOW.POP.     CHARGE
    1 C             6.461433   -0.461433         6.095991   -0.095991
    2 C             6.209029   -0.209029         6.091848   -0.091848
    3 C             6.516178   -0.516178         6.239952   -0.239952
    4 C             6.534447   -0.534447         6.246969   -0.246969
    5 C             6.533297   -0.533297         6.240886   -0.240886
    6 C             6.538585   -0.538585         6.243631   -0.243631
    7 H             0.565919    0.434081         0.721136    0.278864
    8 H             0.577329    0.422671         0.721838    0.278162
    9 C             5.700562    0.299438         5.911561    0.088439
   10 C             5.604609    0.395391         5.875027    0.124973
   11 C             6.016850   -0.016850         6.051123   -0.051123
   12 O             8.600564   -0.600564         8.296573   -0.296573
   13 C             6.397826   -0.397826         6.152288   -0.152288
   14 C             6.331940   -0.331940         6.143235   -0.143235
   15 C             6.442266   -0.442266         6.171032   -0.171032
   16 O             8.772809   -0.772809         8.351189   -0.351189
   17 O             8.756657   -0.756657         8.338745   -0.338745
   18 C             6.347696   -0.347696         6.076673   -0.076673
   19 C             6.385352   -0.385352         6.168559   -0.168559
   20 C             6.230589   -0.230589         6.025834   -0.025834
   21 C             6.102819   -0.102819         6.058489   -0.058489
   22 C             6.005040   -0.005040         5.875536    0.124464
   23 C             4.965529    1.034471         5.641780    0.358220
   24 C             5.922129    0.077871         6.073791   -0.073791
   25 C             6.025620   -0.025620         6.076391   -0.076391
   26 O             8.670338   -0.670338         8.295754   -0.295754
   27 H             0.762222    0.237778         0.911394    0.088606
   28 H             0.739324    0.260676         0.896260    0.103740
   29 H             0.756945    0.243055         0.896279    0.103721
   30 H             0.760772    0.239228         0.900617    0.099383
   31 H             0.767883    0.232117         0.902232    0.097768
   32 H             0.726268    0.273732         0.890497    0.109503
   33 H             0.740978    0.259022         0.889599    0.110401
   34 H             0.801797    0.198203         0.920073    0.079927
   35 H             0.796024    0.203976         0.919952    0.080048
   36 H             0.787937    0.212063         0.913927    0.086073
   37 H             0.779366    0.220634         0.908583    0.091417
   38 H             0.779945    0.220055         0.913319    0.086681
   39 H             0.803900    0.196100         0.915258    0.084742
   40 H             0.797535    0.202465         0.910860    0.089140
   41 H             0.799408    0.200592         0.913573    0.086427
   42 H             0.799729    0.200271         0.913598    0.086402
   43 H             0.804140    0.195860         0.914255    0.085745
   44 H             0.773520    0.226480         0.903779    0.096221
   45 H             0.810006    0.189994         0.917905    0.082095
   46 H             0.804086    0.195914         0.914724    0.085276
   47 H             0.786486    0.213514         0.905618    0.094382
   48 H             0.792463    0.207537         0.908953    0.091047
   49 H             0.799939    0.200061         0.912344    0.087656
   50 H             0.813916    0.186084         0.920569    0.079431

          -------------------------------
          BOND ORDER AND VALENCE ANALYSIS     BOND ORDER THRESHOLD=0.050
          -------------------------------

                   BOND                       BOND                       BOND
  ATOM PAIR DIST  ORDER      ATOM PAIR DIST  ORDER      ATOM PAIR DIST  ORDER
    1  13  1.538  0.911        1  21  1.592  0.848        1  23  1.547  0.826
    1  24  1.539  0.849        2   9  2.787  0.088        2  11  1.405  1.363
    2  25  1.388  1.456        2  29  1.087  0.936        3  20  1.544  0.919
    3  39  1.097  0.931        3  40  1.096  0.929        3  41  1.095  0.928
    4  20  1.544  0.910        4  42  1.095  0.926        4  43  1.097  0.927
    4  44  1.092  0.918        5  18  1.543  0.905        5  45  1.097  0.928
    5  46  1.096  0.929        5  47  1.095  0.928        6  18  1.541  0.913
    6  48  1.095  0.930        6  49  1.096  0.929        6  50  1.096  0.928
    7  16  0.965  0.757        8  17  0.970  0.762        9  10  1.413  1.279
    9  16  1.382  0.804        9  24  1.396  1.389       10  11  1.399  1.390
   10  17  1.369  0.830       10  25  2.758  0.088       11  18  1.523  0.897
   11  24  2.862  0.094       12  23  1.211  1.793       12  26  2.234  0.076
   13  15  1.538  0.902       13  33  1.096  0.900       13  34  1.100  0.923
   14  15  1.534  0.913       14  20  1.550  0.893       14  35  1.100  0.924
   14  36  1.098  0.928       15  37  1.097  0.924       15  38  1.096  0.905
   18  32  1.094  0.896       19  21  1.552  0.907       19  22  1.535  0.878
   19  30  1.095  0.920       19  31  1.094  0.904       20  21  1.562  0.891
   21  27  1.099  0.910       22  25  1.502  0.900       22  26  1.468  0.776
   22  28  1.091  0.928       23  26  1.356  0.871       24  25  1.409  1.299

                       TOTAL       BONDED        FREE
      ATOM            VALENCE     VALENCE     VALENCE
    1 C                 3.368       3.368      -0.000
    2 C                 3.783       3.783       0.000
    3 C                 3.641       3.641      -0.000
    4 C                 3.631       3.631      -0.000
    5 C                 3.647       3.647      -0.000
    6 C                 3.654       3.654       0.000
    7 H                 0.797       0.797       0.000
    8 H                 0.815       0.815       0.000
    9 C                 3.564       3.564      -0.000
   10 C                 3.533       3.533      -0.000
   11 C                 3.627       3.627      -0.000
   12 O                 1.949       1.949      -0.000
   13 C                 3.574       3.574      -0.000
   14 C                 3.557       3.557       0.000
   15 C                 3.580       3.580      -0.000
   16 O                 1.713       1.713      -0.000
   17 O                 1.724       1.724      -0.000
   18 C                 3.521       3.521       0.000
   19 C                 3.560       3.560       0.000
   20 C                 3.510       3.510      -0.000
   21 C                 3.434       3.434      -0.000
   22 C                 3.408       3.408       0.000
   23 C                 3.427       3.427      -0.000
   24 C                 3.509       3.509      -0.000
   25 C                 3.621       3.621      -0.000
   26 O                 1.785       1.785      -0.000
   27 H                 0.897       0.897       0.000
   28 H                 0.905       0.905       0.000
   29 H                 0.921       0.921       0.000
   30 H                 0.905       0.905       0.000
   31 H                 0.905       0.905      -0.000
   32 H                 0.889       0.889       0.000
   33 H                 0.900       0.900       0.000
   34 H                 0.923       0.923       0.000
   35 H                 0.915       0.915       0.000
   36 H                 0.916       0.916       0.000
   37 H                 0.909       0.909       0.000
   38 H                 0.917       0.917       0.000
   39 H                 0.923       0.923       0.000
   40 H                 0.920       0.920      -0.000
   41 H                 0.920       0.920      -0.000
   42 H                 0.921       0.921      -0.000
   43 H                 0.920       0.920       0.000
   44 H                 0.909       0.909      -0.000
   45 H                 0.922       0.922       0.000
   46 H                 0.920       0.920      -0.000
   47 H                 0.915       0.915      -0.000
   48 H                 0.916       0.916       0.000
   49 H                 0.919       0.919       0.000
   50 H                 0.923       0.923       0.000

          ---------------------
          ELECTROSTATIC MOMENTS
          ---------------------

 POINT   1           X           Y           Z (BOHR)    CHARGE
                -0.119609    0.027064   -0.028410       -0.00 (A.U.)
         DX          DY          DZ         /D/  (DEBYE)
     1.043679   -2.361793   -3.628623    4.453565
 ...... END OF PROPERTY EVALUATION ......
 CPU     0: STEP CPU TIME=     0.14 TOTAL CPU TIME=         42.6 (      0.7 MIN)
 TOTAL WALL CLOCK TIME=        101.2 SECONDS, CPU UTILIZATION IS    42.08%
               643802  WORDS OF DYNAMIC MEMORY USED
 EXECUTION OF GAMESS TERMINATED NORMALLY Mon May 25 18:24:44 2020
 DDI: 263640 bytes (0.3 MB / 0 MWords) used by master data server.
Note: The following floating-point exceptions are signalling: IEEE_DENORMALNote: The following floating-point exceptions are signalling: IEEE_DENORMAL

Note: The following floating-point exceptions are signalling: IEEE_DENORMAL
 ----------------------------------------
 CPU timing information for all processes
 ========================================
 0: 42.248 + 0.333 = 42.581
 1: 41.67 + 0.156 = 41.223
 2: 40.816 + 0.141 = 40.958
 3: 40.989 + 0.171 = 41.161
 4: 40.593 + 0.145 = 40.738
 5: 41.641 + 0.96 = 41.738
 ----------------------------------------
Note: The following floating-point exceptions are signalling: IEEE_DENORMAL
Note: The following floating-point exceptions are signalling: IEEE_DENORMAL
Note: The following floating-point exceptions are signalling: IEEE_DENORMAL

 ddikick.x: exited gracefully.
unset echo
----- accounting info -----
Files used on the master node pietdev were:
-rwxr-xr-x 1 piet piet     2035 mei 25 18:23 /home/piet/scr/carnesol_fukui_neu.F05*
-rw-r--r-- 1 piet piet 49152000 mei 25 18:24 /home/piet/scr/carnesol_fukui_neu.F10
ls: No match.
ls: No match.
ls: No match.
ma 25 mei 2020 18:24:47 CEST
0.134u 0.034s 1:44.52 0.1%	0+0k 0+8io 0pf+0w
