----- GAMESS execution script 'rungms' -----
This job is running on host pietdev
under operating system Linux at ma 25 mei 2020 18:15:19 CEST
Available scratch disk space (Kbyte units) at beginning of the job is
Filesystem     1K-blocks     Used Available Use% Mounted on
/dev/sda2      244568380 31071260 201004064  14% /
GAMESS temporary binary files will be written to /home/piet/scr
GAMESS supplementary output files will be written to /home/piet/gamess/scr
Copying input file carnesol_charge_geodisk.inp to your run's scratch directory...
cp carnesol_charge_geodisk.inp /home/piet/scr/carnesol_charge_geodisk.F05
unset echo
 
Assuming a single but multicore node.
 
/home/piet/gamess/ddikick.x /home/piet/gamess/gamess.03.x carnesol_charge_geodisk -ddi 1 6 pietdev:cpus=6 -scr /home/piet/scr

 Distributed Data Interface kickoff program.
 Initiating 6 compute processes on 1 nodes to run the following command:
 /home/piet/gamess/gamess.03.x carnesol_charge_geodisk 

          ******************************************************
          *         GAMESS VERSION = 30 SEP 2019 (R2)          *
          *             FROM IOWA STATE UNIVERSITY             *
          * M.W.SCHMIDT, K.K.BALDRIDGE, J.A.BOATZ, S.T.ELBERT, *
          *   M.S.GORDON, J.H.JENSEN, S.KOSEKI, N.MATSUNAGA,   *
          *          K.A.NGUYEN, S.J.SU, T.L.WINDUS,           *
          *       TOGETHER WITH M.DUPUIS, J.A.MONTGOMERY       *
          *         J.COMPUT.CHEM.  14, 1347-1363(1993)        *
          **************** 64 BIT LINUX VERSION ****************

  SINCE 1993, STUDENTS AND POSTDOCS WORKING AT IOWA STATE UNIVERSITY
  AND ALSO IN THEIR VARIOUS JOBS AFTER LEAVING ISU HAVE MADE IMPORTANT
  CONTRIBUTIONS TO THE CODE:
     IVANA ADAMOVIC, CHRISTINE AIKENS, YURI ALEXEEV, POOJA ARORA,
     ANDREY ASADCHEV, ROB BELL, PRADIPTA BANDYOPADHYAY, JONATHAN BENTZ,
     COLLEEN BERTONI, BRETT BODE, KURT BRORSEN, CALEB CARLIN, GALINA CHABAN,
     WEI CHEN, CHEOL HO CHOI, PAUL DAY, ALBERT DEFUSCO, NUWAN DESILVA,
     TIM DUDLEY, DMITRI FEDOROV, ALEX FINDLATER, GRAHAM FLETCHER, 
     MARK FREITAG, KURT GLAESEMANN, EMILIE B GUIDEZ, ANASTASIA GUNINA, 
     DAN KEMP, SAROM SOK LEANG, GRANT MERRILL,
     NORIYUKI MINEZAWA, JONATHAN MULLIN,
     TAKESHI NAGATA, SEAN NEDD, HEATHER NETZLOFF, BOSILJKA NJEGIC, RYAN OLSON,
     MIKE PAK, BUU PHAM, DAVID POOLE,
     SPENCER PRUITT, LUKE ROSKOP, TOSAPORN SATTASATHUCHANA,
     JIM SHOEMAKER, LYUDMILA SLIPCHENKO,
     TONY SMITH, JIE SONG, TETSUYA TAKETSUGU, SIMON WEBB,
     JORGE LUIS GALVEZ VALLEJO, PENG XU, SOOHAENG YOO,
     FEDERICO ZAHARIEV

  ADDITIONAL CODE HAS BEEN PROVIDED BY COLLABORATORS IN OTHER GROUPS:
     IOWA STATE UNIVERSITY:
          JOE IVANIC, AARON WEST, LAIMUTIS BYTAUTAS, KLAUS RUEDENBERG
     UNIVERSITY OF TOKYO: KIMIHIKO HIRAO, TAKAHITO NAKAJIMA,
          TAKAO TSUNEDA, MUNEAKI KAMIYA, SUSUMU YANAGISAWA,
          KIYOSHI YAGI, MAHITO CHIBA, SEIKEN TOKURA, NAOAKI KAWAKAMI
     UNIVERSITY OF AARHUS: FRANK JENSEN
     UNIVERSITY OF IOWA: VISVALDAS KAIRYS, HUI LI
     NATIONAL INST. OF STANDARDS AND TECHNOLOGY: WALT STEVENS, DAVID GARMER
     UNIVERSITY OF PISA: BENEDETTA MENNUCCI, JACOPO TOMASI
     UNIVERSITY OF MEMPHIS: HENRY KURTZ, PRAKASHAN KORAMBATH
     UNIVERSITY OF ALBERTA: TOBY ZENG, MARIUSZ KLOBUKOWSKI
     UNIVERSITY OF NEW ENGLAND: MARK SPACKMAN
     MIE UNIVERSITY: HIROAKI UMEDA
     NAT. INST. OF ADVANCED INDUSTRIAL SCIENCE AND TECHNOLOGY: KAZUO KITAURA
     MICHIGAN STATE UNIVERSITY:
          KAROL KOWALSKI, MARTA WLOCH, JEFFREY GOUR, JESSE LUTZ,
          WEI LI, JUN SHEN, J. EMILIANO DEUSTUA, PIOTR PIECUCH
     UNIVERSITY OF MINNESOTA:
          ANDREW SAND, PRACHI SHARMA, YINAN SHU
     UNIVERSITY OF SILESIA: MONIKA MUSIAL, STANISLAW KUCHARSKI
     FACULTES UNIVERSITAIRES NOTRE-DAME DE LA PAIX:
          OLIVIER QUINET, BENOIT CHAMPAGNE
     UNIVERSITY OF CALIFORNIA - SANTA BARBARA: BERNARD KIRTMAN
     INSTITUTE FOR MOLECULAR SCIENCE:
          KAZUYA ISHIMURA, MICHIO KATOUDA, AND SHIGERU NAGASE
     UNIVERSITY OF NOTRE DAME: ANNA POMOGAEVA, DAN CHIPMAN
     KYUSHU UNIVERSITY:
          HARUYUKI NAKANO,
          FENG LONG GU, JACEK KORCHOWIEC, MARCIN MAKOWSKI, AND YURIKO AOKI,
          HIROTOSHI MORI AND EISAKU MIYOSHI
     PENNSYLVANIA STATE UNIVERSITY:
          TZVETELIN IORDANOV, CHET SWALINA, JONATHAN SKONE,
          SHARON HAMMES-SCHIFFER
     WASEDA UNIVERSITY:
          MASATO KOBAYASHI, TOMOKO AKAMA, TSUGUKI TOUMA,
          TAKESHI YOSHIKAWA, YASUHIRO IKABATA, JUNJI SEINO,
          YUYA NAKAJIMA, HIROMI NAKAI
     NANJING UNIVERSITY: SHUHUA LI
     UNIVERSITY OF NEBRASKA:
          PEIFENG SU, DEJUN SI, NANDUN THELLAMUREGE, YALI WANG, HUI LI
     UNIVERSITY OF ZURICH: ROBERTO PEVERATI, KIM BALDRIDGE
     N. COPERNICUS UNIVERSITY AND JACKSON STATE UNIVERSITY:
          MARIA BARYSZ
     UNIVERSITY OF COPENHAGEN: Jimmy Kromann, CASPER STEINMANN
     TOKYO INSTITUTE OF TECHNOLOGY: HIROYA NAKATA
     NAGOYA UNIVERSITY: YOSHIO NISHIMOTO, STEPHAN IRLE
     MOSCOW STATE UNIVERSITY: VLADIMIR MIRONOV
     A.N.NESMEYANOV INSTITUTE OF ORGANOELEMENT COMPOUNDS OF RUSSIAN ACADEMY OF SCIENCES:
          IGOR S. GERASIMOV
     JOHANNES KEPLER UNIVERSITY LINZ:
          CHRISTIAN FRIEDL


 PARALLEL VERSION RUNNING ON        6 PROCESSORS IN        1 NODES.

 EXECUTION OF GAMESS BEGUN Mon May 25 18:15:19 2020

            ECHO OF THE FIRST FEW INPUT CARDS -
 INPUT CARD> $BASIS GBASIS=N21 NGAUSS=3 $END                                                
 INPUT CARD> $CONTRL SCFTYP=RHF DFTTYP=B3LYP MAXIT=60 MULT=1 ICHARG=0 $END                  
 INPUT CARD> $SYSTEM MEMDDI=1000 MWORDS=30 $END                                             
 INPUT CARD> $SCF DIRSCF=.TRUE. $END                                                        
 INPUT CARD> $ELPOT  IEPOT=1 WHERE=PDC $END                                                 
 INPUT CARD> $PDC PTSEL=GEODESIC CONSTR=CHARGE $END                                         
 INPUT CARD> $DATA                                                                          
 INPUT CARD>                                                                                
 INPUT CARD>C1                                                                              
 INPUT CARD>C 6.0000000 1.43293 0.23902 0.68409                                             
 INPUT CARD>C 6.0000000 -2.00419 1.11615 -0.58777                                           
 INPUT CARD>C 6.0000000 3.46490 -0.48538 -2.65575                                           
 INPUT CARD>C 6.0000000 1.28719 -1.56957 -2.07502                                           
 INPUT CARD>C 6.0000000 -5.08515 1.18650 0.33186                                            
 INPUT CARD>C 6.0000000 -4.63191 0.26801 -1.99625                                           
 INPUT CARD>H 1.0000000 0.26350 -1.92278 2.12304                                            
 INPUT CARD>H 1.0000000 -2.56633 -2.54199 1.59852                                           
 INPUT CARD>C 6.0000000 -0.93480 -0.96870 0.92167                                           
 INPUT CARD>C 6.0000000 -2.30864 -0.94226 0.59371                                           
 INPUT CARD>C 6.0000000 -2.86556 0.08596 -0.17507                                           
 INPUT CARD>O 8.0000000 2.04114 1.86848 2.42005                                             
 INPUT CARD>C 6.0000000 2.21375 -0.78532 1.52518                                            
 INPUT CARD>C 6.0000000 3.28306 -1.80246 -0.53100                                           
 INPUT CARD>C 6.0000000 2.53164 -2.08988 0.77521                                            
 INPUT CARD>O 8.0000000 -0.58517 -2.06551 1.68713                                           
 INPUT CARD>O 8.0000000 -3.11203 -1.94785 1.05977                                           
 INPUT CARD>C 6.0000000 -4.35604 0.10242 -0.48920                                           
 INPUT CARD>C 6.0000000 1.44787 1.55650 -1.51461                                            
 INPUT CARD>C 6.0000000 2.52189 -0.85139 -1.48934                                           
 INPUT CARD>C 6.0000000 2.18255 0.45578 -0.70350                                            
 INPUT CARD>C 6.0000000 0.34303 2.15152 -0.63044                                            
 INPUT CARD>C 6.0000000 1.51986 1.63150 1.35351                                             
 INPUT CARD>C 6.0000000 -0.07574 0.03094 0.46153                                            
 INPUT CARD>C 6.0000000 -0.65378 1.08802 -0.26880                                           
 INPUT CARD>O 8.0000000 0.97807 2.62428 0.60622                                             
 INPUT CARD>H 1.0000000 3.15917 0.86431 -0.40956                                            
 INPUT CARD>H 1.0000000 -0.11846 3.03815 -1.06655                                           
 INPUT CARD>H 1.0000000 -2.40212 1.95522 -1.15249                                           
 INPUT CARD>H 1.0000000 2.14188 2.34639 -1.81942                                            
 INPUT CARD>H 1.0000000 0.98432 1.15936 -2.42211                                            
 INPUT CARD>H 1.0000000 -4.75959 -0.86764 -0.18409                                          
 INPUT CARD>H 1.0000000 3.15748 -0.30782 1.81207                                            
 INPUT CARD>H 1.0000000 1.71806 -0.95786 2.49148                                            
 INPUT CARD>H 1.0000000 4.25710 -1.35315 -0.28795                                           
 INPUT CARD>H 1.0000000 3.49605 -2.74269 -1.05570                                           
 INPUT CARD>H 1.0000000 3.14673 -2.73031 1.41938                                            
 INPUT CARD>H 1.0000000 1.62046 -2.65795 0.55627                                            
 INPUT CARD>H 1.0000000 4.35969 0.03898 -2.29881                                            
 INPUT CARD>H 1.0000000 3.79436 -1.39198 -3.17676                                           
 INPUT CARD>H 1.0000000 2.97089 0.15498 -3.39448                                            
   30000000 WORDS OF MEMORY AVAILABLE

     BASIS OPTIONS
     -------------
     GBASIS=N21          IGAUSS=       3      POLAR=NONE    
     NDFUNC=       0     NFFUNC=       0     DIFFSP=       F
     NPFUNC=       0      DIFFS=       F     BASNAM=        


     RUN TITLE
     ---------
                                                                                 

 THE POINT GROUP OF THE MOLECULE IS C1      
 THE ORDER OF THE PRINCIPAL AXIS IS     0

 ATOM      ATOMIC                      COORDINATES (BOHR)
           CHARGE         X                   Y                   Z
 C           6.0     2.7078450596        0.4516823056        1.2927426509
 C           6.0    -3.7873699273        2.1092176612       -1.1107242438
 C           6.0     6.5477115749       -0.9172351999       -5.0186397919
 C           6.0     2.4324363941       -2.9660572185       -3.9212192190
 C           6.0    -9.6095401065        2.2421598844        0.6271244663
 C           6.0    -8.7530406998        0.5064654620       -3.7723655030
 H           1.0     0.4979427978       -3.6335273347        4.0119638610
 H           1.0    -4.8496604941       -4.8036645635        3.0207647859
 C           6.0    -1.7665158533       -1.8305775643        1.7417037511
 C           6.0    -4.3626970043       -1.7806132092        1.1219492162
 C           6.0    -5.4151232014        0.1624408459       -0.3308343287
 O           8.0     3.8571953026        3.5309152135        4.5732313766
 C           6.0     4.1833809053       -1.4840396127        2.8821722820
 C           6.0     6.2040838013       -3.4061555038       -1.0034444995
 C           6.0     4.7841058996       -3.9493005472        1.4649344829
 O           8.0    -1.1058109562       -3.9032479249        3.1882134057
 O           8.0    -5.8808839656       -3.6809027652        2.0026749100
 C           6.0    -8.2317219916        0.1935457357       -0.9244539532
 C           6.0     2.7360775658        2.9413584999       -2.8621978783
 C           6.0     4.7656810712       -1.6088938087       -2.8144445026
 C           6.0     4.1244214545        0.8612993107       -1.3294222324
 C           6.0     0.6482327056        4.0657832571       -1.1913588517
 C           6.0     2.8721189397        3.0830879490        2.5577630216
 C           6.0    -0.1431278463        0.0584681221        0.8721652351
 C           6.0    -1.2354650563        2.0560596692       -0.5079583455
 O           8.0     1.8482842968        4.9591701151        1.1455896883
 H           1.0     5.9699656486        1.6333090684       -0.7739561755
 H           1.0    -0.2238569405        5.7412710096       -2.0154872522
 H           1.0    -4.5393485896        3.6948300457       -2.1778903036
 H           1.0     4.0475662986        4.4340341603       -3.4382052566
 H           1.0     1.8600950842        2.1908727211       -4.5771242121
 H           1.0    -8.9943209139       -1.6396018560       -0.3478796571
 H           1.0     5.9667720117       -0.5816954535        3.4243157706
 H           1.0     3.2466626305       -1.8100929346        4.7082145039
 H           1.0     8.0447525023       -2.5570827203       -0.5441465982
 H           1.0     6.6065765394       -5.1829325693       -1.9949837252
 H           1.0     5.9464574573       -5.1595377615        2.6822392725
 H           1.0     3.0622253741       -5.0227971891        1.0511978752
 H           1.0     8.2386194914        0.0736615190       -4.3441209978
 H           1.0     7.1703006988       -2.6304607804       -6.0032059288
 H           1.0     5.6141680397        0.2928697336       -6.4146370708
 H           1.0     1.4004759295       -1.7639836205       -5.2517752870
 H           1.0     3.0402856553       -4.6484613682       -4.9679195464
 H           1.0     1.0903718949       -3.5760418701       -2.4779220987
 H           1.0    -8.9559027846        4.1398983103        0.1111158881
 H           1.0   -11.6514835225        2.1588607629        0.2872950419
 H           1.0    -9.2847529010        1.9879728418        2.6547626566
 H           1.0    -7.8115036237       -0.9705254728       -4.8749261305
 H           1.0   -10.7868771913        0.3898693685       -4.1456052828
 H           1.0    -8.0967955560        2.3411059371       -4.4757593101

          INTERNUCLEAR DISTANCES (ANGS.)
          ------------------------------

                1 C          2 C          3 C          4 C          5 C     

   1 C       0.0000000    3.7683921    3.9759513    3.3022607    6.5959951  
   2 C       3.7683921    0.0000000    6.0623745    4.5009096    3.2160508  
   3 C       3.9759513    6.0623745    0.0000000    2.5010270 *  9.2100136  
   4 C       3.3022607    4.5009096    2.5010270 *  0.0000000    7.3481773  
   5 C       6.5959951    3.2160508    9.2100136    7.3481773    0.0000000  
   6 C       6.6307878    3.0996887    8.1584845    6.1982780    2.5434517 *
   7 H       2.8480735 *  4.6611162    5.9289050    4.3354822    6.4408078  
   8 H       4.9562364    4.2985874    7.6618662    5.4120341    4.6744539  
   9 C       2.6685534 *  2.7872215 *  5.6911240    3.7786817    4.7136152  
  10 C       3.9246576    2.3928302 *  6.6408956    4.5216845    3.5084459  
  11 C       4.3861828    1.4048384 *  6.8231171    4.8575634    2.5287835 *
  12 O       2.4573596 *  5.0968300    5.7733435    5.7091403    7.4571874  
  13 C       1.5383058 *  5.0863704    4.3744161    3.7993423    7.6541510  
  14 C       3.0111568    6.0395794    2.5064573 *  2.5341138 *  8.9277852  
  15 C       2.5766726 *  5.7192741    3.9008821    3.1532823    8.3034159  
  16 O       3.2233019    4.1607389    6.1449560    4.2314845    5.7150806  
  17 O       5.0576869    3.6509990    7.6941481    5.4150846    3.7745470  
  18 C       5.9082521    2.5629208 *  8.1367408    6.0956067    1.5430393 *
  19 C       2.5632515 *  3.6013412    3.0886703    3.1799672    6.7990221  
  20 C       2.6643246 *  5.0169156    1.5439377 *  1.5437900 *  8.0831196  
  21 C       1.5919551 *  4.2400795    2.5182303 *  2.6047609 *  7.3773563  
  22 C       2.5638891 *  2.5657852 *  4.5608327    4.1017996    5.5966439  
  23 C       1.5474755 *  4.0562399    4.9334093    4.6963606    6.6983543  
  24 C       1.5391281 *  2.4490061 *  4.7455403    3.2944341    5.1425987  
  25 C       2.4460497 *  1.3878546 *  5.0136457    3.7540085    4.4729778  
  26 O       2.4294910 *  3.5487946    5.1473058    4.9872819    6.2373970  
  27 H       2.1370453 *  5.1725689    2.6382766 *  3.4931129    8.2838591  
  28 H       3.6478322    2.7348294 *  5.2707959    4.9217829    5.4819858  
  29 H       4.5854091    1.0868742 *  6.5297965    5.1851918    3.1611510  
  30 H       3.3483101    4.4967042    3.2355449    4.0162880    7.6291096  
  31 H       3.2705894    3.5068308    2.9854706 *  2.7675369 *  6.6650997  
  32 H       6.3502549    3.4191533    8.5963633    6.3743133    2.1428217 *
  33 H       2.1320051 *  5.8676878    4.4819025    4.4943816    8.5067599  
  34 H       2.1864308 *  5.2572277    5.4560667    4.6273924    7.4529125  
  35 H       3.3846423    6.7372908    2.6433090 *  3.4728694    9.7011145  
  36 H       4.0216822    6.7351499    2.7670524 *  2.7007936 *  9.5394366  
  37 H       3.5063774    6.7346776    4.6634351    4.1250500    9.1808468  
  38 H       2.9058459 *  5.3563743    4.2940764    2.8669369 *  7.7327460  
  39 H       4.1837343    6.6773439    1.0968175 *  3.4753088    9.8712831  
  40 H       4.8106835    6.8276473    1.0963206 *  2.7443161 *  9.8896244  
  41 H       4.3597152    5.7924856    1.0953670 *  2.7477069 *  8.9358505  
  42 H       3.7211774    4.0668825    2.7631653 *  1.0948091 *  6.9366862  
  43 H       4.2767827    5.4779703    2.7100209 *  1.0967568 *  8.1775141  
  44 H       3.0425020    4.0295300    3.4824147    1.0917383 *  6.6512529  
  45 H       6.5035473    3.0088876    9.0464712    7.4169548    1.0966766 *
  46 H       7.6706191    4.2268380   10.1627662    8.2377309    1.0962984 *
  47 H       6.4385388    3.5266720    9.4364081    7.5781152    1.0949513 *
  48 H       6.4965966    3.3404326    7.5990029    5.5457677    3.5032510  
  49 H       7.6992467    4.1384152    9.2107048    7.2182346    2.7798710 *
  50 H       6.5580797    2.8959286 *  7.9442371    6.2464935    2.8169735 *

                6 C          7 H          8 H          9 C         10 C     

   1 C       6.6307878    2.8480735 *  4.9562364    2.6685534 *  3.9246576  
   2 C       3.0996887    4.6611162    4.2985874    2.7872215 *  2.3928302 *
   3 C       8.1584845    5.9289050    7.6618662    5.6911240    6.6408956  
   4 C       6.1982780    4.3354822    5.4120341    3.7786817    4.5216845  
   5 C       2.5434517 *  6.4408078    4.6744539    4.7136152    3.5084459  
   6 C       0.0000000    6.7626289    5.0085020    4.8695309    3.6837793  
   7 H       6.7626289    0.0000000    2.9438886 *  1.9466590 *  3.1489957  
   8 H       5.0085020    2.9438886 *  0.0000000    2.3654297 *  1.9066157 *
   9 C       4.8695309    1.9466590 *  2.3654297 *  0.0000000    1.4126901 *
  10 C       3.6837793    3.1489957    1.9066157 *  1.4126901 *  0.0000000  
  11 C       2.5435863 *  4.3711969    3.1845378    2.4582474 *  1.3994352 *
  12 O       8.1605641    4.1978413    6.4308582    4.3761801    5.4914810  
  13 C       7.7700086    2.3355357 *  5.0931751    3.2111088    4.6199868  
  14 C       8.3114712    4.0219582    6.2687418    4.5382539    5.7681908  
  15 C       8.0347423    2.6436768 *  5.1837767    3.6461900    4.9777791  
  16 O       5.9488409    0.9646917 *  2.0395784 *  1.3824479 *  2.3297225 *
  17 O       4.0693155    3.5391206    0.9700734 *  2.3912626 *  1.3688896 *
  18 C       1.5410140 *  5.6802626    3.8150414    3.8526271    2.5408458 *
  19 C       6.2334508    5.1711333    6.5270974    4.2413691    4.9799781  
  20 C       7.2585721    4.3928910    6.1873250    4.2160926    5.2613092  
  21 C       6.9385391    4.1628871    6.0694137    3.7931770    4.8793501  
  22 C       5.4920920    4.9181193    5.9549706    3.7118281    4.2545707  
  23 C       7.1361244    3.8475347    5.8459385    3.6017887    4.6753555  
  24 C       5.1822360    2.5870294 *  3.7570938    1.3960634 *  2.4393508 *
  25 C       4.4138439    3.9531276    4.5079601    2.3929664 *  2.7576298 *
  26 O       6.6179101    4.8463500    6.3433253    4.0826567    4.8500337  
  27 H       7.9733360    4.7504566    6.9582049    4.6789624    5.8452709  
  28 H       5.3767321    5.9101780    6.6507615    4.5468975    4.8370462  
  29 H       2.9207143 *  5.7335426    5.2744591    3.8735611    3.3842788  
  30 H       7.0876769    6.1071364    7.5990667    5.2886062    6.0370145  
  31 H       5.7024469    5.5387324    6.5170985    4.4036945    4.9351355  
  32 H       2.1424115 *  5.6273975    3.2850473    3.9827047    2.5724885 *
  33 H       8.6896190    3.3286511    6.1480989    4.2398502    5.6360787  
  34 H       7.8717594    1.7839741 *  4.6543359    3.0825456    4.4515264  
  35 H       9.1957027    4.6995949    7.1785309    5.3447926    6.6374014  
  36 H       8.7185253    4.6071705    6.6209981    5.1661847    6.2973429  
  37 H       9.0090894    3.0757531    5.7189693    4.4732396    5.7999927  
  38 H       7.3599410    2.1992234 *  4.3161258    3.0848722    4.2875192  
  39 H       8.9996038    6.3387721    8.3558566    6.2784182    7.3345844  
  40 H       8.6689790    6.3903522    8.0364295    6.2722603    7.1878579  
  41 H       7.7311313    6.4876864    7.9287137    5.9284249    6.7069391  
  42 H       5.5610837    5.0237465    5.7175339    4.0627244    4.5471940  
  43 H       6.8402207    4.9678416    5.9422250    4.6152283    5.2948199  
  44 H       5.6805944    3.4487134    4.3323622    2.8503795 *  3.5858777  
  45 H       2.8163177 *  6.7977747    5.4305705    5.0200121    4.0012162  
  46 H       2.7806854 *  7.3901924    5.3500163    5.6931088    4.4065728  
  47 H       3.5016006    6.0136610    4.2967870    4.4883120    3.3792180  
  48 H       1.0952351 *  6.5906534    4.9018899    4.7643987    3.6857878  
  49 H       1.0959711 *  7.6699823    5.6396542    5.8199325    4.5437877  
  50 H       1.0962180 *  7.1312837    5.7432069    5.1884266    4.1756881  

               11 C         12 O         13 C         14 C         15 C     

   1 C       4.3861828    2.4573596 *  1.5383058 *  3.0111568    2.5766726 *
   2 C       1.4048384 *  5.0968300    5.0863704    6.0395794    5.7192741  
   3 C       6.8231171    5.7733435    4.3744161    2.5064573 *  3.9008821  
   4 C       4.8575634    5.7091403    3.7993423    2.5341138 *  3.1532823  
   5 C       2.5287835 *  7.4571874    7.6541510    8.9277852    8.3034159  
   6 C       2.5435863 *  8.1605641    7.7700086    8.3114712    8.0347423  
   7 H       4.3711969    4.1978413    2.3355357 *  4.0219582    2.6436768 *
   8 H       3.1845378    6.4308582    5.0931751    6.2687418    5.1837767  
   9 C       2.4582474 *  4.3761801    3.2111088    4.5382539    3.6461900  
  10 C       1.3994352 *  5.4914810    4.6199868    5.7681908    4.9777791  
  11 C       0.0000000    5.8298997    5.4267273    6.4419208    5.8963616  
  12 O       5.8298997    0.0000000    2.8059296 *  4.8710227    4.3144760  
  13 C       5.4267273    2.8059296 *  0.0000000    2.5309828 *  1.5379811 *
  14 C       6.4419208    4.8710227    2.5309828 *  0.0000000    1.5340883 *
  15 C       5.8963616    4.3144760    1.5379811 *  1.5340883 *  0.0000000  
  16 O       3.6464765    4.7865388    3.0820557    4.4668221    3.2475678  
  17 O       2.3920620 *  6.5551428    5.4710159    6.5915752    5.6526240  
  18 C       1.5233119 *  7.2461449    6.9287769    7.8731292    7.3379185  
  19 C       4.7500035    3.9913469    3.9129294    3.9519645    4.4400361  
  20 C       5.6241042    4.7866631    3.0309481    1.5499450 *  2.5811120 *
  21 C       5.0891472    3.4310760    2.5511404 *  2.5180402 *  2.9645964 *
  22 C       3.8430391    3.5027387    4.0952802    4.9282474    4.9754738  
  23 C       4.8946051    1.2105370 *  2.5203121 *  4.2956179    3.8995896  
  24 C       2.8620591 *  3.4195811    2.6531860 *  3.9532276    3.3756041  
  25 C       2.4299960 *  3.8860811    3.8665870    4.8910462    4.6190806  
  26 O       4.6719347    2.2341286 *  3.7412250    5.1188158    4.9664315  
  27 H       6.0793245    3.2039103    2.7126218 *  2.6724069 *  3.2441813  
  28 H       4.1299783    4.2647837    5.1744749    5.9404257    6.0590265  
  29 H       2.1596897 *  5.7020282    5.9988942    6.8430754    6.6648968  
  30 H       5.7347961    4.2675113    4.5824799    4.4916895    5.1540770  
  31 H       4.5850793    5.0066189    4.5688485    4.1991523    4.8140020  
  32 H       2.1205622 *  7.7793204    7.1802403    8.1042245    7.4549421  
  33 H       6.3545888    2.5203445 *  1.0958734 *  2.7820309 *  2.1546443 *
  34 H       5.4045926    2.8456424 *  1.0996428 *  3.5068447    2.2111003 *
  35 H       7.2674662    4.7563266    2.7901883 *  1.0998667 *  2.1564537 *
  36 H       7.0176101    5.9548711    3.4837526    1.0975916 *  2.1699030 *
  37 H       6.8279776    4.8345154    2.1597758 *  2.1641335 *  1.0970147 *
  38 H       5.3092632    4.9131676    2.1903248 *  2.1629281 *  1.0958500 *
  39 H       7.5310501    5.5669008    4.4617741    2.7704125 *  4.1621402  
  40 H       7.4531191    6.7103399    4.9974598    2.7257967 *  4.2070884  
  41 H       6.6658468    6.1326402    5.0656174    3.4826052    4.7559070  
  42 H       4.5638021    6.0475070    4.5516636    3.5029652    4.1444665  
  43 H       5.7028830    6.6643378    4.5195632    2.7634001 *  3.5463304  
  44 H       4.1298786    5.4963895    3.4568598    2.8177382 *  2.8658312 *
  45 H       2.8276396 *  7.1870145    7.7039958    8.9805973    8.4677587  
  46 H       3.4805210    8.5453672    8.7072903    9.9205803    9.2994537  
  47 H       2.7608851 *  7.0753986    7.3610289    8.8924322    8.1052215  
  48 H       2.7838457 *  8.2945758    7.5639687    7.8016836    7.6266965  
  49 H       3.4885563    9.1707065    8.8074208    9.3617383    9.0543769  
  50 H       2.8555157 *  7.9587586    7.8413575    8.3603832    8.2112671  

               16 O         17 O         18 C         19 C         20 C     

   1 C       3.2233019    5.0576869    5.9082521    2.5632515 *  2.6643246 *
   2 C       4.1607389    3.6509990    2.5629208 *  3.6013412    5.0169156  
   3 C       6.1449560    7.6941481    8.1367408    3.0886703    1.5439377 *
   4 C       4.2314845    5.4150846    6.0956067    3.1799672    1.5437900 *
   5 C       5.7150806    3.7745470    1.5430393 *  6.7990221    8.0831196  
   6 C       5.9488409    4.0693155    1.5410140 *  6.2334508    7.2585721  
   7 H       0.9646917 *  3.5391206    5.6802626    5.1711333    4.3928910  
   8 H       2.0395784 *  0.9700734 *  3.8150414    6.5270974    6.1873250  
   9 C       1.3824479 *  2.3912626 *  3.8526271    4.2413691    4.2160926  
  10 C       2.3297225 *  1.3688896 *  2.5408458 *  4.9799781    5.2613092  
  11 C       3.6464765    2.3920620 *  1.5233119 *  4.7500035    5.6241042  
  12 O       4.7865388    6.5551428    7.2461449    3.9913469    4.7866631  
  13 C       3.0820557    5.4710159    6.9287769    3.9129294    3.0309481  
  14 C       4.4668221    6.5915752    7.8731292    3.9519645    1.5499450 *
  15 C       3.2475678    5.6526240    7.3379185    4.4400361    2.5811120 *
  16 O       0.0000000    2.6062321 *  4.8637222    5.2443634    4.6062860  
  17 O       2.6062321 *  0.0000000    2.8549039 *  6.3008404    6.2802262  
  18 C       4.8637222    2.8549039 *  0.0000000    6.0705177    7.0154084  
  19 C       5.2443634    6.3008404    6.0705177    0.0000000    2.6366820 *
  20 C       4.6062860    6.2802262    7.0154084    2.6366820 *  0.0000000  
  21 C       4.4421041    6.0761119    6.5516370    1.5521722 *  1.5624947 *
  22 C       4.9006151    5.6213062    5.1283544    1.5350820 *  3.8082291  
  23 C       4.2673571    5.8610950    6.3450663    2.8700035 *  3.9052020  
  24 C       2.4812732 *  3.6732217    4.3851984    2.9246966 *  3.3663157  
  25 C       3.7114850    4.1260875    3.8375399    2.4876593 *  3.9161089  
  26 O       5.0602585    6.1513412    6.0010376    2.4204929 *  4.3422383  
  27 H       5.1961559    7.0281665    7.5541512    2.1514670 *  2.1250123 *
  28 H       5.8178963    6.1921639    5.1873816    2.2021431 *  4.7200340  
  29 H       5.2470009    4.5422486    2.7731976 *  3.8874840    5.6777110  
  30 H       6.2607952    7.3711466    7.0019891    1.0947535 *  3.2371527  
  31 H       5.4542588    6.2095351    5.7769116    1.0936887 *  2.6976466 *
  32 H       4.7288624    2.3299132 *  1.0940572 *  6.7955351    7.3975599  
  33 H       4.1367273    6.5239872    7.8687434    4.1791453    3.4056939  
  34 H       2.6793163 *  5.1341643    6.8486012    4.7374852    4.0625616  
  35 H       5.2778761    7.5149248    8.7375835    4.2264088    2.1693443 *
  36 H       4.9636726    6.9838174    8.3708357    4.7842109    2.1711856 *
  37 H       3.8000956    6.3177243    8.2437003    5.4654517    3.5187238  
  38 H       2.5484570 *  4.8118828    6.6656734    4.6989275    2.8741530 *
  39 H       6.6909070    8.4293625    8.9018348    3.3758750    2.1967042 *
  40 H       6.5796164    8.1212930    8.7112129    4.1185304    2.1814682 *
  41 H       6.5877841    7.8271421    7.8820884    2.7960257 *  2.2008953 *
  42 H       4.7945718    5.5328722    5.6830993    2.8806961 *  2.2003366 *
  43 H       4.8577193    6.0129213    6.8354627    4.1711781    2.1724267 *
  44 H       3.2203979    4.3856362    5.3842189    3.5629203    2.2131263 *
  45 H       6.1663268    4.5582612    2.1927704 *  6.4154857    8.0234401  
  46 H       6.6173758    4.4383174    2.1834938 *  7.8048446    9.0633103  
  47 H       5.3414446    3.5160510    2.1907960 *  7.0172607    8.2024927  
  48 H       5.7624801    4.0430954    2.1906836 *  6.0475811    6.7527387  
  49 H       6.8167149    4.6867692    2.1782042 *  7.3139023    8.3275942  
  50 H       6.4072483    4.8252424    2.1973278 *  5.8044503    7.1743198  

               21 C         22 C         23 C         24 C         25 C     

   1 C       1.5919551 *  2.5638891 *  1.5474755 *  1.5391281 *  2.4460497 *
   2 C       4.2400795    2.5657852 *  4.0562399    2.4490061 *  1.3878546 *
   3 C       2.5182303 *  4.5608327    4.9334093    4.7455403    5.0136457  
   4 C       2.6047609 *  4.1017996    4.6963606    3.2944341    3.7540085  
   5 C       7.3773563    5.5966439    6.6983543    5.1425987    4.4729778  
   6 C       6.9385391    5.4920920    7.1361244    5.1822360    4.4138439  
   7 H       4.1628871    4.9181193    3.8475347    2.5870294 *  3.9531276  
   8 H       6.0694137    5.9549706    5.8459385    3.7570938    4.5079601  
   9 C       3.7931770    3.7118281    3.6017887    1.3960634 *  2.3929664 *
  10 C       4.8793501    4.2545707    4.6753555    2.4393508 *  2.7576298 *
  11 C       5.0891472    3.8430391    4.8946051    2.8620591 *  2.4299960 *
  12 O       3.4310760    3.5027387    1.2105370 *  3.4195811    3.8860811  
  13 C       2.5511404 *  4.0952802    2.5203121 *  2.6531860 *  3.8665870  
  14 C       2.5180402 *  4.9282474    4.2956179    3.9532276    4.8910462  
  15 C       2.9645964 *  4.9754738    3.8995896    3.3756041    4.6190806  
  16 O       4.4421041    4.9006151    4.2673571    2.4812732 *  3.7114850  
  17 O       6.0761119    5.6213062    5.8610950    3.6732217    4.1260875  
  18 C       6.5516370    5.1283544    6.3450663    4.3851984    3.8375399  
  19 C       1.5521722 *  1.5350820 *  2.8700035 *  2.9246966 *  2.4876593 *
  20 C       1.5624947 *  3.8082291    3.9052020    3.3663157    3.9161089  
  21 C       0.0000000    2.5029394 *  2.4602369 *  2.5763652 *  2.9382749 *
  22 C       2.5029394 *  0.0000000    2.3646157 *  2.4216991 *  1.5018142 *
  23 C       2.4602369 *  2.3646157 *  0.0000000    2.4296831 *  2.7662196 *
  24 C       2.5763652 *  2.4216991 *  2.4296831 *  0.0000000    1.4088755 *
  25 C       2.9382749 *  1.5018142 *  2.7662196 *  1.4088755 *  0.0000000  
  26 O       2.8050902 *  1.4683684 *  1.3555777 *  2.8030096 *  2.4059695 *
  27 H       1.0986738 *  3.1042458    2.5267239 *  3.4522378    3.8220998  
  28 H       3.4777992    1.0905401 *  3.2433697    3.3734501    2.1739318 *
  29 H       4.8444929    2.8012352 *  4.6654858    3.4234424    2.1423437 *
  30 H       2.1957545 *  2.1650656 *  3.3114138    3.9347020    3.4356415  
  31 H       2.2100679 *  2.1460931 *  3.8425285    3.2729862    2.7065116 *
  32 H       7.0862215    5.9456948    6.9311909    4.8127666    4.5485665  
  33 H       2.8038662 *  4.4649006    2.5793485 *  3.5202881    4.5611503  
  34 H       3.5244895    4.6157704    2.8353208 *  2.8837720 *  4.1749725  
  35 H       2.7836428 *  5.2649744    4.3697837    4.6098729    5.4841973  
  36 H       3.4755629    5.8374372    5.3705826    4.7699784    5.7021610  
  37 H       3.9480922    5.9912236    4.6557955    4.3504357    5.6456596  
  38 H       3.4056248    5.1157707    4.3640684    3.1805974    4.4592824  
  39 H       2.7310575 *  4.8352705    4.8928719    5.2242302    5.5096558  
  40 H       3.4826949    5.5634357    5.9023832    5.4990481    5.8645188  
  41 H       2.8201656 *  4.3048504    5.1796726    4.9159082    4.8763379  
  42 H       2.8837414 *  3.7805274    4.9258621    3.4783771    3.5119479  
  43 H       3.5408039    5.1827607    5.7102377    4.3119308    4.8246312  
  44 H       2.9087668 *  4.1074595    4.5174742    2.6959111 *  3.3888357  
  45 H       7.1765341    5.1289630    6.4160429    5.1551282    4.2443445  
  46 H       8.4200169    6.6328055    7.7942662    6.1982893    5.5282293  
  47 H       7.4263967    5.7428326    6.4593929    5.0333061    4.5766483  
  48 H       6.6599114    5.5626626    7.2134534    5.1002331    4.4738145  
  49 H       8.0340881    6.5455964    8.1767175    6.2294131    5.4799399  
  50 H       6.7238297    5.0268306    6.9064840    5.2137136    4.1969645  

               26 O         27 H         28 H         29 H         30 H     

   1 C       2.4294910 *  2.1370453 *  3.6478322    4.5854091    3.3483101  
   2 C       3.5487946    5.1725689    2.7348294 *  1.0868742 *  4.4967042  
   3 C       5.1473058    2.6382766 *  5.2707959    6.5297965    3.2355449  
   4 C       4.9872819    3.4931129    4.9217829    5.1851918    4.0162880  
   5 C       6.2373970    8.2838591    5.4819858    3.1611510    7.6291096  
   6 C       6.6179101    7.9733360    5.3767321    2.9207143 *  7.0876769  
   7 H       4.8463500    4.7504566    5.9101780    5.7335426    6.1071364  
   8 H       6.3433253    6.9582049    6.6507615    5.2744591    7.5990667  
   9 C       4.0826567    4.6789624    4.5468975    3.8735611    5.2886062  
  10 C       4.8500337    5.8452709    4.8370462    3.3842788    6.0370145  
  11 C       4.6719347    6.0793245    4.1299783    2.1596897 *  5.7347961  
  12 O       2.2341286 *  3.2039103    4.2647837    5.7020282    4.2675113  
  13 C       3.7412250    2.7126218 *  5.1744749    5.9988942    4.5824799  
  14 C       5.1188158    2.6724069 *  5.9404257    6.8430754    4.4916895  
  15 C       4.9664315    3.2441813    6.0590265    6.6648968    5.1540770  
  16 O       5.0602585    5.1961559    5.8178963    5.2470009    6.2607952  
  17 O       6.1513412    7.0281665    6.1921639    4.5422486    7.3711466  
  18 C       6.0010376    7.5541512    5.1873816    2.7731976 *  7.0019891  
  19 C       2.4204929 *  2.1514670 *  2.2021431 *  3.8874840    1.0947535 *
  20 C       4.3422383    2.1250123 *  4.7200340    5.6777110    3.2371527  
  21 C       2.8050902 *  1.0986738 *  3.4777992    4.8444929    2.1957545 *
  22 C       1.4683684 *  3.1042458    1.0905401 *  2.8012352 *  2.1650656 *
  23 C       1.3555777 *  2.5267239 *  3.2433697    4.6654858    3.3114138  
  24 C       2.8030096 *  3.4522378    3.3734501    3.4234424    3.9347020  
  25 C       2.4059695 *  3.8220998    2.1739318 *  2.1423437 *  3.4356415  
  26 O       0.0000000    2.9810234 *  2.0425048 *  3.8686414    2.7047007 *
  27 H       2.9810234 *  0.0000000    3.9874898    5.7157656    2.2845449 *
  28 H       2.0425048 *  3.9874898    0.0000000    2.5288784 *  2.4808229 *
  29 H       3.8686414    5.7157656    2.5288784 *  0.0000000    4.6093108  
  30 H       2.7047007 *  2.2845449 *  2.4808229 *  4.6093108    0.0000000  
  31 H       3.3640470    2.9778154 *  2.5658368 *  3.7031478    1.7641487 *
  32 H       6.7630494    8.1090843    6.1297650    3.8031568    7.7868210  
  33 H       3.8472214    2.5118781 *  5.4967037    6.6947082    4.6112898  
  34 H       4.1150355    3.7166026    5.6568966    6.2241815    5.4480777  
  35 H       5.2317805    2.4773712 *  6.2478203    7.4858502    4.5283719  
  36 H       6.1568310    3.6798688    6.8178377    7.5410965    5.3212574  
  37 H       5.8340337    4.0331711    7.0792969    7.7044431    6.1051152  
  38 H       5.3213827    3.9631770    6.1727581    6.3547107    5.5640993  
  39 H       5.1534774    2.3857249 *  5.5287714    7.1209620    3.2361454  
  40 H       6.1945760    3.6265282    6.2760815    7.3278770    4.3067937  
  41 H       5.1063073    3.0738162    4.8245218    6.0939823    2.8231807 *
  42 H       4.9167261    3.8332563    4.4096967    4.5683946    3.6933216  
  43 H       6.0590782    4.2870867    5.9709867    6.1449677    4.9030026  
  44 H       4.9231721    3.8832840    4.9853261    4.8686996    4.5468756  
  45 H       5.7598167    8.0227161    4.8307669    2.6428993 *  7.1345655  
  46 H       7.3099690    9.3459044    6.4535139    4.0653352    8.6227631  
  47 H       6.1496256    8.2759725    5.7482953    3.6961718    7.8642613  
  48 H       6.7916226    7.7326324    5.5701275    3.3361905    6.9382982  
  49 H       7.6414836    9.0689609    6.3666929    3.8823828    8.1451432  
  50 H       6.2019582    7.7063560    4.7211753    2.3527985 *  6.5443287  

               31 H         32 H         33 H         34 H         35 H     

   1 C       3.2705894    6.3502549    2.1320051 *  2.1864308 *  3.3846423  
   2 C       3.5068308    3.4191533    5.8676878    5.2572277    6.7372908  
   3 C       2.9854706 *  8.5963633    4.4819025    5.4560667    2.6433090 *
   4 C       2.7675369 *  6.3743133    4.4943816    4.6273924    3.4728694  
   5 C       6.6650997    2.1428217 *  8.5067599    7.4529125    9.7011145  
   6 C       5.7024469    2.1424115 *  8.6896190    7.8717594    9.1957027  
   7 H       5.5387324    5.6273975    3.3286511    1.7839741 *  4.6995949  
   8 H       6.5170985    3.2850473    6.1480989    4.6543359    7.1785309  
   9 C       4.4036945    3.9827047    4.2398502    3.0825456    5.3447926  
  10 C       4.9351355    2.5724885 *  5.6360787    4.4515264    6.6374014  
  11 C       4.5850793    2.1205622 *  6.3545888    5.4045926    7.2674662  
  12 O       5.0066189    7.7793204    2.5203445 *  2.8456424 *  4.7563266  
  13 C       4.5688485    7.1802403    1.0958734 *  1.0996428 *  2.7901883 *
  14 C       4.1991523    8.1042245    2.7820309 *  3.5068447    1.0998667 *
  15 C       4.8140020    7.4549421    2.1546443 *  2.2111003 *  2.1564537 *
  16 O       5.4542588    4.7288624    4.1367273    2.6793163 *  5.2778761  
  17 O       6.2095351    2.3299132 *  6.5239872    5.1341643    7.5149248  
  18 C       5.7769116    1.0940572 *  7.8687434    6.8486012    8.7375835  
  19 C       1.0936887 *  6.7955351    4.1791453    4.7374852    4.2264088  
  20 C       2.6976466 *  7.3975599    3.4056939    4.0625616    2.1693443 *
  21 C       2.2100679 *  7.0862215    2.8038662 *  3.5244895    2.7836428 *
  22 C       2.1460931 *  5.9456948    4.4649006    4.6157704    5.2649744  
  23 C       3.8425285    6.9311909    2.5793485 *  2.8353208 *  4.3697837  
  24 C       3.2729862    4.8127666    3.5202881    2.8837720 *  4.6098729  
  25 C       2.7065116 *  4.5485665    4.5611503    4.1749725    5.4841973  
  26 O       3.3640470    6.7630494    3.8472214    4.1150355    5.2317805  
  27 H       2.9778154 *  8.1090843    2.5118781 *  3.7166026    2.4773712 *
  28 H       2.5658368 *  6.1297650    5.4967037    5.6568966    6.2478203  
  29 H       3.7031478    3.8031568    6.6947082    6.2241815    7.4858502  
  30 H       1.7641487 *  7.7868210    4.6112898    5.4480777    4.5283719  
  31 H       0.0000000    6.4892191    4.9803134    5.4004038    4.6452593  
  32 H       6.4892191    0.0000000    8.1840119    7.0090487    9.0303491  
  33 H       4.9803134    8.1840119    0.0000000    1.7193254 *  2.5907456 *
  34 H       5.4004038    7.0090487    1.7193254 *  0.0000000    3.7852621  
  35 H       4.6452593    9.0303491    2.5907456 *  3.7852621    0.0000000  
  36 H       4.8375467    8.5106468    3.7772114    4.3507876    1.7605279 *
  37 H       5.8789961    8.2795260    2.4541350 *  2.5163615 *  2.4585498 *
  38 H       4.8833674    6.6677118    3.0761299    2.5777644 *  3.0605687  
  39 H       3.5585920    9.4050661    4.2970820    5.5604656    2.4478784 *
  40 H       3.8697748    9.0775033    5.1448463    6.0521423    2.9258946 *
  41 H       2.4291445 *  8.4328333    5.2304075    6.1198465    3.6850130  
  42 H       2.1369389 *  6.0824422    5.2258342    5.3604357    4.3294715  
  43 H       3.6785265    7.0049509    5.1722176    5.3372582    3.7037992  
  44 H       3.2730555    5.5497528    4.3502683    4.0787424    3.8575960  
  45 H       6.3228180    3.0680771    8.4661243    7.5847607    9.6754269  
  46 H       7.5992940    2.4759772 *  9.5802199    8.4875128   10.7264259  
  47 H       7.0312702    2.4966575 *  8.1946377    7.0139114    9.6304780  
  48 H       5.3867787    2.5012160 *  8.5141558    7.7560941    8.7385363  
  49 H       6.7638651    2.4681868 *  9.7422150    8.8575198   10.2650199  
  50 H       5.2698327    3.0715527    8.6749227    8.0297634    9.1656097  

               36 H         37 H         38 H         39 H         40 H     

   1 C       4.0216822    3.5063774    2.9058459 *  4.1837343    4.8106835  
   2 C       6.7351499    6.7346776    5.3563743    6.6773439    6.8276473  
   3 C       2.7670524 *  4.6634351    4.2940764    1.0968175 *  1.0963206 *
   4 C       2.7007936 *  4.1250500    2.8669369 *  3.4753088    2.7443161 *
   5 C       9.5394366    9.1808468    7.7327460    9.8712831    9.8896244  
   6 C       8.7185253    9.0090894    7.3599410    8.9996038    8.6689790  
   7 H       4.6071705    3.0757531    2.1992234 *  6.3387721    6.3903522  
   8 H       6.6209981    5.7189693    4.3161258    8.3558566    8.0364295  
   9 C       5.1661847    4.4732396    3.0848722    6.2784182    6.2722603  
  10 C       6.2973429    5.7999927    4.2875192    7.3345844    7.1878579  
  11 C       7.0176101    6.8279776    5.3092632    7.5310501    7.4531191  
  12 O       5.9548711    4.8345154    4.9131676    5.5669008    6.7103399  
  13 C       3.4837526    2.1597758 *  2.1903248 *  4.4617741    4.9974598  
  14 C       1.0975916 *  2.1641335 *  2.1629281 *  2.7704125 *  2.7257967 *
  15 C       2.1699030 *  1.0970147 *  1.0958500 *  4.1621402    4.2070884  
  16 O       4.9636726    3.8000956    2.5484570 *  6.6909070    6.5796164  
  17 O       6.9838174    6.3177243    4.8118828    8.4293625    8.1212930  
  18 C       8.3708357    8.2437003    6.6656734    8.9018348    8.7112129  
  19 C       4.7842109    5.4654517    4.6989275    3.3758750    4.1185304  
  20 C       2.1711856 *  3.5187238    2.8741530 *  2.1967042 *  2.1814682 *
  21 C       3.4755629    3.9480922    3.4056248    2.7310575 *  3.4826949  
  22 C       5.8374372    5.9912236    5.1157707    4.8352705    5.5634357  
  23 C       5.3705826    4.6557955    4.3640684    4.8928719    5.9023832  
  24 C       4.7699784    4.3504357    3.1805974    5.2242302    5.4990481  
  25 C       5.7021610    5.6456596    4.4592824    5.5096558    5.8645188  
  26 O       6.1568310    5.8340337    5.3213827    5.1534774    6.1945760  
  27 H       3.6798688    4.0331711    3.9631770    2.3857249 *  3.6265282  
  28 H       6.8178377    7.0792969    6.1727581    5.5287714    6.2760815  
  29 H       7.5410965    7.7044431    6.3547107    7.1209620    7.3278770  
  30 H       5.3212574    6.1051152    5.5640993    3.2361454    4.3067937  
  31 H       4.8375467    5.8789961    4.8833674    3.5585920    3.8697748  
  32 H       8.5106468    8.2795260    6.6677118    9.4050661    9.0775033  
  33 H       3.7772114    2.4541350 *  3.0761299    4.2970820    5.1448463  
  34 H       4.3507876    2.5163615 *  2.5777644 *  5.5604656    6.0521423  
  35 H       1.7605279 *  2.4585498 *  3.0605687    2.4478784 *  2.9258946 *
  36 H       0.0000000    2.4996397 *  2.4745638 *  3.1668414    2.5322523 *
  37 H       2.4996397 *  0.0000000    1.7549060 *  4.7921995    4.8306371  
  38 H       2.4745638 *  1.7549060 *  0.0000000    4.7883498    4.5015591  
  39 H       3.1668414    4.7921995    4.7883498    0.0000000    1.7714516 *
  40 H       2.5322523 *  4.8306371    4.5015591    1.7714516 *  0.0000000  
  41 H       3.7606085    5.6150749    5.0343482    1.7727702 *  1.7659530 *
  42 H       3.7193063    5.1616982    3.8564188    3.7776356    3.1129977  
  43 H       2.4731572 *  4.3389941    3.1913549    3.7309902    2.4933835 *
  44 H       3.0511022    3.8421436    2.2721367 *  4.3605129    3.7525825  
  45 H       9.6644282    9.3945063    8.0126968    9.6425768    9.8044582  
  46 H      10.4834205   10.1649184    8.6735523   10.8631502   10.8030931  
  47 H       9.5483341    8.9033570    7.5613150   10.0364927   10.1383945  
  48 H       8.0934625    8.5971366    6.8951173    8.5159489    7.9988578  
  49 H       9.7318779   10.0043876    8.3351945   10.0697984    9.6860155  
  50 H       8.8382828    9.2372820    7.6556801    8.7274856    8.5349220  

               41 H         42 H         43 H         44 H         45 H     

   1 C       4.3597152    3.7211774    4.2767827    3.0425020    6.5035473  
   2 C       5.7924856    4.0668825    5.4779703    4.0295300    3.0088876  
   3 C       1.0953670 *  2.7631653 *  2.7100209 *  3.4824147    9.0464712  
   4 C       2.7477069 *  1.0948091 *  1.0967568 *  1.0917383 *  7.4169548  
   5 C       8.9358505    6.9366862    8.1775141    6.6512529    1.0966766 *
   6 C       7.7311313    5.5610837    6.8402207    5.6805944    2.8163177 *
   7 H       6.4876864    5.0237465    4.9678416    3.4487134    6.7977747  
   8 H       7.9287137    5.7175339    5.9422250    4.3323622    5.4305705  
   9 C       5.9284249    4.0627244    4.6152283    2.8503795 *  5.0200121  
  10 C       6.7069391    4.5471940    5.2948199    3.5858777    4.0012162  
  11 C       6.6658468    4.5638021    5.7028830    4.1298786    2.8276396 *
  12 O       6.1326402    6.0475070    6.6643378    5.4963895    7.1870145  
  13 C       5.0656174    4.5516636    4.5195632    3.4568598    7.7039958  
  14 C       3.4826052    3.5029652    2.7634001 *  2.8177382 *  8.9805973  
  15 C       4.7559070    4.1444665    3.5463304    2.8658312 *  8.4677587  
  16 O       6.5877841    4.7945718    4.8577193    3.2203979    6.1663268  
  17 O       7.8271421    5.5328722    6.0129213    4.3856362    4.5582612  
  18 C       7.8820884    5.6830993    6.8354627    5.3842189    2.1927704 *
  19 C       2.7960257 *  2.8806961 *  4.1711781    3.5629203    6.4154857  
  20 C       2.2008953 *  2.2003366 *  2.1724267 *  2.2131263 *  8.0234401  
  21 C       2.8201656 *  2.8837414 *  3.5408039    2.9087668 *  7.1765341  
  22 C       4.3048504    3.7805274    5.1827607    4.1074595    5.1289630  
  23 C       5.1796726    4.9258621    5.7102377    4.5174742    6.4160429  
  24 C       4.9159082    3.4783771    4.3119308    2.6959111 *  5.1551282  
  25 C       4.8763379    3.5119479    4.8246312    3.3888357    4.2443445  
  26 O       5.1063073    4.9167261    6.0590782    4.9231721    5.7598167  
  27 H       3.0738162    3.8332563    4.2870867    3.8832840    8.0227161  
  28 H       4.8245218    4.4096967    5.9709867    4.9853261    4.8307669  
  29 H       6.0939823    4.5683946    6.1449677    4.8686996    2.6428993 *
  30 H       2.8231807 *  3.6933216    4.9030026    4.5468756    7.1345655  
  31 H       2.4291445 *  2.1369389 *  3.6785265    3.2730555    6.3228180  
  32 H       8.4328333    6.0824422    7.0049509    5.5497528    3.0680771  
  33 H       5.2304075    5.2258342    5.1722176    4.3502683    8.4661243  
  34 H       6.1198465    5.3604357    5.3372582    4.0787424    7.5847607  
  35 H       3.6850130    4.3294715    3.7037992    3.8575960    9.6754269  
  36 H       3.7606085    3.7193063    2.4731572 *  3.0511022    9.6644282  
  37 H       5.6150749    5.1616982    4.3389941    3.8421436    9.3945063  
  38 H       5.0343482    3.8564188    3.1913549    2.2721367 *  8.0126968  
  39 H       1.7727702 *  3.7776356    3.7309902    4.3605129    9.6425768  
  40 H       1.7659530 *  3.1129977    2.4933835 *  3.7525825    9.8044582  
  41 H       0.0000000    2.5564297 *  3.0460858    3.7765217    8.6899870  
  42 H       2.5564297 *  0.0000000    1.7622287 *  1.7609744 *  6.9172799  
  43 H       3.0460858    1.7622287 *  0.0000000    1.7671933 *  8.3156699  
  44 H       3.7765217    1.7609744 *  1.7671933 *  0.0000000    6.8418850  
  45 H       8.6899870    6.9172799    8.3156699    6.8418850    0.0000000  
  46 H       9.8503831    7.7849088    9.0085335    7.5375799    1.7726809 *
  47 H       9.2735234    7.3088676    8.4345960    6.7962909    1.7716823 *
  48 H       7.1823124    4.8968817    6.0635768    5.0695548    3.8264563  
  49 H       8.7618746    6.5753179    7.7997820    6.6848025    3.1544850  
  50 H       7.4074427    5.4905073    6.9628718    5.8785862    2.6465817 *

               46 H         47 H         48 H         49 H         50 H     

   1 C       7.6706191    6.4385388    6.4965966    7.6992467    6.5580797  
   2 C       4.2268380    3.5266720    3.3404326    4.1384152    2.8959286 *
   3 C      10.1627662    9.4364081    7.5990029    9.2107048    7.9442371  
   4 C       8.2377309    7.5781152    5.5457677    7.2182346    6.2464935  
   5 C       1.0962984 *  1.0949513 *  3.5032510    2.7798710 *  2.8169735 *
   6 C       2.7806854 *  3.5016006    1.0952351 *  1.0959711 *  1.0962180 *
   7 H       7.3901924    6.0136610    6.5906534    7.6699823    7.1312837  
   8 H       5.3500163    4.2967870    4.9018899    5.6396542    5.7432069  
   9 C       5.6931088    4.4883120    4.7643987    5.8199325    5.1884266  
  10 C       4.4065728    3.3792180    3.6857878    4.5437877    4.1756881  
  11 C       3.4805210    2.7608851 *  2.7838457 *  3.4885563    2.8555157 *
  12 O       8.5453672    7.0753986    8.2945758    9.1707065    7.9587586  
  13 C       8.7072903    7.3610289    7.5639687    8.8074208    7.8413575  
  14 C       9.9205803    8.8924322    7.8016836    9.3617383    8.3603832  
  15 C       9.2994537    8.1052215    7.6266965    9.0543769    8.2112671  
  16 O       6.6173758    5.3414446    5.7624801    6.8167149    6.4072483  
  17 O       4.4383174    3.5160510    4.0430954    4.6867692    4.8252424  
  18 C       2.1834938 *  2.1907960 *  2.1906836 *  2.1782042 *  2.1973278 *
  19 C       7.8048446    7.0172607    6.0475811    7.3139023    5.8044503  
  20 C       9.0633103    8.2024927    6.7527387    8.3275942    7.1743198  
  21 C       8.4200169    7.4263967    6.6599114    8.0340881    6.7238297  
  22 C       6.6328055    5.7428326    5.5626626    6.5455964    5.0268306  
  23 C       7.7942662    6.4593929    7.2134534    8.1767175    6.9064840  
  24 C       6.1982893    5.0333061    5.1002331    6.2294131    5.2137136  
  25 C       5.5282293    4.5766483    4.4738145    5.4799399    4.1969645  
  26 O       7.3099690    6.1496256    6.7916226    7.6414836    6.2019582  
  27 H       9.3459044    8.2759725    7.7326324    9.0689609    7.7063560  
  28 H       6.4535139    5.7482953    5.5701275    6.3666929    4.7211753  
  29 H       4.0653352    3.6961718    3.3361905    3.8823828    2.3527985 *
  30 H       8.6227631    7.8642613    6.9382982    8.1451432    6.5443287  
  31 H       7.5992940    7.0312702    5.3867787    6.7638651    5.2698327  
  32 H       2.4759772 *  2.4966575 *  2.5012160 *  2.4681868 *  3.0715527  
  33 H       9.5802199    8.1946377    8.5141558    9.7422150    8.6749227  
  34 H       8.4875128    7.0139114    7.7560941    8.8575198    8.0297634  
  35 H      10.7264259    9.6304780    8.7385363   10.2650199    9.1656097  
  36 H      10.4834205    9.5483341    8.0934625    9.7318779    8.8382828  
  37 H      10.1649184    8.9033570    8.5971366   10.0043876    9.2372820  
  38 H       8.6735523    7.5613150    6.8951173    8.3351945    7.6556801  
  39 H      10.8631502   10.0364927    8.5159489   10.0697984    8.7274856  
  40 H      10.8030931   10.1383945    7.9988578    9.6860155    8.5349220  
  41 H       9.8503831    9.2735234    7.1823124    8.7618746    7.4074427  
  42 H       7.7849088    7.3088676    4.8968817    6.5753179    5.4905073  
  43 H       9.0085335    8.4345960    6.0635768    7.7997820    6.9628718  
  44 H       7.5375799    6.7962909    5.0695548    6.6848025    5.8785862  
  45 H       1.7726809 *  1.7716823 *  3.8264563    3.1544850    2.6465817 *
  46 H       0.0000000    1.7737718 *  3.7860046    2.5667813 *  3.1465231  
  47 H       1.7737718 *  0.0000000    4.3514779    3.7811304    3.8298795  
  48 H       3.7860046    4.3514779    0.0000000    1.7737648 *  1.7715688 *
  49 H       2.5667813 *  3.7811304    1.7737648 *  0.0000000    1.7672353 *
  50 H       3.1465231    3.8298795    1.7715688 *  1.7672353 *  0.0000000  

  * ... LESS THAN  3.000


     ATOMIC BASIS SET
     ----------------
 THE CONTRACTED PRIMITIVE FUNCTIONS HAVE BEEN UNNORMALIZED
 THE CONTRACTED BASIS FUNCTIONS ARE NOW NORMALIZED TO UNITY

  SHELL TYPE  PRIMITIVE        EXPONENT          CONTRACTION COEFFICIENT(S)

 C         

      1   S       1           172.2560000    0.061766907377
      1   S       2            25.9109000    0.358794042852
      1   S       3             5.5333500    0.700713083689

      2   L       4             3.6649800   -0.395895162119    0.236459946619
      2   L       5             0.7705450    1.215834355681    0.860618805716

      3   L       6             0.1958570    1.000000000000    1.000000000000

 C         

      4   S       7           172.2560000    0.061766907377
      4   S       8            25.9109000    0.358794042852
      4   S       9             5.5333500    0.700713083689

      5   L      10             3.6649800   -0.395895162119    0.236459946619
      5   L      11             0.7705450    1.215834355681    0.860618805716

      6   L      12             0.1958570    1.000000000000    1.000000000000

 C         

      7   S      13           172.2560000    0.061766907377
      7   S      14            25.9109000    0.358794042852
      7   S      15             5.5333500    0.700713083689

      8   L      16             3.6649800   -0.395895162119    0.236459946619
      8   L      17             0.7705450    1.215834355681    0.860618805716

      9   L      18             0.1958570    1.000000000000    1.000000000000

 C         

     10   S      19           172.2560000    0.061766907377
     10   S      20            25.9109000    0.358794042852
     10   S      21             5.5333500    0.700713083689

     11   L      22             3.6649800   -0.395895162119    0.236459946619
     11   L      23             0.7705450    1.215834355681    0.860618805716

     12   L      24             0.1958570    1.000000000000    1.000000000000

 C         

     13   S      25           172.2560000    0.061766907377
     13   S      26            25.9109000    0.358794042852
     13   S      27             5.5333500    0.700713083689

     14   L      28             3.6649800   -0.395895162119    0.236459946619
     14   L      29             0.7705450    1.215834355681    0.860618805716

     15   L      30             0.1958570    1.000000000000    1.000000000000

 C         

     16   S      31           172.2560000    0.061766907377
     16   S      32            25.9109000    0.358794042852
     16   S      33             5.5333500    0.700713083689

     17   L      34             3.6649800   -0.395895162119    0.236459946619
     17   L      35             0.7705450    1.215834355681    0.860618805716

     18   L      36             0.1958570    1.000000000000    1.000000000000

 H         

     19   S      37             5.4471780    0.156284978695
     19   S      38             0.8245472    0.904690876670

     20   S      39             0.1831916    1.000000000000

 H         

     21   S      40             5.4471780    0.156284978695
     21   S      41             0.8245472    0.904690876670

     22   S      42             0.1831916    1.000000000000

 C         

     23   S      43           172.2560000    0.061766907377
     23   S      44            25.9109000    0.358794042852
     23   S      45             5.5333500    0.700713083689

     24   L      46             3.6649800   -0.395895162119    0.236459946619
     24   L      47             0.7705450    1.215834355681    0.860618805716

     25   L      48             0.1958570    1.000000000000    1.000000000000

 C         

     26   S      49           172.2560000    0.061766907377
     26   S      50            25.9109000    0.358794042852
     26   S      51             5.5333500    0.700713083689

     27   L      52             3.6649800   -0.395895162119    0.236459946619
     27   L      53             0.7705450    1.215834355681    0.860618805716

     28   L      54             0.1958570    1.000000000000    1.000000000000

 C         

     29   S      55           172.2560000    0.061766907377
     29   S      56            25.9109000    0.358794042852
     29   S      57             5.5333500    0.700713083689

     30   L      58             3.6649800   -0.395895162119    0.236459946619
     30   L      59             0.7705450    1.215834355681    0.860618805716

     31   L      60             0.1958570    1.000000000000    1.000000000000

 O         

     32   S      61           322.0370000    0.059239393389
     32   S      62            48.4308000    0.351499960776
     32   S      63            10.4206000    0.707657921031

     33   L      64             7.4029400   -0.404453583190    0.244586106967
     33   L      65             1.5762000    1.221561761397    0.853955373466

     34   L      66             0.3736840    1.000000000000    1.000000000000

 C         

     35   S      67           172.2560000    0.061766907377
     35   S      68            25.9109000    0.358794042852
     35   S      69             5.5333500    0.700713083689

     36   L      70             3.6649800   -0.395895162119    0.236459946619
     36   L      71             0.7705450    1.215834355681    0.860618805716

     37   L      72             0.1958570    1.000000000000    1.000000000000

 C         

     38   S      73           172.2560000    0.061766907377
     38   S      74            25.9109000    0.358794042852
     38   S      75             5.5333500    0.700713083689

     39   L      76             3.6649800   -0.395895162119    0.236459946619
     39   L      77             0.7705450    1.215834355681    0.860618805716

     40   L      78             0.1958570    1.000000000000    1.000000000000

 C         

     41   S      79           172.2560000    0.061766907377
     41   S      80            25.9109000    0.358794042852
     41   S      81             5.5333500    0.700713083689

     42   L      82             3.6649800   -0.395895162119    0.236459946619
     42   L      83             0.7705450    1.215834355681    0.860618805716

     43   L      84             0.1958570    1.000000000000    1.000000000000

 O         

     44   S      85           322.0370000    0.059239393389
     44   S      86            48.4308000    0.351499960776
     44   S      87            10.4206000    0.707657921031

     45   L      88             7.4029400   -0.404453583190    0.244586106967
     45   L      89             1.5762000    1.221561761397    0.853955373466

     46   L      90             0.3736840    1.000000000000    1.000000000000

 O         

     47   S      91           322.0370000    0.059239393389
     47   S      92            48.4308000    0.351499960776
     47   S      93            10.4206000    0.707657921031

     48   L      94             7.4029400   -0.404453583190    0.244586106967
     48   L      95             1.5762000    1.221561761397    0.853955373466

     49   L      96             0.3736840    1.000000000000    1.000000000000

 C         

     50   S      97           172.2560000    0.061766907377
     50   S      98            25.9109000    0.358794042852
     50   S      99             5.5333500    0.700713083689

     51   L     100             3.6649800   -0.395895162119    0.236459946619
     51   L     101             0.7705450    1.215834355681    0.860618805716

     52   L     102             0.1958570    1.000000000000    1.000000000000

 C         

     53   S     103           172.2560000    0.061766907377
     53   S     104            25.9109000    0.358794042852
     53   S     105             5.5333500    0.700713083689

     54   L     106             3.6649800   -0.395895162119    0.236459946619
     54   L     107             0.7705450    1.215834355681    0.860618805716

     55   L     108             0.1958570    1.000000000000    1.000000000000

 C         

     56   S     109           172.2560000    0.061766907377
     56   S     110            25.9109000    0.358794042852
     56   S     111             5.5333500    0.700713083689

     57   L     112             3.6649800   -0.395895162119    0.236459946619
     57   L     113             0.7705450    1.215834355681    0.860618805716

     58   L     114             0.1958570    1.000000000000    1.000000000000

 C         

     59   S     115           172.2560000    0.061766907377
     59   S     116            25.9109000    0.358794042852
     59   S     117             5.5333500    0.700713083689

     60   L     118             3.6649800   -0.395895162119    0.236459946619
     60   L     119             0.7705450    1.215834355681    0.860618805716

     61   L     120             0.1958570    1.000000000000    1.000000000000

 C         

     62   S     121           172.2560000    0.061766907377
     62   S     122            25.9109000    0.358794042852
     62   S     123             5.5333500    0.700713083689

     63   L     124             3.6649800   -0.395895162119    0.236459946619
     63   L     125             0.7705450    1.215834355681    0.860618805716

     64   L     126             0.1958570    1.000000000000    1.000000000000

 C         

     65   S     127           172.2560000    0.061766907377
     65   S     128            25.9109000    0.358794042852
     65   S     129             5.5333500    0.700713083689

     66   L     130             3.6649800   -0.395895162119    0.236459946619
     66   L     131             0.7705450    1.215834355681    0.860618805716

     67   L     132             0.1958570    1.000000000000    1.000000000000

 C         

     68   S     133           172.2560000    0.061766907377
     68   S     134            25.9109000    0.358794042852
     68   S     135             5.5333500    0.700713083689

     69   L     136             3.6649800   -0.395895162119    0.236459946619
     69   L     137             0.7705450    1.215834355681    0.860618805716

     70   L     138             0.1958570    1.000000000000    1.000000000000

 C         

     71   S     139           172.2560000    0.061766907377
     71   S     140            25.9109000    0.358794042852
     71   S     141             5.5333500    0.700713083689

     72   L     142             3.6649800   -0.395895162119    0.236459946619
     72   L     143             0.7705450    1.215834355681    0.860618805716

     73   L     144             0.1958570    1.000000000000    1.000000000000

 O         

     74   S     145           322.0370000    0.059239393389
     74   S     146            48.4308000    0.351499960776
     74   S     147            10.4206000    0.707657921031

     75   L     148             7.4029400   -0.404453583190    0.244586106967
     75   L     149             1.5762000    1.221561761397    0.853955373466

     76   L     150             0.3736840    1.000000000000    1.000000000000

 H         

     77   S     151             5.4471780    0.156284978695
     77   S     152             0.8245472    0.904690876670

     78   S     153             0.1831916    1.000000000000

 H         

     79   S     154             5.4471780    0.156284978695
     79   S     155             0.8245472    0.904690876670

     80   S     156             0.1831916    1.000000000000

 H         

     81   S     157             5.4471780    0.156284978695
     81   S     158             0.8245472    0.904690876670

     82   S     159             0.1831916    1.000000000000

 H         

     83   S     160             5.4471780    0.156284978695
     83   S     161             0.8245472    0.904690876670

     84   S     162             0.1831916    1.000000000000

 H         

     85   S     163             5.4471780    0.156284978695
     85   S     164             0.8245472    0.904690876670

     86   S     165             0.1831916    1.000000000000

 H         

     87   S     166             5.4471780    0.156284978695
     87   S     167             0.8245472    0.904690876670

     88   S     168             0.1831916    1.000000000000

 H         

     89   S     169             5.4471780    0.156284978695
     89   S     170             0.8245472    0.904690876670

     90   S     171             0.1831916    1.000000000000

 H         

     91   S     172             5.4471780    0.156284978695
     91   S     173             0.8245472    0.904690876670

     92   S     174             0.1831916    1.000000000000

 H         

     93   S     175             5.4471780    0.156284978695
     93   S     176             0.8245472    0.904690876670

     94   S     177             0.1831916    1.000000000000

 H         

     95   S     178             5.4471780    0.156284978695
     95   S     179             0.8245472    0.904690876670

     96   S     180             0.1831916    1.000000000000

 H         

     97   S     181             5.4471780    0.156284978695
     97   S     182             0.8245472    0.904690876670

     98   S     183             0.1831916    1.000000000000

 H         

     99   S     184             5.4471780    0.156284978695
     99   S     185             0.8245472    0.904690876670

    100   S     186             0.1831916    1.000000000000

 H         

    101   S     187             5.4471780    0.156284978695
    101   S     188             0.8245472    0.904690876670

    102   S     189             0.1831916    1.000000000000

 H         

    103   S     190             5.4471780    0.156284978695
    103   S     191             0.8245472    0.904690876670

    104   S     192             0.1831916    1.000000000000

 H         

    105   S     193             5.4471780    0.156284978695
    105   S     194             0.8245472    0.904690876670

    106   S     195             0.1831916    1.000000000000

 H         

    107   S     196             5.4471780    0.156284978695
    107   S     197             0.8245472    0.904690876670

    108   S     198             0.1831916    1.000000000000

 H         

    109   S     199             5.4471780    0.156284978695
    109   S     200             0.8245472    0.904690876670

    110   S     201             0.1831916    1.000000000000

 H         

    111   S     202             5.4471780    0.156284978695
    111   S     203             0.8245472    0.904690876670

    112   S     204             0.1831916    1.000000000000

 H         

    113   S     205             5.4471780    0.156284978695
    113   S     206             0.8245472    0.904690876670

    114   S     207             0.1831916    1.000000000000

 H         

    115   S     208             5.4471780    0.156284978695
    115   S     209             0.8245472    0.904690876670

    116   S     210             0.1831916    1.000000000000

 H         

    117   S     211             5.4471780    0.156284978695
    117   S     212             0.8245472    0.904690876670

    118   S     213             0.1831916    1.000000000000

 H         

    119   S     214             5.4471780    0.156284978695
    119   S     215             0.8245472    0.904690876670

    120   S     216             0.1831916    1.000000000000

 H         

    121   S     217             5.4471780    0.156284978695
    121   S     218             0.8245472    0.904690876670

    122   S     219             0.1831916    1.000000000000

 H         

    123   S     220             5.4471780    0.156284978695
    123   S     221             0.8245472    0.904690876670

    124   S     222             0.1831916    1.000000000000

 TOTAL NUMBER OF BASIS SET SHELLS             =  124
 NUMBER OF CARTESIAN GAUSSIAN BASIS FUNCTIONS =  268
 NUMBER OF ELECTRONS                          =  178
 CHARGE OF MOLECULE                           =    0
 SPIN MULTIPLICITY                            =    1
 NUMBER OF OCCUPIED ORBITALS (ALPHA)          =   89
 NUMBER OF OCCUPIED ORBITALS (BETA )          =   89
 TOTAL NUMBER OF ATOMS                        =   50
 THE NUCLEAR REPULSION ENERGY IS     2290.9839198012

 SELECTED MURRAY-HANDY-LAMING RADIAL GRID

 LEGACY BECKE'S FUZZY CELL METHOD

 SELECTED ORIGINAL BECKE'S PARTITION FUNCTION

     LEBEDEV GRID-BASED DFT OPTIONS
     ------------------------------
     DFTTYP=B3LYP   
     NRAD  =      96     NLEB  =     302
     NRAD0 =      24     NLEB0 =     110
     SWOFF =    5.00E-03 (PURE SCF -> DFT)
     SWITCH=    3.00E-04 (COARSE -> TIGHT GRID)
     THRESH=    0.00E+00 GTHRE=    1.00E+00

 GRIMME'S EMPIRICAL DISPERSION CORRECTION= F

     $CONTRL OPTIONS
     ---------------
 SCFTYP=RHF          RUNTYP=ENERGY       EXETYP=RUN     
 MPLEVL=       0     CITYP =NONE         CCTYP =NONE         VBTYP =NONE    
 DFTTYP=B3LYP        TDDFT =NONE    
 MULT  =       1     ICHARG=       0     NZVAR =       0     COORD =UNIQUE  
 PP    =NONE         RELWFN=NONE         LOCAL =NONE         NUMGRD=       F
 ISPHER=      -1     NOSYM =       0     MAXIT =      60     UNITS =ANGS    
 PLTORB=       F     MOLPLT=       F     AIMPAC=       F     FRIEND=        
 NPRINT=       7     IREST =       0     GEOM  =INPUT   
 NORMF =       0     NORMP =       0     ITOL  =      20     ICUT  =       9
 INTTYP=BEST         GRDTYP=BEST         QMTTOL= 1.0E-06

     $SYSTEM OPTIONS
     ---------------
  REPLICATED MEMORY=    30000000 WORDS (ON EVERY NODE).
 DISTRIBUTED MEMDDI=        1000 MILLION WORDS IN AGGREGATE,
 MEMDDI DISTRIBUTED OVER   6 PROCESSORS IS   166666666 WORDS/PROCESSOR.
 TOTAL MEMORY REQUESTED ON EACH PROCESSOR=   196666666 WORDS.
 TIMLIM=      525600.00 MINUTES, OR     365.0 DAYS.
 PARALL= T  BALTYP=  DLB     KDIAG=    0  COREFL= F
 MXSEQ2=     300 MXSEQ3=     150  mem10=         0

     INPUT FOR POTENTIAL-DERIVED CHARGES 
     -----------------------------------
     VDWSCL=    1.40   RMAX=    3.00   DELR=    0.80
     VDWINC=    0.20 PTDENS=    0.28
     LAYER =       4  NFREQ=      30 MAXPDC=   10000
     CONSTR=CHARGE    UNITS=ANGS      PTSEL=GEODESIC
     CENTER=  0.0000  0.0000  0.0000
     DPOLE =  0.0000  0.0000  0.0000
     QPOLE =  0.0000  0.0000  0.0000  0.0000  0.0000  0.0000


          ----------------
          PROPERTIES INPUT
          ----------------

     MOMENTS            FIELD           POTENTIAL          DENSITY
 IEMOM =       1   IEFLD =       0   IEPOT =       1   IEDEN =       0
 WHERE =COMASS     WHERE =NUCLEI     WHERE =PDC        WHERE =NUCLEI  
 OUTPUT=BOTH       OUTPUT=BOTH       OUTPUT=BOTH       OUTPUT=BOTH    
 IEMINT=       0   IEFINT=       0                     IEDINT=       0
                                                       MORB  =       0
          EXTRAPOLATION IN EFFECT
          DIIS IN EFFECT
 ORBITAL PRINTING OPTION: NPREO=     1   268     2     1

     -------------------------------
     INTEGRAL TRANSFORMATION OPTIONS
     -------------------------------
     NWORD  =            0
     CUTOFF = 1.0E-09     MPTRAN =       0
     DIRTRF =       T     AOINTS =DUP     

          ----------------------
          INTEGRAL INPUT OPTIONS
          ----------------------
 NOPK  =       1 NORDER=       0 SCHWRZ=       T

     ------------------------------------------
     THE POINT GROUP IS C1 , NAXIS= 0, ORDER= 1
     ------------------------------------------

     DIMENSIONS OF THE SYMMETRY SUBSPACES ARE
 A   =  268

 ..... DONE SETTING UP THE RUN .....
 CPU     0: STEP CPU TIME=     0.02 TOTAL CPU TIME=          0.0 (      0.0 MIN)
 TOTAL WALL CLOCK TIME=          0.0 SECONDS, CPU UTILIZATION IS    50.00%

          ********************
          1 ELECTRON INTEGRALS
          ********************
 ...... END OF ONE-ELECTRON INTEGRALS ......
 CPU     0: STEP CPU TIME=     0.03 TOTAL CPU TIME=          0.0 (      0.0 MIN)
 TOTAL WALL CLOCK TIME=          0.1 SECONDS, CPU UTILIZATION IS    71.43%

          -------------
          GUESS OPTIONS
          -------------
          GUESS =HUCKEL            NORB  =       0          NORDER=       0
          MIX   =       F          PRTMO =       F          PUNMO =       F
          TOLZ  = 1.0E-08          TOLE  = 1.0E-05
          SYMDEN=       F          PURIFY=       F

 INITIAL GUESS ORBITALS GENERATED BY HUCKEL   ROUTINE.
 HUCKEL GUESS REQUIRES    642998 WORDS.

 SYMMETRIES FOR INITIAL GUESS ORBITALS FOLLOW.   BOTH SET(S).
    89 ORBITALS ARE OCCUPIED (   24 CORE ORBITALS).
    25=A       26=A       27=A       28=A       29=A       30=A       31=A   
    32=A       33=A       34=A       35=A       36=A       37=A       38=A   
    39=A       40=A       41=A       42=A       43=A       44=A       45=A   
    46=A       47=A       48=A       49=A       50=A       51=A       52=A   
    53=A       54=A       55=A       56=A       57=A       58=A       59=A   
    60=A       61=A       62=A       63=A       64=A       65=A       66=A   
    67=A       68=A       69=A       70=A       71=A       72=A       73=A   
    74=A       75=A       76=A       77=A       78=A       79=A       80=A   
    81=A       82=A       83=A       84=A       85=A       86=A       87=A   
    88=A       89=A       90=A       91=A       92=A       93=A       94=A   
    95=A       96=A       97=A       98=A       99=A   
 ...... END OF INITIAL ORBITAL SELECTION ......
 CPU     0: STEP CPU TIME=     0.13 TOTAL CPU TIME=          0.2 (      0.0 MIN)
 TOTAL WALL CLOCK TIME=          0.3 SECONDS, CPU UTILIZATION IS    66.67%

                    ----------------------
                    AO INTEGRAL TECHNOLOGY
                    ----------------------
     S,P,L SHELL ROTATED AXIS INTEGRALS, REPROGRAMMED BY
        KAZUYA ISHIMURA (IMS) AND JOSE SIERRA (SYNSTAR).
     S,P,D,L SHELL ROTATED AXIS INTEGRALS PROGRAMMED BY
        KAZUYA ISHIMURA (INSTITUTE FOR MOLECULAR SCIENCE).
     S,P,D,F,G SHELL TO TOTAL QUARTET ANGULAR MOMENTUM SUM 5,
        ERIC PROGRAM BY GRAHAM FLETCHER (ELORET AND NASA ADVANCED
        SUPERCOMPUTING DIVISION, AMES RESEARCH CENTER).
     S,P,D,F,G,L SHELL GENERAL RYS QUADRATURE PROGRAMMED BY
        MICHEL DUPUIS (PACIFIC NORTHWEST NATIONAL LABORATORY).

          --------------------
          2 ELECTRON INTEGRALS
          --------------------

 DIRECT SCF METHOD SKIPS INTEGRAL STORAGE ON DISK.
 DIRECT TRANSFORMATION SKIPS AO INTEGRAL STORAGE ON DISK.
  ...... END OF TWO-ELECTRON INTEGRALS .....
 CPU     0: STEP CPU TIME=     0.01 TOTAL CPU TIME=          0.2 (      0.0 MIN)
 TOTAL WALL CLOCK TIME=          0.3 SECONDS, CPU UTILIZATION IS    65.52%

          --------------------------
             R-B3LYP SCF CALCULATION
          --------------------------

     NUCLEAR ENERGY =      2290.9839198012
     MAXIT =   60     NPUNCH=    2
     EXTRAP=T  DAMP=F  SHIFT=F  RSTRCT=F  DIIS=T  DEM=F  SOSCF=F
         DENSITY MATRIX CONVERGENCE THRESHOLD=  2.00E-05
     COARSE -> FINE DFT GRID SWITCH THRESHOLD=  3.00E-04 (SWITCH IN $DFT)
                   HF -> DFT SWITCH THRESHOLD=  5.00E-03 (SWOFF IN $DFT)
     MEMORY REQUIRED FOR RHF ITERS=   2176721 WORDS.

 DIRECT SCF CALCULATION, SCHWRZ=T   FDIFF=T,  DIRTHR=  0.00E+00 NITDIR=10
 SCHWARZ INEQUALITY OVERHEAD:     30377 INTEGRALS, T=        0.01

 DFT CODE IS SWITCHING FROM THE FINE GRID NRAD= 96,  NLEB=  302
                      TO THE COARSE GRID NRAD0= 24, NLEB0=  110

     EXCHANGE FUNCTIONAL   =B88&HFX   
     CORRELATION FUNCTIONAL=LYP88&VWN5
     DFT THRESHOLD         =.276E-08
     GRID CHANGE THRESHOLD =.300E-03
 FOR AN EULER-MACLAURIN QUADRATURE USING  96 RADIAL POINTS:
 SMALLEST GAUSSIAN PRIMITIVE EXPONENT=        0.1831915800 OF TYPE -S-
 ON ATOM NUMBER   7 HAS RADIAL NORMALIZATION=  1.000000
  LARGEST GAUSSIAN PRIMITIVE EXPONENT=      322.0370000000 OF TYPE -S-
 ON ATOM NUMBER  12 HAS RADIAL NORMALIZATION=  1.000000
 DFT IS SWITCHED OFF, PERFORMING PURE SCF UNTIL SWOFF THRESHOLD IS REACHED.

                                                                                   NONZERO     BLOCKS
 ITER EX DEM     TOTAL ENERGY        E CHANGE  DENSITY CHANGE    DIIS ERROR      INTEGRALS    SKIPPED
   1  0  0    -1063.5964546682 -1063.5964546682   1.247209206   0.535951900      212189714   22941555
          * * *   INITIATING DIIS PROCEDURE   * * *
   2  1  0    -1065.8262206899    -2.2297660217   0.200690945   0.140817665      211754774   23092650
   3  2  0    -1065.9452865810    -0.1190658911   0.235483842   0.109468657      208533219   23573119
   4  3  0    -1066.0344838288    -0.0891972478   0.038531178   0.012901875      203552365   24027956
   5  4  0    -1066.0378184832    -0.0033346543   0.010081618   0.002854269      194153253   24511946
   6  5  0    -1066.0381491552    -0.0003306720   0.002408112   0.001060658      182098997   25025541
 CONVERGED TO SWOFF, SO DFT CALCULATION IS NOW SWITCHED ON.
          * * *   INITIATING DIIS PROCEDURE   * * *
   7  6  0    -1072.0494148436    -6.0112656884   0.176700758   0.078931544      212590002   22824099
   8  7  0    -1072.1261181307    -0.0767032872   0.186011451   0.032253782      209178497   23531762
   9  8  0    -1072.1211556370     0.0049624938   0.126700456   0.044134389      205479030   23837175
  10  9  0    -1072.1489449673    -0.0277893303   0.022974248   0.015661779      201637410   24130882
  11 10  0    -1072.1508841869    -0.0019392197   0.003628437   0.005516724      189069799   24767600
  12 11  0    -1072.1510638154    -0.0001796285   0.000931009   0.001108004      174751324   25355098
  13 12  0    -1072.1510710214    -0.0000072060   0.000547817   0.000183443      158229691   25881243
  14 13  0    -1072.1510720136    -0.0000009922   0.000183871   0.000058092      148390851   26263409
 DFT CODE IS SWITCHING BACK TO THE FINE GRID
          * * *   INITIATING DIIS PROCEDURE   * * *
  15 14  0    -1072.1588764147    -0.0078044011   0.005690533   0.002213609      212805903   22761292
  16 15  0    -1072.1590469772    -0.0001705625   0.002916880   0.000817055      186432665   24836306
  17 16  0    -1072.1590401400     0.0000068371   0.001743979   0.001237209      168487186   25555680
  18 17  0    -1072.1590567084    -0.0000165684   0.000270440   0.000309421      159730429   25897353
  19 18  0    -1072.1590570646    -0.0000003562   0.000168724   0.000144939      138470044   26554669
[...]
   2775    8.23265    2.91135   -9.03312       -14.613110      14.619986       0.006876
   2776    6.52928    3.60379   -9.37601       -14.944959      14.953592       0.008632
   2777    5.61417    4.52966   -8.03295       -16.340578      16.351089       0.010511
   2778    4.69905    3.60379   -9.37601       -15.719633      15.730045       0.010413
   2779    2.99569    2.91135   -9.03312       -16.953659      16.965995       0.012335
   2780    4.13348    2.12310  -10.29112       -15.373970      15.383751       0.009781
   2781    2.65279    1.20798   -9.72555       -16.602490      16.613252       0.010762
   2782    2.65279   -0.62224   -9.72555       -16.782767      16.791324       0.008556
   2783    3.99586    0.29287  -10.65143       -15.315323      15.323673       0.008350
   2784    4.13348   -1.53736  -10.29112       -15.716957      15.723579       0.006622
   2785    1.40048    0.62039   -9.10977       -17.620641      17.631818       0.011177
   2786    1.40048   -0.84887   -9.69384       -16.782446      16.790488       0.008041
   2787    1.40048   -2.67910   -9.69384       -16.398202      16.403647       0.005445
   2788   -1.21801    0.85450   -7.87026       -18.954889      18.963447       0.008558
   2789   -0.08021    0.06625   -9.12826       -17.405929      17.414739       0.008811
   2790   -2.47601   -0.28330   -7.08200       -19.739220      19.741559       0.002339
   2791   -1.56090   -0.84887   -8.56269       -17.762135      17.767692       0.005557
   2792   -2.45752   -1.76398   -7.63615       -18.537256      18.539455       0.002199
   2793   -1.56090   -2.67910   -8.56269       -17.254798      17.258244       0.003446
   2794   -0.21783   -1.76398   -9.48857       -16.677459      16.683424       0.005965
   2795   -0.08021   -3.59421   -9.12826       -16.539837      16.543694       0.003857
   2796   -3.04158   -1.76398   -6.16689       -20.495317      20.492623      -0.002694
   2797   -2.47601   -3.24467   -7.08200       -18.585304      18.585464       0.000160
   2798    5.42466   -8.50645   -4.96792       -15.919842      15.929636       0.009794
   2799    6.35120   -7.60983   -5.88303       -15.876129      15.886904       0.010775
   2800    3.04029   -7.03283   -8.82591       -14.815417      14.821642       0.006225
   2801    4.52097   -6.47869   -8.84441       -14.965684      14.973135       0.007450
   2802    3.95540   -7.95938   -7.92929       -14.710754      14.718161       0.007407
   2803    5.65877   -7.26694   -7.58640       -15.129322      15.138521       0.009199
   2804    4.87051   -8.52495   -6.44861       -15.091468      15.100051       0.008582
   2805    4.65860   -4.64846   -9.20471       -15.817903      15.824601       0.006698
   2806    3.04029   -5.56358   -9.40998       -15.271070      15.276704       0.005633
   2807    1.55960   -6.47869   -8.84441       -15.264230      15.268884       0.004655
   2808    0.65592   -8.50645   -4.96792       -16.552987      16.556369       0.003382
   2809   -0.27063   -7.60983   -5.88303       -16.745122      16.747159       0.002037
   2810    2.12517   -7.95938   -7.92929       -14.906449      14.912080       0.005631
   2811    1.21006   -8.52495   -6.44861       -15.525980      15.530527       0.004547
   2812    0.42180   -7.26694   -7.58640       -15.722217      15.725688       0.003471
   2813    2.12517   -9.09052   -4.96792       -15.912288      15.917747       0.005459
   2814    3.04029   -8.88525   -6.58623       -15.005468      15.012158       0.006689
   2815    3.95540   -9.09052   -4.96792       -15.679237      15.686937       0.007701
   2816    1.21006   -8.52495   -3.48723       -17.503930      17.507716       0.003786
   2817    3.04029   -8.88525   -3.34961       -17.001797      17.008233       0.006436
   2818   -1.29400   -7.43403   -2.47792       -19.175827      19.175839       0.000011
   2819   -2.22054   -6.53742   -1.56281       -20.893730      20.891105      -0.002625
   2820   -2.22054   -6.53742   -3.39304       -19.481546      19.479335      -0.002211
   2821    0.17526   -8.01810   -2.47792       -18.658250      18.660608       0.002358
   2822   -0.73986   -7.45253   -0.99724       -20.081610      20.081919       0.000309
   2823   -5.64499    7.10127    1.02623       -18.413910      18.409667      -0.004244
   2824   -6.57153    7.99789    0.11112       -16.749694      16.750374       0.000680
   2825   -6.33742    6.75838    2.72960       -17.614962      17.606464      -0.008498
   2826   -7.12567    8.01639    1.59180       -16.111819      16.108767      -0.003053
   2827   -8.04079    7.45081    3.07249       -15.590617      15.585222      -0.005394
   2828   -7.12567    8.01639   -1.36957       -16.311163      16.315824       0.004662
   2829   -8.04079    7.45081   -2.85026       -15.979026      15.985392       0.006365
   2830   -8.04079    8.58196    0.11112       -15.183976      15.184667       0.000691
   2831   -9.87102    8.58196    0.11112       -14.075663      14.075801       0.000138
   2832  -11.34027    7.99789    0.11112       -13.609545      13.608828      -0.000718
   2833   -8.95590    8.37669    1.72943       -14.602009      14.599915      -0.002094
   2834  -10.78613    8.01639    1.59180       -13.793187      13.791155      -0.002032
   2835   -9.87102    7.45081    3.07249       -14.431511      14.427392      -0.004119
   2836  -10.78613    8.01639   -1.36957       -13.921621      13.922560       0.000939
   2837   -8.95590    8.37669   -1.50719       -14.762406      14.765188       0.002782
   2838   -9.87102    7.45081   -2.85026       -14.747051      14.750086       0.003035
   2839  -12.26682    7.10127   -0.80400       -13.621426      13.620596      -0.000830
   2840  -11.57438    6.75838   -2.50737       -14.178281      14.178739       0.000458
   2841  -14.03585    6.01685    0.28730       -12.842152      12.841054      -0.001098
   2842  -13.48171    6.03535   -1.19339       -13.297556      13.296848      -0.000708
   2843  -14.96240    5.12023   -0.62782       -12.475973      12.476199       0.000227
   2844  -14.26996    4.77734   -2.33119       -13.077679      13.078228       0.000548
   2845  -15.52797    3.63955   -1.54293       -12.428757      12.430182       0.001425
   2846  -14.61286    3.07398   -3.02362       -13.232100      13.234022       0.001922
   2847  -15.50948    2.15886   -2.09708       -12.711953      12.714102       0.002150
   2848  -14.26996    4.77734    2.90578       -12.741681      12.739384      -0.002297
   2849  -14.96240    5.12023    1.20241       -12.375592      12.374869      -0.000723
   2850  -14.61286    3.07398    3.59821       -12.747064      12.744705      -0.002359
   2851  -15.52797    3.63955    2.11752       -12.217358      12.216740      -0.000618
   2852  -15.50948    2.15886    2.67167       -12.397922      12.396893      -0.001029
   2853  -16.09354    2.15886    1.20241       -12.154727      12.155142       0.000415
   2854  -15.88828    3.77717    0.28730       -12.101592      12.102302       0.000710
   2855  -16.09354    2.15886   -0.62782       -12.261766      12.263305       0.001538
   2856  -14.03585   -1.69913    0.28730       -14.279135      14.277391      -0.001745
   2857  -14.96240   -0.80251    1.20241       -13.291670      13.290401      -0.001269
   2858  -15.52797    0.67817    2.11752       -12.627478      12.626563      -0.000915
   2859  -14.96240   -0.80251   -0.62782       -13.446941      13.447356       0.000415
   2860  -15.88828    0.54055    0.28730       -12.546800      12.547491       0.000691
   2861  -15.52797    0.67817   -1.54293       -12.890308      12.892224       0.001917
   2862  -14.61286    1.24375    3.59821       -13.029390      13.026688      -0.002702
   2863  -14.26996   -0.45962    2.90578       -13.611882      13.608513      -0.003369
   2864   -9.28475   -0.39640    6.51276       -16.033764      16.027174      -0.006590
   2865   -7.80407    0.15774    6.53125       -17.254061      17.246839      -0.007222
   2866   -6.32338    1.07286    5.96568       -19.042491      19.032730      -0.009761
   2867   -9.28475    1.07286    7.09682       -15.315314      15.310560      -0.004754
   2868   -7.66644    1.98797    6.89155       -16.490683      16.484377      -0.006306
   2869   -6.32338    2.90309    5.96568       -18.133147      18.123103      -0.010044
   2870   -9.28475    2.90309    7.09682       -14.853751      14.849210      -0.004540
   2871   -7.80407    3.81820    6.53125       -15.974646      15.967875      -0.006771
   2872   -9.28475    4.37234    6.51276       -14.744091      14.738957      -0.005133
   2873   -5.40827    3.46866    4.48499       -20.345568      20.329349      -0.016220
   2874   -6.66627    4.60645    5.27324       -17.482649      17.472274      -0.010375
   2875   -8.36964    5.29889    5.61614       -15.532324      15.525452      -0.006871
   2876  -10.19987    5.29889    5.61614       -14.323861      14.318848      -0.005012
   2877  -10.76544    3.81820    6.53125       -13.971634      13.967620      -0.004014
   2878  -11.90323    4.60645    5.27324       -13.674539      13.670330      -0.004208
   2879  -12.24613    2.90309    5.96568       -13.564849      13.561098      -0.003750
   2880  -12.24613    1.07286    5.96568       -13.886440      13.882250      -0.004190
   2881  -11.90323   -0.63051    5.27324       -14.699921      14.693790      -0.006131
   2882  -10.76544    0.15774    6.53125       -14.742827      14.737881      -0.004946
   2883  -10.19987   -1.32294    5.61614       -16.009729      16.000926      -0.008803
   2884  -10.90306    1.98797    6.89155       -14.124377      14.120592      -0.003786
   2885   -5.42713   -4.82852   -4.87493       -18.486015      18.481477      -0.004538
   2886   -5.98127   -4.84701   -3.39424       -19.676454      19.666621      -0.009833
   2887   -3.95351   -0.97053   -7.25930       -18.715787      18.715786      -0.000001
   2888   -4.50059   -3.93190   -5.79004       -18.778295      18.775428      -0.002867
   2889   -3.93502   -2.45121   -6.70516       -18.904989      18.903781      -0.001208
   2890   -7.81150   -3.35490   -8.73292       -14.427808      14.428864       0.001056
   2891   -6.33082   -2.80075   -8.75141       -15.271953      15.273483       0.001531
   2892   -4.85013   -1.88564   -8.18584       -16.830239      16.831538       0.001300
   2893   -6.89639   -4.28144   -7.83630       -15.218491      15.219214       0.000723
   2894   -5.19302   -3.58901   -7.49341       -16.715017      16.715526       0.000509
   2895   -5.98127   -4.84701   -6.35561       -16.679168      16.678071      -0.001097
   2896   -4.85013   -0.05541   -8.18584       -17.216684      17.218005       0.001321
   2897   -6.19319   -0.97053   -9.11172       -15.453358      15.454926       0.001568
   2898   -7.81150   -1.88564   -9.31699       -14.368128      14.369260       0.001131
   2899   -9.29219   -2.80075   -8.75141       -13.888472      13.888797       0.000325
   2900   -8.72662   -4.28144   -7.83630       -14.315031      14.315154       0.000123
   2901   -9.64173   -4.84701   -6.35561       -14.585188      14.583582      -0.001606
   2902  -10.42998   -3.58901   -7.49341       -13.925447      13.924626      -0.000821
   2903   -8.72662   -5.41259   -4.87493       -15.840262      15.836500      -0.003762
   2904   -7.81150   -5.20732   -6.49324       -15.332797      15.331779      -0.001018
   2905   -6.89639   -5.41259   -4.87493       -17.044109      17.040075      -0.004034
   2906   -7.81150   -5.20732   -3.25662       -17.951146      17.942090      -0.009056
   2907  -13.17125    4.24786   -4.14561       -13.829982      13.830523       0.000541
   2908  -12.61711    4.26636   -5.62629       -13.575994      13.576821       0.000826
   2909  -14.09779    3.35124   -5.06072       -12.900889      12.902533       0.001645
   2910  -13.40536    3.00835   -6.76409       -12.722843      12.724356       0.001513
   2911  -12.26756    2.22010   -8.02209       -12.961243      12.962210       0.000968
   2912  -14.66337    1.87056   -5.97583       -12.316916      12.319177       0.002261
   2913  -13.74825    1.30498   -7.45652       -12.346014      12.347773       0.001758
   2914  -14.64487    0.38987   -6.52998       -12.167149      12.169356       0.002207
   2915  -13.74825   -0.52525   -7.45652       -12.342624      12.344121       0.001496
   2916  -12.40519    0.38987   -8.38240       -12.775426      12.776229       0.000803
   2917  -12.26756   -1.44036   -8.02209       -12.957455      12.957714       0.000260
   2918  -15.22894    0.38987   -3.23049       -12.891687      12.894160       0.002473
   2919  -15.02367    2.00818   -4.14561       -12.705357      12.707794       0.002437
   2920  -15.22894    0.38987   -5.06072       -12.300368      12.302849       0.002482
   2921  -13.17125   -3.46812   -4.14561       -13.746720      13.745729      -0.000991
   2922  -14.09779   -2.57150   -3.23049       -13.514496      13.514639       0.000143
   2923  -14.66337   -1.09082   -2.31538       -13.555408      13.556743       0.001335
   2924  -14.09779   -2.57150   -5.06072       -12.859987      12.860659       0.000672
   2925  -15.02367   -1.22844   -4.14561       -12.668012      12.669809       0.001797
   2926  -14.66337   -1.09082   -5.97583       -12.303477      12.305334       0.001857
   2927  -12.61711   -3.48662   -5.62629       -13.540643      13.539686      -0.000957
   2928  -13.40536   -2.22861   -6.76409       -12.708969      12.709604       0.000635
   2929  -13.40536   -2.22861   -1.52712       -14.844237      14.843413      -0.000824
   2930   -4.23880    2.34111   -6.86013       -19.009686      19.013005       0.003319
   2931   -8.09680    4.72548   -8.33375       -14.333266      14.337569       0.004303
   2932   -6.61611    4.17134   -8.35225       -15.254384      15.259469       0.005085
   2933   -5.13542    3.25622   -7.78668       -16.944614      16.949808       0.005194
   2934   -8.09680    3.25622   -8.91782       -14.426248      14.428883       0.002636
   2935   -6.47849    2.34111   -8.71255       -15.647371      15.649991       0.002620
   2936   -6.26657    6.21759   -5.95645       -16.298799      16.308936       0.010137
   2937   -5.47831    4.95959   -7.09424       -16.582218      16.590749       0.008531
   2938   -7.18168    5.65202   -7.43713       -15.003479      15.010076       0.006597
   2939   -7.18168    6.78317   -4.47576       -16.389652      16.399350       0.009698
   2940   -9.01191    6.78317   -4.47576       -15.240529      15.245888       0.005359
   2941  -10.48117    6.19910   -4.47576       -14.714976      14.717480       0.002504
   2942   -9.92702    6.21759   -5.95645       -14.212330      14.216025       0.003696
   2943   -8.09680    6.57790   -6.09407       -14.925623      14.932222       0.006599
   2944   -9.01191    5.65202   -7.43713       -14.089329      14.093693       0.004364
   2945  -11.40771    5.30248   -5.39087       -14.135328      14.136613       0.001285
   2946  -10.71528    4.95959   -7.09424       -13.721538      13.723688       0.002150
   2947   -9.57748    4.17134   -8.35225       -13.819495      13.821979       0.002485

 NET CHARGES:
 -------------------------------------
 ATOM                CHARGE    E.S.D.
 -------------------------------------
 C                   0.0153    0.6675
 C                  -0.2312    0.2583
 C                  -0.5647    0.2360
 C                  -0.5018    0.3240
 C                  -0.5206    0.1524
 C                  -0.5091    0.1690
 H                   0.4455    0.0142
 H                   0.4390    0.0074
 C                   0.3568    0.2436
 C                   0.1826    0.1970
 C                  -0.1859    0.2669
 O                  -0.5344    0.0079
 C                  -0.3256    0.4309
 C                  -0.2517    0.3207
 C                   0.0260    0.3185
 O                  -0.5968    0.0331
 O                  -0.5381    0.0199
 C                   0.4724    0.1955
 C                  -0.5958    0.4094
 C                   0.4590    0.3302
 C                   0.3005    0.7268
 C                   0.4534    0.3643
 C                   0.8328    0.1253
 C                  -0.3793    0.5504
 C                  -0.0887    0.4050
 O                  -0.5319    0.0365
 H                  -0.0435    0.0508
 H                   0.0643    0.0189
 H                   0.1463    0.0143
 H                   0.1577    0.0195
 H                   0.1447    0.0285
 H                  -0.0039    0.0181
 H                   0.1063    0.0289
 H                   0.0894    0.0336
 H                   0.0561    0.0222
 H                   0.0682    0.0215
 H                   0.0482    0.0161
 H                   0.0065    0.0240
 H                   0.1233    0.0173
 H                   0.1376    0.0179
 H                   0.1378    0.0180
 H                   0.1198    0.0239
 H                   0.1168    0.0199
 H                   0.1398    0.0288
 H                   0.1321    0.0110
 H                   0.1215    0.0105
 H                   0.1320    0.0114
 H                   0.1230    0.0121
 H                   0.1203    0.0116
 H                   0.1279    0.0128
 -------------------------------------

 RMS DEVIATION IS            0.625 KCAL/MOLE
 RELATIVE RMS DEVIATION IS   7.121 %

 MULTIPOLE MOMENTS:
 ---------------------------------------------------------
 STATUS  ACTUAL VALUE       QUANTITY        FITTED VALUE 
 ---------------------------------------------------------
 FIXED       0.0000       TOTAL CHARGE         0.0000
             3.7100 D    DIPOLE MOMENT         3.7333 D
 FREE        0.8920 D          DX              0.8602 D
 FREE       -2.4001 D          DY             -2.4288 D
 FREE       -2.6848 D          DZ             -2.7016 D
 FREE        0.0000 BU         QXX             2.9514 BU
 FREE        0.0000 BU         QYY            -2.1882 BU
 FREE        0.0000 BU         QZZ            -0.7632 BU
 FREE        0.0000 BU         QXY           -14.2900 BU
 FREE        0.0000 BU         QXZ            -6.6518 BU
 FREE        0.0000 BU         QYZ           -21.3408 BU
 ---------------------------------------------------------
 ...... END OF PROPERTY EVALUATION ......
 CPU     0: STEP CPU TIME=     5.65 TOTAL CPU TIME=        298.0 (      5.0 MIN)
 TOTAL WALL CLOCK TIME=        440.5 SECONDS, CPU UTILIZATION IS    67.65%
              2177525  WORDS OF DYNAMIC MEMORY USED
 EXECUTION OF GAMESS TERMINATED NORMALLY Mon May 25 18:22:40 2020
 DDI: 263640 bytes (0.3 MB / 0 MWords) used by master data server.
Note: The following floating-point exceptions are signalling:Note: The following floating-point exceptions are signalling: IEEE_UNDERFLOW_FLAGNote: The following floating-point exceptions are signalling: IEEE_UNDERFLOW_FLAG IEEE_UNDERFLOW_FLAG IEEE_DENORMALNote: The following floating-point exceptions are signalling: IEEE_UNDERFLOW_FLAG
 ----------------------------------------
 CPU timing information for all processes
 ========================================
 0: 297.64 + 0.962 = 298.26
 1: 291.284 + 0.594 = 291.879
 2: 288.305 + 0.506 = 288.812
 3: 292.128 + 0.545 = 292.673
 4: 288.20 + 0.498 = 288.519
 5: 287.267 + 0.430 = 287.698
 ----------------------------------------
 IEEE_DENORMAL
 IEEE_DENORMAL

 IEEE_DENORMALNote: The following floating-point exceptions are signalling: IEEE_UNDERFLOW_FLAGNote: The following floating-point exceptions are signalling: IEEE_UNDERFLOW_FLAG
 IEEE_DENORMAL
 IEEE_DENORMAL
 ddikick.x: exited gracefully.
unset echo
----- accounting info -----
Files used on the master node pietdev were:
-rwxr-xr-x 1 piet piet     2120 mei 25 18:15 /home/piet/scr/carnesol_charge_geodisk.F05*
-rw-r--r-- 1 piet piet 50790400 mei 25 18:22 /home/piet/scr/carnesol_charge_geodisk.F10
ls: No match.
ls: No match.
ls: No match.
ma 25 mei 2020 18:22:43 CEST
0.113u 0.017s 7:23.69 0.0%	0+0k 0+8io 0pf+0w
