----- GAMESS execution script 'rungms' -----
This job is running on host pietdev
under operating system Linux at ma 25 mei 2020 18:23:03 CEST
Available scratch disk space (Kbyte units) at beginning of the job is
Filesystem     1K-blocks     Used Available Use% Mounted on
/dev/sda2      244568380 31071304 201004020  14% /
GAMESS temporary binary files will be written to /home/piet/scr
GAMESS supplementary output files will be written to /home/piet/gamess/scr
Copying input file carnesol_fukui_acid.inp to your run's scratch directory...
cp carnesol_fukui_acid.inp /home/piet/scr/carnesol_fukui_acid.F05
unset echo
 
Assuming a single but multicore node.
 
/home/piet/gamess/ddikick.x /home/piet/gamess/gamess.03.x carnesol_fukui_acid -ddi 1 6 pietdev:cpus=6 -scr /home/piet/scr

 Distributed Data Interface kickoff program.
 Initiating 6 compute processes on 1 nodes to run the following command:
 /home/piet/gamess/gamess.03.x carnesol_fukui_acid 

          ******************************************************
          *         GAMESS VERSION = 30 SEP 2019 (R2)          *
          *             FROM IOWA STATE UNIVERSITY             *
          * M.W.SCHMIDT, K.K.BALDRIDGE, J.A.BOATZ, S.T.ELBERT, *
          *   M.S.GORDON, J.H.JENSEN, S.KOSEKI, N.MATSUNAGA,   *
          *          K.A.NGUYEN, S.J.SU, T.L.WINDUS,           *
          *       TOGETHER WITH M.DUPUIS, J.A.MONTGOMERY       *
          *         J.COMPUT.CHEM.  14, 1347-1363(1993)        *
          **************** 64 BIT LINUX VERSION ****************

  SINCE 1993, STUDENTS AND POSTDOCS WORKING AT IOWA STATE UNIVERSITY
  AND ALSO IN THEIR VARIOUS JOBS AFTER LEAVING ISU HAVE MADE IMPORTANT
  CONTRIBUTIONS TO THE CODE:
     IVANA ADAMOVIC, CHRISTINE AIKENS, YURI ALEXEEV, POOJA ARORA,
     ANDREY ASADCHEV, ROB BELL, PRADIPTA BANDYOPADHYAY, JONATHAN BENTZ,
     COLLEEN BERTONI, BRETT BODE, KURT BRORSEN, CALEB CARLIN, GALINA CHABAN,
     WEI CHEN, CHEOL HO CHOI, PAUL DAY, ALBERT DEFUSCO, NUWAN DESILVA,
     TIM DUDLEY, DMITRI FEDOROV, ALEX FINDLATER, GRAHAM FLETCHER, 
     MARK FREITAG, KURT GLAESEMANN, EMILIE B GUIDEZ, ANASTASIA GUNINA, 
     DAN KEMP, SAROM SOK LEANG, GRANT MERRILL,
     NORIYUKI MINEZAWA, JONATHAN MULLIN,
     TAKESHI NAGATA, SEAN NEDD, HEATHER NETZLOFF, BOSILJKA NJEGIC, RYAN OLSON,
     MIKE PAK, BUU PHAM, DAVID POOLE,
     SPENCER PRUITT, LUKE ROSKOP, TOSAPORN SATTASATHUCHANA,
     JIM SHOEMAKER, LYUDMILA SLIPCHENKO,
     TONY SMITH, JIE SONG, TETSUYA TAKETSUGU, SIMON WEBB,
     JORGE LUIS GALVEZ VALLEJO, PENG XU, SOOHAENG YOO,
     FEDERICO ZAHARIEV

  ADDITIONAL CODE HAS BEEN PROVIDED BY COLLABORATORS IN OTHER GROUPS:
     IOWA STATE UNIVERSITY:
          JOE IVANIC, AARON WEST, LAIMUTIS BYTAUTAS, KLAUS RUEDENBERG
     UNIVERSITY OF TOKYO: KIMIHIKO HIRAO, TAKAHITO NAKAJIMA,
          TAKAO TSUNEDA, MUNEAKI KAMIYA, SUSUMU YANAGISAWA,
          KIYOSHI YAGI, MAHITO CHIBA, SEIKEN TOKURA, NAOAKI KAWAKAMI
     UNIVERSITY OF AARHUS: FRANK JENSEN
     UNIVERSITY OF IOWA: VISVALDAS KAIRYS, HUI LI
     NATIONAL INST. OF STANDARDS AND TECHNOLOGY: WALT STEVENS, DAVID GARMER
     UNIVERSITY OF PISA: BENEDETTA MENNUCCI, JACOPO TOMASI
     UNIVERSITY OF MEMPHIS: HENRY KURTZ, PRAKASHAN KORAMBATH
     UNIVERSITY OF ALBERTA: TOBY ZENG, MARIUSZ KLOBUKOWSKI
     UNIVERSITY OF NEW ENGLAND: MARK SPACKMAN
     MIE UNIVERSITY: HIROAKI UMEDA
     NAT. INST. OF ADVANCED INDUSTRIAL SCIENCE AND TECHNOLOGY: KAZUO KITAURA
     MICHIGAN STATE UNIVERSITY:
          KAROL KOWALSKI, MARTA WLOCH, JEFFREY GOUR, JESSE LUTZ,
          WEI LI, JUN SHEN, J. EMILIANO DEUSTUA, PIOTR PIECUCH
     UNIVERSITY OF MINNESOTA:
          ANDREW SAND, PRACHI SHARMA, YINAN SHU
     UNIVERSITY OF SILESIA: MONIKA MUSIAL, STANISLAW KUCHARSKI
     FACULTES UNIVERSITAIRES NOTRE-DAME DE LA PAIX:
          OLIVIER QUINET, BENOIT CHAMPAGNE
     UNIVERSITY OF CALIFORNIA - SANTA BARBARA: BERNARD KIRTMAN
     INSTITUTE FOR MOLECULAR SCIENCE:
          KAZUYA ISHIMURA, MICHIO KATOUDA, AND SHIGERU NAGASE
     UNIVERSITY OF NOTRE DAME: ANNA POMOGAEVA, DAN CHIPMAN
     KYUSHU UNIVERSITY:
          HARUYUKI NAKANO,
          FENG LONG GU, JACEK KORCHOWIEC, MARCIN MAKOWSKI, AND YURIKO AOKI,
          HIROTOSHI MORI AND EISAKU MIYOSHI
     PENNSYLVANIA STATE UNIVERSITY:
          TZVETELIN IORDANOV, CHET SWALINA, JONATHAN SKONE,
          SHARON HAMMES-SCHIFFER
     WASEDA UNIVERSITY:
          MASATO KOBAYASHI, TOMOKO AKAMA, TSUGUKI TOUMA,
          TAKESHI YOSHIKAWA, YASUHIRO IKABATA, JUNJI SEINO,
          YUYA NAKAJIMA, HIROMI NAKAI
     NANJING UNIVERSITY: SHUHUA LI
     UNIVERSITY OF NEBRASKA:
          PEIFENG SU, DEJUN SI, NANDUN THELLAMUREGE, YALI WANG, HUI LI
     UNIVERSITY OF ZURICH: ROBERTO PEVERATI, KIM BALDRIDGE
     N. COPERNICUS UNIVERSITY AND JACKSON STATE UNIVERSITY:
          MARIA BARYSZ
     UNIVERSITY OF COPENHAGEN: Jimmy Kromann, CASPER STEINMANN
     TOKYO INSTITUTE OF TECHNOLOGY: HIROYA NAKATA
     NAGOYA UNIVERSITY: YOSHIO NISHIMOTO, STEPHAN IRLE
     MOSCOW STATE UNIVERSITY: VLADIMIR MIRONOV
     A.N.NESMEYANOV INSTITUTE OF ORGANOELEMENT COMPOUNDS OF RUSSIAN ACADEMY OF SCIENCES:
          IGOR S. GERASIMOV
     JOHANNES KEPLER UNIVERSITY LINZ:
          CHRISTIAN FRIEDL


 PARALLEL VERSION RUNNING ON        6 PROCESSORS IN        1 NODES.

 EXECUTION OF GAMESS BEGUN Mon May 25 18:23:03 2020

            ECHO OF THE FIRST FEW INPUT CARDS -
 INPUT CARD> $BASIS GBASIS=N21 NGAUSS=3 $END                                                
 INPUT CARD> $CONTRL SCFTYP=UHF MAXIT=60 MULT=2 ICHARG=-1 $END                              
 INPUT CARD> $SYSTEM MEMDDI=1000 MWORDS=30 $END                                             
 INPUT CARD> $SCF DIRSCF=.TRUE. $END                                                        
 INPUT CARD> $STATPT OPTTOL=0.0001 NSTEP=999 $END                                           
 INPUT CARD> $DATA                                                                          
 INPUT CARD>                                                                                
 INPUT CARD>C1                                                                              
 INPUT CARD>C 6.0000000 1.43293 0.23902 0.68409                                             
 INPUT CARD>C 6.0000000 -2.00419 1.11615 -0.58777                                           
 INPUT CARD>C 6.0000000 3.46490 -0.48538 -2.65575                                           
 INPUT CARD>C 6.0000000 1.28719 -1.56957 -2.07502                                           
 INPUT CARD>C 6.0000000 -5.08515 1.18650 0.33186                                            
 INPUT CARD>C 6.0000000 -4.63191 0.26801 -1.99625                                           
 INPUT CARD>H 1.0000000 0.26350 -1.92278 2.12304                                            
 INPUT CARD>H 1.0000000 -2.56633 -2.54199 1.59852                                           
 INPUT CARD>C 6.0000000 -0.93480 -0.96870 0.92167                                           
 INPUT CARD>C 6.0000000 -2.30864 -0.94226 0.59371                                           
 INPUT CARD>C 6.0000000 -2.86556 0.08596 -0.17507                                           
 INPUT CARD>O 8.0000000 2.04114 1.86848 2.42005                                             
 INPUT CARD>C 6.0000000 2.21375 -0.78532 1.52518                                            
 INPUT CARD>C 6.0000000 3.28306 -1.80246 -0.53100                                           
 INPUT CARD>C 6.0000000 2.53164 -2.08988 0.77521                                            
 INPUT CARD>O 8.0000000 -0.58517 -2.06551 1.68713                                           
 INPUT CARD>O 8.0000000 -3.11203 -1.94785 1.05977                                           
 INPUT CARD>C 6.0000000 -4.35604 0.10242 -0.48920                                           
 INPUT CARD>C 6.0000000 1.44787 1.55650 -1.51461                                            
 INPUT CARD>C 6.0000000 2.52189 -0.85139 -1.48934                                           
 INPUT CARD>C 6.0000000 2.18255 0.45578 -0.70350                                            
 INPUT CARD>C 6.0000000 0.34303 2.15152 -0.63044                                            
 INPUT CARD>C 6.0000000 1.51986 1.63150 1.35351                                             
 INPUT CARD>C 6.0000000 -0.07574 0.03094 0.46153                                            
 INPUT CARD>C 6.0000000 -0.65378 1.08802 -0.26880                                           
 INPUT CARD>O 8.0000000 0.97807 2.62428 0.60622                                             
 INPUT CARD>H 1.0000000 3.15917 0.86431 -0.40956                                            
 INPUT CARD>H 1.0000000 -0.11846 3.03815 -1.06655                                           
 INPUT CARD>H 1.0000000 -2.40212 1.95522 -1.15249                                           
 INPUT CARD>H 1.0000000 2.14188 2.34639 -1.81942                                            
 INPUT CARD>H 1.0000000 0.98432 1.15936 -2.42211                                            
 INPUT CARD>H 1.0000000 -4.75959 -0.86764 -0.18409                                          
 INPUT CARD>H 1.0000000 3.15748 -0.30782 1.81207                                            
 INPUT CARD>H 1.0000000 1.71806 -0.95786 2.49148                                            
 INPUT CARD>H 1.0000000 4.25710 -1.35315 -0.28795                                           
 INPUT CARD>H 1.0000000 3.49605 -2.74269 -1.05570                                           
 INPUT CARD>H 1.0000000 3.14673 -2.73031 1.41938                                            
 INPUT CARD>H 1.0000000 1.62046 -2.65795 0.55627                                            
 INPUT CARD>H 1.0000000 4.35969 0.03898 -2.29881                                            
 INPUT CARD>H 1.0000000 3.79436 -1.39198 -3.17676                                           
 INPUT CARD>H 1.0000000 2.97089 0.15498 -3.39448                                            
 INPUT CARD>H 1.0000000 0.74110 -0.93346 -2.77912                                           
   30000000 WORDS OF MEMORY AVAILABLE

     BASIS OPTIONS
     -------------
     GBASIS=N21          IGAUSS=       3      POLAR=NONE    
     NDFUNC=       0     NFFUNC=       0     DIFFSP=       F
     NPFUNC=       0      DIFFS=       F     BASNAM=        


     RUN TITLE
     ---------
                                                                                 

 THE POINT GROUP OF THE MOLECULE IS C1      
 THE ORDER OF THE PRINCIPAL AXIS IS     0

 ATOM      ATOMIC                      COORDINATES (BOHR)
           CHARGE         X                   Y                   Z
 C           6.0     2.7078450596        0.4516823056        1.2927426509
 C           6.0    -3.7873699273        2.1092176612       -1.1107242438
 C           6.0     6.5477115749       -0.9172351999       -5.0186397919
 C           6.0     2.4324363941       -2.9660572185       -3.9212192190
 C           6.0    -9.6095401065        2.2421598844        0.6271244663
 C           6.0    -8.7530406998        0.5064654620       -3.7723655030
 H           1.0     0.4979427978       -3.6335273347        4.0119638610
 H           1.0    -4.8496604941       -4.8036645635        3.0207647859
 C           6.0    -1.7665158533       -1.8305775643        1.7417037511
 C           6.0    -4.3626970043       -1.7806132092        1.1219492162
 C           6.0    -5.4151232014        0.1624408459       -0.3308343287
 O           8.0     3.8571953026        3.5309152135        4.5732313766
 C           6.0     4.1833809053       -1.4840396127        2.8821722820
 C           6.0     6.2040838013       -3.4061555038       -1.0034444995
 C           6.0     4.7841058996       -3.9493005472        1.4649344829
 O           8.0    -1.1058109562       -3.9032479249        3.1882134057
 O           8.0    -5.8808839656       -3.6809027652        2.0026749100
 C           6.0    -8.2317219916        0.1935457357       -0.9244539532
 C           6.0     2.7360775658        2.9413584999       -2.8621978783
 C           6.0     4.7656810712       -1.6088938087       -2.8144445026
 C           6.0     4.1244214545        0.8612993107       -1.3294222324
 C           6.0     0.6482327056        4.0657832571       -1.1913588517
 C           6.0     2.8721189397        3.0830879490        2.5577630216
 C           6.0    -0.1431278463        0.0584681221        0.8721652351
 C           6.0    -1.2354650563        2.0560596692       -0.5079583455
 O           8.0     1.8482842968        4.9591701151        1.1455896883
 H           1.0     5.9699656486        1.6333090684       -0.7739561755
 H           1.0    -0.2238569405        5.7412710096       -2.0154872522
 H           1.0    -4.5393485896        3.6948300457       -2.1778903036
 H           1.0     4.0475662986        4.4340341603       -3.4382052566
 H           1.0     1.8600950842        2.1908727211       -4.5771242121
 H           1.0    -8.9943209139       -1.6396018560       -0.3478796571
 H           1.0     5.9667720117       -0.5816954535        3.4243157706
 H           1.0     3.2466626305       -1.8100929346        4.7082145039
 H           1.0     8.0447525023       -2.5570827203       -0.5441465982
 H           1.0     6.6065765394       -5.1829325693       -1.9949837252
 H           1.0     5.9464574573       -5.1595377615        2.6822392725
 H           1.0     3.0622253741       -5.0227971891        1.0511978752
 H           1.0     8.2386194914        0.0736615190       -4.3441209978
 H           1.0     7.1703006988       -2.6304607804       -6.0032059288
 H           1.0     5.6141680397        0.2928697336       -6.4146370708
 H           1.0     1.4004759295       -1.7639836205       -5.2517752870
 H           1.0     3.0402856553       -4.6484613682       -4.9679195464
 H           1.0     1.0903718949       -3.5760418701       -2.4779220987
 H           1.0    -8.9559027846        4.1398983103        0.1111158881
 H           1.0   -11.6514835225        2.1588607629        0.2872950419
 H           1.0    -9.2847529010        1.9879728418        2.6547626566
 H           1.0    -7.8115036237       -0.9705254728       -4.8749261305
 H           1.0   -10.7868771913        0.3898693685       -4.1456052828
 H           1.0    -8.0967955560        2.3411059371       -4.4757593101

          INTERNUCLEAR DISTANCES (ANGS.)
          ------------------------------

                1 C          2 C          3 C          4 C          5 C     

   1 C       0.0000000    3.7683921    3.9759513    3.3022607    6.5959951  
   2 C       3.7683921    0.0000000    6.0623745    4.5009096    3.2160508  
   3 C       3.9759513    6.0623745    0.0000000    2.5010270 *  9.2100136  
   4 C       3.3022607    4.5009096    2.5010270 *  0.0000000    7.3481773  
   5 C       6.5959951    3.2160508    9.2100136    7.3481773    0.0000000  
   6 C       6.6307878    3.0996887    8.1584845    6.1982780    2.5434517 *
   7 H       2.8480735 *  4.6611162    5.9289050    4.3354822    6.4408078  
   8 H       4.9562364    4.2985874    7.6618662    5.4120341    4.6744539  
   9 C       2.6685534 *  2.7872215 *  5.6911240    3.7786817    4.7136152  
  10 C       3.9246576    2.3928302 *  6.6408956    4.5216845    3.5084459  
  11 C       4.3861828    1.4048384 *  6.8231171    4.8575634    2.5287835 *
  12 O       2.4573596 *  5.0968300    5.7733435    5.7091403    7.4571874  
  13 C       1.5383058 *  5.0863704    4.3744161    3.7993423    7.6541510  
  14 C       3.0111568    6.0395794    2.5064573 *  2.5341138 *  8.9277852  
  15 C       2.5766726 *  5.7192741    3.9008821    3.1532823    8.3034159  
  16 O       3.2233019    4.1607389    6.1449560    4.2314845    5.7150806  
  17 O       5.0576869    3.6509990    7.6941481    5.4150846    3.7745470  
  18 C       5.9082521    2.5629208 *  8.1367408    6.0956067    1.5430393 *
  19 C       2.5632515 *  3.6013412    3.0886703    3.1799672    6.7990221  
  20 C       2.6643246 *  5.0169156    1.5439377 *  1.5437900 *  8.0831196  
  21 C       1.5919551 *  4.2400795    2.5182303 *  2.6047609 *  7.3773563  
  22 C       2.5638891 *  2.5657852 *  4.5608327    4.1017996    5.5966439  
  23 C       1.5474755 *  4.0562399    4.9334093    4.6963606    6.6983543  
  24 C       1.5391281 *  2.4490061 *  4.7455403    3.2944341    5.1425987  
  25 C       2.4460497 *  1.3878546 *  5.0136457    3.7540085    4.4729778  
  26 O       2.4294910 *  3.5487946    5.1473058    4.9872819    6.2373970  
  27 H       2.1370453 *  5.1725689    2.6382766 *  3.4931129    8.2838591  
  28 H       3.6478322    2.7348294 *  5.2707959    4.9217829    5.4819858  
  29 H       4.5854091    1.0868742 *  6.5297965    5.1851918    3.1611510  
  30 H       3.3483101    4.4967042    3.2355449    4.0162880    7.6291096  
  31 H       3.2705894    3.5068308    2.9854706 *  2.7675369 *  6.6650997  
  32 H       6.3502549    3.4191533    8.5963633    6.3743133    2.1428217 *
  33 H       2.1320051 *  5.8676878    4.4819025    4.4943816    8.5067599  
  34 H       2.1864308 *  5.2572277    5.4560667    4.6273924    7.4529125  
  35 H       3.3846423    6.7372908    2.6433090 *  3.4728694    9.7011145  
  36 H       4.0216822    6.7351499    2.7670524 *  2.7007936 *  9.5394366  
  37 H       3.5063774    6.7346776    4.6634351    4.1250500    9.1808468  
  38 H       2.9058459 *  5.3563743    4.2940764    2.8669369 *  7.7327460  
  39 H       4.1837343    6.6773439    1.0968175 *  3.4753088    9.8712831  
  40 H       4.8106835    6.8276473    1.0963206 *  2.7443161 *  9.8896244  
  41 H       4.3597152    5.7924856    1.0953670 *  2.7477069 *  8.9358505  
  42 H       3.7211774    4.0668825    2.7631653 *  1.0948091 *  6.9366862  
  43 H       4.2767827    5.4779703    2.7100209 *  1.0967568 *  8.1775141  
  44 H       3.0425020    4.0295300    3.4824147    1.0917383 *  6.6512529  
  45 H       6.5035473    3.0088876    9.0464712    7.4169548    1.0966766 *
  46 H       7.6706191    4.2268380   10.1627662    8.2377309    1.0962984 *
  47 H       6.4385388    3.5266720    9.4364081    7.5781152    1.0949513 *
  48 H       6.4965966    3.3404326    7.5990029    5.5457677    3.5032510  
  49 H       7.6992467    4.1384152    9.2107048    7.2182346    2.7798710 *
  50 H       6.5580797    2.8959286 *  7.9442371    6.2464935    2.8169735 *

                6 C          7 H          8 H          9 C         10 C     

   1 C       6.6307878    2.8480735 *  4.9562364    2.6685534 *  3.9246576  
   2 C       3.0996887    4.6611162    4.2985874    2.7872215 *  2.3928302 *
   3 C       8.1584845    5.9289050    7.6618662    5.6911240    6.6408956  
   4 C       6.1982780    4.3354822    5.4120341    3.7786817    4.5216845  
   5 C       2.5434517 *  6.4408078    4.6744539    4.7136152    3.5084459  
   6 C       0.0000000    6.7626289    5.0085020    4.8695309    3.6837793  
   7 H       6.7626289    0.0000000    2.9438886 *  1.9466590 *  3.1489957  
   8 H       5.0085020    2.9438886 *  0.0000000    2.3654297 *  1.9066157 *
   9 C       4.8695309    1.9466590 *  2.3654297 *  0.0000000    1.4126901 *
  10 C       3.6837793    3.1489957    1.9066157 *  1.4126901 *  0.0000000  
  11 C       2.5435863 *  4.3711969    3.1845378    2.4582474 *  1.3994352 *
  12 O       8.1605641    4.1978413    6.4308582    4.3761801    5.4914810  
  13 C       7.7700086    2.3355357 *  5.0931751    3.2111088    4.6199868  
  14 C       8.3114712    4.0219582    6.2687418    4.5382539    5.7681908  
  15 C       8.0347423    2.6436768 *  5.1837767    3.6461900    4.9777791  
  16 O       5.9488409    0.9646917 *  2.0395784 *  1.3824479 *  2.3297225 *
  17 O       4.0693155    3.5391206    0.9700734 *  2.3912626 *  1.3688896 *
  18 C       1.5410140 *  5.6802626    3.8150414    3.8526271    2.5408458 *
  19 C       6.2334508    5.1711333    6.5270974    4.2413691    4.9799781  
  20 C       7.2585721    4.3928910    6.1873250    4.2160926    5.2613092  
  21 C       6.9385391    4.1628871    6.0694137    3.7931770    4.8793501  
  22 C       5.4920920    4.9181193    5.9549706    3.7118281    4.2545707  
  23 C       7.1361244    3.8475347    5.8459385    3.6017887    4.6753555  
  24 C       5.1822360    2.5870294 *  3.7570938    1.3960634 *  2.4393508 *
  25 C       4.4138439    3.9531276    4.5079601    2.3929664 *  2.7576298 *
  26 O       6.6179101    4.8463500    6.3433253    4.0826567    4.8500337  
  27 H       7.9733360    4.7504566    6.9582049    4.6789624    5.8452709  
  28 H       5.3767321    5.9101780    6.6507615    4.5468975    4.8370462  
  29 H       2.9207143 *  5.7335426    5.2744591    3.8735611    3.3842788  
  30 H       7.0876769    6.1071364    7.5990667    5.2886062    6.0370145  
  31 H       5.7024469    5.5387324    6.5170985    4.4036945    4.9351355  
  32 H       2.1424115 *  5.6273975    3.2850473    3.9827047    2.5724885 *
  33 H       8.6896190    3.3286511    6.1480989    4.2398502    5.6360787  
  34 H       7.8717594    1.7839741 *  4.6543359    3.0825456    4.4515264  
  35 H       9.1957027    4.6995949    7.1785309    5.3447926    6.6374014  
  36 H       8.7185253    4.6071705    6.6209981    5.1661847    6.2973429  
  37 H       9.0090894    3.0757531    5.7189693    4.4732396    5.7999927  
  38 H       7.3599410    2.1992234 *  4.3161258    3.0848722    4.2875192  
  39 H       8.9996038    6.3387721    8.3558566    6.2784182    7.3345844  
  40 H       8.6689790    6.3903522    8.0364295    6.2722603    7.1878579  
  41 H       7.7311313    6.4876864    7.9287137    5.9284249    6.7069391  
  42 H       5.5610837    5.0237465    5.7175339    4.0627244    4.5471940  
  43 H       6.8402207    4.9678416    5.9422250    4.6152283    5.2948199  
  44 H       5.6805944    3.4487134    4.3323622    2.8503795 *  3.5858777  
  45 H       2.8163177 *  6.7977747    5.4305705    5.0200121    4.0012162  
  46 H       2.7806854 *  7.3901924    5.3500163    5.6931088    4.4065728  
  47 H       3.5016006    6.0136610    4.2967870    4.4883120    3.3792180  
  48 H       1.0952351 *  6.5906534    4.9018899    4.7643987    3.6857878  
  49 H       1.0959711 *  7.6699823    5.6396542    5.8199325    4.5437877  
  50 H       1.0962180 *  7.1312837    5.7432069    5.1884266    4.1756881  

               11 C         12 O         13 C         14 C         15 C     

   1 C       4.3861828    2.4573596 *  1.5383058 *  3.0111568    2.5766726 *
   2 C       1.4048384 *  5.0968300    5.0863704    6.0395794    5.7192741  
   3 C       6.8231171    5.7733435    4.3744161    2.5064573 *  3.9008821  
   4 C       4.8575634    5.7091403    3.7993423    2.5341138 *  3.1532823  
   5 C       2.5287835 *  7.4571874    7.6541510    8.9277852    8.3034159  
   6 C       2.5435863 *  8.1605641    7.7700086    8.3114712    8.0347423  
   7 H       4.3711969    4.1978413    2.3355357 *  4.0219582    2.6436768 *
   8 H       3.1845378    6.4308582    5.0931751    6.2687418    5.1837767  
   9 C       2.4582474 *  4.3761801    3.2111088    4.5382539    3.6461900  
  10 C       1.3994352 *  5.4914810    4.6199868    5.7681908    4.9777791  
  11 C       0.0000000    5.8298997    5.4267273    6.4419208    5.8963616  
  12 O       5.8298997    0.0000000    2.8059296 *  4.8710227    4.3144760  
  13 C       5.4267273    2.8059296 *  0.0000000    2.5309828 *  1.5379811 *
  14 C       6.4419208    4.8710227    2.5309828 *  0.0000000    1.5340883 *
  15 C       5.8963616    4.3144760    1.5379811 *  1.5340883 *  0.0000000  
  16 O       3.6464765    4.7865388    3.0820557    4.4668221    3.2475678  
  17 O       2.3920620 *  6.5551428    5.4710159    6.5915752    5.6526240  
  18 C       1.5233119 *  7.2461449    6.9287769    7.8731292    7.3379185  
  19 C       4.7500035    3.9913469    3.9129294    3.9519645    4.4400361  
  20 C       5.6241042    4.7866631    3.0309481    1.5499450 *  2.5811120 *
  21 C       5.0891472    3.4310760    2.5511404 *  2.5180402 *  2.9645964 *
  22 C       3.8430391    3.5027387    4.0952802    4.9282474    4.9754738  
  23 C       4.8946051    1.2105370 *  2.5203121 *  4.2956179    3.8995896  
  24 C       2.8620591 *  3.4195811    2.6531860 *  3.9532276    3.3756041  
  25 C       2.4299960 *  3.8860811    3.8665870    4.8910462    4.6190806  
  26 O       4.6719347    2.2341286 *  3.7412250    5.1188158    4.9664315  
  27 H       6.0793245    3.2039103    2.7126218 *  2.6724069 *  3.2441813  
  28 H       4.1299783    4.2647837    5.1744749    5.9404257    6.0590265  
  29 H       2.1596897 *  5.7020282    5.9988942    6.8430754    6.6648968  
  30 H       5.7347961    4.2675113    4.5824799    4.4916895    5.1540770  
  31 H       4.5850793    5.0066189    4.5688485    4.1991523    4.8140020  
  32 H       2.1205622 *  7.7793204    7.1802403    8.1042245    7.4549421  
  33 H       6.3545888    2.5203445 *  1.0958734 *  2.7820309 *  2.1546443 *
  34 H       5.4045926    2.8456424 *  1.0996428 *  3.5068447    2.2111003 *
  35 H       7.2674662    4.7563266    2.7901883 *  1.0998667 *  2.1564537 *
  36 H       7.0176101    5.9548711    3.4837526    1.0975916 *  2.1699030 *
  37 H       6.8279776    4.8345154    2.1597758 *  2.1641335 *  1.0970147 *
  38 H       5.3092632    4.9131676    2.1903248 *  2.1629281 *  1.0958500 *
  39 H       7.5310501    5.5669008    4.4617741    2.7704125 *  4.1621402  
  40 H       7.4531191    6.7103399    4.9974598    2.7257967 *  4.2070884  
  41 H       6.6658468    6.1326402    5.0656174    3.4826052    4.7559070  
  42 H       4.5638021    6.0475070    4.5516636    3.5029652    4.1444665  
  43 H       5.7028830    6.6643378    4.5195632    2.7634001 *  3.5463304  
  44 H       4.1298786    5.4963895    3.4568598    2.8177382 *  2.8658312 *
  45 H       2.8276396 *  7.1870145    7.7039958    8.9805973    8.4677587  
  46 H       3.4805210    8.5453672    8.7072903    9.9205803    9.2994537  
  47 H       2.7608851 *  7.0753986    7.3610289    8.8924322    8.1052215  
  48 H       2.7838457 *  8.2945758    7.5639687    7.8016836    7.6266965  
  49 H       3.4885563    9.1707065    8.8074208    9.3617383    9.0543769  
  50 H       2.8555157 *  7.9587586    7.8413575    8.3603832    8.2112671  

               16 O         17 O         18 C         19 C         20 C     

   1 C       3.2233019    5.0576869    5.9082521    2.5632515 *  2.6643246 *
   2 C       4.1607389    3.6509990    2.5629208 *  3.6013412    5.0169156  
   3 C       6.1449560    7.6941481    8.1367408    3.0886703    1.5439377 *
   4 C       4.2314845    5.4150846    6.0956067    3.1799672    1.5437900 *
   5 C       5.7150806    3.7745470    1.5430393 *  6.7990221    8.0831196  
   6 C       5.9488409    4.0693155    1.5410140 *  6.2334508    7.2585721  
   7 H       0.9646917 *  3.5391206    5.6802626    5.1711333    4.3928910  
   8 H       2.0395784 *  0.9700734 *  3.8150414    6.5270974    6.1873250  
   9 C       1.3824479 *  2.3912626 *  3.8526271    4.2413691    4.2160926  
  10 C       2.3297225 *  1.3688896 *  2.5408458 *  4.9799781    5.2613092  
  11 C       3.6464765    2.3920620 *  1.5233119 *  4.7500035    5.6241042  
  12 O       4.7865388    6.5551428    7.2461449    3.9913469    4.7866631  
  13 C       3.0820557    5.4710159    6.9287769    3.9129294    3.0309481  
  14 C       4.4668221    6.5915752    7.8731292    3.9519645    1.5499450 *
  15 C       3.2475678    5.6526240    7.3379185    4.4400361    2.5811120 *
  16 O       0.0000000    2.6062321 *  4.8637222    5.2443634    4.6062860  
  17 O       2.6062321 *  0.0000000    2.8549039 *  6.3008404    6.2802262  
  18 C       4.8637222    2.8549039 *  0.0000000    6.0705177    7.0154084  
  19 C       5.2443634    6.3008404    6.0705177    0.0000000    2.6366820 *
  20 C       4.6062860    6.2802262    7.0154084    2.6366820 *  0.0000000  
  21 C       4.4421041    6.0761119    6.5516370    1.5521722 *  1.5624947 *
  22 C       4.9006151    5.6213062    5.1283544    1.5350820 *  3.8082291  
  23 C       4.2673571    5.8610950    6.3450663    2.8700035 *  3.9052020  
  24 C       2.4812732 *  3.6732217    4.3851984    2.9246966 *  3.3663157  
  25 C       3.7114850    4.1260875    3.8375399    2.4876593 *  3.9161089  
  26 O       5.0602585    6.1513412    6.0010376    2.4204929 *  4.3422383  
  27 H       5.1961559    7.0281665    7.5541512    2.1514670 *  2.1250123 *
  28 H       5.8178963    6.1921639    5.1873816    2.2021431 *  4.7200340  
  29 H       5.2470009    4.5422486    2.7731976 *  3.8874840    5.6777110  
  30 H       6.2607952    7.3711466    7.0019891    1.0947535 *  3.2371527  
  31 H       5.4542588    6.2095351    5.7769116    1.0936887 *  2.6976466 *
  32 H       4.7288624    2.3299132 *  1.0940572 *  6.7955351    7.3975599  
  33 H       4.1367273    6.5239872    7.8687434    4.1791453    3.4056939  
  34 H       2.6793163 *  5.1341643    6.8486012    4.7374852    4.0625616  
  35 H       5.2778761    7.5149248    8.7375835    4.2264088    2.1693443 *
  36 H       4.9636726    6.9838174    8.3708357    4.7842109    2.1711856 *
  37 H       3.8000956    6.3177243    8.2437003    5.4654517    3.5187238  
  38 H       2.5484570 *  4.8118828    6.6656734    4.6989275    2.8741530 *
  39 H       6.6909070    8.4293625    8.9018348    3.3758750    2.1967042 *
  40 H       6.5796164    8.1212930    8.7112129    4.1185304    2.1814682 *
  41 H       6.5877841    7.8271421    7.8820884    2.7960257 *  2.2008953 *
  42 H       4.7945718    5.5328722    5.6830993    2.8806961 *  2.2003366 *
  43 H       4.8577193    6.0129213    6.8354627    4.1711781    2.1724267 *
  44 H       3.2203979    4.3856362    5.3842189    3.5629203    2.2131263 *
  45 H       6.1663268    4.5582612    2.1927704 *  6.4154857    8.0234401  
  46 H       6.6173758    4.4383174    2.1834938 *  7.8048446    9.0633103  
  47 H       5.3414446    3.5160510    2.1907960 *  7.0172607    8.2024927  
  48 H       5.7624801    4.0430954    2.1906836 *  6.0475811    6.7527387  
  49 H       6.8167149    4.6867692    2.1782042 *  7.3139023    8.3275942  
  50 H       6.4072483    4.8252424    2.1973278 *  5.8044503    7.1743198  

               21 C         22 C         23 C         24 C         25 C     

   1 C       1.5919551 *  2.5638891 *  1.5474755 *  1.5391281 *  2.4460497 *
   2 C       4.2400795    2.5657852 *  4.0562399    2.4490061 *  1.3878546 *
   3 C       2.5182303 *  4.5608327    4.9334093    4.7455403    5.0136457  
   4 C       2.6047609 *  4.1017996    4.6963606    3.2944341    3.7540085  
   5 C       7.3773563    5.5966439    6.6983543    5.1425987    4.4729778  
   6 C       6.9385391    5.4920920    7.1361244    5.1822360    4.4138439  
   7 H       4.1628871    4.9181193    3.8475347    2.5870294 *  3.9531276  
   8 H       6.0694137    5.9549706    5.8459385    3.7570938    4.5079601  
   9 C       3.7931770    3.7118281    3.6017887    1.3960634 *  2.3929664 *
  10 C       4.8793501    4.2545707    4.6753555    2.4393508 *  2.7576298 *
  11 C       5.0891472    3.8430391    4.8946051    2.8620591 *  2.4299960 *
  12 O       3.4310760    3.5027387    1.2105370 *  3.4195811    3.8860811  
  13 C       2.5511404 *  4.0952802    2.5203121 *  2.6531860 *  3.8665870  
  14 C       2.5180402 *  4.9282474    4.2956179    3.9532276    4.8910462  
  15 C       2.9645964 *  4.9754738    3.8995896    3.3756041    4.6190806  
  16 O       4.4421041    4.9006151    4.2673571    2.4812732 *  3.7114850  
  17 O       6.0761119    5.6213062    5.8610950    3.6732217    4.1260875  
  18 C       6.5516370    5.1283544    6.3450663    4.3851984    3.8375399  
  19 C       1.5521722 *  1.5350820 *  2.8700035 *  2.9246966 *  2.4876593 *
  20 C       1.5624947 *  3.8082291    3.9052020    3.3663157    3.9161089  
  21 C       0.0000000    2.5029394 *  2.4602369 *  2.5763652 *  2.9382749 *
  22 C       2.5029394 *  0.0000000    2.3646157 *  2.4216991 *  1.5018142 *
  23 C       2.4602369 *  2.3646157 *  0.0000000    2.4296831 *  2.7662196 *
  24 C       2.5763652 *  2.4216991 *  2.4296831 *  0.0000000    1.4088755 *
  25 C       2.9382749 *  1.5018142 *  2.7662196 *  1.4088755 *  0.0000000  
  26 O       2.8050902 *  1.4683684 *  1.3555777 *  2.8030096 *  2.4059695 *
  27 H       1.0986738 *  3.1042458    2.5267239 *  3.4522378    3.8220998  
  28 H       3.4777992    1.0905401 *  3.2433697    3.3734501    2.1739318 *
  29 H       4.8444929    2.8012352 *  4.6654858    3.4234424    2.1423437 *
  30 H       2.1957545 *  2.1650656 *  3.3114138    3.9347020    3.4356415  
  31 H       2.2100679 *  2.1460931 *  3.8425285    3.2729862    2.7065116 *
  32 H       7.0862215    5.9456948    6.9311909    4.8127666    4.5485665  
  33 H       2.8038662 *  4.4649006    2.5793485 *  3.5202881    4.5611503  
  34 H       3.5244895    4.6157704    2.8353208 *  2.8837720 *  4.1749725  
  35 H       2.7836428 *  5.2649744    4.3697837    4.6098729    5.4841973  
  36 H       3.4755629    5.8374372    5.3705826    4.7699784    5.7021610  
  37 H       3.9480922    5.9912236    4.6557955    4.3504357    5.6456596  
  38 H       3.4056248    5.1157707    4.3640684    3.1805974    4.4592824  
  39 H       2.7310575 *  4.8352705    4.8928719    5.2242302    5.5096558  
  40 H       3.4826949    5.5634357    5.9023832    5.4990481    5.8645188  
  41 H       2.8201656 *  4.3048504    5.1796726    4.9159082    4.8763379  
  42 H       2.8837414 *  3.7805274    4.9258621    3.4783771    3.5119479  
  43 H       3.5408039    5.1827607    5.7102377    4.3119308    4.8246312  
  44 H       2.9087668 *  4.1074595    4.5174742    2.6959111 *  3.3888357  
  45 H       7.1765341    5.1289630    6.4160429    5.1551282    4.2443445  
  46 H       8.4200169    6.6328055    7.7942662    6.1982893    5.5282293  
  47 H       7.4263967    5.7428326    6.4593929    5.0333061    4.5766483  
  48 H       6.6599114    5.5626626    7.2134534    5.1002331    4.4738145  
  49 H       8.0340881    6.5455964    8.1767175    6.2294131    5.4799399  
  50 H       6.7238297    5.0268306    6.9064840    5.2137136    4.1969645  

               26 O         27 H         28 H         29 H         30 H     

   1 C       2.4294910 *  2.1370453 *  3.6478322    4.5854091    3.3483101  
   2 C       3.5487946    5.1725689    2.7348294 *  1.0868742 *  4.4967042  
   3 C       5.1473058    2.6382766 *  5.2707959    6.5297965    3.2355449  
   4 C       4.9872819    3.4931129    4.9217829    5.1851918    4.0162880  
   5 C       6.2373970    8.2838591    5.4819858    3.1611510    7.6291096  
   6 C       6.6179101    7.9733360    5.3767321    2.9207143 *  7.0876769  
   7 H       4.8463500    4.7504566    5.9101780    5.7335426    6.1071364  
   8 H       6.3433253    6.9582049    6.6507615    5.2744591    7.5990667  
   9 C       4.0826567    4.6789624    4.5468975    3.8735611    5.2886062  
  10 C       4.8500337    5.8452709    4.8370462    3.3842788    6.0370145  
  11 C       4.6719347    6.0793245    4.1299783    2.1596897 *  5.7347961  
  12 O       2.2341286 *  3.2039103    4.2647837    5.7020282    4.2675113  
  13 C       3.7412250    2.7126218 *  5.1744749    5.9988942    4.5824799  
  14 C       5.1188158    2.6724069 *  5.9404257    6.8430754    4.4916895  
  15 C       4.9664315    3.2441813    6.0590265    6.6648968    5.1540770  
  16 O       5.0602585    5.1961559    5.8178963    5.2470009    6.2607952  
  17 O       6.1513412    7.0281665    6.1921639    4.5422486    7.3711466  
  18 C       6.0010376    7.5541512    5.1873816    2.7731976 *  7.0019891  
  19 C       2.4204929 *  2.1514670 *  2.2021431 *  3.8874840    1.0947535 *
  20 C       4.3422383    2.1250123 *  4.7200340    5.6777110    3.2371527  
  21 C       2.8050902 *  1.0986738 *  3.4777992    4.8444929    2.1957545 *
  22 C       1.4683684 *  3.1042458    1.0905401 *  2.8012352 *  2.1650656 *
  23 C       1.3555777 *  2.5267239 *  3.2433697    4.6654858    3.3114138  
  24 C       2.8030096 *  3.4522378    3.3734501    3.4234424    3.9347020  
  25 C       2.4059695 *  3.8220998    2.1739318 *  2.1423437 *  3.4356415  
  26 O       0.0000000    2.9810234 *  2.0425048 *  3.8686414    2.7047007 *
  27 H       2.9810234 *  0.0000000    3.9874898    5.7157656    2.2845449 *
  28 H       2.0425048 *  3.9874898    0.0000000    2.5288784 *  2.4808229 *
  29 H       3.8686414    5.7157656    2.5288784 *  0.0000000    4.6093108  
  30 H       2.7047007 *  2.2845449 *  2.4808229 *  4.6093108    0.0000000  
  31 H       3.3640470    2.9778154 *  2.5658368 *  3.7031478    1.7641487 *
  32 H       6.7630494    8.1090843    6.1297650    3.8031568    7.7868210  
  33 H       3.8472214    2.5118781 *  5.4967037    6.6947082    4.6112898  
  34 H       4.1150355    3.7166026    5.6568966    6.2241815    5.4480777  
  35 H       5.2317805    2.4773712 *  6.2478203    7.4858502    4.5283719  
  36 H       6.1568310    3.6798688    6.8178377    7.5410965    5.3212574  
  37 H       5.8340337    4.0331711    7.0792969    7.7044431    6.1051152  
  38 H       5.3213827    3.9631770    6.1727581    6.3547107    5.5640993  
  39 H       5.1534774    2.3857249 *  5.5287714    7.1209620    3.2361454  
  40 H       6.1945760    3.6265282    6.2760815    7.3278770    4.3067937  
  41 H       5.1063073    3.0738162    4.8245218    6.0939823    2.8231807 *
  42 H       4.9167261    3.8332563    4.4096967    4.5683946    3.6933216  
  43 H       6.0590782    4.2870867    5.9709867    6.1449677    4.9030026  
  44 H       4.9231721    3.8832840    4.9853261    4.8686996    4.5468756  
  45 H       5.7598167    8.0227161    4.8307669    2.6428993 *  7.1345655  
  46 H       7.3099690    9.3459044    6.4535139    4.0653352    8.6227631  
  47 H       6.1496256    8.2759725    5.7482953    3.6961718    7.8642613  
  48 H       6.7916226    7.7326324    5.5701275    3.3361905    6.9382982  
  49 H       7.6414836    9.0689609    6.3666929    3.8823828    8.1451432  
  50 H       6.2019582    7.7063560    4.7211753    2.3527985 *  6.5443287  

               31 H         32 H         33 H         34 H         35 H     

   1 C       3.2705894    6.3502549    2.1320051 *  2.1864308 *  3.3846423  
   2 C       3.5068308    3.4191533    5.8676878    5.2572277    6.7372908  
   3 C       2.9854706 *  8.5963633    4.4819025    5.4560667    2.6433090 *
   4 C       2.7675369 *  6.3743133    4.4943816    4.6273924    3.4728694  
   5 C       6.6650997    2.1428217 *  8.5067599    7.4529125    9.7011145  
   6 C       5.7024469    2.1424115 *  8.6896190    7.8717594    9.1957027  
   7 H       5.5387324    5.6273975    3.3286511    1.7839741 *  4.6995949  
   8 H       6.5170985    3.2850473    6.1480989    4.6543359    7.1785309  
   9 C       4.4036945    3.9827047    4.2398502    3.0825456    5.3447926  
  10 C       4.9351355    2.5724885 *  5.6360787    4.4515264    6.6374014  
  11 C       4.5850793    2.1205622 *  6.3545888    5.4045926    7.2674662  
  12 O       5.0066189    7.7793204    2.5203445 *  2.8456424 *  4.7563266  
  13 C       4.5688485    7.1802403    1.0958734 *  1.0996428 *  2.7901883 *
  14 C       4.1991523    8.1042245    2.7820309 *  3.5068447    1.0998667 *
  15 C       4.8140020    7.4549421    2.1546443 *  2.2111003 *  2.1564537 *
  16 O       5.4542588    4.7288624    4.1367273    2.6793163 *  5.2778761  
  17 O       6.2095351    2.3299132 *  6.5239872    5.1341643    7.5149248  
  18 C       5.7769116    1.0940572 *  7.8687434    6.8486012    8.7375835  
  19 C       1.0936887 *  6.7955351    4.1791453    4.7374852    4.2264088  
  20 C       2.6976466 *  7.3975599    3.4056939    4.0625616    2.1693443 *
  21 C       2.2100679 *  7.0862215    2.8038662 *  3.5244895    2.7836428 *
  22 C       2.1460931 *  5.9456948    4.4649006    4.6157704    5.2649744  
  23 C       3.8425285    6.9311909    2.5793485 *  2.8353208 *  4.3697837  
  24 C       3.2729862    4.8127666    3.5202881    2.8837720 *  4.6098729  
  25 C       2.7065116 *  4.5485665    4.5611503    4.1749725    5.4841973  
  26 O       3.3640470    6.7630494    3.8472214    4.1150355    5.2317805  
  27 H       2.9778154 *  8.1090843    2.5118781 *  3.7166026    2.4773712 *
  28 H       2.5658368 *  6.1297650    5.4967037    5.6568966    6.2478203  
  29 H       3.7031478    3.8031568    6.6947082    6.2241815    7.4858502  
  30 H       1.7641487 *  7.7868210    4.6112898    5.4480777    4.5283719  
  31 H       0.0000000    6.4892191    4.9803134    5.4004038    4.6452593  
  32 H       6.4892191    0.0000000    8.1840119    7.0090487    9.0303491  
  33 H       4.9803134    8.1840119    0.0000000    1.7193254 *  2.5907456 *
  34 H       5.4004038    7.0090487    1.7193254 *  0.0000000    3.7852621  
  35 H       4.6452593    9.0303491    2.5907456 *  3.7852621    0.0000000  
  36 H       4.8375467    8.5106468    3.7772114    4.3507876    1.7605279 *
  37 H       5.8789961    8.2795260    2.4541350 *  2.5163615 *  2.4585498 *
  38 H       4.8833674    6.6677118    3.0761299    2.5777644 *  3.0605687  
  39 H       3.5585920    9.4050661    4.2970820    5.5604656    2.4478784 *
  40 H       3.8697748    9.0775033    5.1448463    6.0521423    2.9258946 *
  41 H       2.4291445 *  8.4328333    5.2304075    6.1198465    3.6850130  
  42 H       2.1369389 *  6.0824422    5.2258342    5.3604357    4.3294715  
  43 H       3.6785265    7.0049509    5.1722176    5.3372582    3.7037992  
  44 H       3.2730555    5.5497528    4.3502683    4.0787424    3.8575960  
  45 H       6.3228180    3.0680771    8.4661243    7.5847607    9.6754269  
  46 H       7.5992940    2.4759772 *  9.5802199    8.4875128   10.7264259  
  47 H       7.0312702    2.4966575 *  8.1946377    7.0139114    9.6304780  
  48 H       5.3867787    2.5012160 *  8.5141558    7.7560941    8.7385363  
  49 H       6.7638651    2.4681868 *  9.7422150    8.8575198   10.2650199  
  50 H       5.2698327    3.0715527    8.6749227    8.0297634    9.1656097  

               36 H         37 H         38 H         39 H         40 H     

   1 C       4.0216822    3.5063774    2.9058459 *  4.1837343    4.8106835  
   2 C       6.7351499    6.7346776    5.3563743    6.6773439    6.8276473  
   3 C       2.7670524 *  4.6634351    4.2940764    1.0968175 *  1.0963206 *
   4 C       2.7007936 *  4.1250500    2.8669369 *  3.4753088    2.7443161 *
   5 C       9.5394366    9.1808468    7.7327460    9.8712831    9.8896244  
   6 C       8.7185253    9.0090894    7.3599410    8.9996038    8.6689790  
   7 H       4.6071705    3.0757531    2.1992234 *  6.3387721    6.3903522  
   8 H       6.6209981    5.7189693    4.3161258    8.3558566    8.0364295  
   9 C       5.1661847    4.4732396    3.0848722    6.2784182    6.2722603  
  10 C       6.2973429    5.7999927    4.2875192    7.3345844    7.1878579  
  11 C       7.0176101    6.8279776    5.3092632    7.5310501    7.4531191  
  12 O       5.9548711    4.8345154    4.9131676    5.5669008    6.7103399  
  13 C       3.4837526    2.1597758 *  2.1903248 *  4.4617741    4.9974598  
  14 C       1.0975916 *  2.1641335 *  2.1629281 *  2.7704125 *  2.7257967 *
  15 C       2.1699030 *  1.0970147 *  1.0958500 *  4.1621402    4.2070884  
  16 O       4.9636726    3.8000956    2.5484570 *  6.6909070    6.5796164  
  17 O       6.9838174    6.3177243    4.8118828    8.4293625    8.1212930  
  18 C       8.3708357    8.2437003    6.6656734    8.9018348    8.7112129  
  19 C       4.7842109    5.4654517    4.6989275    3.3758750    4.1185304  
  20 C       2.1711856 *  3.5187238    2.8741530 *  2.1967042 *  2.1814682 *
  21 C       3.4755629    3.9480922    3.4056248    2.7310575 *  3.4826949  
  22 C       5.8374372    5.9912236    5.1157707    4.8352705    5.5634357  
  23 C       5.3705826    4.6557955    4.3640684    4.8928719    5.9023832  
  24 C       4.7699784    4.3504357    3.1805974    5.2242302    5.4990481  
  25 C       5.7021610    5.6456596    4.4592824    5.5096558    5.8645188  
  26 O       6.1568310    5.8340337    5.3213827    5.1534774    6.1945760  
  27 H       3.6798688    4.0331711    3.9631770    2.3857249 *  3.6265282  
  28 H       6.8178377    7.0792969    6.1727581    5.5287714    6.2760815  
  29 H       7.5410965    7.7044431    6.3547107    7.1209620    7.3278770  
  30 H       5.3212574    6.1051152    5.5640993    3.2361454    4.3067937  
  31 H       4.8375467    5.8789961    4.8833674    3.5585920    3.8697748  
  32 H       8.5106468    8.2795260    6.6677118    9.4050661    9.0775033  
  33 H       3.7772114    2.4541350 *  3.0761299    4.2970820    5.1448463  
  34 H       4.3507876    2.5163615 *  2.5777644 *  5.5604656    6.0521423  
  35 H       1.7605279 *  2.4585498 *  3.0605687    2.4478784 *  2.9258946 *
  36 H       0.0000000    2.4996397 *  2.4745638 *  3.1668414    2.5322523 *
  37 H       2.4996397 *  0.0000000    1.7549060 *  4.7921995    4.8306371  
  38 H       2.4745638 *  1.7549060 *  0.0000000    4.7883498    4.5015591  
  39 H       3.1668414    4.7921995    4.7883498    0.0000000    1.7714516 *
  40 H       2.5322523 *  4.8306371    4.5015591    1.7714516 *  0.0000000  
  41 H       3.7606085    5.6150749    5.0343482    1.7727702 *  1.7659530 *
  42 H       3.7193063    5.1616982    3.8564188    3.7776356    3.1129977  
  43 H       2.4731572 *  4.3389941    3.1913549    3.7309902    2.4933835 *
  44 H       3.0511022    3.8421436    2.2721367 *  4.3605129    3.7525825  
  45 H       9.6644282    9.3945063    8.0126968    9.6425768    9.8044582  
  46 H      10.4834205   10.1649184    8.6735523   10.8631502   10.8030931  
  47 H       9.5483341    8.9033570    7.5613150   10.0364927   10.1383945  
  48 H       8.0934625    8.5971366    6.8951173    8.5159489    7.9988578  
  49 H       9.7318779   10.0043876    8.3351945   10.0697984    9.6860155  
  50 H       8.8382828    9.2372820    7.6556801    8.7274856    8.5349220  

               41 H         42 H         43 H         44 H         45 H     

   1 C       4.3597152    3.7211774    4.2767827    3.0425020    6.5035473  
   2 C       5.7924856    4.0668825    5.4779703    4.0295300    3.0088876  
   3 C       1.0953670 *  2.7631653 *  2.7100209 *  3.4824147    9.0464712  
   4 C       2.7477069 *  1.0948091 *  1.0967568 *  1.0917383 *  7.4169548  
   5 C       8.9358505    6.9366862    8.1775141    6.6512529    1.0966766 *
   6 C       7.7311313    5.5610837    6.8402207    5.6805944    2.8163177 *
   7 H       6.4876864    5.0237465    4.9678416    3.4487134    6.7977747  
   8 H       7.9287137    5.7175339    5.9422250    4.3323622    5.4305705  
   9 C       5.9284249    4.0627244    4.6152283    2.8503795 *  5.0200121  
  10 C       6.7069391    4.5471940    5.2948199    3.5858777    4.0012162  
  11 C       6.6658468    4.5638021    5.7028830    4.1298786    2.8276396 *
  12 O       6.1326402    6.0475070    6.6643378    5.4963895    7.1870145  
  13 C       5.0656174    4.5516636    4.5195632    3.4568598    7.7039958  
  14 C       3.4826052    3.5029652    2.7634001 *  2.8177382 *  8.9805973  
  15 C       4.7559070    4.1444665    3.5463304    2.8658312 *  8.4677587  
  16 O       6.5877841    4.7945718    4.8577193    3.2203979    6.1663268  
  17 O       7.8271421    5.5328722    6.0129213    4.3856362    4.5582612  
  18 C       7.8820884    5.6830993    6.8354627    5.3842189    2.1927704 *
  19 C       2.7960257 *  2.8806961 *  4.1711781    3.5629203    6.4154857  
  20 C       2.2008953 *  2.2003366 *  2.1724267 *  2.2131263 *  8.0234401  
  21 C       2.8201656 *  2.8837414 *  3.5408039    2.9087668 *  7.1765341  
  22 C       4.3048504    3.7805274    5.1827607    4.1074595    5.1289630  
  23 C       5.1796726    4.9258621    5.7102377    4.5174742    6.4160429  
  24 C       4.9159082    3.4783771    4.3119308    2.6959111 *  5.1551282  
  25 C       4.8763379    3.5119479    4.8246312    3.3888357    4.2443445  
  26 O       5.1063073    4.9167261    6.0590782    4.9231721    5.7598167  
  27 H       3.0738162    3.8332563    4.2870867    3.8832840    8.0227161  
  28 H       4.8245218    4.4096967    5.9709867    4.9853261    4.8307669  
  29 H       6.0939823    4.5683946    6.1449677    4.8686996    2.6428993 *
  30 H       2.8231807 *  3.6933216    4.9030026    4.5468756    7.1345655  
  31 H       2.4291445 *  2.1369389 *  3.6785265    3.2730555    6.3228180  
  32 H       8.4328333    6.0824422    7.0049509    5.5497528    3.0680771  
  33 H       5.2304075    5.2258342    5.1722176    4.3502683    8.4661243  
  34 H       6.1198465    5.3604357    5.3372582    4.0787424    7.5847607  
  35 H       3.6850130    4.3294715    3.7037992    3.8575960    9.6754269  
  36 H       3.7606085    3.7193063    2.4731572 *  3.0511022    9.6644282  
  37 H       5.6150749    5.1616982    4.3389941    3.8421436    9.3945063  
  38 H       5.0343482    3.8564188    3.1913549    2.2721367 *  8.0126968  
  39 H       1.7727702 *  3.7776356    3.7309902    4.3605129    9.6425768  
  40 H       1.7659530 *  3.1129977    2.4933835 *  3.7525825    9.8044582  
  41 H       0.0000000    2.5564297 *  3.0460858    3.7765217    8.6899870  
  42 H       2.5564297 *  0.0000000    1.7622287 *  1.7609744 *  6.9172799  
  43 H       3.0460858    1.7622287 *  0.0000000    1.7671933 *  8.3156699  
  44 H       3.7765217    1.7609744 *  1.7671933 *  0.0000000    6.8418850  
  45 H       8.6899870    6.9172799    8.3156699    6.8418850    0.0000000  
  46 H       9.8503831    7.7849088    9.0085335    7.5375799    1.7726809 *
  47 H       9.2735234    7.3088676    8.4345960    6.7962909    1.7716823 *
  48 H       7.1823124    4.8968817    6.0635768    5.0695548    3.8264563  
  49 H       8.7618746    6.5753179    7.7997820    6.6848025    3.1544850  
  50 H       7.4074427    5.4905073    6.9628718    5.8785862    2.6465817 *

               46 H         47 H         48 H         49 H         50 H     

   1 C       7.6706191    6.4385388    6.4965966    7.6992467    6.5580797  
   2 C       4.2268380    3.5266720    3.3404326    4.1384152    2.8959286 *
   3 C      10.1627662    9.4364081    7.5990029    9.2107048    7.9442371  
   4 C       8.2377309    7.5781152    5.5457677    7.2182346    6.2464935  
   5 C       1.0962984 *  1.0949513 *  3.5032510    2.7798710 *  2.8169735 *
   6 C       2.7806854 *  3.5016006    1.0952351 *  1.0959711 *  1.0962180 *
   7 H       7.3901924    6.0136610    6.5906534    7.6699823    7.1312837  
   8 H       5.3500163    4.2967870    4.9018899    5.6396542    5.7432069  
   9 C       5.6931088    4.4883120    4.7643987    5.8199325    5.1884266  
  10 C       4.4065728    3.3792180    3.6857878    4.5437877    4.1756881  
  11 C       3.4805210    2.7608851 *  2.7838457 *  3.4885563    2.8555157 *
  12 O       8.5453672    7.0753986    8.2945758    9.1707065    7.9587586  
  13 C       8.7072903    7.3610289    7.5639687    8.8074208    7.8413575  
  14 C       9.9205803    8.8924322    7.8016836    9.3617383    8.3603832  
  15 C       9.2994537    8.1052215    7.6266965    9.0543769    8.2112671  
  16 O       6.6173758    5.3414446    5.7624801    6.8167149    6.4072483  
  17 O       4.4383174    3.5160510    4.0430954    4.6867692    4.8252424  
  18 C       2.1834938 *  2.1907960 *  2.1906836 *  2.1782042 *  2.1973278 *
  19 C       7.8048446    7.0172607    6.0475811    7.3139023    5.8044503  
  20 C       9.0633103    8.2024927    6.7527387    8.3275942    7.1743198  
  21 C       8.4200169    7.4263967    6.6599114    8.0340881    6.7238297  
  22 C       6.6328055    5.7428326    5.5626626    6.5455964    5.0268306  
  23 C       7.7942662    6.4593929    7.2134534    8.1767175    6.9064840  
  24 C       6.1982893    5.0333061    5.1002331    6.2294131    5.2137136  
  25 C       5.5282293    4.5766483    4.4738145    5.4799399    4.1969645  
  26 O       7.3099690    6.1496256    6.7916226    7.6414836    6.2019582  
  27 H       9.3459044    8.2759725    7.7326324    9.0689609    7.7063560  
  28 H       6.4535139    5.7482953    5.5701275    6.3666929    4.7211753  
  29 H       4.0653352    3.6961718    3.3361905    3.8823828    2.3527985 *
  30 H       8.6227631    7.8642613    6.9382982    8.1451432    6.5443287  
  31 H       7.5992940    7.0312702    5.3867787    6.7638651    5.2698327  
  32 H       2.4759772 *  2.4966575 *  2.5012160 *  2.4681868 *  3.0715527  
  33 H       9.5802199    8.1946377    8.5141558    9.7422150    8.6749227  
  34 H       8.4875128    7.0139114    7.7560941    8.8575198    8.0297634  
  35 H      10.7264259    9.6304780    8.7385363   10.2650199    9.1656097  
  36 H      10.4834205    9.5483341    8.0934625    9.7318779    8.8382828  
  37 H      10.1649184    8.9033570    8.5971366   10.0043876    9.2372820  
  38 H       8.6735523    7.5613150    6.8951173    8.3351945    7.6556801  
  39 H      10.8631502   10.0364927    8.5159489   10.0697984    8.7274856  
  40 H      10.8030931   10.1383945    7.9988578    9.6860155    8.5349220  
  41 H       9.8503831    9.2735234    7.1823124    8.7618746    7.4074427  
  42 H       7.7849088    7.3088676    4.8968817    6.5753179    5.4905073  
  43 H       9.0085335    8.4345960    6.0635768    7.7997820    6.9628718  
  44 H       7.5375799    6.7962909    5.0695548    6.6848025    5.8785862  
  45 H       1.7726809 *  1.7716823 *  3.8264563    3.1544850    2.6465817 *
  46 H       0.0000000    1.7737718 *  3.7860046    2.5667813 *  3.1465231  
  47 H       1.7737718 *  0.0000000    4.3514779    3.7811304    3.8298795  
  48 H       3.7860046    4.3514779    0.0000000    1.7737648 *  1.7715688 *
  49 H       2.5667813 *  3.7811304    1.7737648 *  0.0000000    1.7672353 *
  50 H       3.1465231    3.8298795    1.7715688 *  1.7672353 *  0.0000000  

  * ... LESS THAN  3.000


     ATOMIC BASIS SET
     ----------------
 THE CONTRACTED PRIMITIVE FUNCTIONS HAVE BEEN UNNORMALIZED
 THE CONTRACTED BASIS FUNCTIONS ARE NOW NORMALIZED TO UNITY

  SHELL TYPE  PRIMITIVE        EXPONENT          CONTRACTION COEFFICIENT(S)

 C         

      1   S       1           172.2560000    0.061766907377
      1   S       2            25.9109000    0.358794042852
      1   S       3             5.5333500    0.700713083689

      2   L       4             3.6649800   -0.395895162119    0.236459946619
      2   L       5             0.7705450    1.215834355681    0.860618805716

      3   L       6             0.1958570    1.000000000000    1.000000000000

 C         

      4   S       7           172.2560000    0.061766907377
      4   S       8            25.9109000    0.358794042852
      4   S       9             5.5333500    0.700713083689

      5   L      10             3.6649800   -0.395895162119    0.236459946619
      5   L      11             0.7705450    1.215834355681    0.860618805716

      6   L      12             0.1958570    1.000000000000    1.000000000000

 C         

      7   S      13           172.2560000    0.061766907377
      7   S      14            25.9109000    0.358794042852
      7   S      15             5.5333500    0.700713083689

      8   L      16             3.6649800   -0.395895162119    0.236459946619
      8   L      17             0.7705450    1.215834355681    0.860618805716

      9   L      18             0.1958570    1.000000000000    1.000000000000

 C         

     10   S      19           172.2560000    0.061766907377
     10   S      20            25.9109000    0.358794042852
     10   S      21             5.5333500    0.700713083689

     11   L      22             3.6649800   -0.395895162119    0.236459946619
     11   L      23             0.7705450    1.215834355681    0.860618805716

     12   L      24             0.1958570    1.000000000000    1.000000000000

 C         

     13   S      25           172.2560000    0.061766907377
     13   S      26            25.9109000    0.358794042852
     13   S      27             5.5333500    0.700713083689

     14   L      28             3.6649800   -0.395895162119    0.236459946619
     14   L      29             0.7705450    1.215834355681    0.860618805716

     15   L      30             0.1958570    1.000000000000    1.000000000000

 C         

     16   S      31           172.2560000    0.061766907377
     16   S      32            25.9109000    0.358794042852
     16   S      33             5.5333500    0.700713083689

     17   L      34             3.6649800   -0.395895162119    0.236459946619
     17   L      35             0.7705450    1.215834355681    0.860618805716

     18   L      36             0.1958570    1.000000000000    1.000000000000

 H         

     19   S      37             5.4471780    0.156284978695
     19   S      38             0.8245472    0.904690876670

     20   S      39             0.1831916    1.000000000000

 H         

     21   S      40             5.4471780    0.156284978695
     21   S      41             0.8245472    0.904690876670

     22   S      42             0.1831916    1.000000000000

 C         

     23   S      43           172.2560000    0.061766907377
     23   S      44            25.9109000    0.358794042852
     23   S      45             5.5333500    0.700713083689

     24   L      46             3.6649800   -0.395895162119    0.236459946619
     24   L      47             0.7705450    1.215834355681    0.860618805716

     25   L      48             0.1958570    1.000000000000    1.000000000000

 C         

     26   S      49           172.2560000    0.061766907377
     26   S      50            25.9109000    0.358794042852
     26   S      51             5.5333500    0.700713083689

     27   L      52             3.6649800   -0.395895162119    0.236459946619
     27   L      53             0.7705450    1.215834355681    0.860618805716

     28   L      54             0.1958570    1.000000000000    1.000000000000

 C         

     29   S      55           172.2560000    0.061766907377
     29   S      56            25.9109000    0.358794042852
     29   S      57             5.5333500    0.700713083689

     30   L      58             3.6649800   -0.395895162119    0.236459946619
     30   L      59             0.7705450    1.215834355681    0.860618805716

     31   L      60             0.1958570    1.000000000000    1.000000000000

 O         

     32   S      61           322.0370000    0.059239393389
     32   S      62            48.4308000    0.351499960776
     32   S      63            10.4206000    0.707657921031

     33   L      64             7.4029400   -0.404453583190    0.244586106967
     33   L      65             1.5762000    1.221561761397    0.853955373466

     34   L      66             0.3736840    1.000000000000    1.000000000000

 C         

     35   S      67           172.2560000    0.061766907377
     35   S      68            25.9109000    0.358794042852
     35   S      69             5.5333500    0.700713083689

     36   L      70             3.6649800   -0.395895162119    0.236459946619
     36   L      71             0.7705450    1.215834355681    0.860618805716

     37   L      72             0.1958570    1.000000000000    1.000000000000

 C         

     38   S      73           172.2560000    0.061766907377
     38   S      74            25.9109000    0.358794042852
     38   S      75             5.5333500    0.700713083689

     39   L      76             3.6649800   -0.395895162119    0.236459946619
     39   L      77             0.7705450    1.215834355681    0.860618805716

     40   L      78             0.1958570    1.000000000000    1.000000000000

 C         

     41   S      79           172.2560000    0.061766907377
     41   S      80            25.9109000    0.358794042852
     41   S      81             5.5333500    0.700713083689

     42   L      82             3.6649800   -0.395895162119    0.236459946619
     42   L      83             0.7705450    1.215834355681    0.860618805716

     43   L      84             0.1958570    1.000000000000    1.000000000000

 O         

     44   S      85           322.0370000    0.059239393389
     44   S      86            48.4308000    0.351499960776
     44   S      87            10.4206000    0.707657921031

     45   L      88             7.4029400   -0.404453583190    0.244586106967
     45   L      89             1.5762000    1.221561761397    0.853955373466

     46   L      90             0.3736840    1.000000000000    1.000000000000

 O         

     47   S      91           322.0370000    0.059239393389
     47   S      92            48.4308000    0.351499960776
     47   S      93            10.4206000    0.707657921031

     48   L      94             7.4029400   -0.404453583190    0.244586106967
     48   L      95             1.5762000    1.221561761397    0.853955373466

     49   L      96             0.3736840    1.000000000000    1.000000000000

 C         

     50   S      97           172.2560000    0.061766907377
     50   S      98            25.9109000    0.358794042852
     50   S      99             5.5333500    0.700713083689

     51   L     100             3.6649800   -0.395895162119    0.236459946619
     51   L     101             0.7705450    1.215834355681    0.860618805716

     52   L     102             0.1958570    1.000000000000    1.000000000000

 C         

     53   S     103           172.2560000    0.061766907377
     53   S     104            25.9109000    0.358794042852
     53   S     105             5.5333500    0.700713083689

     54   L     106             3.6649800   -0.395895162119    0.236459946619
     54   L     107             0.7705450    1.215834355681    0.860618805716

     55   L     108             0.1958570    1.000000000000    1.000000000000

 C         

     56   S     109           172.2560000    0.061766907377
     56   S     110            25.9109000    0.358794042852
     56   S     111             5.5333500    0.700713083689

     57   L     112             3.6649800   -0.395895162119    0.236459946619
     57   L     113             0.7705450    1.215834355681    0.860618805716

     58   L     114             0.1958570    1.000000000000    1.000000000000

 C         

     59   S     115           172.2560000    0.061766907377
     59   S     116            25.9109000    0.358794042852
     59   S     117             5.5333500    0.700713083689

     60   L     118             3.6649800   -0.395895162119    0.236459946619
     60   L     119             0.7705450    1.215834355681    0.860618805716

     61   L     120             0.1958570    1.000000000000    1.000000000000

 C         

     62   S     121           172.2560000    0.061766907377
     62   S     122            25.9109000    0.358794042852
     62   S     123             5.5333500    0.700713083689

     63   L     124             3.6649800   -0.395895162119    0.236459946619
     63   L     125             0.7705450    1.215834355681    0.860618805716

     64   L     126             0.1958570    1.000000000000    1.000000000000

 C         

     65   S     127           172.2560000    0.061766907377
     65   S     128            25.9109000    0.358794042852
     65   S     129             5.5333500    0.700713083689

     66   L     130             3.6649800   -0.395895162119    0.236459946619
     66   L     131             0.7705450    1.215834355681    0.860618805716

     67   L     132             0.1958570    1.000000000000    1.000000000000

 C         

     68   S     133           172.2560000    0.061766907377
     68   S     134            25.9109000    0.358794042852
     68   S     135             5.5333500    0.700713083689

     69   L     136             3.6649800   -0.395895162119    0.236459946619
     69   L     137             0.7705450    1.215834355681    0.860618805716

     70   L     138             0.1958570    1.000000000000    1.000000000000

 C         

     71   S     139           172.2560000    0.061766907377
     71   S     140            25.9109000    0.358794042852
     71   S     141             5.5333500    0.700713083689

     72   L     142             3.6649800   -0.395895162119    0.236459946619
     72   L     143             0.7705450    1.215834355681    0.860618805716

     73   L     144             0.1958570    1.000000000000    1.000000000000

 O         

     74   S     145           322.0370000    0.059239393389
     74   S     146            48.4308000    0.351499960776
     74   S     147            10.4206000    0.707657921031

     75   L     148             7.4029400   -0.404453583190    0.244586106967
     75   L     149             1.5762000    1.221561761397    0.853955373466

     76   L     150             0.3736840    1.000000000000    1.000000000000

 H         

     77   S     151             5.4471780    0.156284978695
     77   S     152             0.8245472    0.904690876670

     78   S     153             0.1831916    1.000000000000

 H         

     79   S     154             5.4471780    0.156284978695
     79   S     155             0.8245472    0.904690876670

     80   S     156             0.1831916    1.000000000000

 H         

     81   S     157             5.4471780    0.156284978695
     81   S     158             0.8245472    0.904690876670

     82   S     159             0.1831916    1.000000000000

 H         

     83   S     160             5.4471780    0.156284978695
     83   S     161             0.8245472    0.904690876670

     84   S     162             0.1831916    1.000000000000

 H         

     85   S     163             5.4471780    0.156284978695
     85   S     164             0.8245472    0.904690876670

     86   S     165             0.1831916    1.000000000000

 H         

     87   S     166             5.4471780    0.156284978695
     87   S     167             0.8245472    0.904690876670

     88   S     168             0.1831916    1.000000000000

 H         

     89   S     169             5.4471780    0.156284978695
     89   S     170             0.8245472    0.904690876670

     90   S     171             0.1831916    1.000000000000

 H         

     91   S     172             5.4471780    0.156284978695
     91   S     173             0.8245472    0.904690876670

     92   S     174             0.1831916    1.000000000000

 H         

     93   S     175             5.4471780    0.156284978695
     93   S     176             0.8245472    0.904690876670

     94   S     177             0.1831916    1.000000000000

 H         

     95   S     178             5.4471780    0.156284978695
     95   S     179             0.8245472    0.904690876670

     96   S     180             0.1831916    1.000000000000

 H         

     97   S     181             5.4471780    0.156284978695
     97   S     182             0.8245472    0.904690876670

     98   S     183             0.1831916    1.000000000000

 H         

     99   S     184             5.4471780    0.156284978695
     99   S     185             0.8245472    0.904690876670

    100   S     186             0.1831916    1.000000000000

 H         

    101   S     187             5.4471780    0.156284978695
    101   S     188             0.8245472    0.904690876670

    102   S     189             0.1831916    1.000000000000

 H         

    103   S     190             5.4471780    0.156284978695
    103   S     191             0.8245472    0.904690876670

    104   S     192             0.1831916    1.000000000000

 H         

    105   S     193             5.4471780    0.156284978695
    105   S     194             0.8245472    0.904690876670

    106   S     195             0.1831916    1.000000000000

 H         

    107   S     196             5.4471780    0.156284978695
    107   S     197             0.8245472    0.904690876670

    108   S     198             0.1831916    1.000000000000

 H         

    109   S     199             5.4471780    0.156284978695
    109   S     200             0.8245472    0.904690876670

    110   S     201             0.1831916    1.000000000000

 H         

    111   S     202             5.4471780    0.156284978695
    111   S     203             0.8245472    0.904690876670

    112   S     204             0.1831916    1.000000000000

 H         

    113   S     205             5.4471780    0.156284978695
    113   S     206             0.8245472    0.904690876670

    114   S     207             0.1831916    1.000000000000

 H         

    115   S     208             5.4471780    0.156284978695
    115   S     209             0.8245472    0.904690876670

    116   S     210             0.1831916    1.000000000000

 H         

    117   S     211             5.4471780    0.156284978695
    117   S     212             0.8245472    0.904690876670

    118   S     213             0.1831916    1.000000000000

 H         

    119   S     214             5.4471780    0.156284978695
    119   S     215             0.8245472    0.904690876670

    120   S     216             0.1831916    1.000000000000

 H         

    121   S     217             5.4471780    0.156284978695
    121   S     218             0.8245472    0.904690876670

    122   S     219             0.1831916    1.000000000000

 H         

    123   S     220             5.4471780    0.156284978695
    123   S     221             0.8245472    0.904690876670

    124   S     222             0.1831916    1.000000000000

 TOTAL NUMBER OF BASIS SET SHELLS             =  124
 NUMBER OF CARTESIAN GAUSSIAN BASIS FUNCTIONS =  268
 NUMBER OF ELECTRONS                          =  179
 CHARGE OF MOLECULE                           =   -1
 SPIN MULTIPLICITY                            =    2
 NUMBER OF OCCUPIED ORBITALS (ALPHA)          =   90
 NUMBER OF OCCUPIED ORBITALS (BETA )          =   89
 TOTAL NUMBER OF ATOMS                        =   50
 THE NUCLEAR REPULSION ENERGY IS     2290.9839198012

     $CONTRL OPTIONS
     ---------------
 SCFTYP=UHF          RUNTYP=ENERGY       EXETYP=RUN     
 MPLEVL=       0     CITYP =NONE         CCTYP =NONE         VBTYP =NONE    
 DFTTYP=NONE         TDDFT =NONE    
 MULT  =       2     ICHARG=      -1     NZVAR =       0     COORD =UNIQUE  
 PP    =NONE         RELWFN=NONE         LOCAL =NONE         NUMGRD=       F
 ISPHER=      -1     NOSYM =       0     MAXIT =      60     UNITS =ANGS    
 PLTORB=       F     MOLPLT=       F     AIMPAC=       F     FRIEND=        
 NPRINT=       7     IREST =       0     GEOM  =INPUT   
 NORMF =       0     NORMP =       0     ITOL  =      20     ICUT  =       9
 INTTYP=BEST         GRDTYP=BEST         QMTTOL= 1.0E-06

     $SYSTEM OPTIONS
     ---------------
  REPLICATED MEMORY=    30000000 WORDS (ON EVERY NODE).
 DISTRIBUTED MEMDDI=        1000 MILLION WORDS IN AGGREGATE,
 MEMDDI DISTRIBUTED OVER   6 PROCESSORS IS   166666666 WORDS/PROCESSOR.
 TOTAL MEMORY REQUESTED ON EACH PROCESSOR=   196666666 WORDS.
 TIMLIM=      525600.00 MINUTES, OR     365.0 DAYS.
 PARALL= T  BALTYP=  DLB     KDIAG=    0  COREFL= F
 MXSEQ2=     300 MXSEQ3=     150  mem10=         0

          ----------------
          PROPERTIES INPUT
          ----------------

     MOMENTS            FIELD           POTENTIAL          DENSITY
 IEMOM =       1   IEFLD =       0   IEPOT =       0   IEDEN =       0
 WHERE =COMASS     WHERE =NUCLEI     WHERE =NUCLEI     WHERE =NUCLEI  
 OUTPUT=BOTH       OUTPUT=BOTH       OUTPUT=BOTH       OUTPUT=BOTH    
 IEMINT=       0   IEFINT=       0                     IEDINT=       0
                                                       MORB  =       0
          EXTRAPOLATION IN EFFECT
          SOSCF IN EFFECT
          DIIS or SOSCF will be reset if energy rises
 ORBITAL PRINTING OPTION: NPREO=     1   268     2     1

     -------------------------------
     INTEGRAL TRANSFORMATION OPTIONS
     -------------------------------
     NWORD  =            0
     CUTOFF = 1.0E-09     MPTRAN =       0
     DIRTRF =       T     AOINTS =DUP     

          ----------------------
          INTEGRAL INPUT OPTIONS
          ----------------------
 NOPK  =       1 NORDER=       0 SCHWRZ=       T

     ------------------------------------------
     THE POINT GROUP IS C1 , NAXIS= 0, ORDER= 1
     ------------------------------------------

     DIMENSIONS OF THE SYMMETRY SUBSPACES ARE
 A   =  268

 ..... DONE SETTING UP THE RUN .....
 CPU     0: STEP CPU TIME=     0.03 TOTAL CPU TIME=          0.0 (      0.0 MIN)
 TOTAL WALL CLOCK TIME=          0.1 SECONDS, CPU UTILIZATION IS    50.00%

          ********************
          1 ELECTRON INTEGRALS
          ********************
 ...... END OF ONE-ELECTRON INTEGRALS ......
 CPU     0: STEP CPU TIME=     0.03 TOTAL CPU TIME=          0.1 (      0.0 MIN)
 TOTAL WALL CLOCK TIME=          0.1 SECONDS, CPU UTILIZATION IS    66.67%

          -------------
          GUESS OPTIONS
          -------------
          GUESS =HUCKEL            NORB  =       0          NORDER=       0
          MIX   =       F          PRTMO =       F          PUNMO =       F
          TOLZ  = 1.0E-08          TOLE  = 1.0E-05
          SYMDEN=       F          PURIFY=       F

 INITIAL GUESS ORBITALS GENERATED BY HUCKEL   ROUTINE.
 HUCKEL GUESS REQUIRES    642998 WORDS.

 SYMMETRIES FOR INITIAL GUESS ORBITALS FOLLOW.  ALPHA SET(S).
    90 ORBITALS ARE OCCUPIED (   24 CORE ORBITALS).
    25=A       26=A       27=A       28=A       29=A       30=A       31=A   
    32=A       33=A       34=A       35=A       36=A       37=A       38=A   
    39=A       40=A       41=A       42=A       43=A       44=A       45=A   
    46=A       47=A       48=A       49=A       50=A       51=A       52=A   
    53=A       54=A       55=A       56=A       57=A       58=A       59=A   
    60=A       61=A       62=A       63=A       64=A       65=A       66=A   
    67=A       68=A       69=A       70=A       71=A       72=A       73=A   
    74=A       75=A       76=A       77=A       78=A       79=A       80=A   
    81=A       82=A       83=A       84=A       85=A       86=A       87=A   
    88=A       89=A       90=A       91=A       92=A       93=A       94=A   
    95=A       96=A       97=A       98=A       99=A      100=A   

 SYMMETRIES FOR INITIAL GUESS ORBITALS FOLLOW.   BETA SET(S).
    89 ORBITALS ARE OCCUPIED (   24 CORE ORBITALS).
    25=A       26=A       27=A       28=A       29=A       30=A       31=A   
    32=A       33=A       34=A       35=A       36=A       37=A       38=A   
    39=A       40=A       41=A       42=A       43=A       44=A       45=A   
    46=A       47=A       48=A       49=A       50=A       51=A       52=A   
    53=A       54=A       55=A       56=A       57=A       58=A       59=A   
    60=A       61=A       62=A       63=A       64=A       65=A       66=A   
    67=A       68=A       69=A       70=A       71=A       72=A       73=A   
    74=A       75=A       76=A       77=A       78=A       79=A       80=A   
    81=A       82=A       83=A       84=A       85=A       86=A       87=A   
    88=A       89=A       90=A       91=A       92=A       93=A       94=A   
    95=A       96=A       97=A       98=A       99=A   
 ...... END OF INITIAL ORBITAL SELECTION ......
 CPU     0: STEP CPU TIME=     0.15 TOTAL CPU TIME=          0.2 (      0.0 MIN)
 TOTAL WALL CLOCK TIME=          0.4 SECONDS, CPU UTILIZATION IS    52.50%

                    ----------------------
                    AO INTEGRAL TECHNOLOGY
                    ----------------------
     S,P,L SHELL ROTATED AXIS INTEGRALS, REPROGRAMMED BY
        KAZUYA ISHIMURA (IMS) AND JOSE SIERRA (SYNSTAR).
     S,P,D,L SHELL ROTATED AXIS INTEGRALS PROGRAMMED BY
        KAZUYA ISHIMURA (INSTITUTE FOR MOLECULAR SCIENCE).
     S,P,D,F,G SHELL TO TOTAL QUARTET ANGULAR MOMENTUM SUM 5,
        ERIC PROGRAM BY GRAHAM FLETCHER (ELORET AND NASA ADVANCED
        SUPERCOMPUTING DIVISION, AMES RESEARCH CENTER).
     S,P,D,F,G,L SHELL GENERAL RYS QUADRATURE PROGRAMMED BY
        MICHEL DUPUIS (PACIFIC NORTHWEST NATIONAL LABORATORY).

          --------------------
          2 ELECTRON INTEGRALS
          --------------------

 DIRECT SCF METHOD SKIPS INTEGRAL STORAGE ON DISK.
 DIRECT TRANSFORMATION SKIPS AO INTEGRAL STORAGE ON DISK.
  ...... END OF TWO-ELECTRON INTEGRALS .....
 CPU     0: STEP CPU TIME=     0.02 TOTAL CPU TIME=          0.2 (      0.0 MIN)
 TOTAL WALL CLOCK TIME=          0.4 SECONDS, CPU UTILIZATION IS    54.76%

          ---------------------------
                  UHF SCF CALCULATION
          ---------------------------

     NUCLEAR ENERGY =      2290.9839198012
     MAXIT = 60     NPUNCH=  2     MULT=  2
     EXTRAP=T  DAMP=F  SHIFT=F  RSTRCT=F  DIIS=F  SOSCF=T
     DENSITY MATRIX CONV=  2.00E-05
     SOSCF WILL OPTIMIZE   16020 ALPHA AND   15931 BETA ROTATION ANGLES.
     SOGTOL= 2.500E-01
     MEMORY REQUIRED FOR UHF/ROHF ITERS=   1006041 WORDS.

 DIRECT SCF CALCULATION, SCHWRZ=T   FDIFF=T
 SCHWARZ INEQUALITY OVERHEAD:     30377 INTEGRALS, T=        0.00

                                                                                NONZERO     BLOCKS
 ITER EX      TOTAL ENERGY        E CHANGE  DENSITY CHANGE    ORB. GRAD       INTEGRALS    SKIPPED
   1  0    -1063.5213723216 -1063.5213723216   1.137602272   0.000000000      210932638   23209303
          ---------------START SECOND ORDER SCF---------------
   2  1    -1065.7498761024    -2.2285037808   0.201938224   0.082835203      210244697   23358155
   3  2    -1065.8445761149    -0.0947000125   0.220633384   0.077256317      205524729   23849460
   4  3    -1065.9392725418    -0.0946964269   0.050496641   0.020724409      200160084   24254584
   5  4    -1065.9467868571    -0.0075143153   0.062115667   0.011271320      196999324   24454225
   6  5    -1065.9523909943    -0.0056041372   0.068012706   0.012808582      196994400   24464432
   7  6    -1065.9550898185    -0.0026988242   0.024625034   0.008848991      197789949   24446740
   8  7    -1065.9565341787    -0.0014443602   0.013867249   0.002254967      189634831   24797213
   9  8    -1065.9568073792    -0.0002732005   0.008316635   0.001397608      178985360   25181255
  10  9    -1065.9569141584    -0.0001067793   0.005083525   0.001298656      176022844   25335513
  11 10    -1065.9569733893    -0.0000592309   0.009481585   0.000954960      166959791   25665440
  12 11    -1065.9570594253    -0.0000860359   0.008662384   0.000799190      173282599   25433962
  13 12    -1065.9571222838    -0.0000628585   0.007388924   0.000591505      171837494   25495999
  14 13    -1065.9571666216    -0.0000443378   0.004516488   0.000379666      171289556   25546552
  15 14    -1065.9571847110    -0.0000180893   0.001815211   0.000219489      165289578   25727097
  16 15    -1065.9571907700    -0.0000060591   0.001472125   0.000176850      157509419   25973983
  17 16    -1065.9571940689    -0.0000032989   0.002545938   0.000184914      153248734   26143496
  18 17    -1065.9571977119    -0.0000036430   0.003688578   0.000178290      157065237   26050944
  19 18    -1065.9572013971    -0.0000036852   0.004062378   0.000147206      160536472   25948161
  20 19    -1065.9572045502    -0.0000031531   0.002693234   0.000113861      161516364   25922446
  21 20    -1065.9572064241    -0.0000018738   0.001004533   0.000076576      157925824   26041624
  22 21    -1065.9572072392    -0.0000008151   0.000412838   0.000071024      149490775   26285392
  23 22    -1065.9572075676    -0.0000003284   0.000331458   0.000044632      139749754   26546176
  24 23    -1065.9572077494    -0.0000001818   0.000231450   0.000028126      134991217   26696756
  25 24    -1065.9572078605    -0.0000001111   0.000196360   0.000019787      131865920   26817462
  26 25    -1065.9572079132    -0.0000000527   0.000117236   0.000007665      129129757   26913189
  27 26    -1065.9572079289    -0.0000000157   0.000067183   0.000003467      122286572   27074822
  28 27    -1065.9572079332    -0.0000000043   0.000029683   0.000002096      111008638   27365026
[...]
   28    0.0033332   0.4174284   0.0016447   0.0031395  -0.0494866
   29    0.0000021  -0.0016742   0.0000016   0.0027825  -0.0421704
   30   -0.0455185  -0.0459751   0.0000670  -0.0007378   0.0067519
   31   -0.0388093  -0.0387347   0.0001310  -0.0005118   0.0030840
   32   -0.0000000   0.0000003  -0.0000000  -0.0000273  -0.0000447
   33    0.0002816   0.0000037  -0.0024224   0.0041097  -0.0000822
   34    0.0041528  -0.0000217  -0.0009668   0.0004337   0.0001112
   35   -0.0005137   0.0000005  -0.0000400   0.0000049  -0.0000003
   36    0.0041284   0.0000004   0.0000027  -0.0000120   0.0000004
   37   -0.0003040   0.0000002  -0.0000405  -0.0000602  -0.0000005
   38    0.0002181   0.0000007  -0.0000382   0.0010859   0.0000115
   39   -0.0010327  -0.0000073  -0.0000021   0.0000009   0.0000001
   40    0.0044072  -0.0000004   0.0000006   0.0000029   0.0000002
   41   -0.0023051   0.0000193  -0.0000008   0.0000040  -0.0000082
   42   -0.0019878   0.0000262  -0.0000056  -0.0004763   0.0003978
   43    0.0037158   0.0000015   0.0000012   0.0003591   0.0000091
   44   -0.0010913  -0.0000129  -0.0000000  -0.0045527  -0.0000864
   45   -0.0000000   0.0000005  -0.0000000  -0.0000005  -0.0000241
   46    0.0000000  -0.0000000   0.0000000   0.0000001  -0.0000012
   47    0.0000000   0.0000000   0.0000000  -0.0000014  -0.0000125
   48   -0.0000000   0.0000000  -0.0000000   0.0000003  -0.0000298
   49    0.0000000  -0.0000000  -0.0000000   0.0000001  -0.0000009
   50    0.0000000   0.0000004  -0.0000000   0.0000010  -0.0000377

            26          27          28          29          30

   26    8.5586891
   27   -0.0005123   0.5682252
   28   -0.0231490  -0.0000851   0.4701027
   29   -0.0000288  -0.0000001   0.0019132   0.5030172
   30    0.0014634  -0.0049500  -0.0029538   0.0000025   0.5320120
   31    0.0017878   0.0021231   0.0003413   0.0000517  -0.0250844
   32   -0.0000000   0.0000000   0.0000000   0.0000241   0.0000000
   33    0.0000651   0.0022378   0.0000001  -0.0000000  -0.0000033
   34    0.0000119  -0.0001634   0.0000001   0.0000000   0.0000006
   35    0.0000001   0.0021887   0.0000000  -0.0000000  -0.0000012
   36   -0.0000000  -0.0000554  -0.0000000  -0.0000000   0.0000005
   37    0.0000000  -0.0000237   0.0000000   0.0000000  -0.0000000
   38    0.0000000   0.0000307  -0.0000000  -0.0000000   0.0000001
   39    0.0000001   0.0026985   0.0000000  -0.0000000   0.0000386
   40    0.0000000   0.0000336  -0.0000000   0.0000000   0.0000073
   41   -0.0000000   0.0001586   0.0000002  -0.0000000  -0.0002277
   42    0.0000003  -0.0000386   0.0000030  -0.0000007   0.0000118
   43    0.0000000  -0.0000394  -0.0000000  -0.0000000   0.0000001
   44   -0.0000000  -0.0000384   0.0000003  -0.0000001  -0.0000043
   45    0.0000000   0.0000000   0.0000000   0.0008381   0.0000000
   46    0.0000000  -0.0000000  -0.0000000   0.0000029   0.0000000
   47    0.0000000  -0.0000000   0.0000000   0.0000019   0.0000000
   48   -0.0000000   0.0000000   0.0000000   0.0000293  -0.0000000
   49   -0.0000000   0.0000000  -0.0000000   0.0000146  -0.0000000
   50    0.0000000  -0.0000000   0.0000002   0.0016879   0.0000000

            31          32          33          34          35

   31    0.5155725
   32    0.0000000   0.4831867
   33   -0.0000007  -0.0000000   0.5070127
   34    0.0000009  -0.0000000  -0.0291075   0.5321584
   35   -0.0000005   0.0000000   0.0025675  -0.0000539   0.5484494
   36   -0.0000016  -0.0000000  -0.0000371  -0.0000404  -0.0275682
   37   -0.0000000   0.0000000  -0.0021444  -0.0013941  -0.0024427
   38   -0.0000002  -0.0000000   0.0029058  -0.0026719   0.0030265
   39    0.0000540   0.0000000   0.0000003  -0.0000001   0.0023613
   40   -0.0000228   0.0000000   0.0000003  -0.0000000   0.0000402
   41    0.0010551   0.0000000   0.0000004  -0.0000000   0.0000262
   42    0.0023141   0.0000000   0.0000003   0.0000001  -0.0000515
   43   -0.0000556  -0.0000000  -0.0000000  -0.0000003  -0.0000402
   44    0.0000341   0.0000000  -0.0000042   0.0000115  -0.0000309
   45   -0.0000000   0.0028898  -0.0000000  -0.0000000  -0.0000000
   46    0.0000000  -0.0014388  -0.0000000   0.0000000  -0.0000000
   47    0.0000000  -0.0010785  -0.0000000   0.0000000  -0.0000000
   48   -0.0000001  -0.0012138  -0.0000000  -0.0000000  -0.0000000
   49   -0.0000000  -0.0024239   0.0000000  -0.0000000  -0.0000000
   50   -0.0000000   0.0028599  -0.0000000   0.0000000   0.0000000

            36          37          38          39          40

   36    0.5352847
   37   -0.0014856   0.5444365
   38   -0.0017595  -0.0269050   0.5003055
   39    0.0000312  -0.0000005  -0.0000009   0.5362338
   40    0.0022278  -0.0000010   0.0000012  -0.0276213   0.5451689
   41   -0.0000604   0.0000004   0.0000010  -0.0263179  -0.0278455
   42   -0.0000309   0.0000004  -0.0000117  -0.0000300  -0.0000296
   43    0.0023846  -0.0000094   0.0000745  -0.0000223   0.0024597
   44    0.0000441   0.0000246   0.0001283  -0.0000483  -0.0000377
   45    0.0000000   0.0000000  -0.0000000   0.0000000   0.0000000
   46    0.0000000  -0.0000000  -0.0000000   0.0000000  -0.0000000
   47    0.0000000  -0.0000000  -0.0000000   0.0000000  -0.0000000
   48   -0.0000000   0.0000000   0.0000000  -0.0000000   0.0000000
   49   -0.0000000   0.0000000   0.0000000  -0.0000000   0.0000000
   50    0.0000000  -0.0000000  -0.0000000  -0.0000000  -0.0000000

            41          42          43          44          45

   41    0.5223121
   42    0.0014395   0.5145313
   43   -0.0000161  -0.0310008   0.5846966
   44   -0.0000132  -0.0210230  -0.0266589   0.4387503
   45    0.0000000  -0.0000000   0.0000000   0.0000000   0.5472234
   46    0.0000000   0.0000000  -0.0000000   0.0000000  -0.0310171
   47   -0.0000000   0.0000000  -0.0000000   0.0000000  -0.0259543
   48    0.0000000   0.0000001   0.0000000  -0.0000001  -0.0000448
   49   -0.0000000  -0.0000000   0.0000000  -0.0000000  -0.0000691
   50   -0.0000000   0.0000000  -0.0000000   0.0000000   0.0023657

            46          47          48          49          50

   46    0.5976137
   47   -0.0280183   0.5117870
   48   -0.0000788  -0.0000550   0.5211406
   49    0.0009478  -0.0000571  -0.0277145   0.5870170
   50   -0.0000010  -0.0000421  -0.0268497  -0.0319571   0.5511376

          TOTAL MULLIKEN AND LOWDIN ATOMIC POPULATIONS
       ATOM         MULL.POP.    CHARGE          LOW.POP.     CHARGE
    1 C             6.430537   -0.430537         6.074064   -0.074064
    2 C             6.251879   -0.251879         6.147900   -0.147900
    3 C             6.507879   -0.507879         6.239366   -0.239366
    4 C             6.525765   -0.525765         6.243213   -0.243213
    5 C             6.522100   -0.522100         6.245435   -0.245435
    6 C             6.526826   -0.526826         6.245448   -0.245448
    7 H             0.599520    0.400480         0.746163    0.253837
    8 H             0.604622    0.395378         0.742016    0.257984
    9 C             5.770933    0.229067         5.985315    0.014685
   10 C             5.634650    0.365350         5.899620    0.100380
   11 C             6.071598   -0.071598         6.184229   -0.184229
   12 O             8.660073   -0.660073         8.354209   -0.354209
   13 C             6.384553   -0.384553         6.147310   -0.147310
   14 C             6.325444   -0.325444         6.141384   -0.141384
   15 C             6.432360   -0.432360         6.168036   -0.168036
   16 O             8.803002   -0.803002         8.379625   -0.379625
   17 O             8.794833   -0.794833         8.370564   -0.370564
   18 C             6.322992   -0.322992         6.061549   -0.061549
   19 C             6.378032   -0.378032         6.170476   -0.170476
   20 C             6.221477   -0.221477         6.021284   -0.021284
   21 C             6.088428   -0.088428         6.067418   -0.067418
   22 C             6.006722   -0.006722         5.872561    0.127439
   23 C             4.973870    1.026130         5.648800    0.351200
   24 C             6.034015   -0.034015         6.274833   -0.274833
   25 C             6.020110   -0.020110         6.087523   -0.087523
   26 O             8.695420   -0.695420         8.316025   -0.316025
   27 H             0.807931    0.192069         0.937456    0.062544
   28 H             0.780750    0.219250         0.919229    0.080771
   29 H             0.833986    0.166014         0.935482    0.064518
   30 H             0.806971    0.193029         0.926870    0.073130
   31 H             0.786237    0.213763         0.912246    0.087754
   32 H             0.762390    0.237610         0.909511    0.090489
   33 H             0.777769    0.222231         0.911371    0.088629
   34 H             0.815423    0.184577         0.926608    0.073392
   35 H             0.817552    0.182448         0.931964    0.068036
   36 H             0.817050    0.182950         0.930638    0.069362
   37 H             0.817853    0.182147         0.930126    0.069874
   38 H             0.772654    0.227346         0.908938    0.091062
   39 H             0.821773    0.178227         0.925548    0.074452
   40 H             0.825473    0.174527         0.927467    0.072533
   41 H             0.809457    0.190543         0.919270    0.080730
   42 H             0.805504    0.194496         0.915648    0.084352
   43 H             0.846248    0.153752         0.938629    0.061371
   44 H             0.735924    0.264076         0.883208    0.116792
   45 H             0.825856    0.174144         0.926895    0.073105
   46 H             0.856459    0.143541         0.945860    0.054140
   47 H             0.802136    0.197864         0.914187    0.085813
   48 H             0.808941    0.191059         0.917864    0.082136
   49 H             0.849801    0.150199         0.941973    0.058027
   50 H             0.828223    0.171777         0.928646    0.071354

          -------------------------------
          BOND ORDER AND VALENCE ANALYSIS     BOND ORDER THRESHOLD=0.050
          -------------------------------

                   BOND                       BOND                       BOND
  ATOM PAIR DIST  ORDER      ATOM PAIR DIST  ORDER      ATOM PAIR DIST  ORDER
    1  13  1.538  0.923        1  21  1.592  0.841        1  23  1.547  0.836
    1  24  1.539  0.871        2  11  1.405  1.179        2  25  1.388  1.570
    2  29  1.087  0.960        3  20  1.544  0.921        3  39  1.097  0.936
    3  40  1.096  0.936        3  41  1.095  0.932        4  20  1.544  0.911
    4  42  1.095  0.929        4  43  1.097  0.932        4  44  1.092  0.903
    5  18  1.543  0.903        5  45  1.097  0.934        5  46  1.096  0.937
    5  47  1.095  0.935        6  18  1.541  0.914        6  48  1.095  0.936
    6  49  1.096  0.938        6  50  1.096  0.933        7  16  0.965  0.785
    8  17  0.970  0.783        9  10  1.413  1.417        9  16  1.382  0.722
    9  17  2.391  0.059        9  24  1.396  1.124       10  11  1.399  1.218
   10  17  1.369  0.760       11  18  1.523  0.920       11  24  2.862  0.052
   12  23  1.211  1.736       12  26  2.234  0.070       13  15  1.538  0.906
   13  33  1.096  0.914       13  34  1.100  0.928       14  15  1.534  0.916
   14  20  1.550  0.897       14  35  1.100  0.930       14  36  1.098  0.936
   15  37  1.097  0.934       15  38  1.096  0.902       18  32  1.094  0.911
   19  21  1.552  0.910       19  22  1.535  0.883       19  30  1.095  0.933
   19  31  1.094  0.911       20  21  1.562  0.892       21  27  1.099  0.919
   22  25  1.502  0.916       22  26  1.468  0.759       22  28  1.091  0.943
   23  26  1.356  0.871       24  25  1.409  1.162

                       TOTAL       BONDED        FREE
      ATOM            VALENCE     VALENCE     VALENCE
    1 C                 3.416       3.412       0.004
    2 C                 3.805       3.766       0.039
    3 C                 3.659       3.659       0.000
    4 C                 3.629       3.629       0.000
    5 C                 3.666       3.666       0.001
    6 C                 3.675       3.675       0.000
    7 H                 0.821       0.821       0.000
    8 H                 0.838       0.838      -0.000
    9 C                 3.480       3.364       0.116
   10 C                 3.497       3.427       0.070
   11 C                 3.570       3.296       0.273
   12 O                 1.900       1.899       0.001
   13 C                 3.607       3.607       0.000
   14 C                 3.579       3.579       0.000
   15 C                 3.592       3.592       0.000
   16 O                 1.661       1.660       0.001
   17 O                 1.672       1.671       0.001
   18 C                 3.565       3.560       0.005
   19 C                 3.587       3.587       0.000
   20 C                 3.517       3.517       0.000
   21 C                 3.445       3.444       0.002
   22 C                 3.435       3.435       0.000
   23 C                 3.418       3.417       0.001
   24 C                 3.327       3.186       0.141
   25 C                 3.636       3.610       0.026
   26 O                 1.764       1.764       0.000
   27 H                 0.912       0.912       0.000
   28 H                 0.922       0.922       0.000
   29 H                 0.946       0.945       0.000
   30 H                 0.919       0.919       0.000
   31 H                 0.913       0.913       0.000
   32 H                 0.907       0.907       0.000
   33 H                 0.913       0.913       0.000
   34 H                 0.929       0.929       0.000
   35 H                 0.921       0.921       0.000
   36 H                 0.924       0.924       0.000
   37 H                 0.920       0.920       0.000
   38 H                 0.918       0.918       0.000
   39 H                 0.928       0.928       0.000
   40 H                 0.928       0.928       0.000
   41 H                 0.923       0.923       0.000
   42 H                 0.924       0.924       0.000
   43 H                 0.929       0.929       0.000
   44 H                 0.896       0.896       0.000
   45 H                 0.927       0.927       0.000
   46 H                 0.931       0.931       0.000
   47 H                 0.921       0.921       0.000
   48 H                 0.923       0.923       0.000
   49 H                 0.929       0.929       0.000
   50 H                 0.927       0.927       0.000

          -----------------------------------------
          ATOMIC SPIN DENSITY AT THE NUCLEUS (A.U.)
          -----------------------------------------
                            SPIN DENS    ALPHA DENS     BETA DENS
    1  C            6.0    -0.0379249      47.16766      47.20559
    2  C            6.0    -0.0675400      46.95706      47.02460
    3  C            6.0     0.0007661      47.01043      47.00966
    4  C            6.0    -0.0013904      47.00062      47.00201
    5  C            6.0     0.0294787      47.02019      46.99071
    6  C            6.0     0.0207858      47.01187      46.99108
    7  H            1.0     0.0009663       0.17343       0.17247
    8  H            1.0     0.0000110       0.16907       0.16906
    9  C            6.0     0.0740920      47.00055      46.92645
   10  C            6.0    -0.0962653      46.93068      47.02695
   11  C            6.0     0.1463962      47.05096      46.90456
   12  O            8.0     0.0130431     116.91138     116.89834
   13  C            6.0     0.0031912      47.04405      47.04085
   14  C            6.0     0.0004441      47.05046      47.05001
   15  C            6.0    -0.0008777      47.03941      47.04029
   16  O            8.0     0.0173426     116.71715     116.69981
   17  O            8.0    -0.0139016     116.72231     116.73621
   18  C            6.0    -0.0374656      47.04912      47.08659
   19  C            6.0     0.0067411      47.05964      47.05290
   20  C            6.0    -0.0011895      47.12581      47.12700
   21  C            6.0     0.0450704      47.12179      47.07672
   22  C            6.0    -0.0107761      47.10861      47.11938
   23  C            6.0     0.0260264      47.02839      47.00236
   24  C            6.0     0.0823640      47.00555      46.92319
   25  C            6.0     0.0266053      47.02675      47.00015
   26  O            8.0     0.0090791     116.84441     116.83533
   27  H            1.0    -0.0003114       0.18708       0.18740
   28  H            1.0     0.0002584       0.18899       0.18873
   29  H            1.0     0.0045991       0.18882       0.18422
   30  H            1.0     0.0003250       0.18571       0.18538
   31  H            1.0    -0.0002921       0.18419       0.18448
   32  H            1.0     0.0021356       0.18620       0.18406
   33  H            1.0    -0.0006223       0.18345       0.18407
   34  H            1.0    -0.0005236       0.18529       0.18582
   35  H            1.0    -0.0000218       0.18470       0.18472
   36  H            1.0    -0.0000446       0.18521       0.18526
   37  H            1.0     0.0000955       0.18548       0.18539
   38  H            1.0     0.0001406       0.18367       0.18352
   39  H            1.0     0.0000344       0.18394       0.18391
   40  H            1.0     0.0001175       0.18427       0.18415
   41  H            1.0    -0.0000242       0.18387       0.18390
   42  H            1.0     0.0000066       0.18381       0.18380
   43  H            1.0     0.0001558       0.18530       0.18515
   44  H            1.0     0.0002010       0.18109       0.18089
   45  H            1.0    -0.0008987       0.18349       0.18439
   46  H            1.0     0.0003882       0.18620       0.18581
   47  H            1.0    -0.0006756       0.18298       0.18365
   48  H            1.0    -0.0006559       0.18323       0.18388
   49  H            1.0    -0.0000617       0.18578       0.18584
   50  H            1.0    -0.0007362       0.18403       0.18477

          ---------------------
          ELECTROSTATIC MOMENTS
          ---------------------

 POINT   1           X           Y           Z (BOHR)    CHARGE
                -0.119609    0.027064   -0.028410       -1.00 (A.U.)
         DX          DY          DZ         /D/  (DEBYE)
     4.494589   -2.640919   -3.998997    6.570218
 ...... END OF PROPERTY EVALUATION ......
 CPU     0: STEP CPU TIME=     0.23 TOTAL CPU TIME=        111.2 (      1.9 MIN)
 TOTAL WALL CLOCK TIME=        200.8 SECONDS, CPU UTILIZATION IS    55.36%
              1006845  WORDS OF DYNAMIC MEMORY USED
 EXECUTION OF GAMESS TERMINATED NORMALLY Mon May 25 18:26:24 2020
 DDI: 263640 bytes (0.3 MB / 0 MWords) used by master data server.
Note: The following floating-point exceptions are signalling: IEEE_DENORMALNote: The following floating-point exceptions are signalling: IEEE_DENORMALNote: The following floating-point exceptions are signalling: IEEE_DENORMALNote: The following floating-point exceptions are signalling:

 ----------------------------------------
 CPU timing information for all processes
 ========================================
 0: 110.320 + 0.884 = 111.204
 1: 110.169 + 0.547 = 110.717
 2: 110.211 + 0.432 = 110.644
 3: 110.799 + 0.437 = 111.237
 4: 108.197 + 0.511 = 108.708
 5: 109.377 + 0.414 = 109.791
 ----------------------------------------
Note: The following floating-point exceptions are signalling:

 IEEE_DENORMAL IEEE_DENORMAL
Note: The following floating-point exceptions are signalling: IEEE_DENORMAL

 ddikick.x: exited gracefully.
unset echo
----- accounting info -----
Files used on the master node pietdev were:
-rwxr-xr-x 1 piet piet     2074 mei 25 18:23 /home/piet/scr/carnesol_fukui_acid.F05*
-rw-r--r-- 1 piet piet 68812800 mei 25 18:26 /home/piet/scr/carnesol_fukui_acid.F10
ls: No match.
ls: No match.
ls: No match.
ma 25 mei 2020 18:26:27 CEST
0.120u 0.039s 3:24.01 0.0%	0+0k 0+8io 0pf+0w
