----- GAMESS execution script 'rungms' -----
This job is running on host pietdev
under operating system Linux at zo 17 mei 2020 12:15:54 CEST
Available scratch disk space (Kbyte units) at beginning of the job is
Filesystem     1K-blocks     Used Available Use% Mounted on
/dev/sda2      244568380 30346932 201728392  14% /
GAMESS temporary binary files will be written to /home/piet/scr
GAMESS supplementary output files will be written to /home/piet/gamess/scr
Copying input file formicacid_geoopt.inp to your run's scratch directory...
cp formicacid_geoopt.inp /home/piet/scr/formicacid_geoopt.F05
unset echo
 
Assuming a single but multicore node.
 
/home/piet/gamess/ddikick.x /home/piet/gamess/gamess.03.x formicacid_geoopt -ddi 1 6 pietdev:cpus=6 -scr /home/piet/scr

 Distributed Data Interface kickoff program.
 Initiating 6 compute processes on 1 nodes to run the following command:
 /home/piet/gamess/gamess.03.x formicacid_geoopt 

          ******************************************************
          *         GAMESS VERSION = 30 SEP 2019 (R2)          *
          *             FROM IOWA STATE UNIVERSITY             *
          * M.W.SCHMIDT, K.K.BALDRIDGE, J.A.BOATZ, S.T.ELBERT, *
          *   M.S.GORDON, J.H.JENSEN, S.KOSEKI, N.MATSUNAGA,   *
          *          K.A.NGUYEN, S.J.SU, T.L.WINDUS,           *
          *       TOGETHER WITH M.DUPUIS, J.A.MONTGOMERY       *
          *         J.COMPUT.CHEM.  14, 1347-1363(1993)        *
          **************** 64 BIT LINUX VERSION ****************

  SINCE 1993, STUDENTS AND POSTDOCS WORKING AT IOWA STATE UNIVERSITY
  AND ALSO IN THEIR VARIOUS JOBS AFTER LEAVING ISU HAVE MADE IMPORTANT
  CONTRIBUTIONS TO THE CODE:
     IVANA ADAMOVIC, CHRISTINE AIKENS, YURI ALEXEEV, POOJA ARORA,
     ANDREY ASADCHEV, ROB BELL, PRADIPTA BANDYOPADHYAY, JONATHAN BENTZ,
     COLLEEN BERTONI, BRETT BODE, KURT BRORSEN, CALEB CARLIN, GALINA CHABAN,
     WEI CHEN, CHEOL HO CHOI, PAUL DAY, ALBERT DEFUSCO, NUWAN DESILVA,
     TIM DUDLEY, DMITRI FEDOROV, ALEX FINDLATER, GRAHAM FLETCHER, 
     MARK FREITAG, KURT GLAESEMANN, EMILIE B GUIDEZ, ANASTASIA GUNINA, 
     DAN KEMP, SAROM SOK LEANG, GRANT MERRILL,
     NORIYUKI MINEZAWA, JONATHAN MULLIN,
     TAKESHI NAGATA, SEAN NEDD, HEATHER NETZLOFF, BOSILJKA NJEGIC, RYAN OLSON,
     MIKE PAK, BUU PHAM, DAVID POOLE,
     SPENCER PRUITT, LUKE ROSKOP, TOSAPORN SATTASATHUCHANA,
     JIM SHOEMAKER, LYUDMILA SLIPCHENKO,
     TONY SMITH, JIE SONG, TETSUYA TAKETSUGU, SIMON WEBB,
     JORGE LUIS GALVEZ VALLEJO, PENG XU, SOOHAENG YOO,
     FEDERICO ZAHARIEV

  ADDITIONAL CODE HAS BEEN PROVIDED BY COLLABORATORS IN OTHER GROUPS:
     IOWA STATE UNIVERSITY:
          JOE IVANIC, AARON WEST, LAIMUTIS BYTAUTAS, KLAUS RUEDENBERG
     UNIVERSITY OF TOKYO: KIMIHIKO HIRAO, TAKAHITO NAKAJIMA,
          TAKAO TSUNEDA, MUNEAKI KAMIYA, SUSUMU YANAGISAWA,
          KIYOSHI YAGI, MAHITO CHIBA, SEIKEN TOKURA, NAOAKI KAWAKAMI
     UNIVERSITY OF AARHUS: FRANK JENSEN
     UNIVERSITY OF IOWA: VISVALDAS KAIRYS, HUI LI
     NATIONAL INST. OF STANDARDS AND TECHNOLOGY: WALT STEVENS, DAVID GARMER
     UNIVERSITY OF PISA: BENEDETTA MENNUCCI, JACOPO TOMASI
     UNIVERSITY OF MEMPHIS: HENRY KURTZ, PRAKASHAN KORAMBATH
     UNIVERSITY OF ALBERTA: TOBY ZENG, MARIUSZ KLOBUKOWSKI
     UNIVERSITY OF NEW ENGLAND: MARK SPACKMAN
     MIE UNIVERSITY: HIROAKI UMEDA
     NAT. INST. OF ADVANCED INDUSTRIAL SCIENCE AND TECHNOLOGY: KAZUO KITAURA
     MICHIGAN STATE UNIVERSITY:
          KAROL KOWALSKI, MARTA WLOCH, JEFFREY GOUR, JESSE LUTZ,
          WEI LI, JUN SHEN, J. EMILIANO DEUSTUA, PIOTR PIECUCH
     UNIVERSITY OF MINNESOTA:
          ANDREW SAND, PRACHI SHARMA, YINAN SHU
     UNIVERSITY OF SILESIA: MONIKA MUSIAL, STANISLAW KUCHARSKI
     FACULTES UNIVERSITAIRES NOTRE-DAME DE LA PAIX:
          OLIVIER QUINET, BENOIT CHAMPAGNE
     UNIVERSITY OF CALIFORNIA - SANTA BARBARA: BERNARD KIRTMAN
     INSTITUTE FOR MOLECULAR SCIENCE:
          KAZUYA ISHIMURA, MICHIO KATOUDA, AND SHIGERU NAGASE
     UNIVERSITY OF NOTRE DAME: ANNA POMOGAEVA, DAN CHIPMAN
     KYUSHU UNIVERSITY:
          HARUYUKI NAKANO,
          FENG LONG GU, JACEK KORCHOWIEC, MARCIN MAKOWSKI, AND YURIKO AOKI,
          HIROTOSHI MORI AND EISAKU MIYOSHI
     PENNSYLVANIA STATE UNIVERSITY:
          TZVETELIN IORDANOV, CHET SWALINA, JONATHAN SKONE,
          SHARON HAMMES-SCHIFFER
     WASEDA UNIVERSITY:
          MASATO KOBAYASHI, TOMOKO AKAMA, TSUGUKI TOUMA,
          TAKESHI YOSHIKAWA, YASUHIRO IKABATA, JUNJI SEINO,
          YUYA NAKAJIMA, HIROMI NAKAI
     NANJING UNIVERSITY: SHUHUA LI
     UNIVERSITY OF NEBRASKA:
          PEIFENG SU, DEJUN SI, NANDUN THELLAMUREGE, YALI WANG, HUI LI
     UNIVERSITY OF ZURICH: ROBERTO PEVERATI, KIM BALDRIDGE
     N. COPERNICUS UNIVERSITY AND JACKSON STATE UNIVERSITY:
          MARIA BARYSZ
     UNIVERSITY OF COPENHAGEN: Jimmy Kromann, CASPER STEINMANN
     TOKYO INSTITUTE OF TECHNOLOGY: HIROYA NAKATA
     NAGOYA UNIVERSITY: YOSHIO NISHIMOTO, STEPHAN IRLE
     MOSCOW STATE UNIVERSITY: VLADIMIR MIRONOV
     A.N.NESMEYANOV INSTITUTE OF ORGANOELEMENT COMPOUNDS OF RUSSIAN ACADEMY OF SCIENCES:
          IGOR S. GERASIMOV
     JOHANNES KEPLER UNIVERSITY LINZ:
          CHRISTIAN FRIEDL


 PARALLEL VERSION RUNNING ON        6 PROCESSORS IN        1 NODES.

 EXECUTION OF GAMESS BEGUN Sun May 17 12:15:54 2020

            ECHO OF THE FIRST FEW INPUT CARDS -
 INPUT CARD> $BASIS GBASIS=N21 NGAUSS=3 $END                                                
 INPUT CARD> $CONTRL SCFTYP=RHF RUNTYP=OPTIMIZE DFTTYP=B3LYP MAXIT=60 MULT=1 ICHARG=0 $END  
 INPUT CARD> $SYSTEM MEMDDI=1000 MWORDS=30 $END                                             
 INPUT CARD> $STATPT NSTEP=999 $END                                                         
 INPUT CARD> $SCF DIRSCF=.TRUE. $END                                                        
 INPUT CARD> $DATA                                                                          
 INPUT CARD>                                                                                
 INPUT CARD>C1                                                                              
 INPUT CARD>C 6.0000000 -0.10502 -0.38185 0.00043                                           
 INPUT CARD>O 8.0000000 -1.14621 0.21181 0.00203                                            
 INPUT CARD>O 8.0000000 1.09264 0.24711 0.00180                                             
 INPUT CARD>H 1.0000000 -0.02408 -1.48683 -0.00228                                          
 INPUT CARD>H 1.0000000 1.80397 -0.41075 0.00003                                            
 INPUT CARD> $END                                                                           
   30000000 WORDS OF MEMORY AVAILABLE

     BASIS OPTIONS
     -------------
     GBASIS=N21          IGAUSS=       3      POLAR=NONE    
     NDFUNC=       0     NFFUNC=       0     DIFFSP=       F
     NPFUNC=       0      DIFFS=       F     BASNAM=        


     RUN TITLE
     ---------
                                                                                 

 THE POINT GROUP OF THE MOLECULE IS C1      
 THE ORDER OF THE PRINCIPAL AXIS IS     0

 ATOM      ATOMIC                      COORDINATES (BOHR)
           CHARGE         X                   Y                   Z
 C           6.0    -0.1984590232       -0.7215918684        0.0008125822
 O           8.0    -2.1660228244        0.4002628615        0.0038361438
 O           8.0     2.0647902032        0.4669701888        0.0034015068
 H           1.0    -0.0455046018       -2.8097012903       -0.0043085753
 H           1.0     3.4090089901       -0.7762049495        0.0000566918

          INTERNUCLEAR DISTANCES (ANGS.)
          ------------------------------

                1 C          2 O          3 O          4 H          5 H     

   1 C       0.0000000    1.1985455 *  1.3527683 *  1.1079438 *  1.9092088 *
   2 O       1.1985455 *  0.0000000    2.2391283 *  2.0358222 *  3.0151529  
   3 O       1.3527683 *  2.2391283 *  0.0000000    2.0624326 *  0.9689031 *
   4 H       1.1079438 *  2.0358222 *  2.0624326 *  0.0000000    2.1212544 *
   5 H       1.9092088 *  3.0151529    0.9689031 *  2.1212544 *  0.0000000  

  * ... LESS THAN  3.000


     ATOMIC BASIS SET
     ----------------
 THE CONTRACTED PRIMITIVE FUNCTIONS HAVE BEEN UNNORMALIZED
 THE CONTRACTED BASIS FUNCTIONS ARE NOW NORMALIZED TO UNITY

  SHELL TYPE  PRIMITIVE        EXPONENT          CONTRACTION COEFFICIENT(S)

 C         

      1   S       1           172.2560000    0.061766907377
      1   S       2            25.9109000    0.358794042852
      1   S       3             5.5333500    0.700713083689

      2   L       4             3.6649800   -0.395895162119    0.236459946619
      2   L       5             0.7705450    1.215834355681    0.860618805716

      3   L       6             0.1958570    1.000000000000    1.000000000000

 O         

      4   S       7           322.0370000    0.059239393389
      4   S       8            48.4308000    0.351499960776
      4   S       9            10.4206000    0.707657921031

      5   L      10             7.4029400   -0.404453583190    0.244586106967
      5   L      11             1.5762000    1.221561761397    0.853955373466

      6   L      12             0.3736840    1.000000000000    1.000000000000

 O         

      7   S      13           322.0370000    0.059239393389
      7   S      14            48.4308000    0.351499960776
      7   S      15            10.4206000    0.707657921031

      8   L      16             7.4029400   -0.404453583190    0.244586106967
      8   L      17             1.5762000    1.221561761397    0.853955373466

      9   L      18             0.3736840    1.000000000000    1.000000000000

 H         

     10   S      19             5.4471780    0.156284978695
     10   S      20             0.8245472    0.904690876670

     11   S      21             0.1831916    1.000000000000

 H         

     12   S      22             5.4471780    0.156284978695
     12   S      23             0.8245472    0.904690876670

     13   S      24             0.1831916    1.000000000000

 TOTAL NUMBER OF BASIS SET SHELLS             =   13
 NUMBER OF CARTESIAN GAUSSIAN BASIS FUNCTIONS =   31
 NUMBER OF ELECTRONS                          =   24
 CHARGE OF MOLECULE                           =    0
 SPIN MULTIPLICITY                            =    1
 NUMBER OF OCCUPIED ORBITALS (ALPHA)          =   12
 NUMBER OF OCCUPIED ORBITALS (BETA )          =   12
 TOTAL NUMBER OF ATOMS                        =    5
 THE NUCLEAR REPULSION ENERGY IS       69.7783509308

 SELECTED MURRAY-HANDY-LAMING RADIAL GRID

 LEGACY BECKE'S FUZZY CELL METHOD

 SELECTED ORIGINAL BECKE'S PARTITION FUNCTION

     LEBEDEV GRID-BASED DFT OPTIONS
     ------------------------------
     DFTTYP=B3LYP   
     NRAD  =      96     NLEB  =     302
     NRAD0 =      24     NLEB0 =     110
     SWOFF =    5.00E-03 (PURE SCF -> DFT)
     SWITCH=    3.00E-04 (COARSE -> TIGHT GRID)
     THRESH=    0.00E+00 GTHRE=    1.00E+00

 GRIMME'S EMPIRICAL DISPERSION CORRECTION= F

     $CONTRL OPTIONS
     ---------------
 SCFTYP=RHF          RUNTYP=OPTIMIZE     EXETYP=RUN     
 MPLEVL=       0     CITYP =NONE         CCTYP =NONE         VBTYP =NONE    
 DFTTYP=B3LYP        TDDFT =NONE    
 MULT  =       1     ICHARG=       0     NZVAR =       0     COORD =UNIQUE  
 PP    =NONE         RELWFN=NONE         LOCAL =NONE         NUMGRD=       F
 ISPHER=      -1     NOSYM =       0     MAXIT =      60     UNITS =ANGS    
 PLTORB=       F     MOLPLT=       F     AIMPAC=       F     FRIEND=        
 NPRINT=       7     IREST =       0     GEOM  =INPUT   
 NORMF =       0     NORMP =       0     ITOL  =      20     ICUT  =       9
 INTTYP=BEST         GRDTYP=BEST         QMTTOL= 1.0E-06

     $SYSTEM OPTIONS
     ---------------
  REPLICATED MEMORY=    30000000 WORDS (ON EVERY NODE).
 DISTRIBUTED MEMDDI=        1000 MILLION WORDS IN AGGREGATE,
 MEMDDI DISTRIBUTED OVER   6 PROCESSORS IS   166666666 WORDS/PROCESSOR.
 TOTAL MEMORY REQUESTED ON EACH PROCESSOR=   196666666 WORDS.
 TIMLIM=      525600.00 MINUTES, OR     365.0 DAYS.
 PARALL= T  BALTYP=  DLB     KDIAG=    0  COREFL= F
 MXSEQ2=     300 MXSEQ3=     150  mem10=         0

          ----------------
          PROPERTIES INPUT
          ----------------

     MOMENTS            FIELD           POTENTIAL          DENSITY
 IEMOM =       1   IEFLD =       0   IEPOT =       0   IEDEN =       0
 WHERE =COMASS     WHERE =NUCLEI     WHERE =NUCLEI     WHERE =NUCLEI  
 OUTPUT=BOTH       OUTPUT=BOTH       OUTPUT=BOTH       OUTPUT=BOTH    
 IEMINT=       0   IEFINT=       0                     IEDINT=       0
                                                       MORB  =       0
          EXTRAPOLATION IN EFFECT
          DIIS IN EFFECT
 ORBITAL PRINTING OPTION: NPREO=     1    31     2     1

     -------------------------------
     INTEGRAL TRANSFORMATION OPTIONS
     -------------------------------
     NWORD  =            0
     CUTOFF = 1.0E-09     MPTRAN =       0
     DIRTRF =       T     AOINTS =DUP     

          ----------------------
          INTEGRAL INPUT OPTIONS
          ----------------------
 NOPK  =       1 NORDER=       0 SCHWRZ=       T

     ------------------------------------------
     THE POINT GROUP IS C1 , NAXIS= 0, ORDER= 1
     ------------------------------------------

     DIMENSIONS OF THE SYMMETRY SUBSPACES ARE
 A   =   31

 ..... DONE SETTING UP THE RUN .....
 CPU     0: STEP CPU TIME=     0.02 TOTAL CPU TIME=          0.0 (      0.0 MIN)
 TOTAL WALL CLOCK TIME=          0.0 SECONDS, CPU UTILIZATION IS   100.00%


          -----------------------------
          STATIONARY POINT LOCATION RUN
          -----------------------------

 OBTAINING INITIAL HESSIAN, HESS=GUESS   
 CARTESIAN COORDINATE OPTIMIZATION USING BADGER'S RULE FORCE CONSTANT GUESS

          PARAMETERS CONTROLLING GEOMETRY SEARCH ARE
          METHOD =QA                  UPHESS =BFGS    
          NNEG   =         0          NFRZ   =         0
          NSTEP  =       999          IFOLOW =         1
          HESS   =GUESS               RESTAR =         F
          IHREP  =         0          HSSEND =         F
          NPRT   =         0          NPUN   =         0
          OPTTOL = 1.000E-04          RMIN   = 1.500E-03
          RMAX   = 1.000E-01          RLIM   = 7.000E-02
          DXMAX  = 3.000E-01          PURIFY =         F
          MOVIE  =         F          TRUPD  =         T
          TRMAX  = 5.000E-01          TRMIN  = 5.000E-02
          ITBMAT =         5          STPT   =         F
          STSTEP = 1.000E-02          PROJCT=          T

 BEGINNING GEOMETRY SEARCH POINT NSERCH=   0 ...

 COORDINATES OF ALL ATOMS ARE (ANGS)
   ATOM   CHARGE       X              Y              Z
 ------------------------------------------------------------
 C           6.0  -0.1050200000  -0.3818500000   0.0004300000
 O           8.0  -1.1462100000   0.2118100000   0.0020300000
 O           8.0   1.0926400000   0.2471100000   0.0018000000
 H           1.0  -0.0240800000  -1.4868300000  -0.0022800000
 H           1.0   1.8039700000  -0.4107500000   0.0000300000

          ********************
          1 ELECTRON INTEGRALS
          ********************
 ...... END OF ONE-ELECTRON INTEGRALS ......
 CPU     0: STEP CPU TIME=     0.01 TOTAL CPU TIME=          0.0 (      0.0 MIN)
 TOTAL WALL CLOCK TIME=          0.0 SECONDS, CPU UTILIZATION IS   100.00%

          -------------
          GUESS OPTIONS
          -------------
          GUESS =HUCKEL            NORB  =       0          NORDER=       0
          MIX   =       F          PRTMO =       F          PUNMO =       F
          TOLZ  = 1.0E-08          TOLE  = 1.0E-05
          SYMDEN=       F          PURIFY=       F

 INITIAL GUESS ORBITALS GENERATED BY HUCKEL   ROUTINE.
 HUCKEL GUESS REQUIRES     11924 WORDS.

 SYMMETRIES FOR INITIAL GUESS ORBITALS FOLLOW.   BOTH SET(S).
    12 ORBITALS ARE OCCUPIED (    3 CORE ORBITALS).
     4=A        5=A        6=A        7=A        8=A        9=A       10=A   
    11=A       12=A       13=A       14=A       15=A       16=A       17=A   
    18=A       19=A       20=A       21=A       22=A   
 ...... END OF INITIAL ORBITAL SELECTION ......
 CPU     0: STEP CPU TIME=     0.00 TOTAL CPU TIME=          0.0 (      0.0 MIN)
 TOTAL WALL CLOCK TIME=          0.0 SECONDS, CPU UTILIZATION IS    75.00%

                    ----------------------
                    AO INTEGRAL TECHNOLOGY
                    ----------------------
     S,P,L SHELL ROTATED AXIS INTEGRALS, REPROGRAMMED BY
        KAZUYA ISHIMURA (IMS) AND JOSE SIERRA (SYNSTAR).
     S,P,D,L SHELL ROTATED AXIS INTEGRALS PROGRAMMED BY
        KAZUYA ISHIMURA (INSTITUTE FOR MOLECULAR SCIENCE).
     S,P,D,F,G SHELL TO TOTAL QUARTET ANGULAR MOMENTUM SUM 5,
        ERIC PROGRAM BY GRAHAM FLETCHER (ELORET AND NASA ADVANCED
        SUPERCOMPUTING DIVISION, AMES RESEARCH CENTER).
     S,P,D,F,G,L SHELL GENERAL RYS QUADRATURE PROGRAMMED BY
        MICHEL DUPUIS (PACIFIC NORTHWEST NATIONAL LABORATORY).

          --------------------
          2 ELECTRON INTEGRALS
          --------------------

 DIRECT SCF METHOD SKIPS INTEGRAL STORAGE ON DISK.
 DIRECT TRANSFORMATION SKIPS AO INTEGRAL STORAGE ON DISK.
  ...... END OF TWO-ELECTRON INTEGRALS .....
 CPU     0: STEP CPU TIME=     0.01 TOTAL CPU TIME=          0.0 (      0.0 MIN)
 TOTAL WALL CLOCK TIME=          0.1 SECONDS, CPU UTILIZATION IS    80.00%

          --------------------------
             R-B3LYP SCF CALCULATION
          --------------------------

     NUCLEAR ENERGY =        69.7783509308
     MAXIT =   60     NPUNCH=    2
     EXTRAP=T  DAMP=F  SHIFT=F  RSTRCT=F  DIIS=T  DEM=F  SOSCF=F
         DENSITY MATRIX CONVERGENCE THRESHOLD=  2.00E-05
     COARSE -> FINE DFT GRID SWITCH THRESHOLD=  3.00E-04 (SWITCH IN $DFT)
                   HF -> DFT SWITCH THRESHOLD=  5.00E-03 (SWOFF IN $DFT)
     MEMORY REQUIRED FOR RHF ITERS=    248306 WORDS.

 DIRECT SCF CALCULATION, SCHWRZ=T   FDIFF=T,  DIRTHR=  0.00E+00 NITDIR=10
 SCHWARZ INEQUALITY OVERHEAD:       495 INTEGRALS, T=        0.00

 DFT CODE IS SWITCHING FROM THE FINE GRID NRAD= 96,  NLEB=  302
                      TO THE COARSE GRID NRAD0= 24, NLEB0=  110

     EXCHANGE FUNCTIONAL   =B88&HFX   
     CORRELATION FUNCTIONAL=LYP88&VWN5
     DFT THRESHOLD         =.276E-07
     GRID CHANGE THRESHOLD =.300E-03
 FOR AN EULER-MACLAURIN QUADRATURE USING  96 RADIAL POINTS:
 SMALLEST GAUSSIAN PRIMITIVE EXPONENT=        0.1831915800 OF TYPE -S-
 ON ATOM NUMBER   4 HAS RADIAL NORMALIZATION=  1.000000
  LARGEST GAUSSIAN PRIMITIVE EXPONENT=      322.0370000000 OF TYPE -S-
 ON ATOM NUMBER   2 HAS RADIAL NORMALIZATION=  1.000000
 DFT IS SWITCHED OFF, PERFORMING PURE SCF UNTIL SWOFF THRESHOLD IS REACHED.

                                                                                   NONZERO     BLOCKS
 ITER EX DEM     TOTAL ENERGY        E CHANGE  DENSITY CHANGE    DIIS ERROR      INTEGRALS    SKIPPED
   1  0  0     -187.1131865253  -187.1131865253   0.721589878   0.709043243         111060        434
          * * *   INITIATING DIIS PROCEDURE   * * *
   2  1  0     -187.6190855344    -0.5058990090   0.117425002   0.180223472         111044        484
   3  2  0     -187.6543579429    -0.0352724086   0.060184508   0.136561140         110982        517
   4  3  0     -187.6865691378    -0.0322111949   0.023350797   0.013730011         110911        539
   5  4  0     -187.6872667028    -0.0006975649   0.004315487   0.004976176         110731        581
 CONVERGED TO SWOFF, SO DFT CALCULATION IS NOW SWITCHED ON.
          * * *   INITIATING DIIS PROCEDURE   * * *
   6  5  0     -188.5752398318    -0.8879731290   0.081833855   0.084699892         111059        435
   7  6  0     -188.5898791449    -0.0146393131   0.057927033   0.063167818         111005        512
   8  7  0     -188.5892844834     0.0005946615   0.031131551   0.076301074         110919        542
   9  8  0     -188.5948828937    -0.0055984103   0.009138245   0.020017147         110868        558
  10  9  0     -188.5952849866    -0.0004020929   0.002589719   0.006490818         110711        584
  11 10  0     -188.5953336119    -0.0000486253   0.000902175   0.000598934         110284        637
  12 11  0     -188.5953345638    -0.0000009519   0.000078217   0.000107741         109827        671
 DFT CODE IS SWITCHING BACK TO THE FINE GRID
          * * *   INITIATING DIIS PROCEDURE   * * *
  13 12  0     -188.5956900237    -0.0003554599   0.001246921   0.001544643         111060        432
  14 13  0     -188.5957015118    -0.0000114882   0.001076028   0.001100475         110117        656
  15 14  0     -188.5957010639     0.0000004479   0.000484184   0.001254639         110007        666
  16 15  0     -188.5957030631    -0.0000019992   0.000151908   0.000316898         109775        687
  17 16  0     -188.5957031704    -0.0000001073   0.000033281   0.000073577         109068        768
  18 17  0     -188.5957031784    -0.0000000081   0.000010293   0.000010606         108006        837
  19 18  0     -188.5957031787    -0.0000000002   0.000002203   0.000001587         105925        958

          -----------------
          DENSITY CONVERGED
          -----------------
     TIME TO FORM FOCK OPERATORS=       0.7 SECONDS (       0.0 SEC/ITER)
     FOCK TIME ON FIRST ITERATION=       0.0, LAST ITERATION=       0.1
     TIME TO SOLVE SCF EQUATIONS=       0.1 SECONDS (       0.0 SEC/ITER)

 FINAL R-B3LYP ENERGY IS     -188.5957031787 AFTER  19 ITERATIONS
 DFT EXCHANGE + CORRELATION ENERGY =       -18.7307260971
 TOTAL ELECTRON NUMBER             =        23.9999920942

          ------------
          EIGENVECTORS
          ------------

                      1          2          3          4          5
                  -19.0881   -19.0340   -10.2606    -1.1167    -1.0426
                     A          A          A          A          A   
    1  C  1  S   -0.000375   0.000287   0.984788  -0.127720  -0.055122
    2  C  1  S   -0.000545   0.001119   0.101805   0.145054   0.062619
    3  C  1  X    0.001987  -0.002153  -0.000835  -0.003468  -0.203711
    4  C  1  Y    0.000944   0.000849   0.000703   0.081271   0.052719
    5  C  1  Z    0.000002   0.000002   0.000002   0.000199   0.000158
    6  C  1  S    0.016217   0.020918  -0.039383   0.117882   0.053194
    7  C  1  X    0.011009  -0.016022  -0.003791   0.017235   0.023204
    8  C  1  Y    0.007839   0.014206   0.011930  -0.048149  -0.023797
    9  C  1  Z    0.000018   0.000037   0.000030  -0.000120  -0.000061
   10  O  2  S    0.002124   0.982640   0.000352  -0.117438  -0.174345
   11  O  2  S    0.000816   0.106439   0.001193   0.109862   0.169190
   12  O  2  X    0.000426   0.004155  -0.000862   0.087361   0.108499
   13  O  2  Y    0.000524  -0.002138   0.000854  -0.042731  -0.069190
   14  O  2  Z    0.000001  -0.000006   0.000002  -0.000117  -0.000185
   15  O  2  S   -0.002083  -0.058519  -0.004420   0.357310   0.531863
   16  O  2  X   -0.003260  -0.014400  -0.006897   0.089378   0.094773
   17  O  2  Y   -0.002651   0.006910   0.001674  -0.033452  -0.060968
   18  O  2  Z   -0.000006   0.000019   0.000005  -0.000094  -0.000163
   19  O  3  S    0.982508  -0.001960   0.000249  -0.172357   0.140400
   20  O  3  S    0.105542   0.000425   0.001491   0.159713  -0.135079
   21  O  3  X   -0.001494  -0.000300  -0.000303  -0.037463  -0.007933
   22  O  3  Y   -0.003557   0.000796   0.000081  -0.084364   0.075861
   23  O  3  Z   -0.000009   0.000002   0.000000  -0.000205   0.000191
   24  O  3  S   -0.052026  -0.002162  -0.000222   0.526887  -0.440683
   25  O  3  X    0.006939   0.003292   0.003619  -0.053502   0.000085
   26  O  3  Y    0.008661  -0.003767   0.000162  -0.084042   0.085817
   27  O  3  Z    0.000021  -0.000010  -0.000000  -0.000202   0.000214
   28  H  4  S   -0.000620   0.000168  -0.002122   0.027394   0.005138
   29  H  4  S    0.000397   0.003638   0.016978  -0.024100  -0.020623
   30  H  5  S    0.003184  -0.001532  -0.000557   0.080180  -0.079059
   31  H  5  S    0.004951   0.001881   0.002624   0.005310  -0.025550

                      6          7          8          9         10
                   -0.6323    -0.5797    -0.4418    -0.4309    -0.3772
                     A          A          A          A          A   
    1  C  1  S   -0.135520   0.062775   0.000003   0.045983   0.026020
    2  C  1  S    0.164391  -0.066364  -0.000005  -0.079422  -0.047459
    3  C  1  X    0.168386   0.076664   0.000046   0.286265  -0.012847
    4  C  1  Y   -0.036981   0.321506  -0.000806  -0.098488  -0.201503
    5  C  1  Z   -0.000111   0.000778   0.324067  -0.000287  -0.000509
    6  C  1  S    0.367221  -0.197081  -0.000006  -0.084773   0.026533
    7  C  1  X    0.084459  -0.003134   0.000039   0.082327  -0.123573
    8  C  1  Y   -0.077661   0.223602  -0.000740  -0.020124  -0.009078
    9  C  1  Z   -0.000200   0.000550   0.300787  -0.000067  -0.000021
   10  O  2  S    0.075647  -0.017039  -0.000004  -0.114638  -0.023289
   11  O  2  S   -0.076299   0.022122   0.000004   0.095164   0.028679
   12  O  2  X    0.041789   0.050563   0.000022  -0.321744  -0.224360
   13  O  2  Y   -0.007200   0.117745  -0.000633   0.213975  -0.049226
   14  O  2  Z   -0.000022   0.000282   0.258776   0.000564  -0.000111
   15  O  2  S   -0.265846   0.036288   0.000015   0.495918   0.022216
   16  O  2  X    0.039698   0.029611   0.000019  -0.285804  -0.244585
   17  O  2  Y    0.001883   0.096779  -0.000570   0.187697  -0.032852
   18  O  2  Z   -0.000000   0.000233   0.232956   0.000495  -0.000068
   19  O  3  S    0.048323  -0.044436  -0.000006   0.030503  -0.086516
   20  O  3  S   -0.048002   0.044535   0.000005  -0.027298   0.076225
   21  O  3  X   -0.328247  -0.205899   0.000053  -0.097960  -0.007767
   22  O  3  Y   -0.000565   0.128581  -0.000730  -0.171070   0.391083
   23  O  3  Z    0.000058   0.000352   0.300469  -0.000408   0.000963
   24  O  3  S   -0.183067   0.177881   0.000023  -0.121836   0.392188
   25  O  3  X   -0.275698  -0.167940   0.000054  -0.093686   0.014549
   26  O  3  Y    0.003289   0.106996  -0.000739  -0.181549   0.394005
   27  O  3  Z    0.000058   0.000293   0.304138  -0.000435   0.000967
   28  H  4  S    0.124851  -0.205434   0.000005   0.015157   0.115196
   29  H  4  S    0.027261  -0.111733   0.000006   0.044002   0.158452
   30  H  5  S   -0.186673  -0.131285  -0.000006  -0.002763  -0.151742
   31  H  5  S   -0.130614  -0.092118  -0.000003  -0.005242  -0.108982

                     11         12         13         14         15
                   -0.3096    -0.2719     0.0131     0.0743     0.1424
                     A          A          A          A          A   
    1  C  1  S    0.000000  -0.012054   0.000001   0.023140  -0.147839
    2  C  1  S    0.000000   0.006756   0.000000  -0.014454   0.090792
    3  C  1  X   -0.000019   0.016549   0.000067   0.046179   0.116868
    4  C  1  Y    0.000275  -0.059937  -0.001140   0.169317  -0.212730
    5  C  1  Z   -0.109903  -0.000149   0.467588   0.000402  -0.000532
    6  C  1  S   -0.000005   0.074580  -0.000015  -0.361371   1.669859
    7  C  1  X   -0.000005   0.117935   0.000077  -0.058319   0.193206
    8  C  1  Y    0.000197   0.151592  -0.001470   0.367119  -0.540534
    9  C  1  Z   -0.082324   0.000354   0.604586   0.000895  -0.001343
   10  O  2  S    0.000000   0.001212   0.000000   0.008049   0.023012
   11  O  2  S   -0.000001  -0.000229  -0.000000  -0.004837  -0.022264
   12  O  2  X   -0.000042   0.205115  -0.000052  -0.069993  -0.080828
   13  O  2  Y    0.000842   0.429921   0.000856  -0.091491   0.065721
   14  O  2  Z   -0.346136   0.001017  -0.350688  -0.000210   0.000170
   15  O  2  S    0.000005  -0.016235  -0.000004  -0.083890  -0.174606
   16  O  2  X   -0.000046   0.206727  -0.000073  -0.104291  -0.124099
   17  O  2  Y    0.000927   0.452203   0.001210  -0.124108   0.152862
   18  O  2  Z   -0.381801   0.001071  -0.495551  -0.000282   0.000388
   19  O  3  S   -0.000000   0.021708   0.000002   0.087312   0.064460
   20  O  3  S    0.000000  -0.004439  -0.000002  -0.051997  -0.045088
   21  O  3  X    0.000069   0.136467  -0.000040  -0.193789   0.084728
   22  O  3  Y   -0.001019   0.137533   0.000547   0.175144   0.155499
   23  O  3  Z    0.406803   0.000324  -0.221538   0.000477   0.000371
   24  O  3  S    0.000003  -0.212288  -0.000012  -0.753684  -0.557223
   25  O  3  X    0.000080   0.195450  -0.000058  -0.365601   0.158522
   26  O  3  Y   -0.001191   0.190732   0.000745   0.293880   0.307342
   27  O  3  Z    0.475921   0.000447  -0.301584   0.000809   0.000735
   28  H  4  S   -0.000008   0.163075   0.000003  -0.008888  -0.108594
   29  H  4  S   -0.000012   0.321927   0.000016   0.525179  -1.635691
   30  H  5  S   -0.000001   0.027448   0.000009   0.145023   0.024796
   31  H  5  S   -0.000004   0.059810   0.000020   1.204995   0.343760

                     16         17         18         19         20
                    0.3172     0.3391     0.6757     0.7274     0.8174
                     A          A          A          A          A   
    1  C  1  S   -0.036944   0.085302  -0.000000  -0.002883   0.052721
    2  C  1  S    0.039668   0.004759  -0.000000  -0.202891  -0.133016
    3  C  1  X    0.349586  -0.043640  -0.000156  -0.923451   0.628951
    4  C  1  Y    0.285898  -0.316435   0.002513  -0.425335  -0.752178
    5  C  1  Z    0.000649  -0.000766  -1.029946  -0.000897  -0.001929
    6  C  1  S    0.072234  -1.116515   0.000005   0.482353  -0.447736
    7  C  1  X    1.468236   1.062394   0.000170   1.131555  -0.454124
    8  C  1  Y    0.453225  -1.171861  -0.002789   1.188996   1.400272
    9  C  1  Z    0.000903  -0.003016   1.144309   0.002731   0.003484
   10  O  2  S   -0.046686  -0.122522   0.000000   0.032960  -0.028980
   11  O  2  S    0.006831   0.057094  -0.000001  -0.041550   0.050583
   12  O  2  X   -0.046846   0.212754  -0.000009  -0.174486   0.173979
   13  O  2  Y   -0.204257  -0.041713   0.000119  -0.049325  -0.263649
   14  O  2  Z   -0.000493  -0.000133  -0.048458  -0.000094  -0.000668
   15  O  2  S    0.683298   1.489921  -0.000002  -0.113677  -0.226284
   16  O  2  X    0.043855   0.679153  -0.000026  -0.346170   0.156403
   17  O  2  Y   -0.453723  -0.213363   0.000390  -0.086584  -0.239454
   18  O  2  Z   -0.001117  -0.000619  -0.159315  -0.000160  -0.000607
   19  O  3  S    0.067622  -0.039262   0.000001   0.012372   0.024096
   20  O  3  S   -0.035369   0.051452  -0.000002   0.035686  -0.033680
   21  O  3  X    0.304031  -0.196780  -0.000019  -0.108310  -0.032601
   22  O  3  Y    0.096697   0.079553   0.000195  -0.163100  -0.058718
   23  O  3  Z    0.000186   0.000222  -0.078954  -0.000385  -0.000130
   24  O  3  S   -0.737448   0.129269  -0.000011  -0.662776  -0.123793
   25  O  3  X    0.706464  -0.373813  -0.000022   0.235545   0.069931
   26  O  3  Y    0.211250   0.181560   0.000365   0.019411  -0.063655
   27  O  3  Z    0.000402   0.000498  -0.148545   0.000015  -0.000162
   28  H  4  S   -0.022014   0.094280   0.000000   0.054125   0.431127
   29  H  4  S    0.465704  -0.706882  -0.000000   0.492857   0.544245
   30  H  5  S   -0.099444  -0.074652   0.000008   0.092791   0.303996
   31  H  5  S   -0.533895   0.200884   0.000006  -0.360417  -0.092718

                     21         22         23         24         25
                    0.8598     0.9913     1.2298     1.4192     1.5433
                     A          A          A          A          A   
    1  C  1  S    0.010786  -0.035351   0.053820  -0.000000   0.000020
    2  C  1  S   -0.336023   0.043827  -1.529468   0.000031   0.000409
    3  C  1  X    0.170308   0.026891   0.016116   0.000009  -0.000187
    4  C  1  Y   -0.504728  -0.203200   0.329523  -0.000072  -0.000066
    5  C  1  Z   -0.001259  -0.000496   0.000805   0.028034   0.032370
    6  C  1  S    0.000807  -0.279520   2.566681  -0.000036  -0.000094
    7  C  1  X   -0.186756   0.385177   0.305208  -0.000040  -0.000399
    8  C  1  Y    0.543054  -0.130588  -0.690607   0.000395   0.001552
    9  C  1  Z    0.001363  -0.000390  -0.001736  -0.149097  -0.502530
   10  O  2  S   -0.005629  -0.019044   0.001839   0.000001   0.000055
   11  O  2  S   -0.000928   0.009089  -0.001006  -0.000002  -0.000176
   12  O  2  X    0.177544   0.008271   0.312086   0.000065   0.000377
   13  O  2  Y    0.022269   0.091229  -0.075461  -0.001138   0.001770
   14  O  2  Z    0.000027   0.000226  -0.000226   0.464792  -0.913962
   15  O  2  S   -0.144713   0.313102  -0.222338  -0.000009  -0.000271
   16  O  2  X    0.040885   0.133650  -0.247358  -0.000063  -0.000632
   17  O  2  Y   -0.102446  -0.105662   0.107150   0.001007  -0.001965
   18  O  2  Z   -0.000258  -0.000276   0.000296  -0.411277   1.053346
   19  O  3  S   -0.018792   0.025333   0.021275   0.000001  -0.000021
   20  O  3  S    0.023031  -0.060449  -0.020051  -0.000005   0.000079
   21  O  3  X    0.053350  -0.096969  -0.188282  -0.000154  -0.000039
   22  O  3  Y   -0.114325   0.405378   0.068739   0.002248   0.001497
   23  O  3  Z   -0.000303   0.001020   0.000186  -0.912164  -0.461055
   24  O  3  S   -0.060424   0.058763  -0.340269   0.000000   0.000068
   25  O  3  X    0.187243  -0.119038   0.341780   0.000152   0.000079
   26  O  3  Y   -0.147581  -0.011412   0.124359  -0.002285  -0.001924
   27  O  3  Z   -0.000396  -0.000003   0.000264   0.927363   0.576569
   28  H  4  S   -0.884342  -0.794678   0.096194   0.000009   0.000036
   29  H  4  S    0.979041   0.703921  -1.173030   0.000020   0.000204
   30  H  5  S   -0.757641   0.992541   0.189770   0.000008  -0.000167
   31  H  5  S    0.439776  -0.918822  -0.395977   0.000012   0.000074

                     26         27         28         29         30
                    1.5441     1.5798     1.6587     1.7951     2.9629
                     A          A          A          A          A   
    1  C  1  S   -0.024089  -0.002851  -0.009114  -0.011048   0.035984
    2  C  1  S   -0.495730   0.512920   0.018028   0.104876   0.061346
    3  C  1  X    0.234129   0.069840   0.118887   0.072751  -0.253219
    4  C  1  Y   -0.020770   0.110087   0.157019  -0.068984  -0.056047
    5  C  1  Z   -0.000057   0.000262   0.000368  -0.000175  -0.000100
    6  C  1  S    0.095415   0.167097   0.436698  -0.059632  -0.615813
    7  C  1  X    0.378757   0.475399  -0.159870  -0.002422  -0.915204
    8  C  1  Y   -0.378742   0.297434  -0.881915   1.241937  -0.178787
    9  C  1  Z   -0.001399   0.000646  -0.002131   0.003046  -0.000306
   10  O  2  S   -0.067172   0.013936  -0.008509   0.014485  -0.018463
   11  O  2  S    0.213597  -0.018079   0.055138  -0.043097   0.469901
   12  O  2  X   -0.630859   0.525821  -0.437579  -0.186425   0.012911
   13  O  2  Y    0.556626   0.209112  -0.748124   0.274070  -0.098451
   14  O  2  Z    0.000698   0.000417  -0.001766   0.000698  -0.000243
   15  O  2  S    0.322404   0.010873   0.024223  -0.289478  -0.731774
   16  O  2  X    0.965422  -0.718155   0.560636   0.044278  -0.065006
   17  O  2  Y   -0.734859  -0.245126   0.970700  -0.458032   0.339185
   18  O  2  Z   -0.001065  -0.000473   0.002292  -0.001130   0.000839
   19  O  3  S    0.025505   0.054591   0.003368  -0.006180   0.060804
   20  O  3  S   -0.093700  -0.211624  -0.039675  -0.033666  -1.637761
   21  O  3  X   -0.035444  -0.535949  -0.432348  -0.751032   0.148079
   22  O  3  Y   -0.420944  -0.558198  -0.243161   0.563027   0.190218
   23  O  3  Z   -0.001416  -0.001290  -0.000525   0.001516   0.000449
   24  O  3  S   -0.077564  -0.159888   0.222710   0.007467   2.351426
   25  O  3  X    0.000726   0.829548   0.463973   1.386919  -0.439677
   26  O  3  Y    0.591684   0.739272   0.360702  -0.956640  -0.644931
   27  O  3  Z    0.001940   0.001694   0.000805  -0.002597  -0.001534
   28  H  4  S   -0.035154  -0.121349  -0.321490   0.258613   0.069695
   29  H  4  S   -0.240743   0.294081  -0.333696   0.593350   0.032219
   30  H  5  S    0.210484   0.207082   0.050349  -0.541611  -0.338346
   31  H  5  S   -0.087475  -0.378706  -0.164288  -0.348114  -0.085928

                     31
                    3.1133
                     A   
    1  C  1  S    0.010444
    2  C  1  S   -0.153672
    3  C  1  X    0.179490
    4  C  1  Y   -0.111757
    5  C  1  Z   -0.000299
    6  C  1  S   -1.356811
    7  C  1  X    0.645539
    8  C  1  Y   -0.982413
    9  C  1  Z   -0.002496
   10  O  2  S    0.050321
   11  O  2  S   -1.686329
   12  O  2  X   -0.214226
   13  O  2  Y    0.066719
   14  O  2  Z    0.000193
   15  O  2  S    2.760340
   16  O  2  X    0.958179
   17  O  2  Y   -0.339816
   18  O  2  Z   -0.000967
   19  O  3  S    0.014664
   20  O  3  S   -0.507980
   21  O  3  X    0.073458
   22  O  3  Y   -0.063643
   23  O  3  Z   -0.000165
   24  O  3  S    0.806994
   25  O  3  X   -0.375316
   26  O  3  Y    0.159157
   27  O  3  Z    0.000441
   28  H  4  S   -0.014336
   29  H  4  S   -0.253992
   30  H  5  S    0.057664
   31  H  5  S   -0.129472
 ...... END OF RHF CALCULATION ......
 CPU     0: STEP CPU TIME=     0.85 TOTAL CPU TIME=          0.9 (      0.0 MIN)
 TOTAL WALL CLOCK TIME=          0.9 SECONDS, CPU UTILIZATION IS    97.80%

     ---------------------------------------------------------------------
     PROPERTIES FOR THE B3LYP    DFT FUNCTIONAL (RHF  TYPE) DENSITY MATRIX
     ---------------------------------------------------------------------

          -----------------
          ENERGY COMPONENTS
          -----------------

         WAVEFUNCTION NORMALIZATION =       1.0000000000

                ONE ELECTRON ENERGY =    -396.1489162331
                TWO ELECTRON ENERGY =     137.7748621237
           NUCLEAR REPULSION ENERGY =      69.7783509308
                                      ------------------
                       TOTAL ENERGY =    -188.5957031787

 ELECTRON-ELECTRON POTENTIAL ENERGY =     137.7748621237
  NUCLEUS-ELECTRON POTENTIAL ENERGY =    -583.4754903737
   NUCLEUS-NUCLEUS POTENTIAL ENERGY =      69.7783509308
                                      ------------------
             TOTAL POTENTIAL ENERGY =    -375.9222773192
               TOTAL KINETIC ENERGY =     187.3265741405
                 VIRIAL RATIO (V/T) =       2.0067749546

          ---------------------------------------
          MULLIKEN AND LOWDIN POPULATION ANALYSES
          ---------------------------------------

     ATOMIC MULLIKEN POPULATION IN EACH MOLECULAR ORBITAL

                      1          2          3          4          5

                  2.000000   2.000000   2.000000   2.000000   2.000000

    1             0.003849   0.006874   1.999889   0.341200   0.236201
    2            -0.000007   1.993059  -0.002546   0.555420   1.048627
    3             1.995220  -0.000006  -0.000689   1.056203   0.648596
    4             0.000007   0.000072   0.003230  -0.009645  -0.002096
    5             0.000932   0.000001   0.000115   0.056822   0.068671

                      6          7          8          9         10

                  2.000000   2.000000   2.000000   2.000000   2.000000

    1             0.635343   0.903680   0.837667   0.296237   0.169357
    2             0.163522   0.137451   0.489698   1.398933   0.363095
    3             0.847063   0.462727   0.672635   0.299951   1.235559
    4             0.107020   0.367218   0.000000   0.004737   0.119366
    5             0.247051   0.128925   0.000000   0.000141   0.112622

                     11         12

                  2.000000   2.000000

    1             0.060082   0.061121
    2             0.837071   1.442366
    3             1.102847   0.212781
    4             0.000000   0.266644
    5             0.000000   0.017088

               ----- POPULATIONS IN EACH AO -----
                             MULLIKEN      LOWDIN
              1  C  1  S      1.98376     1.97378
              2  C  1  S      0.43657     0.43987
              3  C  1  X      0.58674     0.55998
              4  C  1  Y      0.60767     0.55976
              5  C  1  Z      0.42407     0.40304
              6  C  1  S      0.60871     0.55014
              7  C  1  X      0.07555     0.37016
              8  C  1  Y      0.35474     0.48680
              9  C  1  Z      0.47368     0.49714
             10  O  2  S      1.98568     1.98045
             11  O  2  S      0.43940     0.59121
             12  O  2  X      0.72369     0.70997
             13  O  2  Y      0.80206     0.79291
             14  O  2  Z      0.60067     0.58799
             15  O  2  S      1.53428     1.04350
             16  O  2  X      0.76553     0.82487
             17  O  2  Y      0.84928     0.91186
             18  O  2  Z      0.72610     0.74109
             19  O  3  S      1.98488     1.97904
             20  O  3  S      0.42749     0.58318
             21  O  3  X      0.60087     0.57394
             22  O  3  Y      0.74585     0.73377
             23  O  3  Z      0.80793     0.81125
             24  O  3  S      1.49612     1.01880
             25  O  3  X      0.64506     0.69744
             26  O  3  Y      0.85715     0.90078
             27  O  3  Z      0.96755     0.95949
             28  H  4  S      0.48164     0.48081
             29  H  4  S      0.37491     0.49158
             30  H  5  S      0.43768     0.44055
             31  H  5  S      0.19469     0.30485

          ----- MULLIKEN ATOMIC OVERLAP POPULATIONS -----
          (OFF-DIAGONAL ELEMENTS NEED TO BE MULTIPLIED BY 2)

             1           2           3           4           5

    1    4.6045720
    2    0.5257134   8.0150852
    3    0.1762267  -0.0486526   8.2491574
    4    0.2652073  -0.0680724  -0.0822495   0.7383024
    5   -0.0202198   0.0026158   0.2384071   0.0033656   0.4081996

          TOTAL MULLIKEN AND LOWDIN ATOMIC POPULATIONS
       ATOM         MULL.POP.    CHARGE          LOW.POP.     CHARGE
    1 C             5.551500    0.448500         5.840668    0.159332
    2 O             8.426689   -0.426689         8.183843   -0.183843
    3 O             8.532889   -0.532889         8.257695   -0.257695
    4 H             0.856553    0.143447         0.972392    0.027608
    5 H             0.632368    0.367632         0.745402    0.254598

          -------------------------------
          BOND ORDER AND VALENCE ANALYSIS     BOND ORDER THRESHOLD=0.050
          -------------------------------

                   BOND                       BOND                       BOND
  ATOM PAIR DIST  ORDER      ATOM PAIR DIST  ORDER      ATOM PAIR DIST  ORDER
    1   2  1.199  1.890        1   3  1.353  0.980        1   4  1.108  0.818
    2   3  2.239  0.155        2   4  2.036  0.061        3   5  0.969  0.805

                       TOTAL       BONDED        FREE
      ATOM            VALENCE     VALENCE     VALENCE
    1 C                 3.704       3.704       0.000
    2 O                 2.131       2.131       0.000
    3 O                 1.978       1.978       0.000
    4 H                 0.918       0.918      -0.000
    5 H                 0.844       0.844       0.000

          ---------------------
          ELECTROSTATIC MOMENTS
          ---------------------

 POINT   1           X           Y           Z (BOHR)    CHARGE
                -0.013279    0.034740    0.002635        0.00 (A.U.)
         DX          DY          DZ         /D/  (DEBYE)
     2.749573   -2.762945   -0.007260    3.897957
 ...... END OF PROPERTY EVALUATION ......
 CPU     0: STEP CPU TIME=     0.02 TOTAL CPU TIME=          0.9 (      0.0 MIN)
 TOTAL WALL CLOCK TIME=          0.9 SECONDS, CPU UTILIZATION IS    97.85%

 BEGINNING ONE ELECTRON GRADIENT...
 ..... END OF 1-ELECTRON GRADIENT ......
 CPU     0: STEP CPU TIME=     0.00 TOTAL CPU TIME=          0.9 (      0.0 MIN)
 TOTAL WALL CLOCK TIME=          0.9 SECONDS, CPU UTILIZATION IS    96.81%

          ----------------------
          GRADIENT OF THE ENERGY
          ----------------------
 MEMORY FOR GRID POINT CONTRIBUTIONS TO THE DFT GRADIENT=    199178 WORDS.
 CPU     0: STEP CPU TIME=     0.14 TOTAL CPU TIME=          1.0 (      0.0 MIN)
 TOTAL WALL CLOCK TIME=          1.1 SECONDS, CPU UTILIZATION IS    97.22%
 THE COARSE/FINE SCHWARZ SCREENINGS SKIPPED          509/         138 BLOCKS.
 THE NUMBER OF GRADIENT INTEGRAL BLOCKS COMPUTED WAS      3464
 ...... END OF 2-ELECTRON GRADIENT ......
 CPU     0: STEP CPU TIME=     0.00 TOTAL CPU TIME=          1.0 (      0.0 MIN)
 TOTAL WALL CLOCK TIME=          1.1 SECONDS, CPU UTILIZATION IS    97.22%

          NSERCH=  0     ENERGY=    -188.5957032

                                 -----------------------
                                 GRADIENT (HARTREE/BOHR)
                                 -----------------------
        ATOM     ZNUC       DE/DX         DE/DY         DE/DZ
 --------------------------------------------------------------
    1  C            6.0    -0.0005802     0.0211207     0.0000517
    2  O            8.0     0.0250239    -0.0136755    -0.0000373
    3  O            8.0    -0.0023094    -0.0187477    -0.0000462
    4  H            1.0    -0.0013557    -0.0011706    -0.0000025
    5  H            1.0    -0.0207786     0.0124731     0.0000343

          MAXIMUM GRADIENT = 0.0250239    RMS GRADIENT = 0.0121298

 NSERCH:   0  E=     -188.5957031787  GRAD. MAX=  0.0250239  R.M.S.=  0.0121298

          FORCE CONSTANT MATRIX NOT UPDATED --- TAKING FIRST STEP
          MIN SEARCH, CORRECT HESSIAN, TRYING PURE NR STEP
               NR STEP HAS LENGTH         =   0.129082
          RADIUS OF STEP TAKEN=   0.12908  CURRENT TRUST RADIUS=   0.30000

 BEGINNING GEOMETRY SEARCH POINT NSERCH=   1 ...

 COORDINATES OF ALL ATOMS ARE (ANGS)
   ATOM   CHARGE       X              Y              Z
 ------------------------------------------------------------
 C           6.0  -0.1215046780  -0.3892337186  -0.0099460225
 O           8.0  -1.1738346865   0.2271917244   0.0204390064
 O           8.0   1.0931157844   0.2469952339  -0.0273565838
 H           1.0  -0.0110077202  -1.4867061099  -0.0097584653
 H           1.0   1.8345313003  -0.4187571297   0.0286320652

          INTERNUCLEAR DISTANCES (ANGS.)
          ------------------------------

                1 C          2 O          3 O          4 H          5 H     

   1 C       0.0000000    1.2199598 *  1.3712743 *  1.1030210 *  1.9566391 *
   2 O       1.2199598 *  0.0000000    2.2675407 *  2.0713581 *  3.0769438  
   3 O       1.3712743 *  2.2675407 *  0.0000000    2.0555094 *  0.9980270 *
   4 H       1.1030210 *  2.0713581 *  2.0555094 *  0.0000000    2.1326048 *
   5 H       1.9566391 *  3.0769438    0.9980270 *  2.1326048 *  0.0000000  

  * ... LESS THAN  3.000

 ...... END OF ONE-ELECTRON INTEGRALS ......
 CPU     0: STEP CPU TIME=     0.00 TOTAL CPU TIME=          1.0 (      0.0 MIN)
 TOTAL WALL CLOCK TIME=          1.1 SECONDS, CPU UTILIZATION IS    97.22%
  ...... END OF TWO-ELECTRON INTEGRALS .....
 CPU     0: STEP CPU TIME=     0.01 TOTAL CPU TIME=          1.1 (      0.0 MIN)
 TOTAL WALL CLOCK TIME=          1.1 SECONDS, CPU UTILIZATION IS    98.15%

          --------------------------
             R-B3LYP SCF CALCULATION
          --------------------------
         DENSITY MATRIX CONVERGENCE THRESHOLD=  1.00E-04
     COARSE -> FINE DFT GRID SWITCH THRESHOLD=  1.50E-03 (SWITCH IN $DFT)
                   HF -> DFT SWITCH THRESHOLD=  5.00E-03 (SWOFF IN $DFT)

 DIRECT SCF CALCULATION, SCHWRZ=T   FDIFF=T,  DIRTHR=  0.00E+00 NITDIR=10

 DFT CODE IS SWITCHING FROM THE FINE GRID NRAD= 96,  NLEB=  302
                      TO THE COARSE GRID NRAD0= 24, NLEB0=  110

                                                                                   NONZERO     BLOCKS
 ITER EX DEM     TOTAL ENERGY        E CHANGE  DENSITY CHANGE    DIIS ERROR      INTEGRALS    SKIPPED
          * * *   INITIATING DIIS PROCEDURE   * * *
   1  0  0     -188.5949101980  -188.5949101980   0.015117379   0.014763652         112939        456
   2  1  0     -188.5964798459    -0.0015696479   0.011587882   0.011526859         112714        568
   3  2  0     -188.5964503626     0.0000294834   0.006209595   0.013078168         112477        606
   4  3  0     -188.5966673100    -0.0002169475   0.002147273   0.004291785         112367        621
   5  4  0     -188.5966867929    -0.0000194829   0.000587496   0.001343424         112001        662
 DFT CODE IS SWITCHING BACK TO THE FINE GRID
          * * *   INITIATING DIIS PROCEDURE   * * *
   6  5  0     -188.5970102035    -0.0003234106   0.001279033   0.001605877         112939        456
   7  6  0     -188.5970209897    -0.0000107862   0.000815485   0.000693618         111871        665
   8  7  0     -188.5970205373     0.0000004524   0.000389960   0.000990626         111503        693
   9  8  0     -188.5970217892    -0.0000012519   0.000115748   0.000175411         111155        721
  10  9  0     -188.5970218172    -0.0000000279   0.000042294   0.000098820         110031        798
  11 10  0     -188.5970218323    -0.0000000151   0.000010903   0.000010082         109397        841

          -----------------
          DENSITY CONVERGED
          -----------------
     TIME TO FORM FOCK OPERATORS=       0.6 SECONDS (       0.1 SEC/ITER)
     FOCK TIME ON FIRST ITERATION=       0.0, LAST ITERATION=       0.1
     TIME TO SOLVE SCF EQUATIONS=       0.0 SECONDS (       0.0 SEC/ITER)

 FINAL R-B3LYP ENERGY IS     -188.5970218323 AFTER  11 ITERATIONS
 DFT EXCHANGE + CORRELATION ENERGY =       -18.6995089795
 TOTAL ELECTRON NUMBER             =        23.9999900573
 ...... END OF RHF CALCULATION ......
 CPU     0: STEP CPU TIME=     0.71 TOTAL CPU TIME=          1.8 (      0.0 MIN)
 TOTAL WALL CLOCK TIME=          1.8 SECONDS, CPU UTILIZATION IS    97.79%
 ..... END OF 1-ELECTRON GRADIENT ......
 CPU     0: STEP CPU TIME=     0.00 TOTAL CPU TIME=          1.8 (      0.0 MIN)
 TOTAL WALL CLOCK TIME=          1.8 SECONDS, CPU UTILIZATION IS    97.79%
 MEMORY FOR GRID POINT CONTRIBUTIONS TO THE DFT GRADIENT=    199178 WORDS.
 CPU     0: STEP CPU TIME=     0.14 TOTAL CPU TIME=          1.9 (      0.0 MIN)
 TOTAL WALL CLOCK TIME=          1.9 SECONDS, CPU UTILIZATION IS    97.95%
 ...... END OF 2-ELECTRON GRADIENT ......
 CPU     0: STEP CPU TIME=     0.00 TOTAL CPU TIME=          1.9 (      0.0 MIN)
 TOTAL WALL CLOCK TIME=          2.0 SECONDS, CPU UTILIZATION IS    97.45%

          NSERCH=  1     ENERGY=    -188.5970218

                                 -----------------------
                                 GRADIENT (HARTREE/BOHR)
                                 -----------------------
        ATOM     ZNUC       DE/DX         DE/DY         DE/DZ
 --------------------------------------------------------------
    1  C            6.0     0.0100156    -0.0039982    -0.0032092
    2  O            8.0    -0.0074676     0.0072695     0.0019212
    3  O            8.0    -0.0075843    -0.0010853    -0.0006248
    4  H            1.0     0.0042377     0.0004653     0.0005550
    5  H            1.0     0.0007987    -0.0026514     0.0013578

          MAXIMUM GRADIENT = 0.0100156    RMS GRADIENT = 0.0046618

 NSERCH:   1  E=     -188.5970218323  GRAD. MAX=  0.0100156  R.M.S.=  0.0046618

          HESSIAN UPDATED USING THE BFGS FORMULA
             ACTUAL ENERGY CHANGE WAS  -0.0013186536
          PREDICTED ENERGY CHANGE WAS  -0.0016994284 RATIO=  0.776
          MIN SEARCH, CORRECT HESSIAN, TRYING PURE NR STEP
               NR STEP HAS LENGTH         = 435.392601
          TRIM/QA LAMBDA FOR NON-TS MODES =  -0.02017324
          TRIM/QA STEP HAS LENGTH         =   0.182550
          RADIUS OF STEP TAKEN=   0.18255  CURRENT TRUST RADIUS=   0.18255

 BEGINNING GEOMETRY SEARCH POINT NSERCH=   2 ...

 COORDINATES OF ALL ATOMS ARE (ANGS)
   ATOM   CHARGE       X              Y              Z
 ------------------------------------------------------------
 C           6.0  -0.1201508327  -0.3855923185   0.0624279553
 O           8.0  -1.1808802303   0.2145116787  -0.0217691887
 O           8.0   1.1038227712   0.2512770952  -0.0125332639
 H           1.0  -0.0301214506  -1.4840948023  -0.0236939374
 H           1.0   1.8486297425  -0.4166116532  -0.0024215652

          INTERNUCLEAR DISTANCES (ANGS.)
          ------------------------------

                1 C          2 O          3 O          4 H          5 H     

   1 C       0.0000000    1.2216222 *  1.3817862 *  1.1055451 *  1.9700925 *
   2 O       1.2216222 *  0.0000000    2.2850175 *  2.0517099 *  3.0946117  
   3 O       1.3817862 *  2.2850175 *  0.0000000    2.0730339 *  1.0004574 *
   4 H       1.1055451 *  2.0517099 *  2.0730339 *  0.0000000    2.1609440 *
   5 H       1.9700925 *  3.0946117    1.0004574 *  2.1609440 *  0.0000000  

  * ... LESS THAN  3.000

 ...... END OF ONE-ELECTRON INTEGRALS ......
 CPU     0: STEP CPU TIME=     0.00 TOTAL CPU TIME=          1.9 (      0.0 MIN)
 TOTAL WALL CLOCK TIME=          2.0 SECONDS, CPU UTILIZATION IS    97.45%
  ...... END OF TWO-ELECTRON INTEGRALS .....
 CPU     0: STEP CPU TIME=     0.00 TOTAL CPU TIME=          1.9 (      0.0 MIN)
 TOTAL WALL CLOCK TIME=          2.0 SECONDS, CPU UTILIZATION IS    97.45%

          --------------------------
             R-B3LYP SCF CALCULATION
          --------------------------
         DENSITY MATRIX CONVERGENCE THRESHOLD=  2.00E-05
     COARSE -> FINE DFT GRID SWITCH THRESHOLD=  3.00E-04 (SWITCH IN $DFT)
                   HF -> DFT SWITCH THRESHOLD=  5.00E-03 (SWOFF IN $DFT)

 DIRECT SCF CALCULATION, SCHWRZ=T   FDIFF=T,  DIRTHR=  0.00E+00 NITDIR=10

 DFT CODE IS SWITCHING FROM THE FINE GRID NRAD= 96,  NLEB=  302
                      TO THE COARSE GRID NRAD0= 24, NLEB0=  110

                                                                                   NONZERO     BLOCKS
 ITER EX DEM     TOTAL ENERGY        E CHANGE  DENSITY CHANGE    DIIS ERROR      INTEGRALS    SKIPPED
          * * *   INITIATING DIIS PROCEDURE   * * *
   1  0  0     -188.5873460879  -188.5873460879   0.041766234   0.055229008         112598        466
   2  1  0     -188.5947123787    -0.0073662908   0.004566421   0.006565561         112425        570
   3  2  0     -188.5947547795    -0.0000424008   0.003121813   0.006330736         111879        633
   4  3  0     -188.5947929029    -0.0000381233   0.001276968   0.002466628         111602        658
   5  4  0     -188.5947986113    -0.0000057084   0.000494821   0.001345700         111345        683
   6  5  0     -188.5948005612    -0.0000019499   0.000082137   0.000113025         110841        717
 DFT CODE IS SWITCHING BACK TO THE FINE GRID
          * * *   INITIATING DIIS PROCEDURE   * * *
   7  6  0     -188.5949058095    -0.0001052484   0.001287055   0.001709736         112598        466
   8  7  0     -188.5949163020    -0.0000104925   0.000819335   0.000684351         111476        669
   9  8  0     -188.5949160999     0.0000002021   0.000390939   0.001048315         111077        695
  10  9  0     -188.5949174324    -0.0000013325   0.000108356   0.000148914         110811        722
  11 10  0     -188.5949174537    -0.0000000213   0.000052769   0.000112584         109622        804
  12 11  0     -188.5949174726    -0.0000000189   0.000017420   0.000013292         109129        839
  13 12  0     -188.5949174731    -0.0000000005   0.000001733   0.000001361         106710        951

          -----------------
          DENSITY CONVERGED
          -----------------
     TIME TO FORM FOCK OPERATORS=       0.7 SECONDS (       0.1 SEC/ITER)
     FOCK TIME ON FIRST ITERATION=       0.0, LAST ITERATION=       0.1
     TIME TO SOLVE SCF EQUATIONS=       0.0 SECONDS (       0.0 SEC/ITER)

 FINAL R-B3LYP ENERGY IS     -188.5949174731 AFTER  13 ITERATIONS
 DFT EXCHANGE + CORRELATION ENERGY =       -18.6924896216
 TOTAL ELECTRON NUMBER             =        23.9999858360
 ...... END OF RHF CALCULATION ......
 CPU     0: STEP CPU TIME=     0.79 TOTAL CPU TIME=          2.7 (      0.0 MIN)
 TOTAL WALL CLOCK TIME=          2.8 SECONDS, CPU UTILIZATION IS    97.83%
 ..... END OF 1-ELECTRON GRADIENT ......
 CPU     0: STEP CPU TIME=     0.00 TOTAL CPU TIME=          2.7 (      0.0 MIN)
 TOTAL WALL CLOCK TIME=          2.8 SECONDS, CPU UTILIZATION IS    97.47%
 MEMORY FOR GRID POINT CONTRIBUTIONS TO THE DFT GRADIENT=    199178 WORDS.
 CPU     0: STEP CPU TIME=     0.14 TOTAL CPU TIME=          2.8 (      0.0 MIN)
 TOTAL WALL CLOCK TIME=          2.9 SECONDS, CPU UTILIZATION IS    97.93%
 ...... END OF 2-ELECTRON GRADIENT ......
 CPU     0: STEP CPU TIME=     0.01 TOTAL CPU TIME=          2.8 (      0.0 MIN)
 TOTAL WALL CLOCK TIME=          2.9 SECONDS, CPU UTILIZATION IS    97.94%

          NSERCH=  2     ENERGY=    -188.5949175

                                 -----------------------
                                 GRADIENT (HARTREE/BOHR)
                                 -----------------------
        ATOM     ZNUC       DE/DX         DE/DY         DE/DZ
 --------------------------------------------------------------
    1  C            6.0     0.0090239    -0.0014287     0.0301015
    2  O            8.0    -0.0108897     0.0032632    -0.0115164
    3  O            8.0    -0.0015183     0.0016076    -0.0074606
    4  H            1.0     0.0001392    -0.0002741    -0.0104462
    5  H            1.0     0.0032448    -0.0031680    -0.0006783

          MAXIMUM GRADIENT = 0.0301015    RMS GRADIENT = 0.0098055

 NSERCH:   2  E=     -188.5949174731  GRAD. MAX=  0.0301015  R.M.S.=  0.0098055

          HESSIAN UPDATED USING THE BFGS FORMULA
             ACTUAL ENERGY CHANGE WAS   0.0021043592
          PREDICTED ENERGY CHANGE WAS  -0.0008776709 RATIO= -2.398
          MIN SEARCH, CORRECT HESSIAN, TRYING PURE NR STEP
               NR STEP HAS LENGTH         = 500.305247
          TRIM/QA LAMBDA FOR NON-TS MODES =  -0.18485701
          TRIM/QA STEP HAS LENGTH         =   0.091275
          RADIUS OF STEP TAKEN=   0.09127  CURRENT TRUST RADIUS=   0.09127

 BEGINNING GEOMETRY SEARCH POINT NSERCH=   3 ...

 COORDINATES OF ALL ATOMS ARE (ANGS)
   ATOM   CHARGE       X              Y              Z
 ------------------------------------------------------------
 C           6.0  -0.1222353705  -0.3840132310   0.0228360285
 O           8.0  -1.1738834970   0.2076734316  -0.0077143648
 O           8.0   1.1087117184   0.2523024966  -0.0008425851
 H           1.0  -0.0390671410  -1.4842661139  -0.0094339443
 H           1.0   1.8477742902  -0.4122065832  -0.0028351343

          INTERNUCLEAR DISTANCES (ANGS.)
          ------------------------------

                1 C          2 O          3 O          4 H          5 H     

   1 C       0.0000000    1.2070585 *  1.3858893 *  1.1038635 *  1.9703786 *
   2 O       1.2070585 *  0.0000000    2.2830418 *  2.0372704 *  3.0845892  
   3 O       1.3858893 *  2.2830418 *  0.0000000    2.0816197 *  0.9938761 *
   4 H       1.1038635 *  2.0372704 *  2.0816197 *  0.0000000    2.1701442 *
   5 H       1.9703786 *  3.0845892    0.9938761 *  2.1701442 *  0.0000000  

  * ... LESS THAN  3.000

 ...... END OF ONE-ELECTRON INTEGRALS ......
 CPU     0: STEP CPU TIME=     0.00 TOTAL CPU TIME=          2.8 (      0.0 MIN)
 TOTAL WALL CLOCK TIME=          2.9 SECONDS, CPU UTILIZATION IS    97.94%
  ...... END OF TWO-ELECTRON INTEGRALS .....
 CPU     0: STEP CPU TIME=     0.00 TOTAL CPU TIME=          2.8 (      0.0 MIN)
 TOTAL WALL CLOCK TIME=          2.9 SECONDS, CPU UTILIZATION IS    97.60%

          --------------------------
             R-B3LYP SCF CALCULATION
          --------------------------
         DENSITY MATRIX CONVERGENCE THRESHOLD=  1.00E-04
     COARSE -> FINE DFT GRID SWITCH THRESHOLD=  1.50E-03 (SWITCH IN $DFT)
                   HF -> DFT SWITCH THRESHOLD=  5.00E-03 (SWOFF IN $DFT)

 DIRECT SCF CALCULATION, SCHWRZ=T   FDIFF=T,  DIRTHR=  0.00E+00 NITDIR=10

 DFT CODE IS SWITCHING FROM THE FINE GRID NRAD= 96,  NLEB=  302
                      TO THE COARSE GRID NRAD0= 24, NLEB0=  110

                                                                                   NONZERO     BLOCKS
 ITER EX DEM     TOTAL ENERGY        E CHANGE  DENSITY CHANGE    DIIS ERROR      INTEGRALS    SKIPPED
          * * *   INITIATING DIIS PROCEDURE   * * *
   1  0  0     -188.5945831367  -188.5945831367   0.019477464   0.024663588         112406        460
   2  1  0     -188.5967361123    -0.0021529757   0.007095799   0.005595174         112182        578
   3  2  0     -188.5966245017     0.0001116106   0.005239696   0.012436007         111824        623
   4  3  0     -188.5967883966    -0.0001638949   0.000858130   0.001823768         111742        633
 DFT CODE IS SWITCHING BACK TO THE FINE GRID
          * * *   INITIATING DIIS PROCEDURE   * * *
   5  4  0     -188.5968857596    -0.0000973630   0.001358397   0.001731512         112406        460
   6  5  0     -188.5968970490    -0.0000112894   0.000750770   0.000784678         111373        668
   7  6  0     -188.5968971343    -0.0000000852   0.000363820   0.001005445         111083        691
   8  7  0     -188.5968984234    -0.0000012891   0.000085434   0.000116400         110765        721
   9  8  0     -188.5968984474    -0.0000000240   0.000045286   0.000090975         109642        803
  10  9  0     -188.5968984577    -0.0000000103   0.000018855   0.000026422         108945        856

          -----------------
          DENSITY CONVERGED
          -----------------
     TIME TO FORM FOCK OPERATORS=       0.6 SECONDS (       0.1 SEC/ITER)
     FOCK TIME ON FIRST ITERATION=       0.0, LAST ITERATION=       0.1
     TIME TO SOLVE SCF EQUATIONS=       0.0 SECONDS (       0.0 SEC/ITER)

 FINAL R-B3LYP ENERGY IS     -188.5968984577 AFTER  10 ITERATIONS
 DFT EXCHANGE + CORRELATION ENERGY =       -18.7029253005
 TOTAL ELECTRON NUMBER             =        23.9999868492
 ...... END OF RHF CALCULATION ......
 CPU     0: STEP CPU TIME=     0.66 TOTAL CPU TIME=          3.5 (      0.1 MIN)
 TOTAL WALL CLOCK TIME=          3.6 SECONDS, CPU UTILIZATION IS    97.77%
 ..... END OF 1-ELECTRON GRADIENT ......
 CPU     0: STEP CPU TIME=     0.01 TOTAL CPU TIME=          3.5 (      0.1 MIN)
 TOTAL WALL CLOCK TIME=          3.6 SECONDS, CPU UTILIZATION IS    98.05%
 MEMORY FOR GRID POINT CONTRIBUTIONS TO THE DFT GRADIENT=    199178 WORDS.
 CPU     0: STEP CPU TIME=     0.14 TOTAL CPU TIME=          3.7 (      0.1 MIN)
 TOTAL WALL CLOCK TIME=          3.7 SECONDS, CPU UTILIZATION IS    97.86%
 ...... END OF 2-ELECTRON GRADIENT ......
 CPU     0: STEP CPU TIME=     0.00 TOTAL CPU TIME=          3.7 (      0.1 MIN)
 TOTAL WALL CLOCK TIME=          3.7 SECONDS, CPU UTILIZATION IS    97.86%

          NSERCH=  3     ENERGY=    -188.5968985

                                 -----------------------
                                 GRADIENT (HARTREE/BOHR)
                                 -----------------------
        ATOM     ZNUC       DE/DX         DE/DY         DE/DZ
 --------------------------------------------------------------
    1  C            6.0    -0.0094804     0.0085199     0.0104828
    2  O            8.0     0.0065360    -0.0084907    -0.0037675
    3  O            8.0     0.0050997    -0.0007305    -0.0026041
    4  H            1.0    -0.0018773     0.0001197    -0.0037575
    5  H            1.0    -0.0002780     0.0005815    -0.0003537

          MAXIMUM GRADIENT = 0.0104828    RMS GRADIENT = 0.0054947

 NSERCH:   3  E=     -188.5968984577  GRAD. MAX=  0.0104828  R.M.S.=  0.0054947

          HESSIAN UPDATED USING THE BFGS FORMULA
             ACTUAL ENERGY CHANGE WAS  -0.0019809846
          PREDICTED ENERGY CHANGE WAS  -0.0024073068 RATIO=  0.823
          MIN SEARCH, CORRECT HESSIAN, TRYING PURE NR STEP
               NR STEP HAS LENGTH         = 135.314856
          TRIM/QA LAMBDA FOR NON-TS MODES =  -0.06831113
          TRIM/QA STEP HAS LENGTH         =   0.129082
          RADIUS OF STEP TAKEN=   0.12908  CURRENT TRUST RADIUS=   0.12908

 BEGINNING GEOMETRY SEARCH POINT NSERCH=   4 ...

 COORDINATES OF ALL ATOMS ARE (ANGS)
   ATOM   CHARGE       X              Y              Z
 ------------------------------------------------------------
 C           6.0  -0.1264117650  -0.4024769423  -0.0057920508
 O           8.0  -1.1647003461   0.2425182974   0.0016711402
 O           8.0   1.0858142358   0.2460801815   0.0089015274
 H           1.0  -0.0074046932  -1.4952537791   0.0018244888
 H           1.0   1.8340025686  -0.4113777576  -0.0045951056

          INTERNUCLEAR DISTANCES (ANGS.)
          ------------------------------

                1 C          2 O          3 O          4 H          5 H     

   1 C       0.0000000    1.2223411 *  1.3748942 *  1.0992643 *  1.9604349 *
   2 O       1.2223411 *  0.0000000    2.2505290 *  2.0878661 *  3.0691755  
   3 O       1.3748942 *  2.2505290 *  0.0000000    2.0560695 *  0.9961018 *
   4 H       1.0992643 *  2.0878661 *  2.0560695 *  0.0000000    2.1367286 *
   5 H       1.9604349 *  3.0691755    0.9961018 *  2.1367286 *  0.0000000  

  * ... LESS THAN  3.000

 ...... END OF ONE-ELECTRON INTEGRALS ......
 CPU     0: STEP CPU TIME=     0.01 TOTAL CPU TIME=          3.7 (      0.1 MIN)
 TOTAL WALL CLOCK TIME=          3.7 SECONDS, CPU UTILIZATION IS    98.13%
  ...... END OF TWO-ELECTRON INTEGRALS .....
 CPU     0: STEP CPU TIME=     0.00 TOTAL CPU TIME=          3.7 (      0.1 MIN)
 TOTAL WALL CLOCK TIME=          3.8 SECONDS, CPU UTILIZATION IS    97.87%

          --------------------------
             R-B3LYP SCF CALCULATION
          --------------------------
         DENSITY MATRIX CONVERGENCE THRESHOLD=  1.00E-04
     COARSE -> FINE DFT GRID SWITCH THRESHOLD=  1.50E-03 (SWITCH IN $DFT)
                   HF -> DFT SWITCH THRESHOLD=  5.00E-03 (SWOFF IN $DFT)

 DIRECT SCF CALCULATION, SCHWRZ=T   FDIFF=T,  DIRTHR=  0.00E+00 NITDIR=10

 DFT CODE IS SWITCHING FROM THE FINE GRID NRAD= 96,  NLEB=  302
                      TO THE COARSE GRID NRAD0= 24, NLEB0=  110

                                                                                   NONZERO     BLOCKS
 ITER EX DEM     TOTAL ENERGY        E CHANGE  DENSITY CHANGE    DIIS ERROR      INTEGRALS    SKIPPED
          * * *   INITIATING DIIS PROCEDURE   * * *
   1  0  0     -188.5937340495  -188.5937340495   0.024678379   0.025708026         111975        446
   2  1  0     -188.5960710722    -0.0023370228   0.010627642   0.008679615         111723        578
   3  2  0     -188.5958007663     0.0002703059   0.007760473   0.016929010         111486        614
   4  3  0     -188.5961677843    -0.0003670180   0.001114556   0.002583188         111432        624
 DFT CODE IS SWITCHING BACK TO THE FINE GRID
          * * *   INITIATING DIIS PROCEDURE   * * *
   5  4  0     -188.5966241116    -0.0004563273   0.001586661   0.001735372         111975        446
   6  5  0     -188.5966320140    -0.0000079023   0.001187165   0.001772133         111003        665
   7  6  0     -188.5966357995    -0.0000037855   0.000375601   0.001074837         110863        672
   8  7  0     -188.5966369956    -0.0000011962   0.000129296   0.000199756         110326        726
   9  8  0     -188.5966370391    -0.0000000435   0.000052067   0.000127593         109693        787
  10  9  0     -188.5966370593    -0.0000000202   0.000016628   0.000013339         108906        835

          -----------------
          DENSITY CONVERGED
          -----------------
     TIME TO FORM FOCK OPERATORS=       0.6 SECONDS (       0.1 SEC/ITER)
     FOCK TIME ON FIRST ITERATION=       0.0, LAST ITERATION=       0.1
     TIME TO SOLVE SCF EQUATIONS=       0.1 SECONDS (       0.0 SEC/ITER)

 FINAL R-B3LYP ENERGY IS     -188.5966370593 AFTER  10 ITERATIONS
 DFT EXCHANGE + CORRELATION ENERGY =       -18.6987084957
 TOTAL ELECTRON NUMBER             =        23.9999948188
 ...... END OF RHF CALCULATION ......
 CPU     0: STEP CPU TIME=     0.66 TOTAL CPU TIME=          4.3 (      0.1 MIN)
 TOTAL WALL CLOCK TIME=          4.4 SECONDS, CPU UTILIZATION IS    97.96%
 ..... END OF 1-ELECTRON GRADIENT ......
 CPU     0: STEP CPU TIME=     0.00 TOTAL CPU TIME=          4.3 (      0.1 MIN)
 TOTAL WALL CLOCK TIME=          4.4 SECONDS, CPU UTILIZATION IS    97.96%
 MEMORY FOR GRID POINT CONTRIBUTIONS TO THE DFT GRADIENT=    199178 WORDS.
 CPU     0: STEP CPU TIME=     0.12 TOTAL CPU TIME=          4.4 (      0.1 MIN)
 TOTAL WALL CLOCK TIME=          4.5 SECONDS, CPU UTILIZATION IS    98.02%
 ...... END OF 2-ELECTRON GRADIENT ......
 CPU     0: STEP CPU TIME=     0.01 TOTAL CPU TIME=          4.5 (      0.1 MIN)
 TOTAL WALL CLOCK TIME=          4.5 SECONDS, CPU UTILIZATION IS    98.24%

          NSERCH=  4     ENERGY=    -188.5966371

                                 -----------------------
                                 GRADIENT (HARTREE/BOHR)
                                 -----------------------
        ATOM     ZNUC       DE/DX         DE/DY         DE/DZ
 --------------------------------------------------------------
    1  C            6.0     0.0084701    -0.0169193    -0.0033899
    2  O            8.0    -0.0064398     0.0147747     0.0012271
    3  O            8.0    -0.0076058     0.0015525     0.0010808
    4  H            1.0     0.0063167     0.0020011     0.0012328
    5  H            1.0    -0.0007413    -0.0014090    -0.0001507

          MAXIMUM GRADIENT = 0.0169193    RMS GRADIENT = 0.0070246

 NSERCH:   4  E=     -188.5966370593  GRAD. MAX=  0.0169193  R.M.S.=  0.0070246

          HESSIAN UPDATED USING THE BFGS FORMULA
             ACTUAL ENERGY CHANGE WAS   0.0002613984
          PREDICTED ENERGY CHANGE WAS  -0.0014428595 RATIO= -0.181
          MIN SEARCH, CORRECT HESSIAN, TRYING PURE NR STEP
               NR STEP HAS LENGTH         =  49.397209
          TRIM/QA LAMBDA FOR NON-TS MODES =  -0.09302959
          TRIM/QA STEP HAS LENGTH         =   0.064541
          RADIUS OF STEP TAKEN=   0.06454  CURRENT TRUST RADIUS=   0.06454

 BEGINNING GEOMETRY SEARCH POINT NSERCH=   5 ...

 COORDINATES OF ALL ATOMS ARE (ANGS)
   ATOM   CHARGE       X              Y              Z
 ------------------------------------------------------------
 C           6.0  -0.1211064682  -0.3914449543  -0.0047617224
 O           8.0  -1.1716411150   0.2235700707   0.0017006189
 O           8.0   1.0980940172   0.2494894593   0.0076971458
 H           1.0  -0.0262293511  -1.4905528426   0.0011716130
 H           1.0   1.8421829171  -0.4115717330  -0.0037976552

          INTERNUCLEAR DISTANCES (ANGS.)
          ------------------------------

                1 C          2 O          3 O          4 H          5 H     

   1 C       0.0000000    1.2173366 *  1.3774621 *  1.1032112 *  1.9633928 *
   2 O       1.2173366 *  0.0000000    2.2698910 *  2.0615979 *  3.0800277  
   3 O       1.3774621 *  2.2698910 *  0.0000000    2.0716884 *  0.9953905 *
   4 H       1.1032112 *  2.0615979 *  2.0716884 *  0.0000000    2.1575888 *
   5 H       1.9633928 *  3.0800277    0.9953905 *  2.1575888 *  0.0000000  

  * ... LESS THAN  3.000

 ...... END OF ONE-ELECTRON INTEGRALS ......
 CPU     0: STEP CPU TIME=     0.00 TOTAL CPU TIME=          4.5 (      0.1 MIN)
 TOTAL WALL CLOCK TIME=          4.6 SECONDS, CPU UTILIZATION IS    98.02%
  ...... END OF TWO-ELECTRON INTEGRALS .....
 CPU     0: STEP CPU TIME=     0.00 TOTAL CPU TIME=          4.5 (      0.1 MIN)
 TOTAL WALL CLOCK TIME=          4.6 SECONDS, CPU UTILIZATION IS    98.02%

          --------------------------
             R-B3LYP SCF CALCULATION
          --------------------------
         DENSITY MATRIX CONVERGENCE THRESHOLD=  1.00E-04
     COARSE -> FINE DFT GRID SWITCH THRESHOLD=  1.50E-03 (SWITCH IN $DFT)
                   HF -> DFT SWITCH THRESHOLD=  5.00E-03 (SWOFF IN $DFT)

 DIRECT SCF CALCULATION, SCHWRZ=T   FDIFF=T,  DIRTHR=  0.00E+00 NITDIR=10

 DFT CODE IS SWITCHING FROM THE FINE GRID NRAD= 96,  NLEB=  302
                      TO THE COARSE GRID NRAD0= 24, NLEB0=  110

                                                                                   NONZERO     BLOCKS
 ITER EX DEM     TOTAL ENERGY        E CHANGE  DENSITY CHANGE    DIIS ERROR      INTEGRALS    SKIPPED
          * * *   INITIATING DIIS PROCEDURE   * * *
   1  0  0     -188.5964589965  -188.5964589965   0.013470745   0.015103598         112095        460
   2  1  0     -188.5969195261    -0.0004605296   0.001661432   0.002054933         111677        597
   3  2  0     -188.5969139480     0.0000055781   0.001240548   0.003454647         111126        664
 DFT CODE IS SWITCHING BACK TO THE FINE GRID
          * * *   INITIATING DIIS PROCEDURE   * * *
   4  3  0     -188.5972897032    -0.0003757552   0.001484056   0.001708511         112095        460
   5  4  0     -188.5972977558    -0.0000080526   0.001316616   0.002141086         111100        669
   6  5  0     -188.5972976076     0.0000001482   0.000646952   0.001958446         111114        669
   7  6  0     -188.5973016170    -0.0000040094   0.000119872   0.000281427         110652        706
   8  7  0     -188.5973017018    -0.0000000848   0.000029866   0.000066472         109775        789
   9  8  0     -188.5973017070    -0.0000000052   0.000013356   0.000012284         107885        878

          -----------------
          DENSITY CONVERGED
          -----------------
     TIME TO FORM FOCK OPERATORS=       0.5 SECONDS (       0.1 SEC/ITER)
     FOCK TIME ON FIRST ITERATION=       0.0, LAST ITERATION=       0.1
     TIME TO SOLVE SCF EQUATIONS=       0.1 SECONDS (       0.0 SEC/ITER)

 FINAL R-B3LYP ENERGY IS     -188.5973017070 AFTER   9 ITERATIONS
 DFT EXCHANGE + CORRELATION ENERGY =       -18.6994478027
 TOTAL ELECTRON NUMBER             =        23.9999918916
 ...... END OF RHF CALCULATION ......
 CPU     0: STEP CPU TIME=     0.58 TOTAL CPU TIME=          5.0 (      0.1 MIN)
 TOTAL WALL CLOCK TIME=          5.1 SECONDS, CPU UTILIZATION IS    98.05%
 ..... END OF 1-ELECTRON GRADIENT ......
 CPU     0: STEP CPU TIME=     0.00 TOTAL CPU TIME=          5.0 (      0.1 MIN)
 TOTAL WALL CLOCK TIME=          5.1 SECONDS, CPU UTILIZATION IS    98.05%
 MEMORY FOR GRID POINT CONTRIBUTIONS TO THE DFT GRADIENT=    199178 WORDS.
 CPU     0: STEP CPU TIME=     0.12 TOTAL CPU TIME=          5.2 (      0.1 MIN)
 TOTAL WALL CLOCK TIME=          5.3 SECONDS, CPU UTILIZATION IS    97.91%
 ...... END OF 2-ELECTRON GRADIENT ......
 CPU     0: STEP CPU TIME=     0.00 TOTAL CPU TIME=          5.2 (      0.1 MIN)
 TOTAL WALL CLOCK TIME=          5.3 SECONDS, CPU UTILIZATION IS    97.91%

          NSERCH=  5     ENERGY=    -188.5973017

                                 -----------------------
                                 GRADIENT (HARTREE/BOHR)
                                 -----------------------
        ATOM     ZNUC       DE/DX         DE/DY         DE/DZ
 --------------------------------------------------------------
    1  C            6.0     0.0053691    -0.0034300    -0.0027896
    2  O            8.0    -0.0044821     0.0042048     0.0009697
    3  O            8.0    -0.0021048     0.0001327     0.0008888
    4  H            1.0     0.0014534    -0.0001813     0.0010383
    5  H            1.0    -0.0002356    -0.0007262    -0.0001071

          MAXIMUM GRADIENT = 0.0053691    RMS GRADIENT = 0.0025317

 NSERCH:   5  E=     -188.5973017070  GRAD. MAX=  0.0053691  R.M.S.=  0.0025317

          HESSIAN UPDATED USING THE BFGS FORMULA
             ACTUAL ENERGY CHANGE WAS  -0.0006646477
          PREDICTED ENERGY CHANGE WAS  -0.0007475026 RATIO=  0.889
          MIN SEARCH, CORRECT HESSIAN, TRYING PURE NR STEP
               NR STEP HAS LENGTH         =  77.111757
          TRIM/QA LAMBDA FOR NON-TS MODES =  -0.02870866
          TRIM/QA STEP HAS LENGTH         =   0.091275
          RADIUS OF STEP TAKEN=   0.09127  CURRENT TRUST RADIUS=   0.09127

 BEGINNING GEOMETRY SEARCH POINT NSERCH=   6 ...

 COORDINATES OF ALL ATOMS ARE (ANGS)
   ATOM   CHARGE       X              Y              Z
 ------------------------------------------------------------
 C           6.0  -0.1379849147  -0.3816329113   0.0262003096
 O           8.0  -1.1642425103   0.2224564305  -0.0079929159
 O           8.0   1.0982185254   0.2422418645  -0.0041034427
 H           1.0  -0.0070734673  -1.4874955060  -0.0111092459
 H           1.0   1.8323823669  -0.4160798777  -0.0009847052

          INTERNUCLEAR DISTANCES (ANGS.)
          ------------------------------

                1 C          2 O          3 O          4 H          5 H     

   1 C       0.0000000    1.1913428 *  1.3850404 *  1.1142091 *  1.9708559 *
   2 O       1.1913428 *  0.0000000    2.2625509 *  2.0646999 *  3.0639090  
   3 O       1.3850404 *  2.2625509 *  0.0000000    2.0527325 *  0.9861003 *
   4 H       1.1142091 *  2.0646999 *  2.0527325 *  0.0000000    2.1287630 *
   5 H       1.9708559 *  3.0639090    0.9861003 *  2.1287630 *  0.0000000  

  * ... LESS THAN  3.000

 ...... END OF ONE-ELECTRON INTEGRALS ......
 CPU     0: STEP CPU TIME=     0.01 TOTAL CPU TIME=          5.2 (      0.1 MIN)
 TOTAL WALL CLOCK TIME=          5.3 SECONDS, CPU UTILIZATION IS    97.92%
  ...... END OF TWO-ELECTRON INTEGRALS .....
 CPU     0: STEP CPU TIME=     0.00 TOTAL CPU TIME=          5.2 (      0.1 MIN)
 TOTAL WALL CLOCK TIME=          5.3 SECONDS, CPU UTILIZATION IS    97.92%

          --------------------------
             R-B3LYP SCF CALCULATION
          --------------------------
         DENSITY MATRIX CONVERGENCE THRESHOLD=  2.00E-05
     COARSE -> FINE DFT GRID SWITCH THRESHOLD=  3.00E-04 (SWITCH IN $DFT)
                   HF -> DFT SWITCH THRESHOLD=  5.00E-03 (SWOFF IN $DFT)

 DIRECT SCF CALCULATION, SCHWRZ=T   FDIFF=T,  DIRTHR=  0.00E+00 NITDIR=10

 DFT CODE IS SWITCHING FROM THE FINE GRID NRAD= 96,  NLEB=  302
                      TO THE COARSE GRID NRAD0= 24, NLEB0=  110

                                                                                   NONZERO     BLOCKS
 ITER EX DEM     TOTAL ENERGY        E CHANGE  DENSITY CHANGE    DIIS ERROR      INTEGRALS    SKIPPED
          * * *   INITIATING DIIS PROCEDURE   * * *
   1  0  0     -188.5935521983  -188.5935521983   0.015441670   0.016171937         112330        450
   2  1  0     -188.5954311862    -0.0018789879   0.017067226   0.016959111         112096        565
   3  2  0     -188.5951103075     0.0003208787   0.009989604   0.024452782         112002        584
   4  3  0     -188.5958096570    -0.0006993496   0.001040545   0.002445163         111889        596
   5  4  0     -188.5958174886    -0.0000078316   0.000295459   0.000599551         111056        674
 DFT CODE IS SWITCHING BACK TO THE FINE GRID
          * * *   INITIATING DIIS PROCEDURE   * * *
   6  5  0     -188.5958151585     0.0000023302   0.001294947   0.001599053         112330        450
   7  6  0     -188.5958269088    -0.0000117503   0.000962379   0.000901798         111258        664
   8  7  0     -188.5958266927     0.0000002161   0.000459939   0.001204976         111001        682
   9  8  0     -188.5958284361    -0.0000017434   0.000134258   0.000227974         110718        704
  10  9  0     -188.5958284949    -0.0000000587   0.000050520   0.000109911         109830        784
  11 10  0     -188.5958285130    -0.0000000181   0.000018362   0.000013653         109040        831
  12 11  0     -188.5958285134    -0.0000000004   0.000002141   0.000001794         106699        939

          -----------------
          DENSITY CONVERGED
          -----------------
     TIME TO FORM FOCK OPERATORS=       0.6 SECONDS (       0.1 SEC/ITER)
     FOCK TIME ON FIRST ITERATION=       0.0, LAST ITERATION=       0.1
     TIME TO SOLVE SCF EQUATIONS=       0.1 SECONDS (       0.0 SEC/ITER)

[...]
          TOTAL ENERGY      =     -188.5973692110

          ------------------
          MOLECULAR ORBITALS
          ------------------

                      1          2          3          4          5
                  -19.0865   -19.0380   -10.2633    -1.1016    -1.0321
                     A          A          A          A          A   
    1  C  1  S    0.000444   0.000204  -0.984822  -0.128294  -0.045699
    2  C  1  S    0.000869   0.000947  -0.101515   0.146845   0.051506
    3  C  1  X   -0.001796  -0.002143   0.000811  -0.018900  -0.196036
    4  C  1  Y   -0.000869   0.000825  -0.000480   0.082519   0.046722
    5  C  1  Z   -0.000002   0.000002  -0.000001   0.000183   0.000107
    6  C  1  S   -0.015445   0.020118   0.040208   0.129770   0.043637
    7  C  1  X   -0.010606  -0.015420   0.003968   0.019687   0.018605
    8  C  1  Y   -0.007382   0.014207  -0.011717  -0.046437  -0.022567
    9  C  1  Z   -0.000016   0.000031  -0.000025  -0.000101  -0.000049
   10  O  2  S   -0.002374   0.982617  -0.000360  -0.130123  -0.165918
   11  O  2  S   -0.000828   0.106148  -0.001249   0.122440   0.161168
   12  O  2  X   -0.000437   0.004110   0.000726   0.092751   0.098889
   13  O  2  Y   -0.000507  -0.002143  -0.000764  -0.047792  -0.065402
   14  O  2  Z   -0.000001  -0.000005  -0.000002  -0.000107  -0.000146
   15  O  2  S    0.001961  -0.057373   0.004022   0.395671   0.509192
   16  O  2  X    0.003159  -0.014113   0.006567   0.094440   0.088023
   17  O  2  Y    0.002511   0.006851  -0.001708  -0.038961  -0.059017
   18  O  2  Z    0.000006   0.000015  -0.000004  -0.000088  -0.000132
   19  O  3  S   -0.982473  -0.002215  -0.000195  -0.162240   0.153387
   20  O  3  S   -0.105080   0.000391  -0.001311   0.150551  -0.147235
   21  O  3  X    0.001381  -0.000376   0.000514  -0.034735  -0.005093
   22  O  3  Y    0.003478   0.000808  -0.000007  -0.075618   0.077398
   23  O  3  Z    0.000008   0.000002   0.000000  -0.000170   0.000175
   24  O  3  S    0.050454  -0.002076  -0.000621   0.494939  -0.481322
   25  O  3  X   -0.006477   0.003385  -0.003289  -0.049408   0.001919
   26  O  3  Y   -0.008265  -0.003688   0.000127  -0.075475   0.089385
   27  O  3  Z   -0.000018  -0.000008   0.000000  -0.000170   0.000201
   28  H  4  S    0.000647   0.000224   0.002195   0.028319   0.002776
   29  H  4  S   -0.000337   0.003836  -0.017222  -0.025306  -0.020317
   30  H  5  S   -0.003035  -0.001590   0.000840   0.072222  -0.080151
   31  H  5  S   -0.004883   0.001666  -0.002485   0.006376  -0.026953

                      6          7          8          9         10
                   -0.6285    -0.5728    -0.4332    -0.4299    -0.3733
                     A          A          A          A          A   
    1  C  1  S   -0.144461   0.045156  -0.000020  -0.046405  -0.024866
    2  C  1  S    0.173145  -0.046506   0.000031   0.079839   0.044519
    3  C  1  X    0.151044   0.097937  -0.000074  -0.285373   0.030165
    4  C  1  Y   -0.078608   0.313626   0.000749   0.113619   0.192533
    5  C  1  Z   -0.000165   0.000681  -0.323733   0.000339   0.000447
    6  C  1  S    0.399001  -0.145534   0.000039   0.082042  -0.016069
    7  C  1  X    0.085618   0.015774  -0.000018  -0.084134   0.128896
    8  C  1  Y   -0.101925   0.210672   0.000676   0.022949   0.009934
    9  C  1  Z   -0.000218   0.000458  -0.306427   0.000133   0.000045
   10  O  2  S    0.078134  -0.007987   0.000033   0.114119   0.018300
   11  O  2  S   -0.079564   0.012450  -0.000029  -0.095533  -0.024601
   12  O  2  X    0.039307   0.058160   0.000091   0.328837   0.205996
   13  O  2  Y   -0.021646   0.113509   0.000531  -0.215480   0.060932
   14  O  2  Z   -0.000045   0.000246  -0.267197  -0.000412   0.000161
   15  O  2  S   -0.273286   0.007282  -0.000137  -0.489926  -0.003529
   16  O  2  X    0.039205   0.038366   0.000084   0.295797   0.227981
   17  O  2  Y   -0.009738   0.094830   0.000485  -0.190823   0.043450
   18  O  2  Z   -0.000020   0.000206  -0.243881  -0.000363   0.000121
   19  O  3  S    0.052937  -0.036259   0.000003  -0.025438   0.087756
   20  O  3  S   -0.052460   0.036287  -0.000004   0.022816  -0.077590
   21  O  3  X   -0.290653  -0.248516   0.000013   0.098581   0.008808
   22  O  3  Y   -0.015854   0.117577   0.000657   0.150533  -0.398831
   23  O  3  Z   -0.000019   0.000267  -0.291390   0.000407  -0.000872
   24  O  3  S   -0.203439   0.145090  -0.000014   0.101113  -0.398740
   25  O  3  X   -0.247858  -0.208749   0.000009   0.092982  -0.011648
   26  O  3  Y   -0.007589   0.099509   0.000670   0.161448  -0.404369
   27  O  3  Z   -0.000004   0.000226  -0.295811   0.000432  -0.000883
   28  H  4  S    0.152719  -0.191267  -0.000015  -0.026558  -0.109593
   29  H  4  S    0.040670  -0.111076  -0.000023  -0.056682  -0.150227
   30  H  5  S   -0.162607  -0.151190   0.000015   0.011980   0.151795
   31  H  5  S   -0.119857  -0.115022   0.000011   0.011112   0.121384

                     11         12         13         14         15
                   -0.3067    -0.2731     0.0052     0.0667     0.1373
                     A          A          A          A          A   
    1  C  1  S   -0.000000  -0.012275   0.000012  -0.012105   0.153426
    2  C  1  S    0.000001   0.007960  -0.000006   0.006685  -0.098470
    3  C  1  X   -0.000004   0.015512   0.000002  -0.059753  -0.125040
    4  C  1  Y    0.000229  -0.059797  -0.001006  -0.156423   0.202000
    5  C  1  Z   -0.102744  -0.000131   0.467527  -0.000331   0.000400
    6  C  1  S   -0.000002   0.062710  -0.000115   0.247168  -1.693151
    7  C  1  X    0.000001   0.108253  -0.000009   0.041018  -0.195801
    8  C  1  Y    0.000157   0.151569  -0.001258  -0.339030   0.540108
    9  C  1  Z   -0.074582   0.000325   0.594304  -0.000717   0.001098
   10  O  2  S    0.000000   0.001029  -0.000001  -0.009670  -0.023835
   11  O  2  S   -0.000000   0.000446   0.000002   0.006207   0.023426
   12  O  2  X   -0.000006   0.209414  -0.000006   0.077924   0.086941
   13  O  2  Y    0.000739   0.427207   0.000758   0.085885  -0.068535
   14  O  2  Z   -0.339422   0.000919  -0.350596   0.000180  -0.000129
   15  O  2  S    0.000004  -0.017869   0.000003   0.096935   0.176772
   16  O  2  X   -0.000006   0.211081  -0.000009   0.115983   0.131511
   17  O  2  Y    0.000817   0.450382   0.001057   0.111411  -0.154164
   18  O  2  Z   -0.375816   0.000969  -0.489324   0.000229  -0.000303
   19  O  3  S   -0.000001   0.019907  -0.000000  -0.090660  -0.059822
   20  O  3  S    0.000001  -0.003583   0.000000   0.055653   0.043491
   21  O  3  X    0.000013   0.137611  -0.000022   0.189729  -0.108541
   22  O  3  Y   -0.000936   0.145353   0.000476  -0.190069  -0.146060
   23  O  3  Z    0.413607   0.000324  -0.218477  -0.000445  -0.000310
   24  O  3  S    0.000008  -0.194627   0.000005   0.759668   0.494907
   25  O  3  X    0.000014   0.195698  -0.000033   0.351651  -0.196444
   26  O  3  Y   -0.001091   0.197692   0.000635  -0.313193  -0.283645
   27  O  3  Z    0.481954   0.000442  -0.293206  -0.000736  -0.000605
   28  H  4  S   -0.000009   0.160061   0.000020   0.012519   0.109043
   29  H  4  S   -0.000012   0.315522   0.000086  -0.437966   1.648027
   30  H  5  S   -0.000002   0.027037   0.000010  -0.155698  -0.024335
   31  H  5  S   -0.000005   0.058767   0.000018  -1.179915  -0.241098

                     16         17         18         19         20
                    0.2969     0.3302     0.6785     0.7239     0.8013
                     A          A          A          A          A   
    1  C  1  S   -0.043489   0.078329   0.000002   0.011297  -0.049266
    2  C  1  S    0.042800   0.003325  -0.000001   0.167897   0.129472
    3  C  1  X    0.362254   0.018244   0.000068   0.971802  -0.496493
    4  C  1  Y    0.331873  -0.288248  -0.002198   0.343257   0.737365
    5  C  1  Z    0.000717  -0.000628   1.031199   0.000661   0.001593
    6  C  1  S    0.119788  -0.993436  -0.000031  -0.486227   0.349040
    7  C  1  X    1.223952   1.231391  -0.000094  -1.178433   0.330579
    8  C  1  Y    0.580756  -1.083989   0.002400  -1.056483  -1.459406
    9  C  1  Z    0.001253  -0.002401  -1.139526  -0.002205  -0.003125
   10  O  2  S   -0.030041  -0.125767  -0.000001  -0.034886   0.021210
   11  O  2  S    0.000426   0.058109   0.000001   0.047664  -0.044137
   12  O  2  X   -0.070714   0.212520   0.000007   0.198122  -0.135965
   13  O  2  Y   -0.197331  -0.077226  -0.000105   0.026977   0.265439
   14  O  2  Z   -0.000433  -0.000176   0.050315   0.000048   0.000572
   15  O  2  S    0.459529   1.512056   0.000009   0.075023   0.263638
   16  O  2  X   -0.036216   0.673930   0.000020   0.346016  -0.082758
   17  O  2  Y   -0.412494  -0.283832  -0.000336   0.068304   0.216241
   18  O  2  Z   -0.000909  -0.000643   0.158958   0.000130   0.000467
   19  O  3  S    0.068152  -0.025256  -0.000002  -0.013445  -0.026383
   20  O  3  S   -0.041653   0.043855  -0.000000  -0.036290   0.033033
   21  O  3  X    0.328612  -0.152672   0.000019   0.091104   0.048305
   22  O  3  Y    0.087403   0.093232  -0.000173   0.159226   0.061714
   23  O  3  Z    0.000184   0.000207   0.081403   0.000345   0.000112
   24  O  3  S   -0.671823  -0.013402   0.000060   0.659624   0.161728
   25  O  3  X    0.719920  -0.254521  -0.000017  -0.268450  -0.084378
   26  O  3  Y    0.177292   0.212315  -0.000320  -0.041263   0.052288
   27  O  3  Z    0.000374   0.000472   0.144668  -0.000099   0.000104
   28  H  4  S   -0.026436   0.089454  -0.000012  -0.026539  -0.490404
   29  H  4  S    0.580528  -0.683834   0.000001  -0.433228  -0.514437
   30  H  5  S   -0.085523  -0.089263  -0.000017  -0.016762  -0.413576
   31  H  5  S   -0.523562   0.153202   0.000013   0.297001   0.226319

                     21         22
                    0.8528     0.9820
                     A          A   
    1  C  1  S    0.015483  -0.033912
    2  C  1  S   -0.371528   0.022093
    3  C  1  X    0.233771  -0.014241
    4  C  1  Y   -0.563282  -0.217819
    5  C  1  Z   -0.001227  -0.000462
    6  C  1  S    0.044953  -0.244653
    7  C  1  X   -0.255118   0.419298
    8  C  1  Y    0.679349  -0.104021
    9  C  1  Z    0.001492  -0.000253
   10  O  2  S   -0.005050  -0.018107
   11  O  2  S    0.000808   0.009619
   12  O  2  X    0.186912   0.016845
   13  O  2  Y   -0.012659   0.095701
   14  O  2  Z   -0.000041   0.000202
   15  O  2  S   -0.208580   0.299571
   16  O  2  X    0.030418   0.113669
   17  O  2  Y   -0.108974  -0.109064
   18  O  2  Z   -0.000239  -0.000238
   19  O  3  S   -0.013145   0.022701
   20  O  3  S    0.019469  -0.058616
   21  O  3  X    0.065901  -0.111922
   22  O  3  Y   -0.129999   0.382104
   23  O  3  Z   -0.000309   0.000846
   24  O  3  S   -0.113239   0.059483
   25  O  3  X    0.185781  -0.063298
   26  O  3  Y   -0.126095  -0.032528
   27  O  3  Z   -0.000283  -0.000061
   28  H  4  S   -0.798497  -0.849660
   29  H  4  S    0.968389   0.748098
   30  H  5  S   -0.754866   0.935902
   31  H  5  S    0.489908  -0.917164

     ---------------------------------------------------------------------
     PROPERTIES FOR THE B3LYP    DFT FUNCTIONAL (RHF  TYPE) DENSITY MATRIX
     ---------------------------------------------------------------------

          -----------------
          ENERGY COMPONENTS
          -----------------

         WAVEFUNCTION NORMALIZATION =       1.0000000000

                ONE ELECTRON ENERGY =    -394.1282969494
                TWO ELECTRON ENERGY =     136.8207760990
           NUCLEAR REPULSION ENERGY =      68.7101516394
                                      ------------------
                       TOTAL ENERGY =    -188.5973692110

 ELECTRON-ELECTRON POTENTIAL ENERGY =     136.8207760990
  NUCLEUS-ELECTRON POTENTIAL ENERGY =    -581.2923796536
   NUCLEUS-NUCLEUS POTENTIAL ENERGY =      68.7101516394
                                      ------------------
             TOTAL POTENTIAL ENERGY =    -375.7614519153
               TOTAL KINETIC ENERGY =     187.1640827042
                 VIRIAL RATIO (V/T) =       2.0076579143

          ---------------------------------------
          MULLIKEN AND LOWDIN POPULATION ANALYSES
          ---------------------------------------

     ATOMIC MULLIKEN POPULATION IN EACH MOLECULAR ORBITAL

                      1          2          3          4          5

                  2.000000   2.000000   2.000000   2.000000   2.000000

    1             0.003530   0.006561   1.999444   0.363076   0.209742
    2            -0.000002   1.993367  -0.002329   0.666392   0.944058
    3             1.995599  -0.000001  -0.000503   0.933537   0.774127
    4             0.000006   0.000072   0.003294  -0.010214  -0.001250
    5             0.000868   0.000001   0.000094   0.047209   0.073322

                      6          7          8          9         10

                  2.000000   2.000000   2.000000   2.000000   2.000000

    1             0.750300   0.804932   0.844209   0.310311   0.163972
    2             0.176034   0.131203   0.521970   1.431458   0.315885
    3             0.710684   0.564187   0.633821   0.246979   1.292158
    4             0.166746   0.321215   0.000000   0.010451   0.104539
    5             0.196236   0.178464   0.000000   0.000801   0.123446

                     11         12

                  2.000000   2.000000

    1             0.051085   0.054711
    2             0.804239   1.442705
    3             1.144676   0.234752
    4             0.000000   0.251677
    5             0.000000   0.016156

               ----- POPULATIONS IN EACH AO -----
                             MULLIKEN      LOWDIN
              1  C  1  S      1.98370     1.97384
              2  C  1  S      0.43522     0.44174
              3  C  1  X      0.57167     0.54427
              4  C  1  Y      0.60414     0.55598
              5  C  1  Z      0.41735     0.39751
              6  C  1  S      0.63129     0.55947
              7  C  1  X      0.08754     0.37460
              8  C  1  Y      0.35302     0.48668
              9  C  1  Z      0.47795     0.50030
             10  O  2  S      1.98567     1.98053
             11  O  2  S      0.44041     0.59373
             12  O  2  X      0.71647     0.70218
             13  O  2  Y      0.79890     0.78957
             14  O  2  Z      0.59953     0.58712
             15  O  2  S      1.53812     1.05289
             16  O  2  X      0.76802     0.82756
             17  O  2  Y      0.85119     0.91176
             18  O  2  Z      0.72668     0.74084
             19  O  3  S      1.98484     1.97917
             20  O  3  S      0.42858     0.58607
             21  O  3  X      0.58837     0.56171
             22  O  3  Y      0.73919     0.72764
             23  O  3  Z      0.80841     0.81190
             24  O  3  S      1.49848     1.03528
             25  O  3  X      0.64992     0.70123
             26  O  3  Y      0.86214     0.90406
             27  O  3  Z      0.97008     0.96234
             28  H  4  S      0.48283     0.48007
             29  H  4  S      0.36371     0.48589
             30  H  5  S      0.42278     0.42712
             31  H  5  S      0.21382     0.31694

          ----- MULLIKEN ATOMIC OVERLAP POPULATIONS -----
          (OFF-DIAGONAL ELEMENTS NEED TO BE MULTIPLIED BY 2)

             1           2           3           4           5

    1    4.6207403
    2    0.5155873   8.0163036
    3    0.1826591  -0.0444648   8.2374052
    4    0.2609141  -0.0647983  -0.0776962   0.7252411
    5   -0.0180281   0.0023518   0.2321125   0.0028758   0.4172836

          TOTAL MULLIKEN AND LOWDIN ATOMIC POPULATIONS
       ATOM         MULL.POP.    CHARGE          LOW.POP.     CHARGE
    1 C             5.561873    0.438127         5.834397    0.165603
    2 O             8.424980   -0.424980         8.186179   -0.186179
    3 O             8.530016   -0.530016         8.269406   -0.269406
    4 H             0.846536    0.153464         0.965960    0.034040
    5 H             0.636596    0.363404         0.744058    0.255942

          -------------------------------
          BOND ORDER AND VALENCE ANALYSIS     BOND ORDER THRESHOLD=0.050
          -------------------------------

                   BOND                       BOND                       BOND
  ATOM PAIR DIST  ORDER      ATOM PAIR DIST  ORDER      ATOM PAIR DIST  ORDER
    1   2  1.213  1.887        1   3  1.380  0.977        1   4  1.103  0.817
    2   3  2.272  0.160        2   4  2.053  0.059        3   5  0.995  0.806

                       TOTAL       BONDED        FREE
      ATOM            VALENCE     VALENCE     VALENCE
    1 C                 3.696       3.696      -0.000
    2 O                 2.131       2.131      -0.000
    3 O                 1.981       1.981      -0.000
    4 H                 0.915       0.915       0.000
    5 H                 0.847       0.847       0.000

          ---------------------
          ELECTROSTATIC MOMENTS
          ---------------------

 POINT   1           X           Y           Z (BOHR)    CHARGE
                -0.030826    0.036839    0.002362       -0.00 (A.U.)
         DX          DY          DZ         /D/  (DEBYE)
     2.731211   -2.830642   -0.006366    3.933458
 ...... END OF PROPERTY EVALUATION ......
 CPU     0: STEP CPU TIME=     0.02 TOTAL CPU TIME=         16.2 (      0.3 MIN)
 TOTAL WALL CLOCK TIME=         16.5 SECONDS, CPU UTILIZATION IS    97.94%
  $VIB   
          IVIB=   0 IATOM=   0 ICOORD=   0 E=     -188.5973692110
 -1.572323415E-05 1.114649840E-05-1.044130811E-05-1.696985074E-05-2.308477852E-06
  3.441786600E-06 4.048508783E-05-2.991531435E-05 3.508284715E-06 4.431571898E-06
 -1.898753485E-06 4.001552446E-06-1.222357484E-05 2.297604729E-05-5.103156524E-07
  2.731210905E+00-2.830642257E+00-6.366111611E-03
 ......END OF GEOMETRY SEARCH......
 CPU     0: STEP CPU TIME=     0.00 TOTAL CPU TIME=         16.2 (      0.3 MIN)
 TOTAL WALL CLOCK TIME=         16.5 SECONDS, CPU UTILIZATION IS    97.94%
               580000  WORDS OF DYNAMIC MEMORY USED
 EXECUTION OF GAMESS TERMINATED NORMALLY Sun May 17 12:16:10 2020
 DDI: 263640 bytes (0.3 MB / 0 MWords) used by master data server.
Note: The following floating-point exceptions are signalling: IEEE_DENORMALNote: The following floating-point exceptions are signalling: IEEE_DENORMALNote: The following floating-point exceptions are signalling: IEEE_DENORMALNote: The following floating-point exceptions are signalling:

 ----------------------------------------
 CPU timing information for all processes
 ========================================
 0: 14.622 + 1.541 = 16.163
 1: 14.732 + 0.322 = 15.55
 2: 14.729 + 0.189 = 14.918
 3: 14.707 + 0.205 = 14.912
 4: 14.668 + 0.261 = 14.929
 5: 14.658 + 0.205 = 14.863
 ----------------------------------------


 IEEE_DENORMAL
Note: The following floating-point exceptions are signalling: IEEE_UNDERFLOW_FLAGNote: The following floating-point exceptions are signalling: IEEE_DENORMAL IEEE_DENORMAL

 ddikick.x: exited gracefully.
unset echo
----- accounting info -----
Files used on the master node pietdev were:
-rwxr-xr-x 1 piet piet      402 mei 17 12:15 /home/piet/scr/formicacid_geoopt.F05*
-rw-r--r-- 1 piet piet 57344000 mei 17 12:16 /home/piet/scr/formicacid_geoopt.F10
-rw-r--r-- 1 piet piet  1552176 mei 17 12:16 /home/piet/scr/formicacid_geoopt.F22
-rw-r--r-- 1 piet piet  1552176 mei 17 12:16 /home/piet/scr/formicacid_geoopt.F22.001
-rw-r--r-- 1 piet piet  1552176 mei 17 12:16 /home/piet/scr/formicacid_geoopt.F22.002
-rw-r--r-- 1 piet piet  1552176 mei 17 12:16 /home/piet/scr/formicacid_geoopt.F22.003
-rw-r--r-- 1 piet piet  1552176 mei 17 12:16 /home/piet/scr/formicacid_geoopt.F22.004
-rw-r--r-- 1 piet piet  1552176 mei 17 12:16 /home/piet/scr/formicacid_geoopt.F22.005
ls: No match.
ls: No match.
ls: No match.
zo 17 mei 2020 12:16:13 CEST
0.103u 0.025s 0:19.64 0.6%	0+0k 0+8io 0pf+0w
