----- GAMESS execution script 'rungms' -----
This job is running on host pietdev
under operating system Linux at zo 17 mei 2020 12:16:57 CEST
Available scratch disk space (Kbyte units) at beginning of the job is
Filesystem     1K-blocks     Used Available Use% Mounted on
/dev/sda2      244568380 30346948 201728376  14% /
GAMESS temporary binary files will be written to /home/piet/scr
GAMESS supplementary output files will be written to /home/piet/gamess/scr
Copying input file formicacid_fukui_acid.inp to your run's scratch directory...
cp formicacid_fukui_acid.inp /home/piet/scr/formicacid_fukui_acid.F05
unset echo
 
Assuming a single but multicore node.
 
/home/piet/gamess/ddikick.x /home/piet/gamess/gamess.03.x formicacid_fukui_acid -ddi 1 6 pietdev:cpus=6 -scr /home/piet/scr

 Distributed Data Interface kickoff program.
 Initiating 6 compute processes on 1 nodes to run the following command:
 /home/piet/gamess/gamess.03.x formicacid_fukui_acid 

          ******************************************************
          *         GAMESS VERSION = 30 SEP 2019 (R2)          *
          *             FROM IOWA STATE UNIVERSITY             *
          * M.W.SCHMIDT, K.K.BALDRIDGE, J.A.BOATZ, S.T.ELBERT, *
          *   M.S.GORDON, J.H.JENSEN, S.KOSEKI, N.MATSUNAGA,   *
          *          K.A.NGUYEN, S.J.SU, T.L.WINDUS,           *
          *       TOGETHER WITH M.DUPUIS, J.A.MONTGOMERY       *
          *         J.COMPUT.CHEM.  14, 1347-1363(1993)        *
          **************** 64 BIT LINUX VERSION ****************

  SINCE 1993, STUDENTS AND POSTDOCS WORKING AT IOWA STATE UNIVERSITY
  AND ALSO IN THEIR VARIOUS JOBS AFTER LEAVING ISU HAVE MADE IMPORTANT
  CONTRIBUTIONS TO THE CODE:
     IVANA ADAMOVIC, CHRISTINE AIKENS, YURI ALEXEEV, POOJA ARORA,
     ANDREY ASADCHEV, ROB BELL, PRADIPTA BANDYOPADHYAY, JONATHAN BENTZ,
     COLLEEN BERTONI, BRETT BODE, KURT BRORSEN, CALEB CARLIN, GALINA CHABAN,
     WEI CHEN, CHEOL HO CHOI, PAUL DAY, ALBERT DEFUSCO, NUWAN DESILVA,
     TIM DUDLEY, DMITRI FEDOROV, ALEX FINDLATER, GRAHAM FLETCHER, 
     MARK FREITAG, KURT GLAESEMANN, EMILIE B GUIDEZ, ANASTASIA GUNINA, 
     DAN KEMP, SAROM SOK LEANG, GRANT MERRILL,
     NORIYUKI MINEZAWA, JONATHAN MULLIN,
     TAKESHI NAGATA, SEAN NEDD, HEATHER NETZLOFF, BOSILJKA NJEGIC, RYAN OLSON,
     MIKE PAK, BUU PHAM, DAVID POOLE,
     SPENCER PRUITT, LUKE ROSKOP, TOSAPORN SATTASATHUCHANA,
     JIM SHOEMAKER, LYUDMILA SLIPCHENKO,
     TONY SMITH, JIE SONG, TETSUYA TAKETSUGU, SIMON WEBB,
     JORGE LUIS GALVEZ VALLEJO, PENG XU, SOOHAENG YOO,
     FEDERICO ZAHARIEV

  ADDITIONAL CODE HAS BEEN PROVIDED BY COLLABORATORS IN OTHER GROUPS:
     IOWA STATE UNIVERSITY:
          JOE IVANIC, AARON WEST, LAIMUTIS BYTAUTAS, KLAUS RUEDENBERG
     UNIVERSITY OF TOKYO: KIMIHIKO HIRAO, TAKAHITO NAKAJIMA,
          TAKAO TSUNEDA, MUNEAKI KAMIYA, SUSUMU YANAGISAWA,
          KIYOSHI YAGI, MAHITO CHIBA, SEIKEN TOKURA, NAOAKI KAWAKAMI
     UNIVERSITY OF AARHUS: FRANK JENSEN
     UNIVERSITY OF IOWA: VISVALDAS KAIRYS, HUI LI
     NATIONAL INST. OF STANDARDS AND TECHNOLOGY: WALT STEVENS, DAVID GARMER
     UNIVERSITY OF PISA: BENEDETTA MENNUCCI, JACOPO TOMASI
     UNIVERSITY OF MEMPHIS: HENRY KURTZ, PRAKASHAN KORAMBATH
     UNIVERSITY OF ALBERTA: TOBY ZENG, MARIUSZ KLOBUKOWSKI
     UNIVERSITY OF NEW ENGLAND: MARK SPACKMAN
     MIE UNIVERSITY: HIROAKI UMEDA
     NAT. INST. OF ADVANCED INDUSTRIAL SCIENCE AND TECHNOLOGY: KAZUO KITAURA
     MICHIGAN STATE UNIVERSITY:
          KAROL KOWALSKI, MARTA WLOCH, JEFFREY GOUR, JESSE LUTZ,
          WEI LI, JUN SHEN, J. EMILIANO DEUSTUA, PIOTR PIECUCH
     UNIVERSITY OF MINNESOTA:
          ANDREW SAND, PRACHI SHARMA, YINAN SHU
     UNIVERSITY OF SILESIA: MONIKA MUSIAL, STANISLAW KUCHARSKI
     FACULTES UNIVERSITAIRES NOTRE-DAME DE LA PAIX:
          OLIVIER QUINET, BENOIT CHAMPAGNE
     UNIVERSITY OF CALIFORNIA - SANTA BARBARA: BERNARD KIRTMAN
     INSTITUTE FOR MOLECULAR SCIENCE:
          KAZUYA ISHIMURA, MICHIO KATOUDA, AND SHIGERU NAGASE
     UNIVERSITY OF NOTRE DAME: ANNA POMOGAEVA, DAN CHIPMAN
     KYUSHU UNIVERSITY:
          HARUYUKI NAKANO,
          FENG LONG GU, JACEK KORCHOWIEC, MARCIN MAKOWSKI, AND YURIKO AOKI,
          HIROTOSHI MORI AND EISAKU MIYOSHI
     PENNSYLVANIA STATE UNIVERSITY:
          TZVETELIN IORDANOV, CHET SWALINA, JONATHAN SKONE,
          SHARON HAMMES-SCHIFFER
     WASEDA UNIVERSITY:
          MASATO KOBAYASHI, TOMOKO AKAMA, TSUGUKI TOUMA,
          TAKESHI YOSHIKAWA, YASUHIRO IKABATA, JUNJI SEINO,
          YUYA NAKAJIMA, HIROMI NAKAI
     NANJING UNIVERSITY: SHUHUA LI
     UNIVERSITY OF NEBRASKA:
          PEIFENG SU, DEJUN SI, NANDUN THELLAMUREGE, YALI WANG, HUI LI
     UNIVERSITY OF ZURICH: ROBERTO PEVERATI, KIM BALDRIDGE
     N. COPERNICUS UNIVERSITY AND JACKSON STATE UNIVERSITY:
          MARIA BARYSZ
     UNIVERSITY OF COPENHAGEN: Jimmy Kromann, CASPER STEINMANN
     TOKYO INSTITUTE OF TECHNOLOGY: HIROYA NAKATA
     NAGOYA UNIVERSITY: YOSHIO NISHIMOTO, STEPHAN IRLE
     MOSCOW STATE UNIVERSITY: VLADIMIR MIRONOV
     A.N.NESMEYANOV INSTITUTE OF ORGANOELEMENT COMPOUNDS OF RUSSIAN ACADEMY OF SCIENCES:
          IGOR S. GERASIMOV
     JOHANNES KEPLER UNIVERSITY LINZ:
          CHRISTIAN FRIEDL


 PARALLEL VERSION RUNNING ON        6 PROCESSORS IN        1 NODES.

 EXECUTION OF GAMESS BEGUN Sun May 17 12:16:57 2020

            ECHO OF THE FIRST FEW INPUT CARDS -
 INPUT CARD> $BASIS GBASIS=N21 NGAUSS=3 $END                                                
 INPUT CARD> $CONTRL SCFTYP=UHF MAXIT=60 MULT=2 ICHARG=-1 $END                              
 INPUT CARD> $SYSTEM MEMDDI=1000 MWORDS=30 $END                                             
 INPUT CARD> $SCF DIRSCF=.TRUE. $END                                                        
 INPUT CARD> $STATPT OPTTOL=0.0001 NSTEP=999 $END                                           
 INPUT CARD> $DATA                                                                          
 INPUT CARD>                                                                                
 INPUT CARD>C1                                                                              
 INPUT CARD>C 6.0000000 -0.1217005036 -0.3908808330 0.0003412607                            
 INPUT CARD>O 8.0000000 -1.1706113982 0.2193281557 0.0017086453                             
 INPUT CARD>O 8.0000000 1.1007719356 0.2496250719 0.0017430219                              
 INPUT CARD>H 1.0000000 -0.0341013600 -1.4903190750 -0.0020078616                           
 INPUT CARD>H 1.0000000 1.8469413261 -0.4082633196 0.0002249337                             
 INPUT CARD> $END                                                                           
   30000000 WORDS OF MEMORY AVAILABLE

     BASIS OPTIONS
     -------------
     GBASIS=N21          IGAUSS=       3      POLAR=NONE    
     NDFUNC=       0     NFFUNC=       0     DIFFSP=       F
     NPFUNC=       0      DIFFS=       F     BASNAM=        


     RUN TITLE
     ---------
                                                                                 

 THE POINT GROUP OF THE MOLECULE IS C1      
 THE ORDER OF THE PRINCIPAL AXIS IS     0

 ATOM      ATOMIC                      COORDINATES (BOHR)
           CHARGE         X                   Y                   Z
 C           6.0    -0.2299806044       -0.7386576682        0.0006448892
 O           8.0    -2.2121347807        0.4144701157        0.0032288714
 O           8.0     2.0801573333        0.4717229856        0.0032938338
 H           1.0    -0.0644422262       -2.8162946860       -0.0037943082
 H           1.0     3.4902130217       -0.7715058049        0.0004250631

          INTERNUCLEAR DISTANCES (ANGS.)
          ------------------------------

                1 C          2 O          3 O          4 H          5 H     

   1 C       0.0000000    1.2134953 *  1.3801046 *  1.1029250 *  1.9687186 *
   2 O       1.2134953 *  0.0000000    2.2715854 *  2.0529400 *  3.0821255  
   3 O       1.3801046 *  2.2715854 *  0.0000000    2.0773438 *  0.9947805 *
   4 H       1.1029250 *  2.0529400 *  2.0773438 *  0.0000000    2.1700625 *
   5 H       1.9687186 *  3.0821255    0.9947805 *  2.1700625 *  0.0000000  

  * ... LESS THAN  3.000


     ATOMIC BASIS SET
     ----------------
 THE CONTRACTED PRIMITIVE FUNCTIONS HAVE BEEN UNNORMALIZED
 THE CONTRACTED BASIS FUNCTIONS ARE NOW NORMALIZED TO UNITY

  SHELL TYPE  PRIMITIVE        EXPONENT          CONTRACTION COEFFICIENT(S)

 C         

      1   S       1           172.2560000    0.061766907377
      1   S       2            25.9109000    0.358794042852
      1   S       3             5.5333500    0.700713083689

      2   L       4             3.6649800   -0.395895162119    0.236459946619
      2   L       5             0.7705450    1.215834355681    0.860618805716

      3   L       6             0.1958570    1.000000000000    1.000000000000

 O         

      4   S       7           322.0370000    0.059239393389
      4   S       8            48.4308000    0.351499960776
      4   S       9            10.4206000    0.707657921031

      5   L      10             7.4029400   -0.404453583190    0.244586106967
      5   L      11             1.5762000    1.221561761397    0.853955373466

      6   L      12             0.3736840    1.000000000000    1.000000000000

 O         

      7   S      13           322.0370000    0.059239393389
      7   S      14            48.4308000    0.351499960776
      7   S      15            10.4206000    0.707657921031

      8   L      16             7.4029400   -0.404453583190    0.244586106967
      8   L      17             1.5762000    1.221561761397    0.853955373466

      9   L      18             0.3736840    1.000000000000    1.000000000000

 H         

     10   S      19             5.4471780    0.156284978695
     10   S      20             0.8245472    0.904690876670

     11   S      21             0.1831916    1.000000000000

 H         

     12   S      22             5.4471780    0.156284978695
     12   S      23             0.8245472    0.904690876670

     13   S      24             0.1831916    1.000000000000

 TOTAL NUMBER OF BASIS SET SHELLS             =   13
 NUMBER OF CARTESIAN GAUSSIAN BASIS FUNCTIONS =   31
 NUMBER OF ELECTRONS                          =   25
 CHARGE OF MOLECULE                           =   -1
 SPIN MULTIPLICITY                            =    2
 NUMBER OF OCCUPIED ORBITALS (ALPHA)          =   13
 NUMBER OF OCCUPIED ORBITALS (BETA )          =   12
 TOTAL NUMBER OF ATOMS                        =    5
 THE NUCLEAR REPULSION ENERGY IS       68.7101516380

     $CONTRL OPTIONS
     ---------------
 SCFTYP=UHF          RUNTYP=ENERGY       EXETYP=RUN     
 MPLEVL=       0     CITYP =NONE         CCTYP =NONE         VBTYP =NONE    
 DFTTYP=NONE         TDDFT =NONE    
 MULT  =       2     ICHARG=      -1     NZVAR =       0     COORD =UNIQUE  
 PP    =NONE         RELWFN=NONE         LOCAL =NONE         NUMGRD=       F
 ISPHER=      -1     NOSYM =       0     MAXIT =      60     UNITS =ANGS    
 PLTORB=       F     MOLPLT=       F     AIMPAC=       F     FRIEND=        
 NPRINT=       7     IREST =       0     GEOM  =INPUT   
 NORMF =       0     NORMP =       0     ITOL  =      20     ICUT  =       9
 INTTYP=BEST         GRDTYP=BEST         QMTTOL= 1.0E-06

     $SYSTEM OPTIONS
     ---------------
  REPLICATED MEMORY=    30000000 WORDS (ON EVERY NODE).
 DISTRIBUTED MEMDDI=        1000 MILLION WORDS IN AGGREGATE,
 MEMDDI DISTRIBUTED OVER   6 PROCESSORS IS   166666666 WORDS/PROCESSOR.
 TOTAL MEMORY REQUESTED ON EACH PROCESSOR=   196666666 WORDS.
 TIMLIM=      525600.00 MINUTES, OR     365.0 DAYS.
 PARALL= T  BALTYP=  DLB     KDIAG=    0  COREFL= F
 MXSEQ2=     300 MXSEQ3=     150  mem10=         0

          ----------------
          PROPERTIES INPUT
          ----------------

     MOMENTS            FIELD           POTENTIAL          DENSITY
 IEMOM =       1   IEFLD =       0   IEPOT =       0   IEDEN =       0
 WHERE =COMASS     WHERE =NUCLEI     WHERE =NUCLEI     WHERE =NUCLEI  
 OUTPUT=BOTH       OUTPUT=BOTH       OUTPUT=BOTH       OUTPUT=BOTH    
 IEMINT=       0   IEFINT=       0                     IEDINT=       0
                                                       MORB  =       0
          EXTRAPOLATION IN EFFECT
          SOSCF IN EFFECT
          DIIS or SOSCF will be reset if energy rises
 ORBITAL PRINTING OPTION: NPREO=     1    31     2     1

     -------------------------------
     INTEGRAL TRANSFORMATION OPTIONS
     -------------------------------
     NWORD  =            0
     CUTOFF = 1.0E-09     MPTRAN =       0
     DIRTRF =       T     AOINTS =DUP     

          ----------------------
          INTEGRAL INPUT OPTIONS
          ----------------------
 NOPK  =       1 NORDER=       0 SCHWRZ=       T

     ------------------------------------------
     THE POINT GROUP IS C1 , NAXIS= 0, ORDER= 1
     ------------------------------------------

     DIMENSIONS OF THE SYMMETRY SUBSPACES ARE
 A   =   31

 ..... DONE SETTING UP THE RUN .....
 CPU     0: STEP CPU TIME=     0.02 TOTAL CPU TIME=          0.0 (      0.0 MIN)
 TOTAL WALL CLOCK TIME=          0.0 SECONDS, CPU UTILIZATION IS    66.67%

          ********************
          1 ELECTRON INTEGRALS
          ********************
 ...... END OF ONE-ELECTRON INTEGRALS ......
 CPU     0: STEP CPU TIME=     0.01 TOTAL CPU TIME=          0.0 (      0.0 MIN)
 TOTAL WALL CLOCK TIME=          0.0 SECONDS, CPU UTILIZATION IS    75.00%

          -------------
          GUESS OPTIONS
          -------------
          GUESS =HUCKEL            NORB  =       0          NORDER=       0
          MIX   =       F          PRTMO =       F          PUNMO =       F
          TOLZ  = 1.0E-08          TOLE  = 1.0E-05
          SYMDEN=       F          PURIFY=       F

 INITIAL GUESS ORBITALS GENERATED BY HUCKEL   ROUTINE.
 HUCKEL GUESS REQUIRES     11924 WORDS.

 SYMMETRIES FOR INITIAL GUESS ORBITALS FOLLOW.  ALPHA SET(S).
    13 ORBITALS ARE OCCUPIED (    3 CORE ORBITALS).
     4=A        5=A        6=A        7=A        8=A        9=A       10=A   
    11=A       12=A       13=A       14=A       15=A       16=A       17=A   
    18=A       19=A       20=A       21=A       22=A       23=A   

 SYMMETRIES FOR INITIAL GUESS ORBITALS FOLLOW.   BETA SET(S).
    12 ORBITALS ARE OCCUPIED (    3 CORE ORBITALS).
     4=A        5=A        6=A        7=A        8=A        9=A       10=A   
    11=A       12=A       13=A       14=A       15=A       16=A       17=A   
    18=A       19=A       20=A       21=A       22=A   
 ...... END OF INITIAL ORBITAL SELECTION ......
 CPU     0: STEP CPU TIME=     0.02 TOTAL CPU TIME=          0.1 (      0.0 MIN)
 TOTAL WALL CLOCK TIME=          0.1 SECONDS, CPU UTILIZATION IS    83.33%

                    ----------------------
                    AO INTEGRAL TECHNOLOGY
                    ----------------------
     S,P,L SHELL ROTATED AXIS INTEGRALS, REPROGRAMMED BY
        KAZUYA ISHIMURA (IMS) AND JOSE SIERRA (SYNSTAR).
     S,P,D,L SHELL ROTATED AXIS INTEGRALS PROGRAMMED BY
        KAZUYA ISHIMURA (INSTITUTE FOR MOLECULAR SCIENCE).
     S,P,D,F,G SHELL TO TOTAL QUARTET ANGULAR MOMENTUM SUM 5,
        ERIC PROGRAM BY GRAHAM FLETCHER (ELORET AND NASA ADVANCED
        SUPERCOMPUTING DIVISION, AMES RESEARCH CENTER).
     S,P,D,F,G,L SHELL GENERAL RYS QUADRATURE PROGRAMMED BY
        MICHEL DUPUIS (PACIFIC NORTHWEST NATIONAL LABORATORY).

          --------------------
          2 ELECTRON INTEGRALS
          --------------------

 DIRECT SCF METHOD SKIPS INTEGRAL STORAGE ON DISK.
 DIRECT TRANSFORMATION SKIPS AO INTEGRAL STORAGE ON DISK.
  ...... END OF TWO-ELECTRON INTEGRALS .....
 CPU     0: STEP CPU TIME=     0.00 TOTAL CPU TIME=          0.1 (      0.0 MIN)
 TOTAL WALL CLOCK TIME=          0.1 SECONDS, CPU UTILIZATION IS    71.43%

          ---------------------------
                  UHF SCF CALCULATION
          ---------------------------

     NUCLEAR ENERGY =        68.7101516380
     MAXIT = 60     NPUNCH=  2     MULT=  2
     EXTRAP=T  DAMP=F  SHIFT=F  RSTRCT=F  DIIS=F  SOSCF=T
     DENSITY MATRIX CONV=  2.00E-05
     SOSCF WILL OPTIMIZE     234 ALPHA AND     228 BETA ROTATION ANGLES.
     SOGTOL= 2.500E-01
     MEMORY REQUIRED FOR UHF/ROHF ITERS=     57878 WORDS.

 DIRECT SCF CALCULATION, SCHWRZ=T   FDIFF=T
 SCHWARZ INEQUALITY OVERHEAD:       495 INTEGRALS, T=        0.00

                                                                                NONZERO     BLOCKS
 ITER EX      TOTAL ENERGY        E CHANGE  DENSITY CHANGE    ORB. GRAD       INTEGRALS    SKIPPED
   1  0     -186.9847952643  -186.9847952643   0.734776444   0.000000000         109717        476
          ---------------START SECOND ORDER SCF---------------
   2  1     -187.5079026605    -0.5231073962   0.122233737   0.082457391         109699        510
   3  2     -187.5428307673    -0.0349281068   0.072822624   0.051738120         109592        545
   4  3     -187.5568987405    -0.0140679733   0.018899591   0.005984561         109470        579
   5  4     -187.5572850757    -0.0003863352   0.009020351   0.002781430         109142        618
   6  5     -187.5573586950    -0.0000736193   0.003909202   0.000851260         108980        638
   7  6     -187.5573684118    -0.0000097168   0.002218870   0.000347069         108655        676
   8  7     -187.5573706122    -0.0000022004   0.001027200   0.000200763         108268        707
   9  8     -187.5573710811    -0.0000004689   0.000369769   0.000075156         107785        745
  10  9     -187.5573711796    -0.0000000985   0.000088413   0.000028727         107434        782
  11 10     -187.5573711936    -0.0000000140   0.000046741   0.000018970         106750        836
  12 11     -187.5573711971    -0.0000000035   0.000021013   0.000007677         106018        897
  13 12     -187.5573711979    -0.0000000008   0.000010373   0.000002656         104949        965
  14 13     -187.5573711979    -0.0000000000   0.000004443   0.000001409         102815       1050

          -----------------
          DENSITY CONVERGED
          -----------------
     TIME TO FORM FOCK OPERATORS=       0.0 SECONDS (       0.0 SEC/ITER)
     FOCK TIME ON FIRST ITERATION=       0.0, LAST ITERATION=       0.0
     TIME TO SOLVE SCF EQUATIONS=       0.0 SECONDS (       0.0 SEC/ITER)

 FINAL UHF ENERGY IS     -187.5573711979 AFTER  14 ITERATIONS

          --------------------
          SPIN SZ   =    0.500
          S-SQUARED =    0.761
          --------------------

  ----- ALPHA SET ----- 

          ------------
          EIGENVECTORS
          ------------

                      1          2          3          4          5
                  -20.1945   -20.0672   -10.9265    -1.1254    -1.0291
                     A          A          A          A          A   
    1  C  1  S   -0.000412   0.000173   0.985824  -0.106721  -0.071915
    2  C  1  S   -0.000740   0.000928   0.093289   0.117245   0.077041
    3  C  1  X    0.001705  -0.002019  -0.000313   0.016889  -0.160325
    4  C  1  Y    0.000823   0.000796   0.000248   0.057354   0.053081
    5  C  1  Z    0.000002   0.000002   0.000001   0.000127   0.000121
    6  C  1  S    0.013925   0.018333  -0.034746   0.113250   0.080780
    7  C  1  X    0.009661  -0.014034  -0.003510   0.008581   0.022508
    8  C  1  Y    0.006536   0.012961   0.010656  -0.036196  -0.029556
    9  C  1  Z    0.000014   0.000029   0.000023  -0.000079  -0.000064
   10  O  2  S    0.000783   0.983441   0.000192  -0.092530  -0.197723
   11  O  2  S    0.000577   0.099594   0.001340   0.085482   0.184943
   12  O  2  X    0.000382   0.003931  -0.000333   0.052380   0.080786
   13  O  2  Y    0.000456  -0.002058   0.000500  -0.024355  -0.053585
   14  O  2  Z    0.000001  -0.000005   0.000001  -0.000055  -0.000120
   15  O  2  S   -0.001605  -0.051524  -0.003841   0.281792   0.622368
   16  O  2  X   -0.002814  -0.012945  -0.005861   0.057845   0.081643
   17  O  2  Y   -0.002287   0.006281   0.001464  -0.018009  -0.051936
   18  O  2  Z   -0.000005   0.000014   0.000004  -0.000041  -0.000116
   19  O  3  S    0.983439  -0.000638   0.000115  -0.196577   0.114318
   20  O  3  S    0.098138   0.000501   0.001436   0.180800  -0.107441
   21  O  3  X   -0.001080  -0.000334  -0.000703  -0.022838  -0.018658
   22  O  3  Y   -0.003346   0.000728  -0.000130  -0.061535   0.035888
   23  O  3  Z   -0.000008   0.000002  -0.000000  -0.000139   0.000082
   24  O  3  S   -0.045156  -0.001967   0.000120   0.614625  -0.372251
   25  O  3  X    0.005763   0.003089   0.003189  -0.035732  -0.015260
   26  O  3  Y    0.007636  -0.003348  -0.000041  -0.071740   0.052631
   27  O  3  Z    0.000017  -0.000007   0.000000  -0.000161   0.000118
   28  H  4  S   -0.000611   0.000196  -0.001880   0.024847   0.010487
   29  H  4  S    0.000228   0.003500   0.015412  -0.016357  -0.020309
   30  H  5  S    0.002866  -0.001441  -0.000739   0.086805  -0.060792
   31  H  5  S    0.004503   0.001532   0.002126   0.019402  -0.030104

                      6          7          8          9         10
                   -0.5460    -0.4443    -0.3477    -0.3064    -0.2528
                     A          A          A          A          A   
    1  C  1  S   -0.155203  -0.021261   0.000004   0.040060   0.029550
    2  C  1  S    0.170632   0.018670  -0.000006  -0.061923  -0.053929
    3  C  1  X    0.101120  -0.083936   0.000001   0.272775   0.086137
    4  C  1  Y   -0.084777  -0.239028  -0.000618  -0.027735  -0.232837
    5  C  1  Z   -0.000187  -0.000527   0.276831  -0.000060  -0.000535
    6  C  1  S    0.424491   0.077426  -0.000013  -0.094768   0.027740
    7  C  1  X    0.090838  -0.025660  -0.000000   0.100641  -0.046193
    8  C  1  Y   -0.128478  -0.168473  -0.000595   0.004113  -0.058613
    9  C  1  Z   -0.000283  -0.000372   0.271668   0.000013  -0.000151
   10  O  2  S    0.083572  -0.004209  -0.000002  -0.078301  -0.039112
   11  O  2  S   -0.079280   0.001263   0.000002   0.060433   0.037994
   12  O  2  X    0.069055  -0.069982  -0.000003  -0.228538  -0.288219
   13  O  2  Y   -0.050928  -0.105842  -0.000524   0.215209   0.008081
   14  O  2  Z   -0.000112  -0.000232   0.237846   0.000494  -0.000010
   15  O  2  S   -0.304569   0.029896   0.000004   0.374005   0.137418
   16  O  2  X    0.071827  -0.061685  -0.000005  -0.233033  -0.334743
   17  O  2  Y   -0.036956  -0.099764  -0.000487   0.218772   0.021246
   18  O  2  Z   -0.000082  -0.000219   0.220978   0.000502   0.000018
   19  O  3  S    0.050900   0.041175  -0.000006   0.036766  -0.055880
   20  O  3  S   -0.047005  -0.037836   0.000005  -0.035273   0.050208
   21  O  3  X   -0.231233   0.259947   0.000015  -0.125625  -0.030782
   22  O  3  Y   -0.068606  -0.154571  -0.000743  -0.268735   0.294682
   23  O  3  Z   -0.000144  -0.000350   0.342949  -0.000594   0.000653
   24  O  3  S   -0.210909  -0.186597   0.000027  -0.160100   0.269753
   25  O  3  X   -0.222243   0.249550   0.000019  -0.150074  -0.005789
   26  O  3  Y   -0.059167  -0.150251  -0.000809  -0.320254   0.339906
   27  O  3  Z   -0.000124  -0.000340   0.373375  -0.000707   0.000753
   28  H  4  S    0.155216   0.144446   0.000014  -0.019365   0.134980
   29  H  4  S    0.066597   0.127300   0.000021   0.001574   0.204463
   30  H  5  S   -0.116621   0.190146  -0.000012   0.027159  -0.144430
   31  H  5  S   -0.113037   0.177133  -0.000009   0.016697  -0.137444

                     11         12         13         14         15
                   -0.2263    -0.1081     0.0853     0.4749     0.5652
                     A          A          A          A          A   
    1  C  1  S   -0.000001  -0.011245   0.000012   0.015833   0.140911
    2  C  1  S    0.000002   0.006986  -0.000005   0.006858  -0.034351
    3  C  1  X   -0.000000   0.011106   0.000002   0.048871  -0.087703
    4  C  1  Y    0.000283  -0.069014  -0.001002   0.112151   0.190489
    5  C  1  Z   -0.123890  -0.000156   0.463953   0.000237   0.000380
    6  C  1  S    0.000002   0.060301  -0.000118  -0.313277  -1.777933
    7  C  1  X    0.000008   0.105520  -0.000006  -0.113379  -0.200865
    8  C  1  Y    0.000238   0.136356  -0.001363   0.334061   0.748110
    9  C  1  Z   -0.109125   0.000288   0.642108   0.000708   0.001536
   10  O  2  S   -0.000000   0.000935  -0.000001   0.009828  -0.019947
   11  O  2  S   -0.000000   0.001254   0.000002  -0.002626   0.016868
   12  O  2  X   -0.000000   0.194453  -0.000003  -0.058835   0.066839
   13  O  2  Y    0.000815   0.401592   0.000688  -0.064852  -0.070323
   14  O  2  Z   -0.371225   0.000870  -0.316729  -0.000137  -0.000137
   15  O  2  S    0.000006  -0.016050   0.000005  -0.114165   0.130596
   16  O  2  X    0.000001   0.224117  -0.000006  -0.107860   0.111792
   17  O  2  Y    0.000913   0.485427   0.001066  -0.097542  -0.202576
   18  O  2  Z   -0.416248   0.001052  -0.492103  -0.000201  -0.000407
   19  O  3  S    0.000001   0.025194  -0.000001   0.082058  -0.053530
   20  O  3  S   -0.000002  -0.003837   0.000000  -0.028742   0.026171
   21  O  3  X    0.000011   0.129766  -0.000019  -0.182991  -0.067555
   22  O  3  Y   -0.000829   0.115583   0.000431   0.154928  -0.117650
   23  O  3  Z    0.361737   0.000255  -0.198104   0.000363  -0.000249
   24  O  3  S   -0.000006  -0.217217   0.000008  -0.747625   0.475409
   25  O  3  X    0.000013   0.207822  -0.000031  -0.439769  -0.139670
   26  O  3  Y   -0.001022   0.185413   0.000652   0.323496  -0.312129
   27  O  3  Z    0.446149   0.000411  -0.301738   0.000763  -0.000666
   28  H  4  S   -0.000014   0.147661   0.000021  -0.028322   0.008567
   29  H  4  S   -0.000020   0.336160   0.000093   0.424509   1.878205
   30  H  5  S    0.000001   0.028905   0.000008   0.048790  -0.000166
   31  H  5  S   -0.000002   0.063597   0.000015   1.303560  -0.301012

                     16         17         18         19         20
                    0.8001     0.8410     1.2086     1.3109     1.3765
                     A          A          A          A          A   
    1  C  1  S    0.002557  -0.096653   0.000001   0.020841   0.026498
    2  C  1  S    0.033733  -0.036759   0.000006  -0.189551   0.253741
    3  C  1  X    0.167962   0.170741  -0.000040  -0.722495   0.691861
    4  C  1  Y    0.086780   0.294560   0.002230  -0.617669  -0.069776
    5  C  1  Z    0.000186   0.000633  -1.044660  -0.001292  -0.000168
    6  C  1  S   -0.416819   1.135897  -0.000013   0.231054  -0.665688
    7  C  1  X    1.916068  -0.154648   0.000048   0.791675  -0.479348
    8  C  1  Y   -0.089643   1.457225  -0.002438   1.379643   0.281121
    9  C  1  Z   -0.000230   0.003214   1.136644   0.002926   0.000588
   10  O  2  S   -0.092815   0.088086  -0.000001   0.021739  -0.034291
   11  O  2  S    0.005182  -0.028042   0.000002  -0.017743   0.049469
   12  O  2  X    0.027887  -0.177371   0.000004  -0.093334   0.050822
   13  O  2  Y   -0.159029  -0.052673   0.000061  -0.099157  -0.152405
   14  O  2  Z   -0.000351  -0.000113  -0.029175  -0.000206  -0.000325
   15  O  2  S    1.308615  -1.056661   0.000003  -0.179212   0.067251
   16  O  2  X    0.337785  -0.662464  -0.000000  -0.277350   0.241978
   17  O  2  Y   -0.537302  -0.034497   0.000377  -0.130415  -0.151862
   18  O  2  Z   -0.001192  -0.000063  -0.177353  -0.000267  -0.000333
   19  O  3  S    0.047380   0.072856   0.000000   0.014306   0.028018
   20  O  3  S   -0.000957  -0.059161   0.000002   0.029829  -0.058988
   21  O  3  X    0.133131   0.249803  -0.000019  -0.147988  -0.007994
   22  O  3  Y    0.097308  -0.010216   0.000131  -0.135243   0.103001
   23  O  3  Z    0.000209  -0.000028  -0.060361  -0.000284   0.000253
   24  O  3  S   -0.684907  -0.574592  -0.000026  -0.551532   0.161921
   25  O  3  X    0.473129   0.735262  -0.000006   0.125822  -0.154460
   26  O  3  Y    0.300641  -0.038161   0.000345   0.007546   0.049072
   27  O  3  Z    0.000650  -0.000102  -0.158272   0.000033   0.000121
   28  H  4  S    0.003355  -0.148477   0.000008   0.352230   0.770612
   29  H  4  S    0.092656   0.896457  -0.000010   0.401728  -0.225162
   30  H  5  S   -0.099665   0.058911   0.000012   0.339234   0.686792
   31  H  5  S   -0.341760  -0.428200   0.000006  -0.366857  -0.260598

                     21         22         23         24         25
                    1.4586     1.5560     1.8129     2.0575     2.2017
                     A          A          A          A          A   
    1  C  1  S    0.043940   0.025294   0.060080  -0.000000  -0.000005
    2  C  1  S   -0.290202   0.113084  -1.595528   0.000039   0.000021
    3  C  1  X    0.595813  -0.151151   0.071682   0.000010   0.000054
    4  C  1  Y   -0.803653   0.406557   0.330167  -0.000067  -0.000022
    5  C  1  Z   -0.001748   0.000871   0.000702   0.028425   0.014893
    6  C  1  S   -0.320640   0.179418   2.415753  -0.000052  -0.000048
    7  C  1  X   -0.537309  -0.290816   0.253311  -0.000019   0.000068
    8  C  1  Y    1.137193   0.065598  -0.715262   0.000432   0.000852
    9  C  1  Z    0.002466   0.000166  -0.001525  -0.180517  -0.435813
   10  O  2  S   -0.027958   0.028917  -0.008069   0.000000  -0.000012
   11  O  2  S    0.037728  -0.019531   0.017874  -0.000000   0.000045
   12  O  2  X    0.202673  -0.068991   0.232130  -0.000001  -0.000137
   13  O  2  Y   -0.133933  -0.065934  -0.069807  -0.000824   0.002169
   14  O  2  Z   -0.000298  -0.000134  -0.000174   0.368690  -0.964818
   15  O  2  S   -0.226051  -0.298357  -0.167601  -0.000004   0.000069
   16  O  2  X    0.203698  -0.207886  -0.087653  -0.000002   0.000184
   17  O  2  Y   -0.233780   0.132320   0.061946   0.000677  -0.002411
   18  O  2  Z   -0.000512   0.000292   0.000144  -0.304517   1.068694
   19  O  3  S   -0.011356  -0.025908   0.020923   0.000002   0.000010
   20  O  3  S    0.011403   0.057585  -0.017527  -0.000007  -0.000046
   21  O  3  X    0.060125   0.106949  -0.165662  -0.000035  -0.000068
   22  O  3  Y   -0.179963  -0.331203   0.029485   0.002126   0.000614
   23  O  3  Z   -0.000402  -0.000730   0.000045  -0.961754  -0.371425
   24  O  3  S   -0.046811  -0.010905  -0.311207   0.000003   0.000013
   25  O  3  X    0.198574   0.105975   0.271520   0.000033   0.000055
   26  O  3  Y   -0.177915  -0.030573   0.157539  -0.002138  -0.000765
   27  O  3  Z   -0.000399  -0.000083   0.000358   0.966742   0.462025
   28  H  4  S   -0.170426   0.937247   0.158687   0.000015  -0.000030
   29  H  4  S    0.768721  -0.723469  -1.171513   0.000028  -0.000006
   30  H  5  S   -0.657946  -0.837135   0.178760   0.000009   0.000083
   31  H  5  S    0.485001   0.706796  -0.300269   0.000011  -0.000032

                     26         27         28         29         30
                    2.2117     2.2413     2.3395     2.4677     3.6146
                     A          A          A          A          A   
    1  C  1  S   -0.023339  -0.015937  -0.006469  -0.014229   0.037666
    2  C  1  S   -0.059227  -0.540716   0.000394   0.086509   0.065805
    3  C  1  X    0.202184   0.028516   0.085530   0.086207  -0.220755
    4  C  1  Y    0.061213  -0.101111   0.126680  -0.049113  -0.061496
    5  C  1  Z    0.000128  -0.000231   0.000272  -0.000098  -0.000132
    6  C  1  S    0.104113  -0.218124   0.333378  -0.023332  -0.694075
    7  C  1  X    0.468278  -0.146212  -0.223490  -0.010404  -0.802586
    8  C  1  Y   -0.309681  -0.319390  -0.846411   1.065071  -0.235920
    9  C  1  Z   -0.000578  -0.000684  -0.001790   0.002296  -0.000515
   10  O  2  S   -0.045559  -0.043886  -0.006809   0.011050  -0.013683
   11  O  2  S    0.180288   0.150010   0.045745  -0.019114   0.311828
   12  O  2  X   -0.297063  -0.803344  -0.473688  -0.241839  -0.003724
   13  O  2  Y    0.478168   0.216998  -0.842250   0.271019  -0.095293
   14  O  2  Z    0.001285   0.000514  -0.001778   0.000566  -0.000212
   15  O  2  S    0.245326   0.123478   0.019767  -0.273105  -0.463397
   16  O  2  X    0.449569   1.034486   0.575290   0.106662   0.015843
   17  O  2  Y   -0.560863  -0.276922   1.019741  -0.408014   0.293330
   18  O  2  Z   -0.001500  -0.000654   0.002149  -0.000852   0.000652
   19  O  3  S    0.046024  -0.029399  -0.004258  -0.001865   0.064831
   20  O  3  S   -0.213768   0.139138  -0.011543  -0.049959  -1.662152
   21  O  3  X   -0.320171   0.490817  -0.307108  -0.822298   0.161018
   22  O  3  Y   -0.752288   0.247764  -0.183109   0.532275   0.202223
   23  O  3  Z   -0.001566   0.000535  -0.000355   0.001196   0.000449
   24  O  3  S   -0.038654   0.041981   0.227348   0.022007   2.306451
   25  O  3  X    0.378442  -0.711368   0.250552   1.359607  -0.453298
   26  O  3  Y    0.950735  -0.296456   0.258612  -0.834051  -0.602280
   27  O  3  Z    0.001985  -0.000641   0.000506  -0.001876  -0.001340
   28  H  4  S   -0.141240   0.094118  -0.277613   0.220927   0.072018
   29  H  4  S   -0.081735  -0.257112  -0.340079   0.507938   0.014896
   30  H  5  S    0.264702  -0.035272   0.030716  -0.478652  -0.309510
   31  H  5  S   -0.211757   0.251696  -0.068768  -0.327377  -0.095548

                     31
                    3.8134
                     A   
    1  C  1  S    0.009114
    2  C  1  S   -0.140512
    3  C  1  X    0.195411
    4  C  1  Y   -0.101818
    5  C  1  Z   -0.000232
    6  C  1  S   -1.226329
    7  C  1  X    0.676025
    8  C  1  Y   -0.928268
    9  C  1  Z   -0.002047
   10  O  2  S    0.054342
   11  O  2  S   -1.713994
   12  O  2  X   -0.236055
   13  O  2  Y    0.085721
   14  O  2  Z    0.000196
   15  O  2  S    2.718066
   16  O  2  X    0.938670
   17  O  2  Y   -0.367943
   18  O  2  Z   -0.000837
   19  O  3  S    0.009670
   20  O  3  S   -0.353775
   21  O  3  X    0.068717
   22  O  3  Y   -0.079230
   23  O  3  Z   -0.000174
   24  O  3  S    0.566456
   25  O  3  X   -0.332194
   26  O  3  Y    0.203264
   27  O  3  Z    0.000450
   28  H  4  S   -0.022693
   29  H  4  S   -0.251925
   30  H  5  S    0.089389
   31  H  5  S   -0.105375

  ----- BETA SET ----- 

          ------------
          EIGENVECTORS
          ------------

                      1          2          3          4          5
                  -20.1915   -20.0502   -10.9074    -1.1070    -0.9900
                     A          A          A          A          A   
    1  C  1  S   -0.000415   0.000170   0.986389  -0.089685  -0.087420
    2  C  1  S   -0.000746   0.000982   0.091516   0.095750   0.091692
    3  C  1  X    0.001712  -0.002106  -0.000297   0.033462  -0.162354
    4  C  1  Y    0.000827   0.000847   0.000202   0.051655   0.065573
    5  C  1  Z    0.000002   0.000002   0.000001   0.000116   0.000150
    6  C  1  S    0.013969   0.018480  -0.036461   0.073853   0.097946
    7  C  1  X    0.009676  -0.014029  -0.003586  -0.000917   0.014306
    8  C  1  Y    0.006534   0.012978   0.010296  -0.026941  -0.027580
    9  C  1  Z    0.000014   0.000029   0.000022  -0.000058  -0.000059
   10  O  2  S    0.000701   0.983712   0.000097  -0.064779  -0.204389
   11  O  2  S    0.000572   0.098706   0.001062   0.056211   0.184505
   12  O  2  X    0.000384   0.003950  -0.000320   0.042034   0.096241
   13  O  2  Y    0.000457  -0.002065   0.000476  -0.017200  -0.060531
   14  O  2  Z    0.000001  -0.000005   0.000001  -0.000038  -0.000134
   15  O  2  S   -0.001613  -0.051682  -0.002599   0.201703   0.645180
   16  O  2  X   -0.002821  -0.012995  -0.005254   0.049879   0.095427
   17  O  2  Y   -0.002289   0.006303   0.001230  -0.012652  -0.057528
   18  O  2  Z   -0.000005   0.000014   0.000003  -0.000029  -0.000128
   19  O  3  S    0.983485  -0.000554   0.000069  -0.212324   0.084842
   20  O  3  S    0.097974   0.000522   0.001172   0.192911  -0.080447
   21  O  3  X   -0.001093  -0.000339  -0.000635  -0.021528  -0.022711
   22  O  3  Y   -0.003353   0.000728  -0.000116  -0.067073   0.028695
   23  O  3  Z   -0.000008   0.000002  -0.000000  -0.000150   0.000065
   24  O  3  S   -0.045169  -0.002018   0.001026   0.674564  -0.277883
   25  O  3  X    0.005757   0.003119   0.002612  -0.038525  -0.022705
   26  O  3  Y    0.007639  -0.003345  -0.000239  -0.081590   0.041097
   27  O  3  Z    0.000017  -0.000007  -0.000000  -0.000182   0.000092
   28  H  4  S   -0.000615   0.000188  -0.001609   0.023744   0.015944
   29  H  4  S    0.000218   0.003484   0.015500  -0.006251  -0.017007
   30  H  5  S    0.002878  -0.001441  -0.000788   0.096218  -0.050416
   31  H  5  S    0.004496   0.001523   0.002256   0.027802  -0.027448

                      6          7          8          9         10
                   -0.4989    -0.4342    -0.2891    -0.2761    -0.2425
                     A          A          A          A          A   
    1  C  1  S    0.134480   0.040998  -0.040207   0.000016  -0.038319
    2  C  1  S   -0.148104  -0.043413   0.058878  -0.000024   0.063690
    3  C  1  X   -0.126854   0.059854  -0.236178   0.000043  -0.117549
    4  C  1  Y    0.049157   0.233963  -0.019446  -0.000354   0.221993
    5  C  1  Z    0.000096   0.000504  -0.000016   0.148935   0.000507
    6  C  1  S   -0.287254  -0.084007   0.087926  -0.000016  -0.000983
    7  C  1  X   -0.090940   0.011106  -0.084450   0.000008   0.041448
    8  C  1  Y    0.099980   0.170226  -0.023459  -0.000413   0.028667
    9  C  1  Z    0.000211   0.000367  -0.000024   0.188865   0.000089
   10  O  2  S   -0.073936  -0.005407   0.076554  -0.000019   0.054159
   11  O  2  S    0.073539   0.010112  -0.058665   0.000017  -0.049441
   12  O  2  X   -0.063281   0.054113   0.189633  -0.000067   0.316922
   13  O  2  Y    0.029317   0.105495  -0.205053  -0.000204  -0.054238
   14  O  2  Z    0.000062   0.000227  -0.000440   0.108803  -0.000114
   15  O  2  S    0.244213  -0.004164  -0.351754   0.000078  -0.194939
   16  O  2  X   -0.082640   0.040918   0.199568  -0.000078   0.375584
   17  O  2  Y    0.026338   0.105638  -0.214759  -0.000204  -0.070063
   18  O  2  Z    0.000057   0.000229  -0.000461   0.110493  -0.000150
   19  O  3  S   -0.035179  -0.048644  -0.042290  -0.000006   0.048815
   20  O  3  S    0.036874   0.046630   0.038713   0.000006  -0.043715
   21  O  3  X    0.289703  -0.214209   0.114495   0.000003   0.034894
   22  O  3  Y    0.061581   0.173565   0.308098  -0.000999  -0.251122
   23  O  3  Z    0.000119   0.000388   0.000731   0.450287  -0.000486
   24  O  3  S    0.123879   0.212227   0.187814   0.000026  -0.235352
   25  O  3  X    0.299458  -0.197625   0.139793   0.000011   0.010094
   26  O  3  Y    0.064813   0.176032   0.368901  -0.001187  -0.287056
   27  O  3  Z    0.000127   0.000393   0.000873   0.533934  -0.000550
   28  H  4  S   -0.150551  -0.183339   0.061283   0.000006  -0.138744
   29  H  4  S   -0.099175  -0.179754   0.058400   0.000015  -0.236021
   30  H  5  S    0.150525  -0.171331  -0.051768  -0.000018   0.131566
   31  H  5  S    0.143338  -0.162637  -0.039981  -0.000018   0.124490

                     11         12         13         14         15
                   -0.0931    -0.0931     0.4780     0.5744     0.5914
                     A          A          A          A          A   
    1  C  1  S   -0.000196  -0.008568   0.014305   0.000035   0.141365
    2  C  1  S    0.000198   0.008661   0.009219  -0.000006  -0.030357
    3  C  1  X    0.000442   0.018837   0.046773  -0.000015  -0.083793
    4  C  1  Y   -0.001555  -0.048286   0.103691  -0.000671   0.224508
    5  C  1  Z    0.202876  -0.004794   0.000228   0.331241   0.000403
    6  C  1  S    0.000118   0.005015  -0.290482  -0.000395  -1.734251
    7  C  1  X    0.002758   0.118875  -0.123784  -0.000053  -0.222597
    8  C  1  Y    0.003457   0.174309   0.308001  -0.001521   0.868686
    9  C  1  Z    0.265466  -0.005761   0.000671   0.793755   0.001667
   10  O  2  S    0.000009   0.000384   0.010365  -0.000003  -0.015023
   11  O  2  S    0.000015   0.000613  -0.002807   0.000007   0.020135
   12  O  2  X    0.004604   0.198529  -0.059409   0.000001   0.046048
   13  O  2  Y    0.008321   0.394428  -0.064943   0.000621  -0.076943
   14  O  2  Z    0.367230  -0.007641  -0.000145  -0.293206  -0.000099
   15  O  2  S   -0.000142  -0.006006  -0.117682  -0.000009   0.053431
   16  O  2  X    0.005494   0.236922  -0.108116  -0.000016   0.048343
   17  O  2  Y    0.010100   0.481364  -0.095890   0.001215  -0.212660
   18  O  2  Z    0.473234  -0.009905  -0.000211  -0.577980  -0.000319
   19  O  3  S    0.000649   0.027918   0.081986  -0.000011  -0.048163
   20  O  3  S   -0.000152  -0.006509  -0.028090   0.000006   0.025958
   21  O  3  X    0.002766   0.119851  -0.188654  -0.000019  -0.053714
   22  O  3  Y    0.002801   0.099736   0.154023   0.000305  -0.114949
   23  O  3  Z   -0.222774   0.005372   0.000357  -0.151542  -0.000219
   24  O  3  S   -0.005424  -0.233658  -0.745500   0.000095   0.425991
   25  O  3  X    0.004494   0.194576  -0.453489  -0.000025  -0.094497
   26  O  3  Y    0.004501   0.164090   0.324959   0.000507  -0.310375
   27  O  3  Z   -0.316850   0.007691   0.000760  -0.265344  -0.000620
   28  H  4  S    0.003573   0.154556  -0.034045   0.000002  -0.036330
   29  H  4  S    0.008885   0.384595   0.373304   0.000421   1.942242
   30  H  5  S    0.000739   0.031631   0.047104   0.000012   0.010725
   31  H  5  S    0.001647   0.070757   1.316039  -0.000074  -0.302727

                     16         17         18         19         20
                    0.8158     0.8758     1.3139     1.3225     1.3868
                     A          A          A          A          A   
    1  C  1  S    0.001891  -0.109584  -0.000009   0.025079   0.023259
    2  C  1  S    0.036326  -0.040336   0.000090  -0.159287   0.282733
    3  C  1  X    0.149635   0.192965   0.000348  -0.664492   0.684105
    4  C  1  Y    0.094771   0.254714  -0.002107  -0.604469   0.112354
    5  C  1  Z    0.000205   0.000546   1.106700  -0.000784   0.000191
    6  C  1  S   -0.411479   1.261795  -0.000124   0.160786  -0.635331
    7  C  1  X    1.930807  -0.166823  -0.000379   0.732172  -0.462711
    8  C  1  Y   -0.067963   1.436418   0.001622   1.362512  -0.029355
    9  C  1  Z   -0.000179   0.003151  -1.029310   0.002444  -0.000051
   10  O  2  S   -0.093316   0.092678  -0.000008   0.018737  -0.035878
   11  O  2  S    0.003987  -0.034024   0.000005  -0.011861   0.048940
   12  O  2  X    0.016686  -0.172292   0.000036  -0.089397   0.036815
   13  O  2  Y   -0.157639  -0.055697   0.000013  -0.112045  -0.125614
   14  O  2  Z   -0.000349  -0.000117   0.015668  -0.000228  -0.000268
   15  O  2  S    1.309480  -1.090174   0.000083  -0.170453   0.139869
   16  O  2  X    0.315515  -0.657017   0.000120  -0.254190   0.246494
   17  O  2  Y   -0.540776  -0.032267  -0.000197  -0.139092  -0.115900
   18  O  2  Z   -0.001206  -0.000052   0.119810  -0.000234  -0.000258
   19  O  3  S    0.047870   0.077347  -0.000007   0.016204   0.026629
   20  O  3  S   -0.000690  -0.066691  -0.000013   0.024762  -0.058042
   21  O  3  X    0.128828   0.246689   0.000083  -0.151846  -0.004479
   22  O  3  Y    0.093200  -0.007214  -0.000051  -0.123744   0.133943
   23  O  3  Z    0.000199  -0.000019   0.049983  -0.000234   0.000317
   24  O  3  S   -0.698352  -0.607091   0.000264  -0.519205   0.215660
   25  O  3  X    0.472570   0.725189  -0.000051   0.097807  -0.189478
   26  O  3  Y    0.296850  -0.025015  -0.000283   0.017101   0.072771
   27  O  3  Z    0.000643  -0.000065   0.126168   0.000108   0.000171
   28  H  4  S   -0.003202  -0.133038  -0.000182   0.440527   0.756549
   29  H  4  S    0.109163   0.775318  -0.000129   0.344519  -0.387459
   30  H  5  S   -0.103177   0.058401  -0.000173   0.419561   0.713537
   31  H  5  S   -0.337859  -0.390216   0.000162  -0.393457  -0.273778

                     21         22         23         24         25
                    1.4749     1.5573     1.8451     2.0871     2.2162
                     A          A          A          A          A   
    1  C  1  S    0.051572   0.026045   0.062785   0.000000  -0.022664
    2  C  1  S   -0.243687   0.106967  -1.598572   0.000043  -0.002656
    3  C  1  X    0.666315  -0.182970   0.067948   0.000006   0.200827
    4  C  1  Y   -0.802990   0.447497   0.325118  -0.000077   0.074308
    5  C  1  Z   -0.001750   0.000966   0.000707   0.031695   0.000162
    6  C  1  S   -0.451903   0.207545   2.392481  -0.000066   0.129725
    7  C  1  X   -0.574594  -0.275965   0.264785  -0.000029   0.479571
    8  C  1  Y    1.149975   0.025528  -0.695497   0.000558  -0.303554
    9  C  1  Z    0.002492   0.000077  -0.001491  -0.237674  -0.000687
   10  O  2  S   -0.034996   0.030921  -0.008322   0.000001  -0.041339
   11  O  2  S    0.044752  -0.018272   0.014584  -0.000001   0.160104
   12  O  2  X    0.201871  -0.072627   0.240043  -0.000007  -0.228058
   13  O  2  Y   -0.153168  -0.059090  -0.065946  -0.000576   0.439035
   14  O  2  Z   -0.000338  -0.000121  -0.000162   0.252515   0.000928
   15  O  2  S   -0.182096  -0.305619  -0.158115  -0.000006   0.244702
   16  O  2  X    0.241646  -0.224553  -0.093811   0.000004   0.361045
   17  O  2  Y   -0.254775   0.140844   0.054087   0.000358  -0.507932
   18  O  2  Z   -0.000561   0.000313   0.000121  -0.154612  -0.001085
   19  O  3  S   -0.010399  -0.026526   0.020682   0.000001   0.048951
   20  O  3  S    0.009566   0.059413  -0.018902  -0.000005  -0.226230
   21  O  3  X    0.056056   0.102466  -0.175687  -0.000030  -0.370582
   22  O  3  Y   -0.179010  -0.328145   0.029538   0.002230  -0.776802
   23  O  3  Z   -0.000397  -0.000724   0.000045  -1.007066  -0.001726
   24  O  3  S   -0.020377  -0.008866  -0.311313   0.000009  -0.039509
   25  O  3  X    0.173894   0.104495   0.287263   0.000020   0.448949
   26  O  3  Y   -0.169481  -0.027676   0.152464  -0.002241   0.983651
   27  O  3  Z   -0.000379  -0.000077   0.000347   1.010267   0.002186
   28  H  4  S   -0.031178   0.921934   0.138728   0.000018  -0.158332
   29  H  4  S    0.709529  -0.742261  -1.134557   0.000031  -0.065675
   30  H  5  S   -0.596565  -0.825700   0.166520   0.000009   0.269924
   31  H  5  S    0.473856   0.694269  -0.301419   0.000016  -0.237340

                     26         27         28         29         30
                    2.2484     2.2855     2.3513     2.4705     3.6207
                     A          A          A          A          A   
    1  C  1  S   -0.016292   0.000003  -0.006876  -0.014830   0.038597
    2  C  1  S   -0.560080   0.000055  -0.010480   0.095100   0.065412
    3  C  1  X    0.045232  -0.000003   0.084301   0.082794  -0.220078
    4  C  1  Y   -0.093071  -0.000055   0.124413  -0.051828  -0.061933
    5  C  1  Z   -0.000211   0.026630   0.000265  -0.000103  -0.000133
    6  C  1  S   -0.202968  -0.000039   0.334868  -0.040631  -0.700593
    7  C  1  X   -0.088865  -0.000057  -0.231011  -0.006965  -0.805299
    8  C  1  Y   -0.348441   0.000841  -0.828500   1.080630  -0.233386
    9  C  1  Z   -0.000775  -0.400383  -0.001742   0.002326  -0.000509
   10  O  2  S   -0.048771   0.000003  -0.006495   0.011318  -0.014517
   11  O  2  S    0.161131  -0.000014   0.042597  -0.019435   0.317001
   12  O  2  X   -0.819501  -0.000016  -0.488112  -0.239324  -0.003861
   13  O  2  Y    0.275209   0.002146  -0.845698   0.288389  -0.095503
   14  O  2  Z    0.000577  -1.032289  -0.001758   0.000593  -0.000213
   15  O  2  S    0.161602  -0.000002   0.015397  -0.273238  -0.465866
   16  O  2  X    1.065614   0.000010   0.585120   0.100840   0.016835
   17  O  2  Y   -0.346875  -0.002189   1.013772  -0.426627   0.292639
   18  O  2  Z   -0.000741   1.059234   0.002110  -0.000882   0.000651
   19  O  3  S   -0.025000  -0.000002  -0.005376  -0.001810   0.064750
   20  O  3  S    0.118185   0.000007  -0.005724  -0.048807  -1.661515
   21  O  3  X    0.463070  -0.000001  -0.305530  -0.815125   0.159314
   22  O  3  Y    0.172523   0.000536  -0.154846   0.535048   0.201375
   23  O  3  Z    0.000355  -0.249445  -0.000291   0.001198   0.000448
   24  O  3  S    0.034288   0.000024   0.225413   0.018093   2.306790
   25  O  3  X   -0.680425  -0.000021   0.255376   1.351774  -0.454077
   26  O  3  Y   -0.200842  -0.000717   0.222548  -0.836932  -0.603001
   27  O  3  Z   -0.000410   0.331819   0.000422  -0.001878  -0.001342
   28  H  4  S    0.085560  -0.000007  -0.266581   0.223401   0.073704
   29  H  4  S   -0.269436   0.000010  -0.337656   0.517595   0.016957
   30  H  5  S   -0.006721   0.000014   0.017990  -0.477915  -0.309550
   31  H  5  S    0.229888   0.000012  -0.067293  -0.324620  -0.094177

                     31
                    3.8380
                     A   
    1  C  1  S    0.010548
    2  C  1  S   -0.137131
    3  C  1  X    0.193190
    4  C  1  Y   -0.101907
    5  C  1  Z   -0.000232
    6  C  1  S   -1.239307
    7  C  1  X    0.669658
    8  C  1  Y   -0.923904
    9  C  1  Z   -0.002037
   10  O  2  S    0.055206
   11  O  2  S   -1.715224
   12  O  2  X   -0.232163
   13  O  2  Y    0.084033
   14  O  2  Z    0.000193
   15  O  2  S    2.712931
   16  O  2  X    0.934019
   17  O  2  Y   -0.365521
   18  O  2  Z   -0.000832
   19  O  3  S    0.009408
   20  O  3  S   -0.357315
   21  O  3  X    0.068837
   22  O  3  Y   -0.077471
   23  O  3  Z   -0.000170
   24  O  3  S    0.575268
   25  O  3  X   -0.335163
   26  O  3  Y    0.197865
   27  O  3  Z    0.000437
   28  H  4  S   -0.019395
   29  H  4  S   -0.247787
   30  H  5  S    0.086877
   31  H  5  S   -0.103393
 ...... END OF UHF CALCULATION ......
 CPU     0: STEP CPU TIME=     0.09 TOTAL CPU TIME=          0.1 (      0.0 MIN)
 TOTAL WALL CLOCK TIME=          0.2 SECONDS, CPU UTILIZATION IS    82.35%

     ----------------------------------------------------------------
     PROPERTY VALUES FOR THE UHF   SELF-CONSISTENT FIELD WAVEFUNCTION
     ----------------------------------------------------------------

          -----------------
          ENERGY COMPONENTS
          -----------------

         WAVEFUNCTION NORMALIZATION =       1.0000000000

                ONE ELECTRON ENERGY =    -401.8730356388
                TWO ELECTRON ENERGY =     145.6055128028
           NUCLEAR REPULSION ENERGY =      68.7101516380
                                      ------------------
                       TOTAL ENERGY =    -187.5573711979

 ELECTRON-ELECTRON POTENTIAL ENERGY =     145.6055128028
  NUCLEUS-ELECTRON POTENTIAL ENERGY =    -589.6295077619
   NUCLEUS-NUCLEUS POTENTIAL ENERGY =      68.7101516380
                                      ------------------
             TOTAL POTENTIAL ENERGY =    -375.3138433210
               TOTAL KINETIC ENERGY =     187.7564721231
                 VIRIAL RATIO (V/T) =       1.9989395789

          ---------------------------------------
          MULLIKEN AND LOWDIN POPULATION ANALYSES
          ---------------------------------------

     ATOMIC MULLIKEN POPULATION IN EACH MOLECULAR ORBITAL
        ALPHA ORBITALS

                      1          2          3          4          5

                  1.000000   1.000000   1.000000   1.000000   1.000000

    1             0.001590   0.002987   0.999789   0.133438   0.108679
    2            -0.000005   0.996985  -0.001038   0.166655   0.659025
    3             0.998012  -0.000006  -0.000261   0.660914   0.210060
    4             0.000002   0.000033   0.001470  -0.002425  -0.001888
    5             0.000401   0.000000   0.000040   0.041417   0.024124

                      6          7          8          9         10

                  1.000000   1.000000   1.000000   1.000000   1.000000

    1             0.417569   0.264847   0.340766   0.159692   0.127103
    2             0.128498   0.069945   0.210251   0.473539   0.343114
    3             0.287179   0.392248   0.448983   0.363979   0.362669
    4             0.108910   0.118927   0.000000   0.000703   0.102924
    5             0.057844   0.154033   0.000000   0.002086   0.064190

                     11         12         13

                  1.000000   1.000000   1.000000

    1             0.049244   0.024043   0.622317
    2             0.496117   0.726756   0.285738
    3             0.454638   0.105656   0.091945
    4             0.000000   0.134292   0.000000
    5             0.000000   0.009253   0.000000

     ATOMIC MULLIKEN POPULATION IN EACH MOLECULAR ORBITAL
         BETA ORBITALS

                      1          2          3          4          5

                  1.000000   1.000000   1.000000   1.000000   1.000000

    1             0.001592   0.002989   0.999530   0.088557   0.143307
    2            -0.000005   0.996983  -0.000873   0.088846   0.725934
    3             0.998010  -0.000006  -0.000172   0.768411   0.116330
    4             0.000002   0.000033   0.001474   0.000299  -0.001790
    5             0.000401   0.000000   0.000042   0.053886   0.016219

                      6          7          8          9         10

                  1.000000   1.000000   1.000000   1.000000   1.000000

    1             0.297761   0.277995   0.132070   0.159862   0.121655
    2             0.101717   0.063854   0.401294   0.053833   0.451883
    3             0.397826   0.339715   0.442897   0.786305   0.263033
    4             0.109862   0.191518   0.016062   0.000000   0.111687
    5             0.092834   0.126919   0.007678   0.000000   0.051742

                     11         12

                  1.000000   1.000000

    1             0.212967   0.021395
    2             0.617327   0.735636
    3             0.169620   0.083314
    4             0.000080   0.148956
    5             0.000006   0.010700

     ATOMIC SPIN POPULATION (ALPHA MINUS BETA)
       ATOM         MULL.POP.                    LOW.POP.
    1 C             0.792384                     0.692212
    2 O             0.319150                     0.337669
    3 O             0.010735                     0.037118
    4 H            -0.115232                    -0.061692
    5 H            -0.007038                    -0.005308


          ********* ALL ELECTRONS ********

               ----- POPULATIONS IN EACH AO -----
                             MULLIKEN      LOWDIN
              1  C  1  S      1.98480     1.97442
              2  C  1  S      0.38480     0.40139
              3  C  1  X      0.49451     0.48553
              4  C  1  Y      0.48996     0.45490
              5  C  1  Z      0.60927     0.61975
              6  C  1  S      0.56934     0.54223
              7  C  1  X      0.08896     0.38257
              8  C  1  Y      0.31411     0.49888
              9  C  1  Z      0.77598     0.75890
             10  O  2  S      1.98629     1.98085
             11  O  2  S      0.40979     0.56432
             12  O  2  X      0.66545     0.66317
             13  O  2  Y      0.73351     0.73579
             14  O  2  Z      0.71973     0.73456
             15  O  2  S      1.52530     1.05360
             16  O  2  X      0.86382     0.89202
             17  O  2  Y      0.94464     0.98318
             18  O  2  Z      0.94347     0.93630
             19  O  3  S      1.98591     1.98015
             20  O  3  S      0.40873     0.56954
             21  O  3  X      0.54883     0.53192
             22  O  3  Y      0.69309     0.69171
             23  O  3  Z      0.86495     0.88582
             24  O  3  S      1.50408     1.03734
             25  O  3  X      0.71890     0.74150
             26  O  3  Y      0.93022     0.94574
             27  O  3  Z      1.08658     1.06468
             28  H  4  S      0.48365     0.49441
             29  H  4  S      0.55748     0.58359
             30  H  5  S      0.43123     0.44644
             31  H  5  S      0.28259     0.36484

          ----- MULLIKEN ATOMIC OVERLAP POPULATIONS -----
          (OFF-DIAGONAL ELEMENTS NEED TO BE MULTIPLIED BY 2)

             1           2           3           4           5

    1    5.0076787
    2    0.3901710   8.5117733
    3    0.0779271  -0.0379586   8.5520822
    4    0.2670172  -0.0745283  -0.0923285   0.9373529
    5   -0.0310532   0.0025538   0.2415801   0.0036169   0.4971177

          TOTAL MULLIKEN AND LOWDIN ATOMIC POPULATIONS
       ATOM         MULL.POP.    CHARGE          LOW.POP.     CHARGE
    1 C             5.711741    0.288259         6.118556   -0.118556
    2 O             8.792011   -0.792011         8.543781   -0.543781
    3 O             8.741302   -0.741302         8.448381   -0.448381
    4 H             1.041130   -0.041130         1.078008   -0.078008
    5 H             0.713815    0.286185         0.811273    0.188727

          -------------------------------
          BOND ORDER AND VALENCE ANALYSIS     BOND ORDER THRESHOLD=0.050
          -------------------------------

                   BOND                       BOND                       BOND
  ATOM PAIR DIST  ORDER      ATOM PAIR DIST  ORDER      ATOM PAIR DIST  ORDER
    1   2  1.213  1.533        1   3  1.380  0.673        1   4  1.103  0.848
    3   5  0.995  0.865

                       TOTAL       BONDED        FREE
      ATOM            VALENCE     VALENCE     VALENCE
    1 C                 3.506       3.063       0.444
    2 O                 1.750       1.630       0.120
    3 O                 1.603       1.599       0.004
    4 H                 0.935       0.922       0.013
    5 H                 0.894       0.894       0.000

          -----------------------------------------
          ATOMIC SPIN DENSITY AT THE NUCLEUS (A.U.)
          -----------------------------------------
                            SPIN DENS    ALPHA DENS     BETA DENS
    1  C            6.0     0.1455682      46.90561      46.76004
    2  O            8.0     0.1476070     116.83623     116.68862
    3  O            8.0     0.0193053     116.73308     116.71378
    4  H            1.0    -0.0241815       0.17691       0.20109
    5  H            1.0    -0.0020546       0.17332       0.17537

          ---------------------
          ELECTROSTATIC MOMENTS
          ---------------------

 POINT   1           X           Y           Z (BOHR)    CHARGE
                -0.030826    0.036839    0.002362       -1.00 (A.U.)
         DX          DY          DZ         /D/  (DEBYE)
     3.341531   -1.684912   -0.003763    3.742294
 ...... END OF PROPERTY EVALUATION ......
 CPU     0: STEP CPU TIME=     0.02 TOTAL CPU TIME=          0.2 (      0.0 MIN)
 TOTAL WALL CLOCK TIME=          0.2 SECONDS, CPU UTILIZATION IS    88.89%
               580000  WORDS OF DYNAMIC MEMORY USED
 EXECUTION OF GAMESS TERMINATED NORMALLY Sun May 17 12:16:57 2020
 DDI: 263640 bytes (0.3 MB / 0 MWords) used by master data server.
Note: The following floating-point exceptions are signalling:Note: The following floating-point exceptions are signalling:Note: The following floating-point exceptions are signalling: IEEE_DENORMAL IEEE_DENORMAL
Note: The following floating-point exceptions are signalling: IEEE_DENORMAL IEEE_DENORMAL

 ----------------------------------------
 CPU timing information for all processes
 ========================================
 0: 0.45 + 0.123 = 0.169
 1: 0.47 + 0.06 = 0.54
 2: 0.39 + 0.05 = 0.44
 3: 0.51 + 0.00 = 0.51
 4: 0.35 + 0.12 = 0.48
 5: 0.35 + 0.09 = 0.45
 ----------------------------------------


Note: The following floating-point exceptions are signalling: IEEE_DENORMALNote: The following floating-point exceptions are signalling: IEEE_DENORMAL

 ddikick.x: exited gracefully.
unset echo
----- accounting info -----
Files used on the master node pietdev were:
-rwxr-xr-x 1 piet piet      462 mei 17 12:16 /home/piet/scr/formicacid_fukui_acid.F05*
-rw-r--r-- 1 piet piet 68812800 mei 17 12:16 /home/piet/scr/formicacid_fukui_acid.F10
ls: No match.
ls: No match.
ls: No match.
zo 17 mei 2020 12:17:00 CEST
0.091u 0.029s 0:03.31 3.3%	0+0k 0+8io 0pf+0w
