----- GAMESS execution script 'rungms' -----
This job is running on host pietdev
under operating system Linux at za 23 mei 2020 12:54:00 CEST
Available scratch disk space (Kbyte units) at beginning of the job is
Filesystem     1K-blocks     Used Available Use% Mounted on
/dev/sda2      244568380 30947984 201127340  14% /
GAMESS temporary binary files will be written to /home/piet/scr
GAMESS supplementary output files will be written to /home/piet/gamess/scr
Copying input file maltose_charge_chelpg.inp to your run's scratch directory...
cp maltose_charge_chelpg.inp /home/piet/scr/maltose_charge_chelpg.F05
unset echo
 
Assuming a single but multicore node.
 
/home/piet/gamess/ddikick.x /home/piet/gamess/gamess.03.x maltose_charge_chelpg -ddi 1 8 pietdev:cpus=8 -scr /home/piet/scr

 Distributed Data Interface kickoff program.
 Initiating 8 compute processes on 1 nodes to run the following command:
 /home/piet/gamess/gamess.03.x maltose_charge_chelpg 

          ******************************************************
          *         GAMESS VERSION = 30 SEP 2019 (R2)          *
          *             FROM IOWA STATE UNIVERSITY             *
          * M.W.SCHMIDT, K.K.BALDRIDGE, J.A.BOATZ, S.T.ELBERT, *
          *   M.S.GORDON, J.H.JENSEN, S.KOSEKI, N.MATSUNAGA,   *
          *          K.A.NGUYEN, S.J.SU, T.L.WINDUS,           *
          *       TOGETHER WITH M.DUPUIS, J.A.MONTGOMERY       *
          *         J.COMPUT.CHEM.  14, 1347-1363(1993)        *
          **************** 64 BIT LINUX VERSION ****************

  SINCE 1993, STUDENTS AND POSTDOCS WORKING AT IOWA STATE UNIVERSITY
  AND ALSO IN THEIR VARIOUS JOBS AFTER LEAVING ISU HAVE MADE IMPORTANT
  CONTRIBUTIONS TO THE CODE:
     IVANA ADAMOVIC, CHRISTINE AIKENS, YURI ALEXEEV, POOJA ARORA,
     ANDREY ASADCHEV, ROB BELL, PRADIPTA BANDYOPADHYAY, JONATHAN BENTZ,
     COLLEEN BERTONI, BRETT BODE, KURT BRORSEN, CALEB CARLIN, GALINA CHABAN,
     WEI CHEN, CHEOL HO CHOI, PAUL DAY, ALBERT DEFUSCO, NUWAN DESILVA,
     TIM DUDLEY, DMITRI FEDOROV, ALEX FINDLATER, GRAHAM FLETCHER, 
     MARK FREITAG, KURT GLAESEMANN, EMILIE B GUIDEZ, ANASTASIA GUNINA, 
     DAN KEMP, SAROM SOK LEANG, GRANT MERRILL,
     NORIYUKI MINEZAWA, JONATHAN MULLIN,
     TAKESHI NAGATA, SEAN NEDD, HEATHER NETZLOFF, BOSILJKA NJEGIC, RYAN OLSON,
     MIKE PAK, BUU PHAM, DAVID POOLE,
     SPENCER PRUITT, LUKE ROSKOP, TOSAPORN SATTASATHUCHANA,
     JIM SHOEMAKER, LYUDMILA SLIPCHENKO,
     TONY SMITH, JIE SONG, TETSUYA TAKETSUGU, SIMON WEBB,
     JORGE LUIS GALVEZ VALLEJO, PENG XU, SOOHAENG YOO,
     FEDERICO ZAHARIEV

  ADDITIONAL CODE HAS BEEN PROVIDED BY COLLABORATORS IN OTHER GROUPS:
     IOWA STATE UNIVERSITY:
          JOE IVANIC, AARON WEST, LAIMUTIS BYTAUTAS, KLAUS RUEDENBERG
     UNIVERSITY OF TOKYO: KIMIHIKO HIRAO, TAKAHITO NAKAJIMA,
          TAKAO TSUNEDA, MUNEAKI KAMIYA, SUSUMU YANAGISAWA,
          KIYOSHI YAGI, MAHITO CHIBA, SEIKEN TOKURA, NAOAKI KAWAKAMI
     UNIVERSITY OF AARHUS: FRANK JENSEN
     UNIVERSITY OF IOWA: VISVALDAS KAIRYS, HUI LI
     NATIONAL INST. OF STANDARDS AND TECHNOLOGY: WALT STEVENS, DAVID GARMER
     UNIVERSITY OF PISA: BENEDETTA MENNUCCI, JACOPO TOMASI
     UNIVERSITY OF MEMPHIS: HENRY KURTZ, PRAKASHAN KORAMBATH
     UNIVERSITY OF ALBERTA: TOBY ZENG, MARIUSZ KLOBUKOWSKI
     UNIVERSITY OF NEW ENGLAND: MARK SPACKMAN
     MIE UNIVERSITY: HIROAKI UMEDA
     NAT. INST. OF ADVANCED INDUSTRIAL SCIENCE AND TECHNOLOGY: KAZUO KITAURA
     MICHIGAN STATE UNIVERSITY:
          KAROL KOWALSKI, MARTA WLOCH, JEFFREY GOUR, JESSE LUTZ,
          WEI LI, JUN SHEN, J. EMILIANO DEUSTUA, PIOTR PIECUCH
     UNIVERSITY OF MINNESOTA:
          ANDREW SAND, PRACHI SHARMA, YINAN SHU
     UNIVERSITY OF SILESIA: MONIKA MUSIAL, STANISLAW KUCHARSKI
     FACULTES UNIVERSITAIRES NOTRE-DAME DE LA PAIX:
          OLIVIER QUINET, BENOIT CHAMPAGNE
     UNIVERSITY OF CALIFORNIA - SANTA BARBARA: BERNARD KIRTMAN
     INSTITUTE FOR MOLECULAR SCIENCE:
          KAZUYA ISHIMURA, MICHIO KATOUDA, AND SHIGERU NAGASE
     UNIVERSITY OF NOTRE DAME: ANNA POMOGAEVA, DAN CHIPMAN
     KYUSHU UNIVERSITY:
          HARUYUKI NAKANO,
          FENG LONG GU, JACEK KORCHOWIEC, MARCIN MAKOWSKI, AND YURIKO AOKI,
          HIROTOSHI MORI AND EISAKU MIYOSHI
     PENNSYLVANIA STATE UNIVERSITY:
          TZVETELIN IORDANOV, CHET SWALINA, JONATHAN SKONE,
          SHARON HAMMES-SCHIFFER
     WASEDA UNIVERSITY:
          MASATO KOBAYASHI, TOMOKO AKAMA, TSUGUKI TOUMA,
          TAKESHI YOSHIKAWA, YASUHIRO IKABATA, JUNJI SEINO,
          YUYA NAKAJIMA, HIROMI NAKAI
     NANJING UNIVERSITY: SHUHUA LI
     UNIVERSITY OF NEBRASKA:
          PEIFENG SU, DEJUN SI, NANDUN THELLAMUREGE, YALI WANG, HUI LI
     UNIVERSITY OF ZURICH: ROBERTO PEVERATI, KIM BALDRIDGE
     N. COPERNICUS UNIVERSITY AND JACKSON STATE UNIVERSITY:
          MARIA BARYSZ
     UNIVERSITY OF COPENHAGEN: Jimmy Kromann, CASPER STEINMANN
     TOKYO INSTITUTE OF TECHNOLOGY: HIROYA NAKATA
     NAGOYA UNIVERSITY: YOSHIO NISHIMOTO, STEPHAN IRLE
     MOSCOW STATE UNIVERSITY: VLADIMIR MIRONOV
     A.N.NESMEYANOV INSTITUTE OF ORGANOELEMENT COMPOUNDS OF RUSSIAN ACADEMY OF SCIENCES:
          IGOR S. GERASIMOV
     JOHANNES KEPLER UNIVERSITY LINZ:
          CHRISTIAN FRIEDL


 PARALLEL VERSION RUNNING ON        8 PROCESSORS IN        1 NODES.

 EXECUTION OF GAMESS BEGUN Sat May 23 12:54:01 2020

            ECHO OF THE FIRST FEW INPUT CARDS -
 INPUT CARD> $BASIS GBASIS=N21 NGAUSS=3 $END                                                
 INPUT CARD> $CONTRL SCFTYP=RHF DFTTYP=B3LYP MAXIT=60 MULT=1 ICHARG=0 $END                  
 INPUT CARD> $SYSTEM MEMDDI=1000 MWORDS=30 $END                                             
 INPUT CARD> $SCF DIRSCF=.TRUE. $END                                                        
 INPUT CARD> $ELPOT  IEPOT=1 WHERE=PDC $END                                                 
 INPUT CARD> $PDC PTSEL=CHELPG CONSTR=CHARGE $END                                           
 INPUT CARD> $DATA                                                                          
 INPUT CARD>                                                                                
 INPUT CARD>C1                                                                              
 INPUT CARD>C 6.0000000 -2.1299744135 -2.3927918316 -0.4882839672                           
 INPUT CARD>C 6.0000000 1.9211063153 2.1500050434 -1.1835092090                             
 INPUT CARD>H 1.0000000 -3.0821866169 1.7772788794 2.0638641858                             
 INPUT CARD>H 1.0000000 3.5788437524 -1.3152395192 2.5389368936                             
 INPUT CARD>H 1.0000000 4.2882320962 -2.0961759109 0.2125074858                             
 INPUT CARD>H 1.0000000 -3.5056871219 2.6741603241 0.2143049435                             
 INPUT CARD>H 1.0000000 4.4986210628 -0.5550208927 -1.1585812916                            
 INPUT CARD>H 1.0000000 -4.1436732612 0.9369415909 -1.6877966333                            
 INPUT CARD>H 1.0000000 -3.0999745836 -3.4553522991 -1.8780045866                           
 INPUT CARD>H 1.0000000 1.2656668344 2.8463389322 0.5226471270                              
 INPUT CARD>O 8.0000000 -2.7050640215 0.8578110056 2.2611775101                             
 INPUT CARD>O 8.0000000 3.5870332555 -1.1627552056 1.5577973084                             
 INPUT CARD>O 8.0000000 3.8646192341 -2.2830647596 -0.6857797571                            
 INPUT CARD>O 8.0000000 -2.6848300915 2.8859485505 0.7589782969                             
 INPUT CARD>O 8.0000000 3.9229178645 0.2675754941 -1.1493824470                             
 INPUT CARD>O 8.0000000 -3.7182462846 1.3209606906 -0.8768604098                            
 INPUT CARD>O 8.0000000 -3.2402732973 -2.5868214907 -1.4149665778                           
 INPUT CARD>O 8.0000000 1.1044705660 3.1080896533 -0.4271001687                             
 INPUT CARD>O 8.0000000 0.0375750921 -1.0537313160 0.6849055699                             
 INPUT CARD>C 6.0000000 -1.2918161700 -0.6003507748 1.1195522550                            
 INPUT CARD>C 6.0000000 1.2094776406 -0.4786997271 1.2872226664                             
 INPUT CARD>C 6.0000000 -1.4843930221 0.8922949669 1.4751832138                             
 INPUT CARD>C 6.0000000 2.2844777984 -1.5254987484 0.9938369472                             
 INPUT CARD>C 6.0000000 -2.2259198205 -0.9543084402 -0.0229091829                           
 INPUT CARD>C 6.0000000 2.5457593727 -1.6553593104 -0.5228847401                            
 INPUT CARD>C 6.0000000 -1.7071785167 1.8867009741 0.2787050238                             
 INPUT CARD>C 6.0000000 2.5956948506 -0.2912982210 -1.2794397173                            
 INPUT CARD>C 6.0000000 1.5643398616 0.7175419689 -0.7779451334                             
 INPUT CARD>C 6.0000000 -2.2693191864 1.2328554331 -1.0079333146                            
 INPUT CARD>O 8.0000000 1.5462380388 0.7915854018 0.7128743261                              
 INPUT CARD>O 8.0000000 -1.8359461225 -0.1197543461 -1.1893747240                           
 INPUT CARD>H 1.0000000 -1.5767474133 -1.1491024371 2.0251877703                            
 INPUT CARD>H 1.0000000 1.0923538833 -0.2991122558 2.3624176974                             
 INPUT CARD>H 1.0000000 -0.6318942888 1.2644153987 2.0586187407                             
 INPUT CARD>H 1.0000000 1.9366416003 -2.4900881533 1.3823000929                             
 INPUT CARD>H 1.0000000 -3.2440979741 -0.6987458276 0.2757838161                            
 INPUT CARD>H 1.0000000 1.7712729735 -2.2883808271 -0.9560411428                            
 INPUT CARD>H 1.0000000 -0.7717212391 2.3864506253 0.0243850262                             
 INPUT CARD>H 1.0000000 2.3530166238 -0.4970112220 -2.3360045372                            
 INPUT CARD>H 1.0000000 0.5665709145 0.4162242154 -1.1023305661                             
 INPUT CARD>H 1.0000000 -1.9221440841 1.7641998574 -1.8993846317                            
   30000000 WORDS OF MEMORY AVAILABLE

     BASIS OPTIONS
     -------------
     GBASIS=N21          IGAUSS=       3      POLAR=NONE    
     NDFUNC=       0     NFFUNC=       0     DIFFSP=       F
     NPFUNC=       0      DIFFS=       F     BASNAM=        


     RUN TITLE
     ---------
                                                                                 

 THE POINT GROUP OF THE MOLECULE IS C1      
 THE ORDER OF THE PRINCIPAL AXIS IS     0

 ATOM      ATOMIC                      COORDINATES (BOHR)
           CHARGE         X                   Y                   Z
 C           6.0    -4.0250680024       -4.5217209074       -0.9227229022
 C           6.0     3.6303645292        4.0629204042       -2.2365081090
 H           1.0    -5.8244881490        3.3585700858        3.9001377870
 H           1.0     6.7630340449       -2.4854422995        4.7978950290
 H           1.0     8.1035836336       -3.9611980937        0.4015809185
 H           1.0    -6.6247880591        5.0534302598        0.4049776210
 H           1.0     8.5011611313       -1.0488374047       -2.1894011756
 H           1.0    -7.8304070463        1.7705628733       -3.1894731599
 H           1.0    -5.8581025319       -6.5296690363       -3.5489140724
 H           1.0     2.3917635088        5.3788006500        0.9876598583
 O           8.0    -5.1118297799        1.6210277498        4.2730059037
 O           8.0     6.7785099617       -2.1972887294        2.9438100573
 O           8.0     7.3030713993       -4.3143668079       -1.2959358288
 O           8.0    -5.0735931965        5.4536519751        1.4342610118
 O           8.0     7.4132398362        0.5056443649       -2.1720178799
 O           8.0    -7.0264666328        2.4962537458       -1.6570259040
 O           8.0    -6.1232286572       -4.8883837966       -2.6738991138
 O           8.0     2.0871467312        5.8734377900       -0.8071022882
 O           8.0     0.0710066280       -1.9912634519        1.2942838546
 C           6.0    -2.4411785878       -1.1344984609        2.1156469909
 C           6.0     2.2855813290       -0.9046113146        2.4324981247
 C           6.0    -2.8050960699        1.6861929877        2.7876920558
 C           6.0     4.3170370640       -2.8827746291        1.8780795067
 C           6.0    -4.2063785314       -1.8033814597       -0.0432920783
 C           6.0     4.8107876451       -3.1281755079       -0.9881088820
 C           6.0    -3.2260996087        3.5653478618        0.5266761264
 C           6.0     4.9051520154       -0.5504738184       -2.4177904835
 C           6.0     2.9561736901        1.3559577059       -1.4701031356
 C           6.0    -4.2883914410        2.3297589510       -1.9047177785
 O           8.0     2.9219662051        1.4958795053        1.3471371400
 O           8.0    -3.4694350997       -0.2263029000       -2.2475923251
 H           1.0    -2.9796205630       -2.1714887379        3.8270499596
 H           1.0     2.0642495211       -0.5652402030        4.4643221166
 H           1.0    -1.1941070590        2.3893986382        3.8902253331
 H           1.0     3.6597219610       -4.7055842950        2.6121684084
 H           1.0    -6.1304562484       -1.3204381492        0.5211558443
 H           1.0     3.3472205694       -4.3244127188       -1.8066557929
 H           1.0    -1.4583416808        4.5097377650        0.0460810177
 H           1.0     4.4465566635       -0.9392150224       -4.4144084814
 H           1.0     1.0706637810        0.7865497166       -2.0831027178
 H           1.0    -3.6323256279        3.3338543181       -3.5893164992
 H           1.0    -4.1507704918       -5.7753272352        0.7333965978
 H           1.0    -2.1685719202       -4.7684482440       -1.8051233614
 H           1.0     3.2276423785        4.3764108030       -4.2358573390
 H           1.0     5.6455855228        4.3327892272       -1.8774830254

          INTERNUCLEAR DISTANCES (ANGS.)
          ------------------------------

                1 C          2 C          3 H          4 H          5 H     

   1 C       0.0000000    6.1263037    4.9809294    6.5510144    6.4631621  
   2 C       6.1263037    0.0000000    5.9763951    5.3490764    5.0578849  
   3 H       4.9809294    5.9763951    0.0000000    7.3592588    8.5296099  
   4 H       6.5510144    5.3490764    7.3592588    0.0000000    2.5544798 *
   5 H       6.4631621    5.0578849    8.5296099    2.5544798 *  0.0000000  
   6 H       5.2971899    5.6283843    2.0987183 *  8.4563469    9.1379039  
   7 H       6.9112212    3.7364915    8.5610994    3.8853009    2.0734770 *
   8 H       4.0719698    6.2054315    3.9884683    9.0870713    9.1601302  
   9 H       2.0003146 *  7.5573546    6.5512651    8.2883092    7.7976406  
  10 H       6.3246227    1.9558761 *  4.7351947    5.1705848    5.8017704  
  11 O       4.2961244    5.9107600    1.0132005 *  6.6548325    7.8631596  
  12 O       6.1954512    4.6113398    7.3060521    0.9929519 *  1.7812239 *
  13 O       5.9988497    4.8659105    8.5032373    3.3789275    1.0105915 *
  14 O       5.4523965    5.0526746    1.7577735 *  7.7493125    8.5874205  
  15 O       6.6447054    2.7480821 *  7.8533844    4.0283235    2.7523661 *
  16 O       4.0577773    5.7082086    3.0431331    8.4773077    8.7730976  
  17 O       1.4591613 *  7.0093464    5.5832452    7.9843992    7.7180178  
  18 O       6.3816201    1.4686643 *  5.0501544    5.8724560    6.1343146  
  19 O       2.8049470 *  4.1596382    4.4327259    4.0057961    4.4020377  
  20 C       2.5496061 *  4.8157471    3.1225429    5.1233824    5.8478339  
  21 C       4.2388810    3.6770940    4.9102947    2.8072198 *  3.6400510  
  22 C       3.8812078    4.4997673    1.9190326 *  5.6250464    6.6218207  
  23 C       4.7366938    4.2874472    6.3917435    2.0265552 *  2.2251246 *
  24 C       1.5149303 *  5.3086326    3.5425111    6.3552031    6.6176625  
  25 C       4.7336551    3.9124690    7.0815289    3.2492609    1.9419918 *
  26 C       4.3681904    3.9206951    2.2559729 *  6.5805093    7.1980997  
  27 C       5.2320314    2.5346073 *  6.9061589    4.0737007    2.8893204 *
  28 C       4.8379787    1.5309197 *  5.5487954    4.3808827    4.0395041  
  29 C       3.6653473    4.2932105    3.2238316    7.2989099    7.4547572  
  30 O       5.0097483    2.3626470 *  4.9212885    3.4503191    4.0134852  
  31 O       2.3968063 *  4.3894516    3.9667889    6.6820238    6.5861274  
  32 H       2.8583848 *  5.7805560    3.2911321    5.1837882    6.2113398  
  33 H       4.7847041    4.3884626    4.6719720    2.6918963 *  4.2503164  
  34 H       4.7017148    4.2206012    2.5033955 *  4.9614151    6.2377355  
  35 H       4.4772667    5.3022716    6.6229591    2.3269950 *  2.6558538 *
  36 H       2.1667632 *  6.0765330    3.0584547    7.2148777    7.6611234  
  37 H       3.9305762    4.4467360    7.0146623    4.0532934    2.7816419 *
  38 H       4.9948813    2.9607829 *  3.1414671    6.2412256    6.7625778  
  39 H       5.2062716    2.9191586 *  7.3534124    5.0928581    3.5773314  
  40 H       3.9419514    2.2016703 *  5.0190328    5.0329497    4.6788583  
  41 H       4.3948809    3.9283453    4.1295534    7.7098970    7.6112654  
  42 H       1.1011544 *  6.8212058    5.1918103    6.4040203    6.5577502  
  43 H       1.0955481 *  5.5954540    5.5993894    6.0006356    5.5761920  
  44 H       6.3226255    1.0919350 *  6.4631475    6.2879241    5.6697671  
  45 H       6.9569292    1.0925740 *  6.8157659    5.0838938    4.7338776  

                6 H          7 H          8 H          9 H         10 H     

   1 C       5.2971899    6.9112212    4.0719698    2.0003146 *  6.3246227  
   2 C       5.6283843    3.7364915    6.2054315    7.5573546    1.9558761 *
   3 H       2.0987183 *  8.5610994    3.9884683    6.5512651    4.7351947  
   4 H       8.4563469    3.8853009    9.0870713    8.2883092    5.1705848  
   5 H       9.1379039    2.0734770 *  9.1601302    7.7976406    5.8017704  
   6 H       0.0000000    8.7396440    2.6538549 *  6.4894751    4.7844058  
   7 H       8.7396440    0.0000000    8.7860840    8.1650565    4.9847538  
   8 H       2.6538549 *  8.7860840    0.0000000    4.5185984    6.1475865  
   9 H       6.4894751    8.1650565    4.5185984    0.0000000    8.0332600  
  10 H       4.7844058    4.9847538    6.1475865    8.0332600    0.0000000  
  11 O       2.8512821 *  8.0983902    4.2036002    5.9910066    4.7690077  
  12 O       8.1751804    2.9290009 *  8.6432881    7.8598225    4.7469057  
  13 O       8.9278020    1.9004303 *  8.6893744    7.1624874    5.8758515  
  14 O       1.0076356 *  8.1926355    3.4516024    6.8802704    3.9577579  
  15 O       7.9268825    1.0040835 *  8.1122027    7.9819860    4.0628422  
  16 O       1.7512774 *  8.4330055    0.9930138 *  4.9191173    5.3967388  
  17 O       5.5138825    8.0052753    3.6479411    0.9942000 *  7.3196363  
  18 O       4.6747459    5.0471478    5.8177533    7.9285089    0.9982573 *
  19 O       5.1646247    4.8526371    5.2033962    4.7096189    4.0920759  
  20 C       4.0550117    6.2226289    4.2869062    4.5172799    4.3332072  
  21 C       5.7727340    4.0995422    6.2857780    6.1196816    3.4122742  
  22 C       2.9749770 *  6.6953638    4.1325786    5.7232866    3.5054874  
  23 C       7.1951940    3.2368444    7.3875501    6.4003231    4.5136416  
  24 C       3.8548490    6.8314443    3.1664578    3.2342806    5.1897716  
  25 C       7.4771782    2.3299192 *  7.2681189    6.0787035    4.7955251  
  26 C       1.9644014 *  6.8220045    3.2719533    5.9269563    3.1334043  
  27 C       6.9463717    1.9249116 *  6.8625368    6.5429480    3.8550303  
  28 C       5.5243180    3.2209170    5.7842355    6.3544478    2.5124733 *
  29 C       2.2582807 *  7.0017292    2.0156841 *  4.8400727    4.1763778  
  30 O       5.4142966    3.7459659    6.1773328    6.8070864    2.0825270 *
  31 O       3.5446172    6.3495785    2.5866262 *  3.6329317    4.6204687  
  32 H       4.6494562    6.8847237    4.9726191    4.7826687    5.1284012  
  33 H       5.8818976    4.9056681    6.7340957    6.7467511    3.6481031  
  34 H       3.6942603    6.3232043    5.1454309    6.6230379    2.9090255 *
  35 H       7.5929320    4.0944233    7.6249758    6.0769091    5.4467113  
  36 H       3.3835934    7.8757703    2.7093094 *  3.5012077    5.7416501  
  37 H       7.3377675    3.2378985    6.7767809    5.0932202    5.3672622  
  38 H       2.7556153 *  6.1504611    4.0500251    6.5701226    2.1472570 *
  39 H       7.1333594    2.4481236 *  6.6845623    6.2206639    4.5312481  
  40 H       4.8389141    4.0506172    4.7749678    5.3883514    3.0057853  
  41 H       2.7934424 *  6.8668624    2.3799827 *  5.3508379    4.1472161  
  42 H       5.8805525    7.3124910    4.9036515    2.4720111 *  6.8442888  
  43 H       5.8260398    5.9828953    4.6354075    2.3520331 *  6.0697105  
  44 H       5.7742450    4.1475919    6.0373957    7.5203745    2.8491471 *
  45 H       6.6155838    3.2281335    7.2920682    8.4191006    2.3600677 *

               11 O         12 O         13 O         14 O         15 O     

   1 C       4.2961244    6.1954512    5.9988497    5.4523965    6.6447054  
   2 C       5.9107600    4.6113398    4.8659105    5.0526746    2.7480821 *
   3 H       1.0132005 *  7.3060521    8.5032373    1.7577735 *  7.8533844  
   4 H       6.6548325    0.9929519 *  3.3789275    7.7493125    4.0283235  
   5 H       7.8631596    1.7812239 *  1.0105915 *  8.5874205    2.7523661 *
   6 H       2.8512821 *  8.1751804    8.9278020    1.0076356 *  7.9268825  
   7 H       8.0983902    2.9290009 *  1.9004303 *  8.1926355    1.0040835 *
   8 H       4.2036002    8.6432881    8.6893744    3.4516024    8.1122027  
   9 H       5.9910066    7.8598225    7.1624874    6.8802704    7.9819860  
  10 H       4.7690077    4.7469057    5.8758515    3.9577579    4.0628422  
  11 O       0.0000000    6.6458949    7.8555965    2.5239560 *  7.4773285  
  12 O       6.6458949    0.0000000    2.5230508 *  7.5077549    3.0801764  
  13 O       7.8555965    2.5230508 *  0.0000000    8.4676627    2.5930854 *
  14 O       2.5239560 *  7.5077549    8.4676627    0.0000000    7.3593513  
  15 O       7.4773285    3.0801764    2.5930854 *  7.3593513    0.0000000  
  16 O       3.3299141    8.0909525    8.3979379    2.4885948 *  7.7182432  
  17 O       5.0661600    7.5813854    7.1486698    5.9148766    7.7155314  
  18 O       5.1771754    5.3238192    6.0621681    3.9767987    4.0661846  
  19 O       3.6960380    3.6568401    4.2469172    4.7893689    4.4951477  
  20 C       2.3295522 *  4.9306723    5.7166053    3.7715758    5.7528090  
  21 C       4.2495277    2.4887574 *  3.7680563    5.1735416    3.7224628  
  22 C       1.4522444 *  5.4726064    6.5851805    2.4348826 *  6.0429819  
  23 C       5.6729045    1.4650204 *  2.4273165 *  6.6490636    3.2392886  
  24 C       2.9547264 *  6.0276452    6.2689438    3.9458232    6.3694699  
  25 C       6.4527648    2.3782657 *  1.4696735 *  7.0445522    2.4467822 *
  26 C       2.4463416 *  6.2421101    7.0258172    1.4781613 *  6.0298413  
  27 C       6.4772268    3.1292336    2.4351048 *  6.4910699    1.4459515 *
  28 C       5.2424948    3.6169737    3.7819863    5.0119423    2.4296760 *
  29 C       3.3192797    6.8277952    7.0774768    2.4550647 *  6.2686181  
  30 O       4.5249528    2.9492689 *  4.0969011    4.7212731    3.0645055  
  31 O       3.6901640    6.1679421    6.1180034    3.6811592    5.7720134  
  32 H       2.3144094 *  5.1849080    6.1841480    4.3718154    6.5062424  
  33 H       3.9710331    2.7598403 *  4.5730767    5.1944922    4.5459837  
  34 H       2.1223548 *  4.8929877    6.3509820    2.9211266 *  5.6596179  
  35 H       5.7901887    2.1251834 *  2.8349446 *  7.1167620    4.2378554  
  36 H       2.5797703 *  6.9658608    7.3463277    3.6600944    7.3709560  
  37 H       6.3471735    3.2990002    2.1107269 *  7.0407266    3.3466206  
  38 H       3.3283320    5.8264016    6.6184863    2.1092916 *  5.2827075  
  39 H       6.9680561    4.1385631    2.8632449 *  6.8119920    2.1112211 *
  40 H       4.7129376    4.3234996    4.2821488    4.4872728    3.3599665  
  41 H       4.3295244    7.1323354    7.1651809    2.9844436 *  6.0800606  
  42 H       4.3687912    6.1969674    6.2038690    5.9736773    7.1315028  
  43 H       4.9196931    5.5301809    5.0251639    5.8789685    5.7910896  
  44 H       6.4711191    5.4833031    5.3124198    5.3502202    3.2084681  
  45 H       6.7125075    4.3370040    4.6693338    5.9664535    2.2362601 *

               16 O         17 O         18 O         19 O         20 C     

   1 C       4.0577773    1.4591613 *  6.3816201    2.8049470 *  2.5496061 *
   2 C       5.7082086    7.0093464    1.4686643 *  4.1596382    4.8157471  
   3 H       3.0431331    5.5832452    5.0501544    4.4327259    3.1225429  
   4 H       8.4773077    7.9843992    5.8724560    4.0057961    5.1233824  
   5 H       8.7730976    7.7180178    6.1343146    4.4020377    5.8478339  
   6 H       1.7512774 *  5.5138825    4.6747459    5.1646247    4.0550117  
   7 H       8.4330055    8.0052753    5.0471478    4.8526371    6.2226289  
   8 H       0.9930138 *  3.6479411    5.8177533    5.2033962    4.2869062  
   9 H       4.9191173    0.9942000 *  7.9285089    4.7096189    4.5172799  
  10 H       5.3967388    7.3196363    0.9982573 *  4.0920759    4.3332072  
  11 O       3.3299141    5.0661600    5.1771754    3.6960380    2.3295522 *
  12 O       8.0909525    7.5813854    5.3238192    3.6568401    4.9306723  
  13 O       8.3979379    7.1486698    6.0621681    4.2469172    5.7166053  
  14 O       2.4885948 *  5.9148766    3.9767987    4.7893689    3.7715758  
  15 O       7.7182432    7.7155314    4.0661846    4.4951477    5.7528090  
  16 O       0.0000000    3.9735095    5.1628202    4.7100392    3.6830238  
  17 O       3.9735095    0.0000000    7.2308155    4.1837924    3.7638194  
  18 O       5.1628202    7.2308155    0.0000000    4.4379699    4.6783388  
  19 O       4.7100392    4.1837924    4.4379699    0.0000000    1.4702900 *
  20 C       3.6830238    3.7638194    4.6783388    1.4702900 *  0.0000000  
  21 C       5.6749006    5.6166082    3.9768062    1.4376379 *  2.5098572 *
  22 C       3.2719969    4.8518381    3.9026456    2.5938281 *  1.5464639 *
  23 C       6.9017778    6.1197725    4.9881480    2.3165869 *  3.6961577  
  24 C       2.8518627 *  2.3731489 *  5.2685813    2.3736672 *  1.5175816 *
  25 C       6.9441736    5.9280356    4.9776434    2.8481050 *  4.3055346  
  26 C       2.3874227 *  5.0230774    3.1456830    3.4431535    2.6580023 *
  27 C       6.5289587    6.2726644    3.8086836    3.3142018    4.5785825  
  28 C       5.3178581    5.8659118    2.4595305 *  2.7583241 *  3.6735494  
  29 C       1.4575090 *  3.9621156    3.9033739    3.6627781    2.9736093 *
  30 O       5.5246982    6.2331397    2.6193305 *  2.3837030 *  3.1870715  
  31 O       2.3908950 *  2.8477090 *  4.4323910    2.8098614 *  2.4203707 *
  32 H       4.3713971    4.0827707    5.5969930    2.1003545 *  1.0965810 *
  33 H       6.0215806    6.1865906    4.4034738    2.1203903 *  2.7054992 *
  34 H       4.2597892    5.8052960    3.5486471    2.7765232 *  2.1896793 *
  35 H       7.1837077    5.8851088    5.9418880    2.4811154 *  3.7500778  
  36 H       2.3733141 *  2.5344588 *  5.8220349    3.3260748    2.1290916 *
  37 H       6.5702692    5.0413565    5.4631765    2.6875219 *  4.0669458  
  38 H       3.2602948    5.7357578    2.0602664 *  3.5952885    3.2234876  
  39 H       6.5034112    6.0415652    4.2660914    3.8467005    5.0235802  
  40 H       4.3850933    4.8588155    2.8269085 *  2.3737773 *  3.0698193  
  41 H       2.1137644 *  4.5720359    3.6240940    4.2964859    3.8861797  
  42 H       4.8036588    2.1356039 *  7.0398173    3.0147844    2.7174482 *
  43 H       4.6252928    2.1435576 *  6.0879980    2.5008758 *  2.8325739 *
  44 H       5.6829821    7.0146416    2.0697651 *  4.7653605    5.3665790  
  45 H       6.7768243    7.9229922    2.1287006 *  4.7664061    5.5810535  

               21 C         22 C         23 C         24 C         25 C     

   1 C       4.2388810    3.8812078    4.7366938    1.5149303 *  4.7336551  
   2 C       3.6770940    4.4997673    4.2874472    5.3086326    3.9124690  
   3 H       4.9102947    1.9190326 *  6.3917435    3.5425111    7.0815289  
   4 H       2.8072198 *  5.6250464    2.0265552 *  6.3552031    3.2492609  
   5 H       3.6400510    6.6218207    2.2251246 *  6.6176625    1.9419918 *
   6 H       5.7727340    2.9749770 *  7.1951940    3.8548490    7.4771782  
   7 H       4.0995422    6.6953638    3.2368444    6.8314443    2.3299192 *
   8 H       6.2857780    4.1325786    7.3875501    3.1664578    7.2681189  
   9 H       6.1196816    5.7232866    6.4003231    3.2342806    6.0787035  
  10 H       3.4122742    3.5054874    4.5136416    5.1897716    4.7955251  
  11 O       4.2495277    1.4522444 *  5.6729045    2.9547264 *  6.4527648  
  12 O       2.4887574 *  5.4726064    1.4650204 *  6.0276452    2.3782657 *
  13 O       3.7680563    6.5851805    2.4273165 *  6.2689438    1.4696735 *
  14 O       5.1735416    2.4348826 *  6.6490636    3.9458232    7.0445522  
  15 O       3.7224628    6.0429819    3.2392886    6.3694699    2.4467822 *
  16 O       5.6749006    3.2719969    6.9017778    2.8518627 *  6.9441736  
  17 O       5.6166082    4.8518381    6.1197725    2.3731489 *  5.9280356  
  18 O       3.9768062    3.9026456    4.9881480    5.2685813    4.9776434  
  19 O       1.4376379 *  2.5938281 *  2.3165869 *  2.3736672 *  2.8481050 *
  20 C       2.5098572 *  1.5464639 *  3.6961577    1.5175816 *  4.3055346  
  21 C       0.0000000    3.0285136    1.5288848 *  3.7073717    2.5390284 *
  22 C       3.0285136    0.0000000    4.5035328    2.4908005 *  5.1696176  
  23 C       1.5288848 *  4.5035328    0.0000000    4.6587249    1.5445312 *
  24 C       3.7073717    2.4908005 *  4.6587249    0.0000000    4.8487493  
  25 C       2.5390284 *  5.1696176    1.5445312 *  4.8487493    0.0000000  
  26 C       3.8883302    1.5716351 *  5.2997963    2.9036870 *  5.5925145  
  27 C       2.9230931 *  5.0631964    2.6053587 *  5.0265714    1.5606190 *
  28 C       2.4128488 *  3.7949833    2.9477181 *  4.2108469    2.5804846 *
  29 C       4.5054622    2.6263964 *  5.6879407    2.3991336 *  5.6357819  
  30 O       1.4341924 *  3.1266567    2.4480231 *  4.2212199    2.9178214 *
  31 O       3.9416979    2.8718813 *  4.8703618    1.4863384 *  4.6905900  
  32 H       2.9592368 *  2.1162083 *  4.0142769    2.1573295 *  4.8727848  
  33 H       1.0963640 *  2.9742664 *  2.1904786 *  4.1388412    3.5038213  
  34 H       2.6503118 *  1.0980094 *  4.1740397    3.4345904    5.0285910  
  35 H       2.1409088 *  4.8117170    1.0965064 *  4.6540466    2.1673777 *
  36 H       4.5722822    2.6582948 *  5.6359800    1.0914287 *  5.9224513  
  37 H       2.9364591 *  5.1601271    2.1557813 *  4.3160207    1.0900321 *
  38 H       3.7052658    2.2011855 *  5.0580171    3.6438443    5.2575098  
  39 H       3.7994463    5.5839983    3.4857321    5.1503582    2.1601675 *
  40 H       2.6313842 *  3.3281637    3.3339782    3.2926456    2.9230810 *
  41 H       4.9992119    3.5127699    6.0735917    3.3171866    5.7922619  
  42 H       4.3649087    4.1568297    4.7737808    2.1418733 *  5.0280338  
  43 H       3.8425029    4.2055947    4.0710508    2.1199032 *  3.8184994  
  44 H       4.5288310    5.1021428    5.0553125    5.5760344    4.4075425  
  45 H       4.0055582    5.2965951    4.3615780    6.2181827    4.0005894  

               26 C         27 C         28 C         29 C         30 O     

   1 C       4.3681904    5.2320314    4.8379787    3.6653473    5.0097483  
   2 C       3.9206951    2.5346073 *  1.5309197 *  4.2932105    2.3626470 *
   3 H       2.2559729 *  6.9061589    5.5487954    3.2238316    4.9212885  
   4 H       6.5805093    4.0737007    4.3808827    7.2989099    3.4503191  
   5 H       7.1980997    2.8893204 *  4.0395041    7.4547572    4.0134852  
   6 H       1.9644014 *  6.9463717    5.5243180    2.2582807 *  5.4142966  
   7 H       6.8220045    1.9249116 *  3.2209170    7.0017292    3.7459659  
   8 H       3.2719533    6.8625368    5.7842355    2.0156841 *  6.1773328  
   9 H       5.9269563    6.5429480    6.3544478    4.8400727    6.8070864  
  10 H       3.1334043    3.8550303    2.5124733 *  4.1763778    2.0825270 *
  11 O       2.4463416 *  6.4772268    5.2424948    3.3192797    4.5249528  
  12 O       6.2421101    3.1292336    3.6169737    6.8277952    2.9492689 *
  13 O       7.0258172    2.4351048 *  3.7819863    7.0774768    4.0969011  
  14 O       1.4781613 *  6.4910699    5.0119423    2.4550647 *  4.7212731  
  15 O       6.0298413    1.4459515 *  2.4296760 *  6.2686181    3.0645055  
  16 O       2.3874227 *  6.5289587    5.3178581    1.4575090 *  5.5246982  
  17 O       5.0230774    6.2726644    5.8659118    3.9621156    6.2331397  
  18 O       3.1456830    3.8086836    2.4595305 *  3.9033739    2.6193305 *
  19 O       3.4431535    3.3142018    2.7583241 *  3.6627781    2.3837030 *
  20 C       2.6580023 *  4.5785825    3.6735494    2.9736093 *  3.1870715  
  21 C       3.8883302    2.9230931 *  2.4128488 *  4.5054622    1.4341924 *
  22 C       1.5716351 *  5.0631964    3.7949833    2.6263964 *  3.1266567  
  23 C       5.2997963    2.6053587 *  2.9477181 *  5.6879407    2.4480231 *
  24 C       2.9036870 *  5.0265714    4.2108469    2.3991336 *  4.2212199  
  25 C       5.5925145    1.5606190 *  2.5804846 *  5.6357819    2.9178214 *
  26 C       0.0000000    5.0681569    3.6312911    1.5488558 *  3.4601301  
  27 C       5.0681569    0.0000000    1.5273992 *  5.1054012    2.4986620 *
  28 C       3.6312911    1.5273992 *  0.0000000    3.8749689    1.4927668 *
  29 C       1.5488558 *  5.1054012    3.8749689    0.0000000    4.2088449  
  30 O       3.4601301    2.4986620 *  1.4927668 *  4.2088449    0.0000000  
  31 O       2.4895185 *  4.4358743    3.5259444    1.4318821 *  3.9860082  
  32 H       3.5047563    5.3912582    4.6052519    3.9183163    3.9040330  
  33 H       4.1178902    3.9399518    3.3344018    5.0007036    2.0289469 *
  34 H       2.1706147 *  4.8969593    3.6288579    3.4764778    2.6036238 *
  35 H       5.8010025    3.5148097    3.8851202    6.1043944    3.3719323  
  36 H       3.0077675    6.0570549    5.1222349    2.5157915 *  5.0358172  
  37 H       5.5727490    2.1846274 *  3.0182961    5.3598678    3.5102865  
  38 H       1.0906460 *  4.4955299    2.9809682 *  2.1538948 *  2.8966442 *
  39 H       5.3855338    1.1034219 *  2.1271341 *  5.1109882    3.4069099  
  40 H       3.0396542    2.1562235 *  1.0915865 *  2.9526378 *  2.0965716 *
  41 H       2.1920975 *  5.0020269    3.8090274    1.0943230 *  4.4496686  
  42 H       4.9682378    5.7784316    5.4538459    4.5110928    5.3776160  
  43 H       4.6134974    4.3702557    4.2295666    3.9204892    4.5856232  
  44 H       4.2660461    2.9173748 *  2.1719634 *  4.3027597    3.3283830  
  45 H       4.8809465    2.6292406 *  2.1338655 *  5.3626513    2.6912362 *

               31 O         32 H         33 H         34 H         35 H     

   1 C       2.3968063 *  2.8583848 *  4.7847041    4.7017148    4.4772667  
   2 C       4.3894516    5.7805560    4.3884626    4.2206012    5.3022716  
   3 H       3.9667889    3.2911321    4.6719720    2.5033955 *  6.6229591  
   4 H       6.6820238    5.1837882    2.6918963 *  4.9614151    2.3269950 *
   5 H       6.5861274    6.2113398    4.2503164    6.2377355    2.6558538 *
   6 H       3.5446172    4.6494562    5.8818976    3.6942603    7.5929320  
   7 H       6.3495785    6.8847237    4.9056681    6.3232043    4.0944233  
   8 H       2.5866262 *  4.9726191    6.7340957    5.1454309    7.6249758  
   9 H       3.6329317    4.7826687    6.7467511    6.6230379    6.0769091  
  10 H       4.6204687    5.1284012    3.6481031    2.9090255 *  5.4467113  
  11 O       3.6901640    2.3144094 *  3.9710331    2.1223548 *  5.7901887  
  12 O       6.1679421    5.1849080    2.7598403 *  4.8929877    2.1251834 *
  13 O       6.1180034    6.1841480    4.5730767    6.3509820    2.8349446 *
  14 O       3.6811592    4.3718154    5.1944922    2.9211266 *  7.1167620  
  15 O       5.7720134    6.5062424    4.5459837    5.6596179    4.2378554  
  16 O       2.3908950 *  4.3713971    6.0215806    4.2597892    7.1837077  
  17 O       2.8477090 *  4.0827707    6.1865906    5.8052960    5.8851088  
  18 O       4.4323910    5.5969930    4.4034738    3.5486471    5.9418880  
  19 O       2.8098614 *  2.1003545 *  2.1203903 *  2.7765232 *  2.4811154 *
  20 C       2.4203707 *  1.0965810 *  2.7054992 *  2.1896793 *  3.7500778  
  21 C       3.9416979    2.9592368 *  1.0963640 *  2.6503118 *  2.1409088 *
  22 C       2.8718813 *  2.1162083 *  2.9742664 *  1.0980094 *  4.8117170  
  23 C       4.8703618    4.0142769    2.1904786 *  4.1740397    1.0965064 *
  24 C       1.4863384 *  2.1573295 *  4.1388412    3.4345904    4.6540466  
  25 C       4.6905900    4.8727848    3.5038213    5.0285910    2.1673777 *
  26 C       2.4895185 *  3.5047563    4.1178902    2.1706147 *  5.8010025  
  27 C       4.4358743    5.3912582    3.9399518    4.8969593    3.5148097  
  28 C       3.5259444    4.6052519    3.3344018    3.6288579    3.8851202  
  29 C       1.4318821 *  3.9183163    5.0007036    3.4764778    6.1043944  
  30 O       3.9860082    3.9040330    2.0289469 *  2.6036238 *  3.3719323  
  31 O       0.0000000    3.3852848    4.6067711    3.7302987    5.1443573  
  32 H       3.3852848    0.0000000    2.8214020 *  2.5920905 *  3.8151605  
  33 H       4.6067711    2.8214020 *  0.0000000    2.3473271 *  2.5443718 *
  34 H       3.7302987    2.5920905 *  2.3473271 *  0.0000000    4.5990304  
  35 H       5.1443573    3.8151605    2.5443718 *  4.5990304    0.0000000  
  36 H       2.1130103 *  2.4583110 *  4.8289298    3.7223797    5.5922579  
  37 H       4.2153784    4.6254645    3.9281407    5.2426852    2.3528435 *
  38 H       2.9810821 *  4.1414266    4.0191318    2.3273636 *  5.7410620  
  39 H       4.3594141    5.9066290    4.8686349    5.5968769    4.2392821  
  40 H       2.4631155 *  4.1018815    3.5766793    3.4853045    4.0616665  
  41 H       2.0151495 *  4.8998875    5.6131465    4.1928892    6.6150320  
  42 H       3.3527538    2.5886416 *  4.7239640    4.8893852    4.2885540  
  43 H       2.5111737 *  3.3099339    4.5794377    4.8678943    3.8700707  
  44 H       4.4270672    6.4031666    5.3304337    5.0071831    6.0234409  
  45 H       5.3967234    6.4646643    4.6445713    4.8449240    5.4428863  

               36 H         37 H         38 H         39 H         40 H     

   1 C       2.1667632 *  3.9305762    4.9948813    5.2062716    3.9419514  
   2 C       6.0765330    4.4467360    2.9607829 *  2.9191586 *  2.2016703 *
   3 H       3.0584547    7.0146623    3.1414671    7.3534124    5.0190328  
   4 H       7.2148777    4.0532934    6.2412256    5.0928581    5.0329497  
   5 H       7.6611234    2.7816419 *  6.7625778    3.5773314    4.6788583  
   6 H       3.3835934    7.3377675    2.7556153 *  7.1333594    4.8389141  
   7 H       7.8757703    3.2378985    6.1504611    2.4481236 *  4.0506172  
   8 H       2.7093094 *  6.7767809    4.0500251    6.6845623    4.7749678  
   9 H       3.5012077    5.0932202    6.5701226    6.2206639    5.3883514  
  10 H       5.7416501    5.3672622    2.1472570 *  4.5312481    3.0057853  
  11 O       2.5797703 *  6.3471735    3.3283320    6.9680561    4.7129376  
  12 O       6.9658608    3.2990002    5.8264016    4.1385631    4.3234996  
  13 O       7.3463277    2.1107269 *  6.6184863    2.8632449 *  4.2821488  
  14 O       3.6600944    7.0407266    2.1092916 *  6.8119920    4.4872728  
  15 O       7.3709560    3.3466206    5.2827075    2.1112211 *  3.3599665  
  16 O       2.3733141 *  6.5702692    3.2602948    6.5034112    4.3850933  
  17 O       2.5344588 *  5.0413565    5.7357578    6.0415652    4.8588155  
  18 O       5.8220349    5.4631765    2.0602664 *  4.2660914    2.8269085 *
  19 O       3.3260748    2.6875219 *  3.5952885    3.8467005    2.3737773 *
  20 C       2.1290916 *  4.0669458    3.2234876    5.0235802    3.0698193  
  21 C       4.5722822    2.9364591 *  3.7052658    3.7994463    2.6313842 *
  22 C       2.6582948 *  5.1601271    2.2011855 *  5.5839983    3.3281637  
  23 C       5.6359800    2.1557813 *  5.0580171    3.4857321    3.3339782  
  24 C       1.0914287 *  4.3160207    3.6438443    5.1503582    3.2926456  
  25 C       5.9224513    1.0900321 *  5.2575098    2.1601675 *  2.9230810 *
  26 C       3.0077675    5.5727490    1.0906460 *  5.3855338    3.0396542  
  27 C       6.0570549    2.1846274 *  4.4955299    1.1034219 *  2.1562235 *
  28 C       5.1222349    3.0182961    2.9809682 *  2.1271341 *  1.0915865 *
  29 C       2.5157915 *  5.3598678    2.1538948 *  5.1109882    2.9526378 *
  30 O       5.0358172    3.5102865    2.8966442 *  3.4069099    2.0965716 *
  31 O       2.1130103 *  4.2153784    2.9810821 *  4.3594141    2.4631155 *
  32 H       2.4583110 *  4.6254645    4.1414266    5.9066290    4.1018815  
  33 H       4.8289298    3.9281407    4.0191318    4.8686349    3.5766793  
  34 H       3.7223797    5.2426852    2.3273636 *  5.5968769    3.4853045  
  35 H       5.5922579    2.3528435 *  5.7410620    4.2392821    4.0616665  
  36 H       0.0000000    5.4035431    3.9616013    6.1797918    4.2028032  
  37 H       5.4035431    0.0000000    5.4112941    2.3348939 *  2.9643880 *
  38 H       3.9616013    5.4112941    0.0000000    4.8631037    2.6348256 *
  39 H       6.1797918    2.3348939 *  4.8631037    0.0000000    2.3552789 *
  40 H       4.2028032    2.9643880 *  2.6348256 *  2.3552789 *  0.0000000  
  41 H       3.5418952    5.5636891    2.3262757 *  4.8559975    2.9404142 *
  42 H       2.5821593 *  4.2590350    5.6377655    5.8879599    4.6811784  
  43 H       3.0397480    2.9282747 *  5.0206658    4.2739482    3.4060243  
  44 H       6.3204518    4.7807774    3.3598054    2.8874614 *  2.4918581 *
  45 H       7.0280558    4.7400413    3.8957363    3.1603753    3.0650284  

               41 H         42 H         43 H         44 H         45 H     

   1 C       4.3948809    1.1011544 *  1.0955481 *  6.3226255    6.9569292  
   2 C       3.9283453    6.8212058    5.5954540    1.0919350 *  1.0925740 *
   3 H       4.1295534    5.1918103    5.5993894    6.4631475    6.8157659  
   4 H       7.7098970    6.4040203    6.0006356    6.2879241    5.0838938  
   5 H       7.6112654    6.5577502    5.5761920    5.6697671    4.7338776  
   6 H       2.7934424 *  5.8805525    5.8260398    5.7742450    6.6155838  
   7 H       6.8668624    7.3124910    5.9828953    4.1475919    3.2281335  
   8 H       2.3799827 *  4.9036515    4.6354075    6.0373957    7.2920682  
   9 H       5.3508379    2.4720111 *  2.3520331 *  7.5203745    8.4191006  
  10 H       4.1472161    6.8442888    6.0697105    2.8491471 *  2.3600677 *
  11 O       4.3295244    4.3687912    4.9196931    6.4711191    6.7125075  
  12 O       7.1323354    6.1969674    5.5301809    5.4833031    4.3370040  
  13 O       7.1651809    6.2038690    5.0251639    5.3124198    4.6693338  
  14 O       2.9844436 *  5.9736773    5.8789685    5.3502202    5.9664535  
  15 O       6.0800606    7.1315028    5.7910896    3.2084681    2.2362601 *
  16 O       2.1137644 *  4.8036588    4.6252928    5.6829821    6.7768243  
  17 O       4.5720359    2.1356039 *  2.1435576 *  7.0146416    7.9229922  
  18 O       3.6240940    7.0398173    6.0879980    2.0697651 *  2.1287006 *
  19 O       4.2964859    3.0147844    2.5008758 *  4.7653605    4.7664061  
  20 C       3.8861797    2.7174482 *  2.8325739 *  5.3665790    5.5810535  
  21 C       4.9992119    4.3649087    3.8425029    4.5288310    4.0055582  
  22 C       3.5127699    4.1568297    4.2055947    5.1021428    5.2965951  
  23 C       6.0735917    4.7737808    4.0710508    5.0553125    4.3615780  
  24 C       3.3171866    2.1418733 *  2.1199032 *  5.5760344    6.2181827  
  25 C       5.7922619    5.0280338    3.8184994    4.4075425    4.0005894  
  26 C       2.1920975 *  4.9682378    4.6134974    4.2660461    4.8809465  
  27 C       5.0020269    5.7784316    4.3702557    2.9173748 *  2.6292406 *
  28 C       3.8090274    5.4538459    4.2295666    2.1719634 *  2.1338655 *
  29 C       1.0943230 *  4.5110928    3.9204892    4.3027597    5.3626513  
  30 O       4.4496686    5.3776160    4.5856232    3.3283830    2.6912362 *
  31 O       2.0151495 *  3.3527538    2.5111737 *  4.4270672    5.3967234  
  32 H       4.8998875    2.5886416 *  3.3099339    6.4031666    6.4646643  
  33 H       5.6131465    4.7239640    4.5794377    5.3304337    4.6445713  
  34 H       4.1928892    4.8893852    4.8678943    5.0071831    4.8449240  
  35 H       6.6150320    4.2885540    3.8700707    6.0234409    5.4428863  
  36 H       3.5418952    2.5821593 *  3.0397480    6.3204518    7.0280558  
  37 H       5.5636891    4.2590350    2.9282747 *  4.7807774    4.7400413  
  38 H       2.3262757 *  5.6377655    5.0206658    3.3598054    3.8957363  
  39 H       4.8559975    5.8879599    4.2739482    2.8874614 *  3.1603753  
  40 H       2.9404142 *  4.6811784    3.4060243    2.4918581 *  3.0650284  
  41 H       0.0000000    5.3426418    4.4580860    3.6877276    5.0204360  
  42 H       5.3426418    0.0000000    1.7856890 *  7.1427609    7.5759130  
  43 H       4.4580860    1.7856890 *  0.0000000    5.7642936    6.3478956  
  44 H       3.6877276    7.1427609    5.7642936    0.0000000    1.7875135 *
  45 H       5.0204360    7.5759130    6.3478956    1.7875135 *  0.0000000  

  * ... LESS THAN  3.000


     ATOMIC BASIS SET
     ----------------
 THE CONTRACTED PRIMITIVE FUNCTIONS HAVE BEEN UNNORMALIZED
 THE CONTRACTED BASIS FUNCTIONS ARE NOW NORMALIZED TO UNITY

  SHELL TYPE  PRIMITIVE        EXPONENT          CONTRACTION COEFFICIENT(S)

 C         

      1   S       1           172.2560000    0.061766907377
      1   S       2            25.9109000    0.358794042852
      1   S       3             5.5333500    0.700713083689

      2   L       4             3.6649800   -0.395895162119    0.236459946619
      2   L       5             0.7705450    1.215834355681    0.860618805716

      3   L       6             0.1958570    1.000000000000    1.000000000000

 C         

      4   S       7           172.2560000    0.061766907377
      4   S       8            25.9109000    0.358794042852
      4   S       9             5.5333500    0.700713083689

      5   L      10             3.6649800   -0.395895162119    0.236459946619
      5   L      11             0.7705450    1.215834355681    0.860618805716

      6   L      12             0.1958570    1.000000000000    1.000000000000

 H         

      7   S      13             5.4471780    0.156284978695
      7   S      14             0.8245472    0.904690876670

      8   S      15             0.1831916    1.000000000000

 H         

      9   S      16             5.4471780    0.156284978695
      9   S      17             0.8245472    0.904690876670

     10   S      18             0.1831916    1.000000000000

 H         

     11   S      19             5.4471780    0.156284978695
     11   S      20             0.8245472    0.904690876670

     12   S      21             0.1831916    1.000000000000

 H         

     13   S      22             5.4471780    0.156284978695
     13   S      23             0.8245472    0.904690876670

     14   S      24             0.1831916    1.000000000000

 H         

     15   S      25             5.4471780    0.156284978695
     15   S      26             0.8245472    0.904690876670

     16   S      27             0.1831916    1.000000000000

 H         

     17   S      28             5.4471780    0.156284978695
     17   S      29             0.8245472    0.904690876670

     18   S      30             0.1831916    1.000000000000

 H         

     19   S      31             5.4471780    0.156284978695
     19   S      32             0.8245472    0.904690876670

     20   S      33             0.1831916    1.000000000000

 H         

     21   S      34             5.4471780    0.156284978695
     21   S      35             0.8245472    0.904690876670

     22   S      36             0.1831916    1.000000000000

 O         

     23   S      37           322.0370000    0.059239393389
     23   S      38            48.4308000    0.351499960776
     23   S      39            10.4206000    0.707657921031

     24   L      40             7.4029400   -0.404453583190    0.244586106967
     24   L      41             1.5762000    1.221561761397    0.853955373466

     25   L      42             0.3736840    1.000000000000    1.000000000000

 O         

     26   S      43           322.0370000    0.059239393389
     26   S      44            48.4308000    0.351499960776
     26   S      45            10.4206000    0.707657921031

     27   L      46             7.4029400   -0.404453583190    0.244586106967
     27   L      47             1.5762000    1.221561761397    0.853955373466

     28   L      48             0.3736840    1.000000000000    1.000000000000

 O         

     29   S      49           322.0370000    0.059239393389
     29   S      50            48.4308000    0.351499960776
     29   S      51            10.4206000    0.707657921031

     30   L      52             7.4029400   -0.404453583190    0.244586106967
     30   L      53             1.5762000    1.221561761397    0.853955373466

     31   L      54             0.3736840    1.000000000000    1.000000000000

 O         

     32   S      55           322.0370000    0.059239393389
     32   S      56            48.4308000    0.351499960776
     32   S      57            10.4206000    0.707657921031

     33   L      58             7.4029400   -0.404453583190    0.244586106967
     33   L      59             1.5762000    1.221561761397    0.853955373466

     34   L      60             0.3736840    1.000000000000    1.000000000000

 O         

     35   S      61           322.0370000    0.059239393389
     35   S      62            48.4308000    0.351499960776
     35   S      63            10.4206000    0.707657921031

     36   L      64             7.4029400   -0.404453583190    0.244586106967
     36   L      65             1.5762000    1.221561761397    0.853955373466

     37   L      66             0.3736840    1.000000000000    1.000000000000

 O         

     38   S      67           322.0370000    0.059239393389
     38   S      68            48.4308000    0.351499960776
     38   S      69            10.4206000    0.707657921031

     39   L      70             7.4029400   -0.404453583190    0.244586106967
     39   L      71             1.5762000    1.221561761397    0.853955373466

     40   L      72             0.3736840    1.000000000000    1.000000000000

 O         

     41   S      73           322.0370000    0.059239393389
     41   S      74            48.4308000    0.351499960776
     41   S      75            10.4206000    0.707657921031

     42   L      76             7.4029400   -0.404453583190    0.244586106967
     42   L      77             1.5762000    1.221561761397    0.853955373466

     43   L      78             0.3736840    1.000000000000    1.000000000000

 O         

     44   S      79           322.0370000    0.059239393389
     44   S      80            48.4308000    0.351499960776
     44   S      81            10.4206000    0.707657921031

     45   L      82             7.4029400   -0.404453583190    0.244586106967
     45   L      83             1.5762000    1.221561761397    0.853955373466

     46   L      84             0.3736840    1.000000000000    1.000000000000

 O         

     47   S      85           322.0370000    0.059239393389
     47   S      86            48.4308000    0.351499960776
     47   S      87            10.4206000    0.707657921031

     48   L      88             7.4029400   -0.404453583190    0.244586106967
     48   L      89             1.5762000    1.221561761397    0.853955373466

     49   L      90             0.3736840    1.000000000000    1.000000000000

 C         

     50   S      91           172.2560000    0.061766907377
     50   S      92            25.9109000    0.358794042852
     50   S      93             5.5333500    0.700713083689

     51   L      94             3.6649800   -0.395895162119    0.236459946619
     51   L      95             0.7705450    1.215834355681    0.860618805716

     52   L      96             0.1958570    1.000000000000    1.000000000000

 C         

     53   S      97           172.2560000    0.061766907377
     53   S      98            25.9109000    0.358794042852
     53   S      99             5.5333500    0.700713083689

     54   L     100             3.6649800   -0.395895162119    0.236459946619
     54   L     101             0.7705450    1.215834355681    0.860618805716

     55   L     102             0.1958570    1.000000000000    1.000000000000

 C         

     56   S     103           172.2560000    0.061766907377
     56   S     104            25.9109000    0.358794042852
     56   S     105             5.5333500    0.700713083689

     57   L     106             3.6649800   -0.395895162119    0.236459946619
     57   L     107             0.7705450    1.215834355681    0.860618805716

     58   L     108             0.1958570    1.000000000000    1.000000000000

 C         

     59   S     109           172.2560000    0.061766907377
     59   S     110            25.9109000    0.358794042852
     59   S     111             5.5333500    0.700713083689

     60   L     112             3.6649800   -0.395895162119    0.236459946619
     60   L     113             0.7705450    1.215834355681    0.860618805716

     61   L     114             0.1958570    1.000000000000    1.000000000000

 C         

     62   S     115           172.2560000    0.061766907377
     62   S     116            25.9109000    0.358794042852
     62   S     117             5.5333500    0.700713083689

     63   L     118             3.6649800   -0.395895162119    0.236459946619
     63   L     119             0.7705450    1.215834355681    0.860618805716

     64   L     120             0.1958570    1.000000000000    1.000000000000

 C         

     65   S     121           172.2560000    0.061766907377
     65   S     122            25.9109000    0.358794042852
     65   S     123             5.5333500    0.700713083689

     66   L     124             3.6649800   -0.395895162119    0.236459946619
     66   L     125             0.7705450    1.215834355681    0.860618805716

     67   L     126             0.1958570    1.000000000000    1.000000000000

 C         

     68   S     127           172.2560000    0.061766907377
     68   S     128            25.9109000    0.358794042852
     68   S     129             5.5333500    0.700713083689

     69   L     130             3.6649800   -0.395895162119    0.236459946619
     69   L     131             0.7705450    1.215834355681    0.860618805716

     70   L     132             0.1958570    1.000000000000    1.000000000000

 C         

     71   S     133           172.2560000    0.061766907377
     71   S     134            25.9109000    0.358794042852
     71   S     135             5.5333500    0.700713083689

     72   L     136             3.6649800   -0.395895162119    0.236459946619
     72   L     137             0.7705450    1.215834355681    0.860618805716

     73   L     138             0.1958570    1.000000000000    1.000000000000

 C         

     74   S     139           172.2560000    0.061766907377
     74   S     140            25.9109000    0.358794042852
     74   S     141             5.5333500    0.700713083689

     75   L     142             3.6649800   -0.395895162119    0.236459946619
     75   L     143             0.7705450    1.215834355681    0.860618805716

     76   L     144             0.1958570    1.000000000000    1.000000000000

 C         

     77   S     145           172.2560000    0.061766907377
     77   S     146            25.9109000    0.358794042852
     77   S     147             5.5333500    0.700713083689

     78   L     148             3.6649800   -0.395895162119    0.236459946619
     78   L     149             0.7705450    1.215834355681    0.860618805716

     79   L     150             0.1958570    1.000000000000    1.000000000000

 O         

     80   S     151           322.0370000    0.059239393389
     80   S     152            48.4308000    0.351499960776
     80   S     153            10.4206000    0.707657921031

     81   L     154             7.4029400   -0.404453583190    0.244586106967
     81   L     155             1.5762000    1.221561761397    0.853955373466

     82   L     156             0.3736840    1.000000000000    1.000000000000

 O         

     83   S     157           322.0370000    0.059239393389
     83   S     158            48.4308000    0.351499960776
     83   S     159            10.4206000    0.707657921031

     84   L     160             7.4029400   -0.404453583190    0.244586106967
     84   L     161             1.5762000    1.221561761397    0.853955373466

     85   L     162             0.3736840    1.000000000000    1.000000000000

 H         

     86   S     163             5.4471780    0.156284978695
     86   S     164             0.8245472    0.904690876670

     87   S     165             0.1831916    1.000000000000

 H         

     88   S     166             5.4471780    0.156284978695
     88   S     167             0.8245472    0.904690876670

     89   S     168             0.1831916    1.000000000000

 H         

     90   S     169             5.4471780    0.156284978695
     90   S     170             0.8245472    0.904690876670

     91   S     171             0.1831916    1.000000000000

 H         

     92   S     172             5.4471780    0.156284978695
     92   S     173             0.8245472    0.904690876670

     93   S     174             0.1831916    1.000000000000

 H         

     94   S     175             5.4471780    0.156284978695
     94   S     176             0.8245472    0.904690876670

     95   S     177             0.1831916    1.000000000000

 H         

     96   S     178             5.4471780    0.156284978695
     96   S     179             0.8245472    0.904690876670

     97   S     180             0.1831916    1.000000000000

 H         

     98   S     181             5.4471780    0.156284978695
     98   S     182             0.8245472    0.904690876670

     99   S     183             0.1831916    1.000000000000

 H         

    100   S     184             5.4471780    0.156284978695
    100   S     185             0.8245472    0.904690876670

    101   S     186             0.1831916    1.000000000000

 H         

    102   S     187             5.4471780    0.156284978695
    102   S     188             0.8245472    0.904690876670

    103   S     189             0.1831916    1.000000000000

 H         

    104   S     190             5.4471780    0.156284978695
    104   S     191             0.8245472    0.904690876670

    105   S     192             0.1831916    1.000000000000

 H         

    106   S     193             5.4471780    0.156284978695
    106   S     194             0.8245472    0.904690876670

    107   S     195             0.1831916    1.000000000000

 H         

    108   S     196             5.4471780    0.156284978695
    108   S     197             0.8245472    0.904690876670

    109   S     198             0.1831916    1.000000000000

 H         

    110   S     199             5.4471780    0.156284978695
    110   S     200             0.8245472    0.904690876670

    111   S     201             0.1831916    1.000000000000

 H         

    112   S     202             5.4471780    0.156284978695
    112   S     203             0.8245472    0.904690876670

    113   S     204             0.1831916    1.000000000000

 TOTAL NUMBER OF BASIS SET SHELLS             =  113
 NUMBER OF CARTESIAN GAUSSIAN BASIS FUNCTIONS =  251
 NUMBER OF ELECTRONS                          =  182
 CHARGE OF MOLECULE                           =    0
 SPIN MULTIPLICITY                            =    1
 NUMBER OF OCCUPIED ORBITALS (ALPHA)          =   91
 NUMBER OF OCCUPIED ORBITALS (BETA )          =   91
 TOTAL NUMBER OF ATOMS                        =   45
 THE NUCLEAR REPULSION ENERGY IS     2412.1739742860

 SELECTED MURRAY-HANDY-LAMING RADIAL GRID

 LEGACY BECKE'S FUZZY CELL METHOD

 SELECTED ORIGINAL BECKE'S PARTITION FUNCTION

     LEBEDEV GRID-BASED DFT OPTIONS
     ------------------------------
     DFTTYP=B3LYP   
     NRAD  =      96     NLEB  =     302
     NRAD0 =      24     NLEB0 =     110
     SWOFF =    5.00E-03 (PURE SCF -> DFT)
     SWITCH=    3.00E-04 (COARSE -> TIGHT GRID)
     THRESH=    0.00E+00 GTHRE=    1.00E+00

 GRIMME'S EMPIRICAL DISPERSION CORRECTION= F

     $CONTRL OPTIONS
     ---------------
 SCFTYP=RHF          RUNTYP=ENERGY       EXETYP=RUN     
 MPLEVL=       0     CITYP =NONE         CCTYP =NONE         VBTYP =NONE    
 DFTTYP=B3LYP        TDDFT =NONE    
 MULT  =       1     ICHARG=       0     NZVAR =       0     COORD =UNIQUE  
 PP    =NONE         RELWFN=NONE         LOCAL =NONE         NUMGRD=       F
 ISPHER=      -1     NOSYM =       0     MAXIT =      60     UNITS =ANGS    
 PLTORB=       F     MOLPLT=       F     AIMPAC=       F     FRIEND=        
 NPRINT=       7     IREST =       0     GEOM  =INPUT   
 NORMF =       0     NORMP =       0     ITOL  =      20     ICUT  =       9
 INTTYP=BEST         GRDTYP=BEST         QMTTOL= 1.0E-06

     $SYSTEM OPTIONS
     ---------------
  REPLICATED MEMORY=    30000000 WORDS (ON EVERY NODE).
 DISTRIBUTED MEMDDI=        1000 MILLION WORDS IN AGGREGATE,
 MEMDDI DISTRIBUTED OVER   8 PROCESSORS IS   125000000 WORDS/PROCESSOR.
 TOTAL MEMORY REQUESTED ON EACH PROCESSOR=   155000000 WORDS.
 TIMLIM=      525600.00 MINUTES, OR     365.0 DAYS.
 PARALL= T  BALTYP=  DLB     KDIAG=    0  COREFL= F
 MXSEQ2=     300 MXSEQ3=     150  mem10=         0

     INPUT FOR POTENTIAL-DERIVED CHARGES 
     -----------------------------------
     VDWSCL=    1.00   RMAX=    3.00   DELR=    0.80
     VDWINC=    0.20 PTDENS=    0.28
     LAYER =       4  NFREQ=      30 MAXPDC=   10000
     CONSTR=CHARGE    UNITS=ANGS      PTSEL=CHELPG  
     CENTER=  0.0000  0.0000  0.0000
     DPOLE =  0.0000  0.0000  0.0000
     QPOLE =  0.0000  0.0000  0.0000  0.0000  0.0000  0.0000


          ----------------
          PROPERTIES INPUT
          ----------------

     MOMENTS            FIELD           POTENTIAL          DENSITY
 IEMOM =       1   IEFLD =       0   IEPOT =       1   IEDEN =       0
 WHERE =COMASS     WHERE =NUCLEI     WHERE =PDC        WHERE =NUCLEI  
 OUTPUT=BOTH       OUTPUT=BOTH       OUTPUT=BOTH       OUTPUT=BOTH    
 IEMINT=       0   IEFINT=       0                     IEDINT=       0
                                                       MORB  =       0
          EXTRAPOLATION IN EFFECT
          DIIS IN EFFECT
 ORBITAL PRINTING OPTION: NPREO=     1   251     2     1

     -------------------------------
     INTEGRAL TRANSFORMATION OPTIONS
     -------------------------------
     NWORD  =            0
     CUTOFF = 1.0E-09     MPTRAN =       0
     DIRTRF =       T     AOINTS =DUP     

          ----------------------
          INTEGRAL INPUT OPTIONS
          ----------------------
 NOPK  =       1 NORDER=       0 SCHWRZ=       T

     ------------------------------------------
     THE POINT GROUP IS C1 , NAXIS= 0, ORDER= 1
     ------------------------------------------

     DIMENSIONS OF THE SYMMETRY SUBSPACES ARE
 A   =  251

 ..... DONE SETTING UP THE RUN .....
 CPU     0: STEP CPU TIME=     0.03 TOTAL CPU TIME=          0.0 (      0.0 MIN)
 TOTAL WALL CLOCK TIME=          0.1 SECONDS, CPU UTILIZATION IS    37.50%

          ********************
          1 ELECTRON INTEGRALS
          ********************
 ...... END OF ONE-ELECTRON INTEGRALS ......
 CPU     0: STEP CPU TIME=     0.02 TOTAL CPU TIME=          0.0 (      0.0 MIN)
 TOTAL WALL CLOCK TIME=          0.1 SECONDS, CPU UTILIZATION IS    50.00%

          -------------
          GUESS OPTIONS
          -------------
          GUESS =HUCKEL            NORB  =       0          NORDER=       0
          MIX   =       F          PRTMO =       F          PUNMO =       F
          TOLZ  = 1.0E-08          TOLE  = 1.0E-05
          SYMDEN=       F          PURIFY=       F

 INITIAL GUESS ORBITALS GENERATED BY HUCKEL   ROUTINE.
 HUCKEL GUESS REQUIRES    565344 WORDS.

 SYMMETRIES FOR INITIAL GUESS ORBITALS FOLLOW.   BOTH SET(S).
    91 ORBITALS ARE OCCUPIED (   23 CORE ORBITALS).
    24=A       25=A       26=A       27=A       28=A       29=A       30=A   
    31=A       32=A       33=A       34=A       35=A       36=A       37=A   
    38=A       39=A       40=A       41=A       42=A       43=A       44=A   
    45=A       46=A       47=A       48=A       49=A       50=A       51=A   
    52=A       53=A       54=A       55=A       56=A       57=A       58=A   
    59=A       60=A       61=A       62=A       63=A       64=A       65=A   
    66=A       67=A       68=A       69=A       70=A       71=A       72=A   
    73=A       74=A       75=A       76=A       77=A       78=A       79=A   
    80=A       81=A       82=A       83=A       84=A       85=A       86=A   
    87=A       88=A       89=A       90=A       91=A       92=A       93=A   
    94=A       95=A       96=A       97=A       98=A       99=A      100=A   
   101=A   
 ...... END OF INITIAL ORBITAL SELECTION ......
 CPU     0: STEP CPU TIME=     0.11 TOTAL CPU TIME=          0.2 (      0.0 MIN)
 TOTAL WALL CLOCK TIME=          0.3 SECONDS, CPU UTILIZATION IS    51.61%

                    ----------------------
                    AO INTEGRAL TECHNOLOGY
                    ----------------------
     S,P,L SHELL ROTATED AXIS INTEGRALS, REPROGRAMMED BY
        KAZUYA ISHIMURA (IMS) AND JOSE SIERRA (SYNSTAR).
     S,P,D,L SHELL ROTATED AXIS INTEGRALS PROGRAMMED BY
        KAZUYA ISHIMURA (INSTITUTE FOR MOLECULAR SCIENCE).
     S,P,D,F,G SHELL TO TOTAL QUARTET ANGULAR MOMENTUM SUM 5,
        ERIC PROGRAM BY GRAHAM FLETCHER (ELORET AND NASA ADVANCED
        SUPERCOMPUTING DIVISION, AMES RESEARCH CENTER).
     S,P,D,F,G,L SHELL GENERAL RYS QUADRATURE PROGRAMMED BY
        MICHEL DUPUIS (PACIFIC NORTHWEST NATIONAL LABORATORY).

          --------------------
          2 ELECTRON INTEGRALS
          --------------------

 DIRECT SCF METHOD SKIPS INTEGRAL STORAGE ON DISK.
 DIRECT TRANSFORMATION SKIPS AO INTEGRAL STORAGE ON DISK.
  ...... END OF TWO-ELECTRON INTEGRALS .....
 CPU     0: STEP CPU TIME=     0.01 TOTAL CPU TIME=          0.2 (      0.0 MIN)
 TOTAL WALL CLOCK TIME=          0.3 SECONDS, CPU UTILIZATION IS    53.13%

          --------------------------
             R-B3LYP SCF CALCULATION
          --------------------------

     NUCLEAR ENERGY =      2412.1739742860
     MAXIT =   60     NPUNCH=    2
     EXTRAP=T  DAMP=F  SHIFT=F  RSTRCT=F  DIIS=T  DEM=F  SOSCF=F
         DENSITY MATRIX CONVERGENCE THRESHOLD=  2.00E-05
     COARSE -> FINE DFT GRID SWITCH THRESHOLD=  3.00E-04 (SWITCH IN $DFT)
                   HF -> DFT SWITCH THRESHOLD=  5.00E-03 (SWOFF IN $DFT)
     MEMORY REQUIRED FOR RHF ITERS=   1953481 WORDS.

 DIRECT SCF CALCULATION, SCHWRZ=T   FDIFF=T,  DIRTHR=  0.00E+00 NITDIR=10
 SCHWARZ INEQUALITY OVERHEAD:     25933 INTEGRALS, T=        0.00

 DFT CODE IS SWITCHING FROM THE FINE GRID NRAD= 96,  NLEB=  302
                      TO THE COARSE GRID NRAD0= 24, NLEB0=  110

     EXCHANGE FUNCTIONAL   =B88&HFX   
     CORRELATION FUNCTIONAL=LYP88&VWN5
     DFT THRESHOLD         =.307E-08
     GRID CHANGE THRESHOLD =.300E-03
 FOR AN EULER-MACLAURIN QUADRATURE USING  96 RADIAL POINTS:
 SMALLEST GAUSSIAN PRIMITIVE EXPONENT=        0.1831915800 OF TYPE -S-
 ON ATOM NUMBER   3 HAS RADIAL NORMALIZATION=  1.000000
  LARGEST GAUSSIAN PRIMITIVE EXPONENT=      322.0370000000 OF TYPE -S-
 ON ATOM NUMBER  11 HAS RADIAL NORMALIZATION=  1.000000
 DFT IS SWITCHED OFF, PERFORMING PURE SCF UNTIL SWOFF THRESHOLD IS REACHED.

                                                                                   NONZERO     BLOCKS
 ITER EX DEM     TOTAL ENERGY        E CHANGE  DENSITY CHANGE    DIIS ERROR      INTEGRALS    SKIPPED
   1  0  0    -1279.9819710139 -1279.9819710139   0.719395188   0.544225815      149336096   15565403
          * * *   INITIATING DIIS PROCEDURE   * * *
   2  1  0    -1283.2815202359    -3.2995492221   0.139982210   0.062722193      149226531   15653205
   3  2  0    -1283.4500538470    -0.1685336111   0.083351830   0.032233047      145594468   16112106
   4  3  0    -1283.4765127827    -0.0264589356   0.019786968   0.012392358      141848804   16419792
   5  4  0    -1283.4812423001    -0.0047295175   0.004397481   0.002318232      135467500   16735299
 CONVERGED TO SWOFF, SO DFT CALCULATION IS NOW SWITCHED ON.
          * * *   INITIATING DIIS PROCEDURE   * * *
   6  5  0    -1289.9363818333    -6.4551395332   0.119806415   0.046120783      149916156   15434628
   7  6  0    -1290.0415192749    -0.1051374416   0.106343352   0.016101696      147424143   15959468
   8  7  0    -1290.0424806932    -0.0009614182   0.057273035   0.021259122      143625881   16279440
   9  8  0    -1290.0609441583    -0.0184634651   0.004685167   0.005485525      140338147   16507068
  10  9  0    -1290.0615385069    -0.0005943486   0.000960252   0.000657126      128020497   17037021
  11 10  0    -1290.0615523034    -0.0000137965   0.000441397   0.000345073      116817294   17484291
  12 11  0    -1290.0615550111    -0.0000027077   0.000082497   0.000054620      103858251   17953571
 DFT CODE IS SWITCHING BACK TO THE FINE GRID
          * * *   INITIATING DIIS PROCEDURE   * * *
  13 12  0    -1290.0791791656    -0.0176241545   0.003144719   0.001599016      150067174   15383143
  14 13  0    -1290.0792951113    -0.0001159457   0.001144890   0.000524491      128180266   17083095
  15 14  0    -1290.0792957388    -0.0000006275   0.000598545   0.000597078      114180245   17574714
  16 15  0    -1290.0793022653    -0.0000065265   0.000196589   0.000121972      108308695   17788496
  17 16  0    -1290.0793025778    -0.0000003125   0.000034753   0.000018123       95593451   18217047
  18 17  0    -1290.0793025917    -0.0000000139   0.000011925   0.000010971       83712880   18590011
  19 18  0    -1290.0793025947    -0.0000000029   0.000003038   0.000002119       74804155   18876880

          -----------------
          DENSITY CONVERGED
          -----------------
     TIME TO FORM FOCK OPERATORS=     130.1 SECONDS (       6.8 SEC/ITER)
     FOCK TIME ON FIRST ITERATION=       1.5, LAST ITERATION=      12.8
     TIME TO SOLVE SCF EQUATIONS=       0.8 SECONDS (       0.0 SEC/ITER)

 FINAL R-B3LYP ENERGY IS    -1290.0793025947 AFTER  19 ITERATIONS
 DFT EXCHANGE + CORRELATION ENERGY =      -134.7592257401
 TOTAL ELECTRON NUMBER             =       182.0010785310

          ------------
          EIGENVECTORS
          ------------

                      1          2          3          4          5
                  -19.0692   -19.0636   -19.0601   -19.0550   -19.0549
                     A          A          A          A          A   
    1  C  1  S   -0.000001   0.000069   0.000012   0.000176  -0.000010
    2  C  1  S    0.000010   0.000423   0.000260   0.000642  -0.000039
    3  C  1  X   -0.000003  -0.000063  -0.000071   0.000205   0.000041
    4  C  1  Y    0.000025   0.000003   0.000124  -0.000778   0.000060
    5  C  1  Z    0.000022   0.000019   0.000226  -0.000113   0.000013
    6  C  1  S    0.000055  -0.002849   0.000708  -0.006071   0.000242
    7  C  1  X    0.000032   0.000588   0.000465  -0.002394  -0.000041
    8  C  1  Y   -0.000066  -0.001452   0.001266  -0.003035  -0.000092
    9  C  1  Z   -0.000059  -0.000502  -0.001217   0.001449  -0.000177
   10  C  2  S   -0.000002  -0.000002   0.000060   0.000032   0.000305
   11  C  2  S   -0.000049  -0.000000   0.000370   0.000139   0.001310
   12  C  2  X   -0.000044   0.000017  -0.000030   0.000040   0.000299
   13  C  2  Y    0.000051  -0.000008  -0.000009   0.000037   0.000753
   14  C  2  Z   -0.000072   0.000011   0.000058   0.000008  -0.000278
   15  C  2  S   -0.000002  -0.000063  -0.001746  -0.000962  -0.009640
   16  C  2  X    0.000315  -0.000214   0.000485  -0.000280  -0.000185
   17  C  2  Y   -0.000033   0.000005   0.000697   0.000396   0.002646
   18  C  2  Z    0.000476  -0.000062  -0.000699  -0.000917  -0.004625
   19  H  3  S    0.000023   0.000049   0.000479  -0.000179   0.000013
   20  H  3  S   -0.000052  -0.000641  -0.000270   0.000199  -0.000127
   21  H  4  S    0.003044  -0.000000  -0.000169   0.000030   0.000202
   22  H  4  S    0.005132  -0.000022   0.000480  -0.000058  -0.000173
   23  H  5  S   -0.000576   0.000002   0.000058   0.000033   0.000237
   24  H  5  S    0.004351   0.000007  -0.000092  -0.000047  -0.000528
   25  H  6  S   -0.000021  -0.000648  -0.000151  -0.000367   0.000059
   26  H  6  S    0.000011   0.004214  -0.000139   0.000201  -0.000055
   27  H  7  S    0.000069  -0.000008   0.000037  -0.000067  -0.000311
   28  H  7  S   -0.000560  -0.000010  -0.000125   0.000014   0.000064
   29  H  8  S    0.000018   0.003193   0.000152   0.000438  -0.000062
   30  H  8  S   -0.000021   0.004740  -0.000249  -0.001061   0.000112
   31  H  9  S   -0.000010  -0.000078  -0.000010  -0.000248   0.000046
   32  H  9  S   -0.000020  -0.000100  -0.000093  -0.000285   0.000002
   33  H 10  S    0.000029   0.000135  -0.000054  -0.000246  -0.000886
   34  H 10  S   -0.000005  -0.000305  -0.000018   0.000530   0.002519
   35  O 11  S    0.000184   0.000107   0.000379  -0.002270   0.000446
   36  O 11  S    0.000077   0.000078   0.000219  -0.000766   0.000141
   37  O 11  X    0.000013   0.000039  -0.000064  -0.000048   0.000011
   38  O 11  Y    0.000008  -0.000083   0.000397  -0.000013  -0.000030
   39  O 11  Z    0.000003   0.000052   0.000020   0.000161  -0.000045
   40  O 11  S   -0.000283  -0.000646  -0.001719   0.002056  -0.000268
   41  O 11  X   -0.000125  -0.000501  -0.000199   0.000533  -0.000068
   42  O 11  Y   -0.000021   0.000290  -0.001546  -0.000054   0.000071
   43  O 11  Z    0.000023   0.000019   0.000347  -0.000901   0.000197
   44  O 12  S    0.982486  -0.000292   0.006511  -0.000070  -0.000063
   45  O 12  S    0.105191  -0.000023   0.000462  -0.000018  -0.000138
   46  O 12  X   -0.002912  -0.000001   0.000171  -0.000022  -0.000138
   47  O 12  Y   -0.001554   0.000000  -0.000207   0.000009   0.000030
   48  O 12  Z    0.001019  -0.000004   0.000053   0.000003   0.000059
   49  O 12  S   -0.050992  -0.000025   0.000060   0.000172   0.001476
   50  O 12  X    0.009525   0.000022  -0.000737   0.000003  -0.000285
   51  O 12  Y    0.003779  -0.000001   0.000749  -0.000047  -0.000149
   52  O 12  Z    0.000118   0.000015  -0.000273  -0.000072  -0.000700
   53  O 13  S    0.001492   0.000003   0.001698   0.000807   0.006005
   54  O 13  S    0.000288   0.000002   0.000369   0.000175   0.001264
   55  O 13  X    0.000255   0.000001  -0.000072  -0.000012  -0.000109
   56  O 13  Y   -0.000260  -0.000001  -0.000032   0.000009   0.000074
   57  O 13  Z    0.000263   0.000004   0.000047   0.000012   0.000061
   58  O 13  S    0.000277  -0.000014  -0.000725  -0.000461  -0.003148
   59  O 13  X   -0.001904   0.000001   0.000393   0.000176   0.001225
   60  O 13  Y    0.001280   0.000004   0.000063  -0.000128  -0.000916
   61  O 13  Z   -0.001237  -0.000021  -0.000267  -0.000088  -0.000493
   62  O 14  S   -0.000031  -0.000471   0.000113  -0.001743   0.000677
   63  O 14  S   -0.000010  -0.000210  -0.000021  -0.000350   0.000143
   64  O 14  X    0.000010  -0.000290   0.000131   0.000091   0.000002
   65  O 14  Y    0.000001   0.000328  -0.000034   0.000200  -0.000036
   66  O 14  Z    0.000010  -0.000130   0.000125   0.000089  -0.000021
   67  O 14  S    0.000046   0.001272   0.000504   0.000106  -0.000229
   68  O 14  X   -0.000039   0.002112  -0.000428  -0.000470  -0.000024
   69  O 14  Y   -0.000014  -0.001920  -0.000120  -0.000846   0.000154
   70  O 14  Z   -0.000049   0.000335  -0.000590  -0.000195   0.000107
   71  O 15  S   -0.000062   0.000052   0.000335  -0.000181  -0.001203
   72  O 15  S   -0.000008   0.000015   0.000122  -0.000084  -0.000537
   73  O 15  X   -0.000008  -0.000011  -0.000022  -0.000029  -0.000127
   74  O 15  Y    0.000035   0.000007  -0.000012   0.000035   0.000139
   75  O 15  Z   -0.000047   0.000007  -0.000036   0.000001   0.000038
   76  O 15  S   -0.000241  -0.000006  -0.000366   0.000446   0.002717
   77  O 15  X    0.000192   0.000038   0.000220  -0.000078  -0.000689
   78  O 15  Y   -0.000014  -0.000029   0.000097  -0.000212  -0.000962
   79  O 15  Z    0.000296  -0.000017   0.000114   0.000045   0.000070
   80  O 16  S    0.000368   0.982034  -0.011347  -0.029147   0.002923
   81  O 16  S    0.000053   0.105494  -0.001022  -0.001882   0.000186
   82  O 16  X    0.000001   0.002363  -0.000002   0.000182  -0.000013
   83  O 16  Y   -0.000002  -0.000962  -0.000026  -0.000453   0.000047
   84  O 16  Z   -0.000005  -0.002171  -0.000036   0.000181  -0.000011
   85  O 16  S   -0.000086  -0.051912  -0.000310  -0.002511   0.000256
   86  O 16  X   -0.000034  -0.009552  -0.000306  -0.002339   0.000223
   87  O 16  Y    0.000013   0.002577   0.000109   0.002597  -0.000253
   88  O 16  Z    0.000012   0.004120   0.000184  -0.000350  -0.000001
   89  O 17  S    0.000125  -0.000176   0.000587   0.001424  -0.000061
   90  O 17  S    0.000035  -0.000072   0.000154   0.000264  -0.000007
   91  O 17  X    0.000004  -0.000026   0.000050  -0.000041   0.000002
   92  O 17  Y    0.000014   0.000058   0.000075   0.000177  -0.000037
   93  O 17  Z    0.000007   0.000018  -0.000026   0.000223  -0.000010
   94  O 17  S   -0.000065   0.000360  -0.000345   0.000003  -0.000066
   95  O 17  X   -0.000026   0.000169  -0.000277   0.000385  -0.000040
   96  O 17  Y   -0.000052  -0.000131  -0.000340  -0.000485   0.000130
   97  O 17  Z   -0.000032   0.000058   0.000067  -0.000702   0.000017
   98  O 18  S   -0.000073   0.000346  -0.000626  -0.000608   0.000740
   99  O 18  S   -0.000019   0.000090  -0.000190  -0.000153   0.000079
  100  O 18  X    0.000018  -0.000072   0.000005   0.000042  -0.000146
  101  O 18  Y    0.000013  -0.000030   0.000004   0.000046   0.000003
  102  O 18  Z    0.000017   0.000001   0.000001  -0.000014   0.000080
  103  O 18  S    0.000017  -0.000065   0.000528   0.000211   0.000475
  104  O 18  X   -0.000085   0.000210   0.000046  -0.000081   0.000931
  105  O 18  Y   -0.000035   0.000098  -0.000178  -0.000204  -0.000560
  106  O 18  Z   -0.000084   0.000026  -0.000036   0.000037  -0.000620
  107  O 19  S   -0.006549   0.011246   0.981565  -0.009478  -0.045038
  108  O 19  S   -0.000926   0.001411   0.107083  -0.000916  -0.003722
  109  O 19  X   -0.000484  -0.000049  -0.000090  -0.000236   0.000450
  110  O 19  Y    0.000233   0.000077   0.002634   0.000014   0.000362
  111  O 19  Z    0.000014  -0.000007   0.002373  -0.000340  -0.000434
  112  O 19  S    0.000423  -0.001358  -0.058486   0.001175  -0.001461
  113  O 19  X    0.001995   0.000358  -0.000081   0.000223  -0.003563
  114  O 19  Y   -0.000877  -0.000407  -0.008433   0.000014  -0.002782
  115  O 19  Z   -0.000180   0.000001  -0.006652   0.001320   0.001323
[...]
   1099    9.40606   -8.64291   -0.56415       -15.427165      15.418980      -0.008185
   1100    9.40606   -8.64291    0.94763       -15.318147      15.319807       0.001661
   1101    9.40606   -8.64291    2.45941       -14.917135      14.925977       0.008842
   1102    9.40606   -7.13113   -5.09949       -15.076646      15.058946      -0.017700
   1103    9.40606   -7.13113   -3.58771       -16.180561      16.152826      -0.027736
   1104    9.40606   -7.13113   -2.07593       -17.097938      17.066442      -0.031496
   1105    9.40606   -7.13113   -0.56415       -17.465254      17.450227      -0.015027
   1106    9.40606   -7.13113    0.94763       -17.205011      17.211481       0.006470
   1107    9.40606   -7.13113    2.45941       -16.565469      16.580584       0.015115
   1108    9.40606   -7.13113    3.97120       -15.711438      15.729566       0.018128
   1109    9.40606   -7.13113    5.48298       -14.734457      14.754608       0.020152
   1110    9.40606   -5.61935   -5.09949       -16.343786      16.321147      -0.022638
   1111    9.40606   -5.61935   -3.58771       -17.933488      17.890588      -0.042900
   1112    9.40606   -5.61935    2.45941       -18.415054      18.442681       0.027627
   1113    9.40606   -5.61935    3.97120       -17.237570      17.261126       0.023556
   1114    9.40606   -5.61935    5.48298       -15.926733      15.954482       0.027749
   1115    9.40606   -5.61935    6.99476       -14.627936      14.654853       0.026917
   1116    9.40606   -5.61935    8.50654       -13.438210      13.460471       0.022261
   1117    9.40606   -4.10757   -6.61127       -15.770837      15.759732      -0.011105
   1118    9.40606   -4.10757   -5.09949       -17.468716      17.449257      -0.019459
   1119    9.40606   -4.10757    3.97120       -18.771686      18.793650       0.021964
   1120    9.40606   -4.10757    5.48298       -17.052234      17.089816       0.037582
   1121    9.40606   -4.10757    6.99476       -15.424280      15.459436       0.035156
   1122    9.40606   -4.10757    8.50654       -14.016225      14.042714       0.026489
   1123    9.40606   -2.59579   -6.61127       -16.405846      16.397096      -0.008750
   1124    9.40606   -2.59579   -5.09949       -18.311506      18.304216      -0.007290
   1125    9.40606   -2.59579    6.99476       -15.960043      15.998159       0.038116
   1126    9.40606   -2.59579    8.50654       -14.406116      14.433381       0.027264
   1127    9.40606   -1.08401   -6.61127       -16.762966      16.752908      -0.010058
   1128    9.40606   -1.08401   -5.09949       -18.821962      18.815931      -0.006030
   1129    9.40606   -1.08401    0.94763       -22.386769      22.371960      -0.014809
   1130    9.40606   -1.08401    5.48298       -17.940550      17.965660       0.025110
   1131    9.40606   -1.08401    6.99476       -16.104958      16.133526       0.028567
   1132    9.40606   -1.08401    8.50654       -14.548321      14.570861       0.022540
   1133    9.40606    0.42777   -6.61127       -16.764522      16.748823      -0.015699
   1134    9.40606    0.42777   -5.09949       -18.827550      18.801101      -0.026449
   1135    9.40606    0.42777    0.94763       -21.681711      21.645065      -0.036646
   1136    9.40606    0.42777    2.45941       -20.576125      20.544089      -0.032037
   1137    9.40606    0.42777    3.97120       -19.157216      19.144166      -0.013051
   1138    9.40606    0.42777    5.48298       -17.503814      17.511180       0.007366
   1139    9.40606    0.42777    6.99476       -15.888304      15.903622       0.015318
   1140    9.40606    0.42777    8.50654       -14.444859      14.459970       0.015112
   1141    9.40606    1.93956   -6.61127       -16.390933      16.372075      -0.018859
   1142    9.40606    1.93956   -5.09949       -18.197007      18.161327      -0.035680
   1143    9.40606    1.93956    0.94763       -20.477869      20.437564      -0.040305
   1144    9.40606    1.93956    2.45941       -19.435728      19.409439      -0.026290
   1145    9.40606    1.93956    3.97120       -18.193175      18.180210      -0.012965
   1146    9.40606    1.93956    5.48298       -16.813483      16.812789      -0.000694
   1147    9.40606    1.93956    6.99476       -15.431595      15.437988       0.006393
   1148    9.40606    3.45134   -5.09949       -17.188946      17.161103      -0.027844
   1149    9.40606    3.45134   -3.58771       -18.562437      18.520622      -0.041815
   1150    9.40606    3.45134   -2.07593       -19.451752      19.403309      -0.048443
   1151    9.40606    3.45134   -0.56415       -19.546485      19.504949      -0.041536
   1152    9.40606    3.45134    0.94763       -19.040954      19.010912      -0.030042
   1153    9.40606    4.96312   -5.09949       -16.079620      16.060803      -0.018817
   1154    9.40606    4.96312   -3.58771       -17.097326      17.073797      -0.023529
   1155    9.40606    4.96312   -2.07593       -17.757612      17.732589      -0.025023
   1156    9.40606    4.96312   -0.56415       -17.905139      17.881792      -0.023347
   1157    9.40606    4.96312    0.94763       -17.585941      17.566412      -0.019528
   1158    9.40606    6.47490   -5.09949       -14.965247      14.951617      -0.013631
   1159    9.40606    6.47490   -3.58771       -15.744866      15.729324      -0.015541
   1160    9.40606    6.47490   -2.07593       -16.254057      16.238040      -0.016017
   1161    9.40606    6.47490   -0.56415       -16.398590      16.383183      -0.015407
   1162    9.40606    6.47490    0.94763       -16.186407      16.172729      -0.013678
   1163    9.40606    7.98668   -3.58771       -14.489152      14.476728      -0.012424
   1164    9.40606    7.98668   -2.07593       -14.885047      14.872165      -0.012882
   1165    9.40606    7.98668   -0.56415       -15.014026      15.001583      -0.012443
   1166   10.91784   -8.64291   -0.56415       -14.125067      14.121588      -0.003479
   1167   10.91784   -8.64291    0.94763       -14.053491      14.056095       0.002604
   1168   10.91784   -7.13113   -3.58771       -14.670274      14.655593      -0.014681
   1169   10.91784   -7.13113   -2.07593       -15.275947      15.262980      -0.012967
   1170   10.91784   -7.13113   -0.56415       -15.537303      15.533279      -0.004024
   1171   10.91784   -7.13113    0.94763       -15.408988      15.414965       0.005977
   1172   10.91784   -7.13113    2.45941       -14.978157      14.989314       0.011157
   1173   10.91784   -7.13113    3.97120       -14.346623      14.360077       0.013454
   1174   10.91784   -5.61935   -5.09949       -14.834473      14.820957      -0.013516
   1175   10.91784   -5.61935   -3.58771       -15.860823      15.842975      -0.017849
   1176   10.91784   -5.61935   -2.07593       -16.682977      16.668211      -0.014766
   1177   10.91784   -5.61935   -0.56415       -17.023924      17.025481       0.001557
   1178   10.91784   -5.61935    0.94763       -16.817390      16.832904       0.015514
   1179   10.91784   -5.61935    2.45941       -16.236208      16.252821       0.016612
   1180   10.91784   -5.61935    3.97120       -15.424588      15.441063       0.016475
   1181   10.91784   -5.61935    5.48298       -14.479623      14.497782       0.018159
   1182   10.91784   -5.61935    6.99476       -13.499094      13.517352       0.018258
   1183   10.91784   -4.10757   -5.09949       -15.661863      15.650730      -0.011132
   1184   10.91784   -4.10757   -3.58771       -16.883434      16.870493      -0.012941
   1185   10.91784   -4.10757   -2.07593       -17.869631      17.862246      -0.007385
   1186   10.91784   -4.10757   -0.56415       -18.269806      18.282290       0.012484
   1187   10.91784   -4.10757    0.94763       -18.021034      18.045412       0.024378
   1188   10.91784   -4.10757    2.45941       -17.342894      17.359798       0.016904
   1189   10.91784   -4.10757    3.97120       -16.379699      16.395419       0.015719
   1190   10.91784   -4.10757    5.48298       -15.247872      15.267816       0.019944
   1191   10.91784   -4.10757    6.99476       -14.095110      14.115795       0.020685
   1192   10.91784   -2.59579   -6.61127       -14.925650      14.918308      -0.007341
   1193   10.91784   -2.59579   -5.09949       -16.265738      16.260183      -0.005555
   1194   10.91784   -2.59579   -3.58771       -17.594555      17.597129       0.002574
   1195   10.91784   -2.59579   -2.07593       -18.610690      18.623853       0.013163
   1196   10.91784   -2.59579   -0.56415       -18.983642      19.000958       0.017316
   1197   10.91784   -2.59579    0.94763       -18.729945      18.744376       0.014431
   1198   10.91784   -2.59579    2.45941       -18.041323      18.047070       0.005746
   1199   10.91784   -2.59579    3.97120       -17.003576      17.012939       0.009363
   1200   10.91784   -2.59579    5.48298       -15.753417      15.771232       0.017816
   1201   10.91784   -2.59579    6.99476       -14.489635      14.509720       0.020084
   1202   10.91784   -2.59579    8.50654       -13.325517      13.343194       0.017678
   1203   10.91784   -1.08401   -6.61127       -15.178822      15.170627      -0.008195
   1204   10.91784   -1.08401   -5.09949       -16.583130      16.577893      -0.005237
   1205   10.91784   -1.08401   -3.58771       -17.964359      17.973561       0.009202
   1206   10.91784   -1.08401   -0.56415       -19.200463      19.211721       0.011258
   1207   10.91784   -1.08401    0.94763       -18.871813      18.869775      -0.002038
   1208   10.91784   -1.08401    2.45941       -18.163770      18.157270      -0.006501
   1209   10.91784   -1.08401    3.97120       -17.127105      17.128032       0.000926
   1210   10.91784   -1.08401    5.48298       -15.882411      15.893626       0.011215
   1211   10.91784   -1.08401    6.99476       -14.617229      14.632652       0.015423
   1212   10.91784    0.42777   -6.61127       -15.162001      15.150426      -0.011576
   1213   10.91784    0.42777   -5.09949       -16.539318      16.525495      -0.013823
   1214   10.91784    0.42777   -3.58771       -17.876648      17.865524      -0.011125
   1215   10.91784    0.42777   -2.07593       -18.777458      18.771241      -0.006217
   1216   10.91784    0.42777   -0.56415       -18.921303      18.909661      -0.011642
   1217   10.91784    0.42777    0.94763       -18.513041      18.497631      -0.015410
   1218   10.91784    0.42777    2.45941       -17.785532      17.772339      -0.013193
   1219   10.91784    0.42777    3.97120       -16.805313      16.800204      -0.005109
   1220   10.91784    0.42777    5.48298       -15.661166      15.665204       0.004038
   1221   10.91784    0.42777    6.99476       -14.485114      14.494273       0.009159
   1222   10.91784    1.93956   -5.09949       -16.112406      16.092062      -0.020344
   1223   10.91784    1.93956   -3.58771       -17.265113      17.238665      -0.026449
   1224   10.91784    1.93956   -2.07593       -18.017066      17.988524      -0.028543
   1225   10.91784    1.93956   -0.56415       -18.139417      18.112886      -0.026532
   1226   10.91784    1.93956    0.94763       -17.766877      17.745288      -0.021589
   1227   10.91784    3.45134   -5.09949       -15.415289      15.395767      -0.019521
   1228   10.91784    3.45134   -3.58771       -16.338040      16.312877      -0.025163
   1229   10.91784    3.45134   -2.07593       -16.934162      16.906613      -0.027549
   1230   10.91784    3.45134   -0.56415       -17.069307      17.044120      -0.025188
   1231   10.91784    3.45134    0.94763       -16.794112      16.774076      -0.020037
   1232   10.91784    4.96312   -3.58771       -15.323463      15.304658      -0.018805
   1233   10.91784    4.96312   -2.07593       -15.797103      15.777081      -0.020022
   1234   10.91784    4.96312   -0.56415       -15.931239      15.912487      -0.018752
   1235   12.42962   -7.13113   -0.56415       -13.897886      13.897254      -0.000632
   1236   12.42962   -7.13113    0.94763       -13.829437      13.833702       0.004265
   1237   12.42962   -5.61935   -2.07593       -14.641424      14.636759      -0.004664
   1238   12.42962   -5.61935   -0.56415       -14.865015      14.866454       0.001439
   1239   12.42962   -5.61935    0.94763       -14.771022      14.777982       0.006960
   1240   12.42962   -5.61935    2.45941       -14.408095      14.417608       0.009513
   1241   12.42962   -4.10757   -3.58771       -14.836362      14.830976      -0.005386
   1242   12.42962   -4.10757   -2.07593       -15.417960      15.416387      -0.001573
   1243   12.42962   -4.10757   -0.56415       -15.668053      15.672385       0.004332
   1244   12.42962   -4.10757    0.94763       -15.553544      15.561964       0.008420
   1245   12.42962   -4.10757    2.45941       -15.134623      15.143910       0.009287
   1246   12.42962   -4.10757    3.97120       -14.493890      14.504192       0.010302
   1247   12.42962   -2.59579   -5.09949       -14.479237      14.474347      -0.004889
   1248   12.42962   -2.59579   -3.58771       -15.325259      15.323537      -0.001722
   1249   12.42962   -2.59579   -2.07593       -15.936510      15.938884       0.002374
   1250   12.42962   -2.59579   -0.56415       -16.184122      16.189255       0.005133
   1251   12.42962   -2.59579    0.94763       -16.050132      16.055796       0.005664
   1252   12.42962   -2.59579    2.45941       -15.599501      15.604842       0.005342
   1253   12.42962   -1.08401   -5.09949       -14.687999      14.682551      -0.005448
   1254   12.42962   -1.08401   -3.58771       -15.549196      15.547331      -0.001865
   1255   12.42962   -1.08401   -2.07593       -16.149105      16.150558       0.001453
   1256   12.42962   -1.08401   -0.56415       -16.364285      16.365465       0.001180
   1257   12.42962   -1.08401    0.94763       -16.201062      16.200562      -0.000500
   1258   12.42962   -1.08401    2.45941       -15.733630      15.733145      -0.000485
   1259   12.42962    0.42777   -5.09949       -14.644771      14.635719      -0.009052
   1260   12.42962    0.42777   -3.58771       -15.471448      15.463413      -0.008035
   1261   12.42962    0.42777   -2.07593       -16.027956      16.021208      -0.006748
   1262   12.42962    0.42777   -0.56415       -16.202537      16.195518      -0.007020
   1263   12.42962    0.42777    0.94763       -16.016359      16.009110      -0.007249
   1264   12.42962    1.93956   -3.58771       -15.097791      15.083826      -0.013965
   1265   12.42962    1.93956   -2.07593       -15.587701      15.573411      -0.014291
   1266   12.42962    1.93956   -0.56415       -15.733777      15.720225      -0.013552
   1267   13.94140   -2.59579   -2.07593       -13.955546      13.954757      -0.000789
   1268   13.94140   -1.08401   -3.58771       -13.711377      13.707681      -0.003696
   1269   13.94140   -1.08401   -2.07593       -14.107182      14.104926      -0.002255
   1270   13.94140    0.42777   -2.07593       -14.035034      14.029455      -0.005579

 NET CHARGES:
 -------------------------------------
 ATOM                CHARGE    E.S.D.
 -------------------------------------
 C                   0.0589    0.4644
 C                   0.1883    0.3026
 H                   0.4226    0.0191
 H                   0.4110    0.0154
 H                   0.4072    0.0217
 H                   0.4273    0.0317
 H                   0.4165    0.0174
 H                   0.4511    0.0216
 H                   0.4140    0.0095
 H                   0.3930    0.0150
 O                  -0.7067    0.0518
 O                  -0.6205    0.0672
 O                  -0.6787    0.0548
 O                  -0.6646    0.0585
 O                  -0.6333    0.0498
 O                  -0.6820    0.0777
 O                  -0.6249    0.0344
 O                  -0.5950    0.0388
 O                  -0.4971    0.2728
 C                  -0.2464    1.8970
 C                   0.5221    0.7683
 C                   0.4680    0.7630
 C                   0.1235    0.6171
 C                   0.3318    0.7207
 C                   0.4665    0.7624
 C                   0.1775    0.8694
 C                   0.0644    0.4679
 C                   0.3597    0.6661
 C                   0.4204    0.4817
 O                  -0.5384    0.1316
 O                  -0.4316    0.1041
 H                   0.1532    0.1413
 H                   0.0334    0.0618
 H                  -0.0253    0.0879
 H                   0.0089    0.0489
 H                   0.0823    0.0660
 H                  -0.0378    0.0863
 H                   0.0227    0.1520
 H                   0.0129    0.0385
 H                  -0.0927    0.1161
 H                   0.0414    0.0454
 H                   0.0433    0.0412
 H                   0.0786    0.0540
 H                   0.0366    0.0237
 H                   0.0378    0.0321
 -------------------------------------

 RMS DEVIATION IS            0.837 KCAL/MOLE
 RELATIVE RMS DEVIATION IS   7.121 %

 MULTIPOLE MOMENTS:
 ---------------------------------------------------------
 STATUS  ACTUAL VALUE       QUANTITY        FITTED VALUE 
 ---------------------------------------------------------
 FIXED       0.0000       TOTAL CHARGE        -0.0000
             4.5076 D    DIPOLE MOMENT         4.4868 D
 FREE       -0.4534 D          DX             -0.4655 D
 FREE       -4.4441 D          DY             -4.4243 D
 FREE        0.6029 D          DZ              0.5835 D
 FREE        0.0000 BU         QXX            -7.7901 BU
 FREE        0.0000 BU         QYY            -5.1542 BU
 FREE        0.0000 BU         QZZ            12.9443 BU
 FREE        0.0000 BU         QXY            -4.4687 BU
 FREE        0.0000 BU         QXZ            32.5070 BU
 FREE        0.0000 BU         QYZ            -9.7066 BU
 ---------------------------------------------------------
 ...... END OF PROPERTY EVALUATION ......
 CPU     0: STEP CPU TIME=     1.71 TOTAL CPU TIME=        138.1 (      2.3 MIN)
 TOTAL WALL CLOCK TIME=        274.5 SECONDS, CPU UTILIZATION IS    50.31%
              1954234  WORDS OF DYNAMIC MEMORY USED
 EXECUTION OF GAMESS TERMINATED NORMALLY Sat May 23 12:58:35 2020
 DDI: 263640 bytes (0.3 MB / 0 MWords) used by master data server.
Note: The following floating-point exceptions are signalling: IEEE_UNDERFLOW_FLAG IEEE_DENORMALNote: The following floating-point exceptions are signalling: IEEE_UNDERFLOW_FLAGNote: The following floating-point exceptions are signalling: IEEE_UNDERFLOW_FLAGNote: The following floating-point exceptions are signalling:
 IEEE_DENORMAL
Note: The following floating-point exceptions are signalling: IEEE_UNDERFLOW_FLAG IEEE_DENORMAL
Note: The following floating-point exceptions are signalling: IEEE_UNDERFLOW_FLAG IEEE_UNDERFLOW_FLAG IEEE_DENORMALNote: The following floating-point exceptions are signalling: IEEE_UNDERFLOW_FLAG
 ----------------------------------------
 CPU timing information for all processes
 ========================================
 0: 137.428 + 0.687 = 138.115
 1: 135.255 + 0.340 = 135.595
 2: 133.679 + 0.417 = 134.97
 3: 137.717 + 0.298 = 138.15
 4: 136.732 + 0.348 = 137.80
 5: 135.295 + 0.188 = 135.483
 6: 137.17 + 0.343 = 137.361
 7: 135.631 + 0.305 = 135.937
 ----------------------------------------
Note: The following floating-point exceptions are signalling: IEEE_DENORMAL IEEE_DENORMAL

 IEEE_DENORMAL
 IEEE_UNDERFLOW_FLAG IEEE_DENORMAL

 ddikick.x: exited gracefully.
unset echo
----- accounting info -----
Files used on the master node pietdev were:
-rwxr-xr-x 1 piet piet     2608 mei 23 12:54 /home/piet/scr/maltose_charge_chelpg.F05*
-rw-r--r-- 1 piet piet 50790400 mei 23 12:58 /home/piet/scr/maltose_charge_chelpg.F10
ls: No match.
ls: No match.
ls: No match.
za 23 mei 2020 12:58:38 CEST
0.118u 0.035s 4:37.88 0.0%	0+0k 0+8io 0pf+0w
