----- GAMESS execution script 'rungms' -----
This job is running on host pietdev
under operating system Linux at za 23 mei 2020 12:58:54 CEST
Available scratch disk space (Kbyte units) at beginning of the job is
Filesystem     1K-blocks     Used Available Use% Mounted on
/dev/sda2      244568380 30947996 201127328  14% /
GAMESS temporary binary files will be written to /home/piet/scr
GAMESS supplementary output files will be written to /home/piet/gamess/scr
Copying input file maltose_fukui_acid.inp to your run's scratch directory...
cp maltose_fukui_acid.inp /home/piet/scr/maltose_fukui_acid.F05
unset echo
 
Assuming a single but multicore node.
 
/home/piet/gamess/ddikick.x /home/piet/gamess/gamess.03.x maltose_fukui_acid -ddi 1 8 pietdev:cpus=8 -scr /home/piet/scr

 Distributed Data Interface kickoff program.
 Initiating 8 compute processes on 1 nodes to run the following command:
 /home/piet/gamess/gamess.03.x maltose_fukui_acid 

          ******************************************************
          *         GAMESS VERSION = 30 SEP 2019 (R2)          *
          *             FROM IOWA STATE UNIVERSITY             *
          * M.W.SCHMIDT, K.K.BALDRIDGE, J.A.BOATZ, S.T.ELBERT, *
          *   M.S.GORDON, J.H.JENSEN, S.KOSEKI, N.MATSUNAGA,   *
          *          K.A.NGUYEN, S.J.SU, T.L.WINDUS,           *
          *       TOGETHER WITH M.DUPUIS, J.A.MONTGOMERY       *
          *         J.COMPUT.CHEM.  14, 1347-1363(1993)        *
          **************** 64 BIT LINUX VERSION ****************

  SINCE 1993, STUDENTS AND POSTDOCS WORKING AT IOWA STATE UNIVERSITY
  AND ALSO IN THEIR VARIOUS JOBS AFTER LEAVING ISU HAVE MADE IMPORTANT
  CONTRIBUTIONS TO THE CODE:
     IVANA ADAMOVIC, CHRISTINE AIKENS, YURI ALEXEEV, POOJA ARORA,
     ANDREY ASADCHEV, ROB BELL, PRADIPTA BANDYOPADHYAY, JONATHAN BENTZ,
     COLLEEN BERTONI, BRETT BODE, KURT BRORSEN, CALEB CARLIN, GALINA CHABAN,
     WEI CHEN, CHEOL HO CHOI, PAUL DAY, ALBERT DEFUSCO, NUWAN DESILVA,
     TIM DUDLEY, DMITRI FEDOROV, ALEX FINDLATER, GRAHAM FLETCHER, 
     MARK FREITAG, KURT GLAESEMANN, EMILIE B GUIDEZ, ANASTASIA GUNINA, 
     DAN KEMP, SAROM SOK LEANG, GRANT MERRILL,
     NORIYUKI MINEZAWA, JONATHAN MULLIN,
     TAKESHI NAGATA, SEAN NEDD, HEATHER NETZLOFF, BOSILJKA NJEGIC, RYAN OLSON,
     MIKE PAK, BUU PHAM, DAVID POOLE,
     SPENCER PRUITT, LUKE ROSKOP, TOSAPORN SATTASATHUCHANA,
     JIM SHOEMAKER, LYUDMILA SLIPCHENKO,
     TONY SMITH, JIE SONG, TETSUYA TAKETSUGU, SIMON WEBB,
     JORGE LUIS GALVEZ VALLEJO, PENG XU, SOOHAENG YOO,
     FEDERICO ZAHARIEV

  ADDITIONAL CODE HAS BEEN PROVIDED BY COLLABORATORS IN OTHER GROUPS:
     IOWA STATE UNIVERSITY:
          JOE IVANIC, AARON WEST, LAIMUTIS BYTAUTAS, KLAUS RUEDENBERG
     UNIVERSITY OF TOKYO: KIMIHIKO HIRAO, TAKAHITO NAKAJIMA,
          TAKAO TSUNEDA, MUNEAKI KAMIYA, SUSUMU YANAGISAWA,
          KIYOSHI YAGI, MAHITO CHIBA, SEIKEN TOKURA, NAOAKI KAWAKAMI
     UNIVERSITY OF AARHUS: FRANK JENSEN
     UNIVERSITY OF IOWA: VISVALDAS KAIRYS, HUI LI
     NATIONAL INST. OF STANDARDS AND TECHNOLOGY: WALT STEVENS, DAVID GARMER
     UNIVERSITY OF PISA: BENEDETTA MENNUCCI, JACOPO TOMASI
     UNIVERSITY OF MEMPHIS: HENRY KURTZ, PRAKASHAN KORAMBATH
     UNIVERSITY OF ALBERTA: TOBY ZENG, MARIUSZ KLOBUKOWSKI
     UNIVERSITY OF NEW ENGLAND: MARK SPACKMAN
     MIE UNIVERSITY: HIROAKI UMEDA
     NAT. INST. OF ADVANCED INDUSTRIAL SCIENCE AND TECHNOLOGY: KAZUO KITAURA
     MICHIGAN STATE UNIVERSITY:
          KAROL KOWALSKI, MARTA WLOCH, JEFFREY GOUR, JESSE LUTZ,
          WEI LI, JUN SHEN, J. EMILIANO DEUSTUA, PIOTR PIECUCH
     UNIVERSITY OF MINNESOTA:
          ANDREW SAND, PRACHI SHARMA, YINAN SHU
     UNIVERSITY OF SILESIA: MONIKA MUSIAL, STANISLAW KUCHARSKI
     FACULTES UNIVERSITAIRES NOTRE-DAME DE LA PAIX:
          OLIVIER QUINET, BENOIT CHAMPAGNE
     UNIVERSITY OF CALIFORNIA - SANTA BARBARA: BERNARD KIRTMAN
     INSTITUTE FOR MOLECULAR SCIENCE:
          KAZUYA ISHIMURA, MICHIO KATOUDA, AND SHIGERU NAGASE
     UNIVERSITY OF NOTRE DAME: ANNA POMOGAEVA, DAN CHIPMAN
     KYUSHU UNIVERSITY:
          HARUYUKI NAKANO,
          FENG LONG GU, JACEK KORCHOWIEC, MARCIN MAKOWSKI, AND YURIKO AOKI,
          HIROTOSHI MORI AND EISAKU MIYOSHI
     PENNSYLVANIA STATE UNIVERSITY:
          TZVETELIN IORDANOV, CHET SWALINA, JONATHAN SKONE,
          SHARON HAMMES-SCHIFFER
     WASEDA UNIVERSITY:
          MASATO KOBAYASHI, TOMOKO AKAMA, TSUGUKI TOUMA,
          TAKESHI YOSHIKAWA, YASUHIRO IKABATA, JUNJI SEINO,
          YUYA NAKAJIMA, HIROMI NAKAI
     NANJING UNIVERSITY: SHUHUA LI
     UNIVERSITY OF NEBRASKA:
          PEIFENG SU, DEJUN SI, NANDUN THELLAMUREGE, YALI WANG, HUI LI
     UNIVERSITY OF ZURICH: ROBERTO PEVERATI, KIM BALDRIDGE
     N. COPERNICUS UNIVERSITY AND JACKSON STATE UNIVERSITY:
          MARIA BARYSZ
     UNIVERSITY OF COPENHAGEN: Jimmy Kromann, CASPER STEINMANN
     TOKYO INSTITUTE OF TECHNOLOGY: HIROYA NAKATA
     NAGOYA UNIVERSITY: YOSHIO NISHIMOTO, STEPHAN IRLE
     MOSCOW STATE UNIVERSITY: VLADIMIR MIRONOV
     A.N.NESMEYANOV INSTITUTE OF ORGANOELEMENT COMPOUNDS OF RUSSIAN ACADEMY OF SCIENCES:
          IGOR S. GERASIMOV
     JOHANNES KEPLER UNIVERSITY LINZ:
          CHRISTIAN FRIEDL


 PARALLEL VERSION RUNNING ON        8 PROCESSORS IN        1 NODES.

 EXECUTION OF GAMESS BEGUN Sat May 23 12:58:54 2020

            ECHO OF THE FIRST FEW INPUT CARDS -
 INPUT CARD> $BASIS GBASIS=N21 NGAUSS=3 $END                                                
 INPUT CARD> $CONTRL SCFTYP=UHF MAXIT=60 MULT=2 ICHARG=-1 $END                              
 INPUT CARD> $SYSTEM MEMDDI=1000 MWORDS=30 $END                                             
 INPUT CARD> $SCF DIRSCF=.TRUE. $END                                                        
 INPUT CARD> $STATPT OPTTOL=0.0001 NSTEP=999 $END                                           
 INPUT CARD> $DATA                                                                          
 INPUT CARD>                                                                                
 INPUT CARD>C1                                                                              
 INPUT CARD>C 6.0000000 -2.1299744135 -2.3927918316 -0.4882839672                           
 INPUT CARD>C 6.0000000 1.9211063153 2.1500050434 -1.1835092090                             
 INPUT CARD>H 1.0000000 -3.0821866169 1.7772788794 2.0638641858                             
 INPUT CARD>H 1.0000000 3.5788437524 -1.3152395192 2.5389368936                             
 INPUT CARD>H 1.0000000 4.2882320962 -2.0961759109 0.2125074858                             
 INPUT CARD>H 1.0000000 -3.5056871219 2.6741603241 0.2143049435                             
 INPUT CARD>H 1.0000000 4.4986210628 -0.5550208927 -1.1585812916                            
 INPUT CARD>H 1.0000000 -4.1436732612 0.9369415909 -1.6877966333                            
 INPUT CARD>H 1.0000000 -3.0999745836 -3.4553522991 -1.8780045866                           
 INPUT CARD>H 1.0000000 1.2656668344 2.8463389322 0.5226471270                              
 INPUT CARD>O 8.0000000 -2.7050640215 0.8578110056 2.2611775101                             
 INPUT CARD>O 8.0000000 3.5870332555 -1.1627552056 1.5577973084                             
 INPUT CARD>O 8.0000000 3.8646192341 -2.2830647596 -0.6857797571                            
 INPUT CARD>O 8.0000000 -2.6848300915 2.8859485505 0.7589782969                             
 INPUT CARD>O 8.0000000 3.9229178645 0.2675754941 -1.1493824470                             
 INPUT CARD>O 8.0000000 -3.7182462846 1.3209606906 -0.8768604098                            
 INPUT CARD>O 8.0000000 -3.2402732973 -2.5868214907 -1.4149665778                           
 INPUT CARD>O 8.0000000 1.1044705660 3.1080896533 -0.4271001687                             
 INPUT CARD>O 8.0000000 0.0375750921 -1.0537313160 0.6849055699                             
 INPUT CARD>C 6.0000000 -1.2918161700 -0.6003507748 1.1195522550                            
 INPUT CARD>C 6.0000000 1.2094776406 -0.4786997271 1.2872226664                             
 INPUT CARD>C 6.0000000 -1.4843930221 0.8922949669 1.4751832138                             
 INPUT CARD>C 6.0000000 2.2844777984 -1.5254987484 0.9938369472                             
 INPUT CARD>C 6.0000000 -2.2259198205 -0.9543084402 -0.0229091829                           
 INPUT CARD>C 6.0000000 2.5457593727 -1.6553593104 -0.5228847401                            
 INPUT CARD>C 6.0000000 -1.7071785167 1.8867009741 0.2787050238                             
 INPUT CARD>C 6.0000000 2.5956948506 -0.2912982210 -1.2794397173                            
 INPUT CARD>C 6.0000000 1.5643398616 0.7175419689 -0.7779451334                             
 INPUT CARD>C 6.0000000 -2.2693191864 1.2328554331 -1.0079333146                            
 INPUT CARD>O 8.0000000 1.5462380388 0.7915854018 0.7128743261                              
 INPUT CARD>O 8.0000000 -1.8359461225 -0.1197543461 -1.1893747240                           
 INPUT CARD>H 1.0000000 -1.5767474133 -1.1491024371 2.0251877703                            
 INPUT CARD>H 1.0000000 1.0923538833 -0.2991122558 2.3624176974                             
 INPUT CARD>H 1.0000000 -0.6318942888 1.2644153987 2.0586187407                             
 INPUT CARD>H 1.0000000 1.9366416003 -2.4900881533 1.3823000929                             
 INPUT CARD>H 1.0000000 -3.2440979741 -0.6987458276 0.2757838161                            
 INPUT CARD>H 1.0000000 1.7712729735 -2.2883808271 -0.9560411428                            
 INPUT CARD>H 1.0000000 -0.7717212391 2.3864506253 0.0243850262                             
 INPUT CARD>H 1.0000000 2.3530166238 -0.4970112220 -2.3360045372                            
 INPUT CARD>H 1.0000000 0.5665709145 0.4162242154 -1.1023305661                             
 INPUT CARD>H 1.0000000 -1.9221440841 1.7641998574 -1.8993846317                            
 INPUT CARD>H 1.0000000 -2.1964933111 -3.0561717798 0.3880967942                            
   30000000 WORDS OF MEMORY AVAILABLE

     BASIS OPTIONS
     -------------
     GBASIS=N21          IGAUSS=       3      POLAR=NONE    
     NDFUNC=       0     NFFUNC=       0     DIFFSP=       F
     NPFUNC=       0      DIFFS=       F     BASNAM=        


     RUN TITLE
     ---------
                                                                                 

 THE POINT GROUP OF THE MOLECULE IS C1      
 THE ORDER OF THE PRINCIPAL AXIS IS     0

 ATOM      ATOMIC                      COORDINATES (BOHR)
           CHARGE         X                   Y                   Z
 C           6.0    -4.0250680024       -4.5217209074       -0.9227229022
 C           6.0     3.6303645292        4.0629204042       -2.2365081090
 H           1.0    -5.8244881490        3.3585700858        3.9001377870
 H           1.0     6.7630340449       -2.4854422995        4.7978950290
 H           1.0     8.1035836336       -3.9611980937        0.4015809185
 H           1.0    -6.6247880591        5.0534302598        0.4049776210
 H           1.0     8.5011611313       -1.0488374047       -2.1894011756
 H           1.0    -7.8304070463        1.7705628733       -3.1894731599
 H           1.0    -5.8581025319       -6.5296690363       -3.5489140724
 H           1.0     2.3917635088        5.3788006500        0.9876598583
 O           8.0    -5.1118297799        1.6210277498        4.2730059037
 O           8.0     6.7785099617       -2.1972887294        2.9438100573
 O           8.0     7.3030713993       -4.3143668079       -1.2959358288
 O           8.0    -5.0735931965        5.4536519751        1.4342610118
 O           8.0     7.4132398362        0.5056443649       -2.1720178799
 O           8.0    -7.0264666328        2.4962537458       -1.6570259040
 O           8.0    -6.1232286572       -4.8883837966       -2.6738991138
 O           8.0     2.0871467312        5.8734377900       -0.8071022882
 O           8.0     0.0710066280       -1.9912634519        1.2942838546
 C           6.0    -2.4411785878       -1.1344984609        2.1156469909
 C           6.0     2.2855813290       -0.9046113146        2.4324981247
 C           6.0    -2.8050960699        1.6861929877        2.7876920558
 C           6.0     4.3170370640       -2.8827746291        1.8780795067
 C           6.0    -4.2063785314       -1.8033814597       -0.0432920783
 C           6.0     4.8107876451       -3.1281755079       -0.9881088820
 C           6.0    -3.2260996087        3.5653478618        0.5266761264
 C           6.0     4.9051520154       -0.5504738184       -2.4177904835
 C           6.0     2.9561736901        1.3559577059       -1.4701031356
 C           6.0    -4.2883914410        2.3297589510       -1.9047177785
 O           8.0     2.9219662051        1.4958795053        1.3471371400
 O           8.0    -3.4694350997       -0.2263029000       -2.2475923251
 H           1.0    -2.9796205630       -2.1714887379        3.8270499596
 H           1.0     2.0642495211       -0.5652402030        4.4643221166
 H           1.0    -1.1941070590        2.3893986382        3.8902253331
 H           1.0     3.6597219610       -4.7055842950        2.6121684084
 H           1.0    -6.1304562484       -1.3204381492        0.5211558443
 H           1.0     3.3472205694       -4.3244127188       -1.8066557929
 H           1.0    -1.4583416808        4.5097377650        0.0460810177
 H           1.0     4.4465566635       -0.9392150224       -4.4144084814
 H           1.0     1.0706637810        0.7865497166       -2.0831027178
 H           1.0    -3.6323256279        3.3338543181       -3.5893164992
 H           1.0    -4.1507704918       -5.7753272352        0.7333965978
 H           1.0    -2.1685719202       -4.7684482440       -1.8051233614
 H           1.0     3.2276423785        4.3764108030       -4.2358573390
 H           1.0     5.6455855228        4.3327892272       -1.8774830254

          INTERNUCLEAR DISTANCES (ANGS.)
          ------------------------------

                1 C          2 C          3 H          4 H          5 H     

   1 C       0.0000000    6.1263037    4.9809294    6.5510144    6.4631621  
   2 C       6.1263037    0.0000000    5.9763951    5.3490764    5.0578849  
   3 H       4.9809294    5.9763951    0.0000000    7.3592588    8.5296099  
   4 H       6.5510144    5.3490764    7.3592588    0.0000000    2.5544798 *
   5 H       6.4631621    5.0578849    8.5296099    2.5544798 *  0.0000000  
   6 H       5.2971899    5.6283843    2.0987183 *  8.4563469    9.1379039  
   7 H       6.9112212    3.7364915    8.5610994    3.8853009    2.0734770 *
   8 H       4.0719698    6.2054315    3.9884683    9.0870713    9.1601302  
   9 H       2.0003146 *  7.5573546    6.5512651    8.2883092    7.7976406  
  10 H       6.3246227    1.9558761 *  4.7351947    5.1705848    5.8017704  
  11 O       4.2961244    5.9107600    1.0132005 *  6.6548325    7.8631596  
  12 O       6.1954512    4.6113398    7.3060521    0.9929519 *  1.7812239 *
  13 O       5.9988497    4.8659105    8.5032373    3.3789275    1.0105915 *
  14 O       5.4523965    5.0526746    1.7577735 *  7.7493125    8.5874205  
  15 O       6.6447054    2.7480821 *  7.8533844    4.0283235    2.7523661 *
  16 O       4.0577773    5.7082086    3.0431331    8.4773077    8.7730976  
  17 O       1.4591613 *  7.0093464    5.5832452    7.9843992    7.7180178  
  18 O       6.3816201    1.4686643 *  5.0501544    5.8724560    6.1343146  
  19 O       2.8049470 *  4.1596382    4.4327259    4.0057961    4.4020377  
  20 C       2.5496061 *  4.8157471    3.1225429    5.1233824    5.8478339  
  21 C       4.2388810    3.6770940    4.9102947    2.8072198 *  3.6400510  
  22 C       3.8812078    4.4997673    1.9190326 *  5.6250464    6.6218207  
  23 C       4.7366938    4.2874472    6.3917435    2.0265552 *  2.2251246 *
  24 C       1.5149303 *  5.3086326    3.5425111    6.3552031    6.6176625  
  25 C       4.7336551    3.9124690    7.0815289    3.2492609    1.9419918 *
  26 C       4.3681904    3.9206951    2.2559729 *  6.5805093    7.1980997  
  27 C       5.2320314    2.5346073 *  6.9061589    4.0737007    2.8893204 *
  28 C       4.8379787    1.5309197 *  5.5487954    4.3808827    4.0395041  
  29 C       3.6653473    4.2932105    3.2238316    7.2989099    7.4547572  
  30 O       5.0097483    2.3626470 *  4.9212885    3.4503191    4.0134852  
  31 O       2.3968063 *  4.3894516    3.9667889    6.6820238    6.5861274  
  32 H       2.8583848 *  5.7805560    3.2911321    5.1837882    6.2113398  
  33 H       4.7847041    4.3884626    4.6719720    2.6918963 *  4.2503164  
  34 H       4.7017148    4.2206012    2.5033955 *  4.9614151    6.2377355  
  35 H       4.4772667    5.3022716    6.6229591    2.3269950 *  2.6558538 *
  36 H       2.1667632 *  6.0765330    3.0584547    7.2148777    7.6611234  
  37 H       3.9305762    4.4467360    7.0146623    4.0532934    2.7816419 *
  38 H       4.9948813    2.9607829 *  3.1414671    6.2412256    6.7625778  
  39 H       5.2062716    2.9191586 *  7.3534124    5.0928581    3.5773314  
  40 H       3.9419514    2.2016703 *  5.0190328    5.0329497    4.6788583  
  41 H       4.3948809    3.9283453    4.1295534    7.7098970    7.6112654  
  42 H       1.1011544 *  6.8212058    5.1918103    6.4040203    6.5577502  
  43 H       1.0955481 *  5.5954540    5.5993894    6.0006356    5.5761920  
  44 H       6.3226255    1.0919350 *  6.4631475    6.2879241    5.6697671  
  45 H       6.9569292    1.0925740 *  6.8157659    5.0838938    4.7338776  

                6 H          7 H          8 H          9 H         10 H     

   1 C       5.2971899    6.9112212    4.0719698    2.0003146 *  6.3246227  
   2 C       5.6283843    3.7364915    6.2054315    7.5573546    1.9558761 *
   3 H       2.0987183 *  8.5610994    3.9884683    6.5512651    4.7351947  
   4 H       8.4563469    3.8853009    9.0870713    8.2883092    5.1705848  
   5 H       9.1379039    2.0734770 *  9.1601302    7.7976406    5.8017704  
   6 H       0.0000000    8.7396440    2.6538549 *  6.4894751    4.7844058  
   7 H       8.7396440    0.0000000    8.7860840    8.1650565    4.9847538  
   8 H       2.6538549 *  8.7860840    0.0000000    4.5185984    6.1475865  
   9 H       6.4894751    8.1650565    4.5185984    0.0000000    8.0332600  
  10 H       4.7844058    4.9847538    6.1475865    8.0332600    0.0000000  
  11 O       2.8512821 *  8.0983902    4.2036002    5.9910066    4.7690077  
  12 O       8.1751804    2.9290009 *  8.6432881    7.8598225    4.7469057  
  13 O       8.9278020    1.9004303 *  8.6893744    7.1624874    5.8758515  
  14 O       1.0076356 *  8.1926355    3.4516024    6.8802704    3.9577579  
  15 O       7.9268825    1.0040835 *  8.1122027    7.9819860    4.0628422  
  16 O       1.7512774 *  8.4330055    0.9930138 *  4.9191173    5.3967388  
  17 O       5.5138825    8.0052753    3.6479411    0.9942000 *  7.3196363  
  18 O       4.6747459    5.0471478    5.8177533    7.9285089    0.9982573 *
  19 O       5.1646247    4.8526371    5.2033962    4.7096189    4.0920759  
  20 C       4.0550117    6.2226289    4.2869062    4.5172799    4.3332072  
  21 C       5.7727340    4.0995422    6.2857780    6.1196816    3.4122742  
  22 C       2.9749770 *  6.6953638    4.1325786    5.7232866    3.5054874  
  23 C       7.1951940    3.2368444    7.3875501    6.4003231    4.5136416  
  24 C       3.8548490    6.8314443    3.1664578    3.2342806    5.1897716  
  25 C       7.4771782    2.3299192 *  7.2681189    6.0787035    4.7955251  
  26 C       1.9644014 *  6.8220045    3.2719533    5.9269563    3.1334043  
  27 C       6.9463717    1.9249116 *  6.8625368    6.5429480    3.8550303  
  28 C       5.5243180    3.2209170    5.7842355    6.3544478    2.5124733 *
  29 C       2.2582807 *  7.0017292    2.0156841 *  4.8400727    4.1763778  
  30 O       5.4142966    3.7459659    6.1773328    6.8070864    2.0825270 *
  31 O       3.5446172    6.3495785    2.5866262 *  3.6329317    4.6204687  
  32 H       4.6494562    6.8847237    4.9726191    4.7826687    5.1284012  
  33 H       5.8818976    4.9056681    6.7340957    6.7467511    3.6481031  
  34 H       3.6942603    6.3232043    5.1454309    6.6230379    2.9090255 *
  35 H       7.5929320    4.0944233    7.6249758    6.0769091    5.4467113  
  36 H       3.3835934    7.8757703    2.7093094 *  3.5012077    5.7416501  
  37 H       7.3377675    3.2378985    6.7767809    5.0932202    5.3672622  
  38 H       2.7556153 *  6.1504611    4.0500251    6.5701226    2.1472570 *
  39 H       7.1333594    2.4481236 *  6.6845623    6.2206639    4.5312481  
  40 H       4.8389141    4.0506172    4.7749678    5.3883514    3.0057853  
  41 H       2.7934424 *  6.8668624    2.3799827 *  5.3508379    4.1472161  
  42 H       5.8805525    7.3124910    4.9036515    2.4720111 *  6.8442888  
  43 H       5.8260398    5.9828953    4.6354075    2.3520331 *  6.0697105  
  44 H       5.7742450    4.1475919    6.0373957    7.5203745    2.8491471 *
  45 H       6.6155838    3.2281335    7.2920682    8.4191006    2.3600677 *

               11 O         12 O         13 O         14 O         15 O     

   1 C       4.2961244    6.1954512    5.9988497    5.4523965    6.6447054  
   2 C       5.9107600    4.6113398    4.8659105    5.0526746    2.7480821 *
   3 H       1.0132005 *  7.3060521    8.5032373    1.7577735 *  7.8533844  
   4 H       6.6548325    0.9929519 *  3.3789275    7.7493125    4.0283235  
   5 H       7.8631596    1.7812239 *  1.0105915 *  8.5874205    2.7523661 *
   6 H       2.8512821 *  8.1751804    8.9278020    1.0076356 *  7.9268825  
   7 H       8.0983902    2.9290009 *  1.9004303 *  8.1926355    1.0040835 *
   8 H       4.2036002    8.6432881    8.6893744    3.4516024    8.1122027  
   9 H       5.9910066    7.8598225    7.1624874    6.8802704    7.9819860  
  10 H       4.7690077    4.7469057    5.8758515    3.9577579    4.0628422  
  11 O       0.0000000    6.6458949    7.8555965    2.5239560 *  7.4773285  
  12 O       6.6458949    0.0000000    2.5230508 *  7.5077549    3.0801764  
  13 O       7.8555965    2.5230508 *  0.0000000    8.4676627    2.5930854 *
  14 O       2.5239560 *  7.5077549    8.4676627    0.0000000    7.3593513  
  15 O       7.4773285    3.0801764    2.5930854 *  7.3593513    0.0000000  
  16 O       3.3299141    8.0909525    8.3979379    2.4885948 *  7.7182432  
  17 O       5.0661600    7.5813854    7.1486698    5.9148766    7.7155314  
  18 O       5.1771754    5.3238192    6.0621681    3.9767987    4.0661846  
  19 O       3.6960380    3.6568401    4.2469172    4.7893689    4.4951477  
  20 C       2.3295522 *  4.9306723    5.7166053    3.7715758    5.7528090  
  21 C       4.2495277    2.4887574 *  3.7680563    5.1735416    3.7224628  
  22 C       1.4522444 *  5.4726064    6.5851805    2.4348826 *  6.0429819  
  23 C       5.6729045    1.4650204 *  2.4273165 *  6.6490636    3.2392886  
  24 C       2.9547264 *  6.0276452    6.2689438    3.9458232    6.3694699  
  25 C       6.4527648    2.3782657 *  1.4696735 *  7.0445522    2.4467822 *
  26 C       2.4463416 *  6.2421101    7.0258172    1.4781613 *  6.0298413  
  27 C       6.4772268    3.1292336    2.4351048 *  6.4910699    1.4459515 *
  28 C       5.2424948    3.6169737    3.7819863    5.0119423    2.4296760 *
  29 C       3.3192797    6.8277952    7.0774768    2.4550647 *  6.2686181  
  30 O       4.5249528    2.9492689 *  4.0969011    4.7212731    3.0645055  
  31 O       3.6901640    6.1679421    6.1180034    3.6811592    5.7720134  
  32 H       2.3144094 *  5.1849080    6.1841480    4.3718154    6.5062424  
  33 H       3.9710331    2.7598403 *  4.5730767    5.1944922    4.5459837  
  34 H       2.1223548 *  4.8929877    6.3509820    2.9211266 *  5.6596179  
  35 H       5.7901887    2.1251834 *  2.8349446 *  7.1167620    4.2378554  
  36 H       2.5797703 *  6.9658608    7.3463277    3.6600944    7.3709560  
  37 H       6.3471735    3.2990002    2.1107269 *  7.0407266    3.3466206  
  38 H       3.3283320    5.8264016    6.6184863    2.1092916 *  5.2827075  
  39 H       6.9680561    4.1385631    2.8632449 *  6.8119920    2.1112211 *
  40 H       4.7129376    4.3234996    4.2821488    4.4872728    3.3599665  
  41 H       4.3295244    7.1323354    7.1651809    2.9844436 *  6.0800606  
  42 H       4.3687912    6.1969674    6.2038690    5.9736773    7.1315028  
  43 H       4.9196931    5.5301809    5.0251639    5.8789685    5.7910896  
  44 H       6.4711191    5.4833031    5.3124198    5.3502202    3.2084681  
  45 H       6.7125075    4.3370040    4.6693338    5.9664535    2.2362601 *

               16 O         17 O         18 O         19 O         20 C     

   1 C       4.0577773    1.4591613 *  6.3816201    2.8049470 *  2.5496061 *
   2 C       5.7082086    7.0093464    1.4686643 *  4.1596382    4.8157471  
   3 H       3.0431331    5.5832452    5.0501544    4.4327259    3.1225429  
   4 H       8.4773077    7.9843992    5.8724560    4.0057961    5.1233824  
   5 H       8.7730976    7.7180178    6.1343146    4.4020377    5.8478339  
   6 H       1.7512774 *  5.5138825    4.6747459    5.1646247    4.0550117  
   7 H       8.4330055    8.0052753    5.0471478    4.8526371    6.2226289  
   8 H       0.9930138 *  3.6479411    5.8177533    5.2033962    4.2869062  
   9 H       4.9191173    0.9942000 *  7.9285089    4.7096189    4.5172799  
  10 H       5.3967388    7.3196363    0.9982573 *  4.0920759    4.3332072  
  11 O       3.3299141    5.0661600    5.1771754    3.6960380    2.3295522 *
  12 O       8.0909525    7.5813854    5.3238192    3.6568401    4.9306723  
  13 O       8.3979379    7.1486698    6.0621681    4.2469172    5.7166053  
  14 O       2.4885948 *  5.9148766    3.9767987    4.7893689    3.7715758  
  15 O       7.7182432    7.7155314    4.0661846    4.4951477    5.7528090  
  16 O       0.0000000    3.9735095    5.1628202    4.7100392    3.6830238  
  17 O       3.9735095    0.0000000    7.2308155    4.1837924    3.7638194  
  18 O       5.1628202    7.2308155    0.0000000    4.4379699    4.6783388  
  19 O       4.7100392    4.1837924    4.4379699    0.0000000    1.4702900 *
  20 C       3.6830238    3.7638194    4.6783388    1.4702900 *  0.0000000  
  21 C       5.6749006    5.6166082    3.9768062    1.4376379 *  2.5098572 *
  22 C       3.2719969    4.8518381    3.9026456    2.5938281 *  1.5464639 *
  23 C       6.9017778    6.1197725    4.9881480    2.3165869 *  3.6961577  
  24 C       2.8518627 *  2.3731489 *  5.2685813    2.3736672 *  1.5175816 *
  25 C       6.9441736    5.9280356    4.9776434    2.8481050 *  4.3055346  
  26 C       2.3874227 *  5.0230774    3.1456830    3.4431535    2.6580023 *
  27 C       6.5289587    6.2726644    3.8086836    3.3142018    4.5785825  
  28 C       5.3178581    5.8659118    2.4595305 *  2.7583241 *  3.6735494  
  29 C       1.4575090 *  3.9621156    3.9033739    3.6627781    2.9736093 *
  30 O       5.5246982    6.2331397    2.6193305 *  2.3837030 *  3.1870715  
  31 O       2.3908950 *  2.8477090 *  4.4323910    2.8098614 *  2.4203707 *
  32 H       4.3713971    4.0827707    5.5969930    2.1003545 *  1.0965810 *
  33 H       6.0215806    6.1865906    4.4034738    2.1203903 *  2.7054992 *
  34 H       4.2597892    5.8052960    3.5486471    2.7765232 *  2.1896793 *
  35 H       7.1837077    5.8851088    5.9418880    2.4811154 *  3.7500778  
  36 H       2.3733141 *  2.5344588 *  5.8220349    3.3260748    2.1290916 *
  37 H       6.5702692    5.0413565    5.4631765    2.6875219 *  4.0669458  
  38 H       3.2602948    5.7357578    2.0602664 *  3.5952885    3.2234876  
  39 H       6.5034112    6.0415652    4.2660914    3.8467005    5.0235802  
  40 H       4.3850933    4.8588155    2.8269085 *  2.3737773 *  3.0698193  
  41 H       2.1137644 *  4.5720359    3.6240940    4.2964859    3.8861797  
  42 H       4.8036588    2.1356039 *  7.0398173    3.0147844    2.7174482 *
  43 H       4.6252928    2.1435576 *  6.0879980    2.5008758 *  2.8325739 *
  44 H       5.6829821    7.0146416    2.0697651 *  4.7653605    5.3665790  
  45 H       6.7768243    7.9229922    2.1287006 *  4.7664061    5.5810535  

               21 C         22 C         23 C         24 C         25 C     

   1 C       4.2388810    3.8812078    4.7366938    1.5149303 *  4.7336551  
   2 C       3.6770940    4.4997673    4.2874472    5.3086326    3.9124690  
   3 H       4.9102947    1.9190326 *  6.3917435    3.5425111    7.0815289  
   4 H       2.8072198 *  5.6250464    2.0265552 *  6.3552031    3.2492609  
   5 H       3.6400510    6.6218207    2.2251246 *  6.6176625    1.9419918 *
   6 H       5.7727340    2.9749770 *  7.1951940    3.8548490    7.4771782  
   7 H       4.0995422    6.6953638    3.2368444    6.8314443    2.3299192 *
   8 H       6.2857780    4.1325786    7.3875501    3.1664578    7.2681189  
   9 H       6.1196816    5.7232866    6.4003231    3.2342806    6.0787035  
  10 H       3.4122742    3.5054874    4.5136416    5.1897716    4.7955251  
  11 O       4.2495277    1.4522444 *  5.6729045    2.9547264 *  6.4527648  
  12 O       2.4887574 *  5.4726064    1.4650204 *  6.0276452    2.3782657 *
  13 O       3.7680563    6.5851805    2.4273165 *  6.2689438    1.4696735 *
  14 O       5.1735416    2.4348826 *  6.6490636    3.9458232    7.0445522  
  15 O       3.7224628    6.0429819    3.2392886    6.3694699    2.4467822 *
  16 O       5.6749006    3.2719969    6.9017778    2.8518627 *  6.9441736  
  17 O       5.6166082    4.8518381    6.1197725    2.3731489 *  5.9280356  
  18 O       3.9768062    3.9026456    4.9881480    5.2685813    4.9776434  
  19 O       1.4376379 *  2.5938281 *  2.3165869 *  2.3736672 *  2.8481050 *
  20 C       2.5098572 *  1.5464639 *  3.6961577    1.5175816 *  4.3055346  
  21 C       0.0000000    3.0285136    1.5288848 *  3.7073717    2.5390284 *
  22 C       3.0285136    0.0000000    4.5035328    2.4908005 *  5.1696176  
  23 C       1.5288848 *  4.5035328    0.0000000    4.6587249    1.5445312 *
  24 C       3.7073717    2.4908005 *  4.6587249    0.0000000    4.8487493  
  25 C       2.5390284 *  5.1696176    1.5445312 *  4.8487493    0.0000000  
  26 C       3.8883302    1.5716351 *  5.2997963    2.9036870 *  5.5925145  
  27 C       2.9230931 *  5.0631964    2.6053587 *  5.0265714    1.5606190 *
  28 C       2.4128488 *  3.7949833    2.9477181 *  4.2108469    2.5804846 *
  29 C       4.5054622    2.6263964 *  5.6879407    2.3991336 *  5.6357819  
  30 O       1.4341924 *  3.1266567    2.4480231 *  4.2212199    2.9178214 *
  31 O       3.9416979    2.8718813 *  4.8703618    1.4863384 *  4.6905900  
  32 H       2.9592368 *  2.1162083 *  4.0142769    2.1573295 *  4.8727848  
  33 H       1.0963640 *  2.9742664 *  2.1904786 *  4.1388412    3.5038213  
  34 H       2.6503118 *  1.0980094 *  4.1740397    3.4345904    5.0285910  
  35 H       2.1409088 *  4.8117170    1.0965064 *  4.6540466    2.1673777 *
  36 H       4.5722822    2.6582948 *  5.6359800    1.0914287 *  5.9224513  
  37 H       2.9364591 *  5.1601271    2.1557813 *  4.3160207    1.0900321 *
  38 H       3.7052658    2.2011855 *  5.0580171    3.6438443    5.2575098  
  39 H       3.7994463    5.5839983    3.4857321    5.1503582    2.1601675 *
  40 H       2.6313842 *  3.3281637    3.3339782    3.2926456    2.9230810 *
  41 H       4.9992119    3.5127699    6.0735917    3.3171866    5.7922619  
  42 H       4.3649087    4.1568297    4.7737808    2.1418733 *  5.0280338  
  43 H       3.8425029    4.2055947    4.0710508    2.1199032 *  3.8184994  
  44 H       4.5288310    5.1021428    5.0553125    5.5760344    4.4075425  
  45 H       4.0055582    5.2965951    4.3615780    6.2181827    4.0005894  

               26 C         27 C         28 C         29 C         30 O     

   1 C       4.3681904    5.2320314    4.8379787    3.6653473    5.0097483  
   2 C       3.9206951    2.5346073 *  1.5309197 *  4.2932105    2.3626470 *
   3 H       2.2559729 *  6.9061589    5.5487954    3.2238316    4.9212885  
   4 H       6.5805093    4.0737007    4.3808827    7.2989099    3.4503191  
   5 H       7.1980997    2.8893204 *  4.0395041    7.4547572    4.0134852  
   6 H       1.9644014 *  6.9463717    5.5243180    2.2582807 *  5.4142966  
   7 H       6.8220045    1.9249116 *  3.2209170    7.0017292    3.7459659  
   8 H       3.2719533    6.8625368    5.7842355    2.0156841 *  6.1773328  
   9 H       5.9269563    6.5429480    6.3544478    4.8400727    6.8070864  
  10 H       3.1334043    3.8550303    2.5124733 *  4.1763778    2.0825270 *
  11 O       2.4463416 *  6.4772268    5.2424948    3.3192797    4.5249528  
  12 O       6.2421101    3.1292336    3.6169737    6.8277952    2.9492689 *
  13 O       7.0258172    2.4351048 *  3.7819863    7.0774768    4.0969011  
  14 O       1.4781613 *  6.4910699    5.0119423    2.4550647 *  4.7212731  
  15 O       6.0298413    1.4459515 *  2.4296760 *  6.2686181    3.0645055  
  16 O       2.3874227 *  6.5289587    5.3178581    1.4575090 *  5.5246982  
  17 O       5.0230774    6.2726644    5.8659118    3.9621156    6.2331397  
  18 O       3.1456830    3.8086836    2.4595305 *  3.9033739    2.6193305 *
  19 O       3.4431535    3.3142018    2.7583241 *  3.6627781    2.3837030 *
  20 C       2.6580023 *  4.5785825    3.6735494    2.9736093 *  3.1870715  
  21 C       3.8883302    2.9230931 *  2.4128488 *  4.5054622    1.4341924 *
  22 C       1.5716351 *  5.0631964    3.7949833    2.6263964 *  3.1266567  
  23 C       5.2997963    2.6053587 *  2.9477181 *  5.6879407    2.4480231 *
  24 C       2.9036870 *  5.0265714    4.2108469    2.3991336 *  4.2212199  
  25 C       5.5925145    1.5606190 *  2.5804846 *  5.6357819    2.9178214 *
  26 C       0.0000000    5.0681569    3.6312911    1.5488558 *  3.4601301  
  27 C       5.0681569    0.0000000    1.5273992 *  5.1054012    2.4986620 *
  28 C       3.6312911    1.5273992 *  0.0000000    3.8749689    1.4927668 *
  29 C       1.5488558 *  5.1054012    3.8749689    0.0000000    4.2088449  
  30 O       3.4601301    2.4986620 *  1.4927668 *  4.2088449    0.0000000  
  31 O       2.4895185 *  4.4358743    3.5259444    1.4318821 *  3.9860082  
  32 H       3.5047563    5.3912582    4.6052519    3.9183163    3.9040330  
  33 H       4.1178902    3.9399518    3.3344018    5.0007036    2.0289469 *
  34 H       2.1706147 *  4.8969593    3.6288579    3.4764778    2.6036238 *
  35 H       5.8010025    3.5148097    3.8851202    6.1043944    3.3719323  
  36 H       3.0077675    6.0570549    5.1222349    2.5157915 *  5.0358172  
  37 H       5.5727490    2.1846274 *  3.0182961    5.3598678    3.5102865  
  38 H       1.0906460 *  4.4955299    2.9809682 *  2.1538948 *  2.8966442 *
  39 H       5.3855338    1.1034219 *  2.1271341 *  5.1109882    3.4069099  
  40 H       3.0396542    2.1562235 *  1.0915865 *  2.9526378 *  2.0965716 *
  41 H       2.1920975 *  5.0020269    3.8090274    1.0943230 *  4.4496686  
  42 H       4.9682378    5.7784316    5.4538459    4.5110928    5.3776160  
  43 H       4.6134974    4.3702557    4.2295666    3.9204892    4.5856232  
  44 H       4.2660461    2.9173748 *  2.1719634 *  4.3027597    3.3283830  
  45 H       4.8809465    2.6292406 *  2.1338655 *  5.3626513    2.6912362 *

               31 O         32 H         33 H         34 H         35 H     

   1 C       2.3968063 *  2.8583848 *  4.7847041    4.7017148    4.4772667  
   2 C       4.3894516    5.7805560    4.3884626    4.2206012    5.3022716  
   3 H       3.9667889    3.2911321    4.6719720    2.5033955 *  6.6229591  
   4 H       6.6820238    5.1837882    2.6918963 *  4.9614151    2.3269950 *
   5 H       6.5861274    6.2113398    4.2503164    6.2377355    2.6558538 *
   6 H       3.5446172    4.6494562    5.8818976    3.6942603    7.5929320  
   7 H       6.3495785    6.8847237    4.9056681    6.3232043    4.0944233  
   8 H       2.5866262 *  4.9726191    6.7340957    5.1454309    7.6249758  
   9 H       3.6329317    4.7826687    6.7467511    6.6230379    6.0769091  
  10 H       4.6204687    5.1284012    3.6481031    2.9090255 *  5.4467113  
  11 O       3.6901640    2.3144094 *  3.9710331    2.1223548 *  5.7901887  
  12 O       6.1679421    5.1849080    2.7598403 *  4.8929877    2.1251834 *
  13 O       6.1180034    6.1841480    4.5730767    6.3509820    2.8349446 *
  14 O       3.6811592    4.3718154    5.1944922    2.9211266 *  7.1167620  
  15 O       5.7720134    6.5062424    4.5459837    5.6596179    4.2378554  
  16 O       2.3908950 *  4.3713971    6.0215806    4.2597892    7.1837077  
  17 O       2.8477090 *  4.0827707    6.1865906    5.8052960    5.8851088  
  18 O       4.4323910    5.5969930    4.4034738    3.5486471    5.9418880  
  19 O       2.8098614 *  2.1003545 *  2.1203903 *  2.7765232 *  2.4811154 *
  20 C       2.4203707 *  1.0965810 *  2.7054992 *  2.1896793 *  3.7500778  
  21 C       3.9416979    2.9592368 *  1.0963640 *  2.6503118 *  2.1409088 *
  22 C       2.8718813 *  2.1162083 *  2.9742664 *  1.0980094 *  4.8117170  
  23 C       4.8703618    4.0142769    2.1904786 *  4.1740397    1.0965064 *
  24 C       1.4863384 *  2.1573295 *  4.1388412    3.4345904    4.6540466  
  25 C       4.6905900    4.8727848    3.5038213    5.0285910    2.1673777 *
  26 C       2.4895185 *  3.5047563    4.1178902    2.1706147 *  5.8010025  
  27 C       4.4358743    5.3912582    3.9399518    4.8969593    3.5148097  
  28 C       3.5259444    4.6052519    3.3344018    3.6288579    3.8851202  
  29 C       1.4318821 *  3.9183163    5.0007036    3.4764778    6.1043944  
  30 O       3.9860082    3.9040330    2.0289469 *  2.6036238 *  3.3719323  
  31 O       0.0000000    3.3852848    4.6067711    3.7302987    5.1443573  
  32 H       3.3852848    0.0000000    2.8214020 *  2.5920905 *  3.8151605  
  33 H       4.6067711    2.8214020 *  0.0000000    2.3473271 *  2.5443718 *
  34 H       3.7302987    2.5920905 *  2.3473271 *  0.0000000    4.5990304  
  35 H       5.1443573    3.8151605    2.5443718 *  4.5990304    0.0000000  
  36 H       2.1130103 *  2.4583110 *  4.8289298    3.7223797    5.5922579  
  37 H       4.2153784    4.6254645    3.9281407    5.2426852    2.3528435 *
  38 H       2.9810821 *  4.1414266    4.0191318    2.3273636 *  5.7410620  
  39 H       4.3594141    5.9066290    4.8686349    5.5968769    4.2392821  
  40 H       2.4631155 *  4.1018815    3.5766793    3.4853045    4.0616665  
  41 H       2.0151495 *  4.8998875    5.6131465    4.1928892    6.6150320  
  42 H       3.3527538    2.5886416 *  4.7239640    4.8893852    4.2885540  
  43 H       2.5111737 *  3.3099339    4.5794377    4.8678943    3.8700707  
  44 H       4.4270672    6.4031666    5.3304337    5.0071831    6.0234409  
  45 H       5.3967234    6.4646643    4.6445713    4.8449240    5.4428863  

               36 H         37 H         38 H         39 H         40 H     

   1 C       2.1667632 *  3.9305762    4.9948813    5.2062716    3.9419514  
   2 C       6.0765330    4.4467360    2.9607829 *  2.9191586 *  2.2016703 *
   3 H       3.0584547    7.0146623    3.1414671    7.3534124    5.0190328  
   4 H       7.2148777    4.0532934    6.2412256    5.0928581    5.0329497  
   5 H       7.6611234    2.7816419 *  6.7625778    3.5773314    4.6788583  
   6 H       3.3835934    7.3377675    2.7556153 *  7.1333594    4.8389141  
   7 H       7.8757703    3.2378985    6.1504611    2.4481236 *  4.0506172  
   8 H       2.7093094 *  6.7767809    4.0500251    6.6845623    4.7749678  
   9 H       3.5012077    5.0932202    6.5701226    6.2206639    5.3883514  
  10 H       5.7416501    5.3672622    2.1472570 *  4.5312481    3.0057853  
  11 O       2.5797703 *  6.3471735    3.3283320    6.9680561    4.7129376  
  12 O       6.9658608    3.2990002    5.8264016    4.1385631    4.3234996  
  13 O       7.3463277    2.1107269 *  6.6184863    2.8632449 *  4.2821488  
  14 O       3.6600944    7.0407266    2.1092916 *  6.8119920    4.4872728  
  15 O       7.3709560    3.3466206    5.2827075    2.1112211 *  3.3599665  
  16 O       2.3733141 *  6.5702692    3.2602948    6.5034112    4.3850933  
  17 O       2.5344588 *  5.0413565    5.7357578    6.0415652    4.8588155  
  18 O       5.8220349    5.4631765    2.0602664 *  4.2660914    2.8269085 *
  19 O       3.3260748    2.6875219 *  3.5952885    3.8467005    2.3737773 *
  20 C       2.1290916 *  4.0669458    3.2234876    5.0235802    3.0698193  
  21 C       4.5722822    2.9364591 *  3.7052658    3.7994463    2.6313842 *
  22 C       2.6582948 *  5.1601271    2.2011855 *  5.5839983    3.3281637  
  23 C       5.6359800    2.1557813 *  5.0580171    3.4857321    3.3339782  
  24 C       1.0914287 *  4.3160207    3.6438443    5.1503582    3.2926456  
  25 C       5.9224513    1.0900321 *  5.2575098    2.1601675 *  2.9230810 *
  26 C       3.0077675    5.5727490    1.0906460 *  5.3855338    3.0396542  
  27 C       6.0570549    2.1846274 *  4.4955299    1.1034219 *  2.1562235 *
  28 C       5.1222349    3.0182961    2.9809682 *  2.1271341 *  1.0915865 *
  29 C       2.5157915 *  5.3598678    2.1538948 *  5.1109882    2.9526378 *
  30 O       5.0358172    3.5102865    2.8966442 *  3.4069099    2.0965716 *
  31 O       2.1130103 *  4.2153784    2.9810821 *  4.3594141    2.4631155 *
  32 H       2.4583110 *  4.6254645    4.1414266    5.9066290    4.1018815  
  33 H       4.8289298    3.9281407    4.0191318    4.8686349    3.5766793  
  34 H       3.7223797    5.2426852    2.3273636 *  5.5968769    3.4853045  
  35 H       5.5922579    2.3528435 *  5.7410620    4.2392821    4.0616665  
  36 H       0.0000000    5.4035431    3.9616013    6.1797918    4.2028032  
  37 H       5.4035431    0.0000000    5.4112941    2.3348939 *  2.9643880 *
  38 H       3.9616013    5.4112941    0.0000000    4.8631037    2.6348256 *
  39 H       6.1797918    2.3348939 *  4.8631037    0.0000000    2.3552789 *
  40 H       4.2028032    2.9643880 *  2.6348256 *  2.3552789 *  0.0000000  
  41 H       3.5418952    5.5636891    2.3262757 *  4.8559975    2.9404142 *
  42 H       2.5821593 *  4.2590350    5.6377655    5.8879599    4.6811784  
  43 H       3.0397480    2.9282747 *  5.0206658    4.2739482    3.4060243  
  44 H       6.3204518    4.7807774    3.3598054    2.8874614 *  2.4918581 *
  45 H       7.0280558    4.7400413    3.8957363    3.1603753    3.0650284  

               41 H         42 H         43 H         44 H         45 H     

   1 C       4.3948809    1.1011544 *  1.0955481 *  6.3226255    6.9569292  
   2 C       3.9283453    6.8212058    5.5954540    1.0919350 *  1.0925740 *
   3 H       4.1295534    5.1918103    5.5993894    6.4631475    6.8157659  
   4 H       7.7098970    6.4040203    6.0006356    6.2879241    5.0838938  
   5 H       7.6112654    6.5577502    5.5761920    5.6697671    4.7338776  
   6 H       2.7934424 *  5.8805525    5.8260398    5.7742450    6.6155838  
   7 H       6.8668624    7.3124910    5.9828953    4.1475919    3.2281335  
   8 H       2.3799827 *  4.9036515    4.6354075    6.0373957    7.2920682  
   9 H       5.3508379    2.4720111 *  2.3520331 *  7.5203745    8.4191006  
  10 H       4.1472161    6.8442888    6.0697105    2.8491471 *  2.3600677 *
  11 O       4.3295244    4.3687912    4.9196931    6.4711191    6.7125075  
  12 O       7.1323354    6.1969674    5.5301809    5.4833031    4.3370040  
  13 O       7.1651809    6.2038690    5.0251639    5.3124198    4.6693338  
  14 O       2.9844436 *  5.9736773    5.8789685    5.3502202    5.9664535  
  15 O       6.0800606    7.1315028    5.7910896    3.2084681    2.2362601 *
  16 O       2.1137644 *  4.8036588    4.6252928    5.6829821    6.7768243  
  17 O       4.5720359    2.1356039 *  2.1435576 *  7.0146416    7.9229922  
  18 O       3.6240940    7.0398173    6.0879980    2.0697651 *  2.1287006 *
  19 O       4.2964859    3.0147844    2.5008758 *  4.7653605    4.7664061  
  20 C       3.8861797    2.7174482 *  2.8325739 *  5.3665790    5.5810535  
  21 C       4.9992119    4.3649087    3.8425029    4.5288310    4.0055582  
  22 C       3.5127699    4.1568297    4.2055947    5.1021428    5.2965951  
  23 C       6.0735917    4.7737808    4.0710508    5.0553125    4.3615780  
  24 C       3.3171866    2.1418733 *  2.1199032 *  5.5760344    6.2181827  
  25 C       5.7922619    5.0280338    3.8184994    4.4075425    4.0005894  
  26 C       2.1920975 *  4.9682378    4.6134974    4.2660461    4.8809465  
  27 C       5.0020269    5.7784316    4.3702557    2.9173748 *  2.6292406 *
  28 C       3.8090274    5.4538459    4.2295666    2.1719634 *  2.1338655 *
  29 C       1.0943230 *  4.5110928    3.9204892    4.3027597    5.3626513  
  30 O       4.4496686    5.3776160    4.5856232    3.3283830    2.6912362 *
  31 O       2.0151495 *  3.3527538    2.5111737 *  4.4270672    5.3967234  
  32 H       4.8998875    2.5886416 *  3.3099339    6.4031666    6.4646643  
  33 H       5.6131465    4.7239640    4.5794377    5.3304337    4.6445713  
  34 H       4.1928892    4.8893852    4.8678943    5.0071831    4.8449240  
  35 H       6.6150320    4.2885540    3.8700707    6.0234409    5.4428863  
  36 H       3.5418952    2.5821593 *  3.0397480    6.3204518    7.0280558  
  37 H       5.5636891    4.2590350    2.9282747 *  4.7807774    4.7400413  
  38 H       2.3262757 *  5.6377655    5.0206658    3.3598054    3.8957363  
  39 H       4.8559975    5.8879599    4.2739482    2.8874614 *  3.1603753  
  40 H       2.9404142 *  4.6811784    3.4060243    2.4918581 *  3.0650284  
  41 H       0.0000000    5.3426418    4.4580860    3.6877276    5.0204360  
  42 H       5.3426418    0.0000000    1.7856890 *  7.1427609    7.5759130  
  43 H       4.4580860    1.7856890 *  0.0000000    5.7642936    6.3478956  
  44 H       3.6877276    7.1427609    5.7642936    0.0000000    1.7875135 *
  45 H       5.0204360    7.5759130    6.3478956    1.7875135 *  0.0000000  

  * ... LESS THAN  3.000


     ATOMIC BASIS SET
     ----------------
 THE CONTRACTED PRIMITIVE FUNCTIONS HAVE BEEN UNNORMALIZED
 THE CONTRACTED BASIS FUNCTIONS ARE NOW NORMALIZED TO UNITY

  SHELL TYPE  PRIMITIVE        EXPONENT          CONTRACTION COEFFICIENT(S)

 C         

      1   S       1           172.2560000    0.061766907377
      1   S       2            25.9109000    0.358794042852
      1   S       3             5.5333500    0.700713083689

      2   L       4             3.6649800   -0.395895162119    0.236459946619
      2   L       5             0.7705450    1.215834355681    0.860618805716

      3   L       6             0.1958570    1.000000000000    1.000000000000

 C         

      4   S       7           172.2560000    0.061766907377
      4   S       8            25.9109000    0.358794042852
      4   S       9             5.5333500    0.700713083689

      5   L      10             3.6649800   -0.395895162119    0.236459946619
      5   L      11             0.7705450    1.215834355681    0.860618805716

      6   L      12             0.1958570    1.000000000000    1.000000000000

 H         

      7   S      13             5.4471780    0.156284978695
      7   S      14             0.8245472    0.904690876670

      8   S      15             0.1831916    1.000000000000

 H         

      9   S      16             5.4471780    0.156284978695
      9   S      17             0.8245472    0.904690876670

     10   S      18             0.1831916    1.000000000000

 H         

     11   S      19             5.4471780    0.156284978695
     11   S      20             0.8245472    0.904690876670

     12   S      21             0.1831916    1.000000000000

 H         

     13   S      22             5.4471780    0.156284978695
     13   S      23             0.8245472    0.904690876670

     14   S      24             0.1831916    1.000000000000

 H         

     15   S      25             5.4471780    0.156284978695
     15   S      26             0.8245472    0.904690876670

     16   S      27             0.1831916    1.000000000000

 H         

     17   S      28             5.4471780    0.156284978695
     17   S      29             0.8245472    0.904690876670

     18   S      30             0.1831916    1.000000000000

 H         

     19   S      31             5.4471780    0.156284978695
     19   S      32             0.8245472    0.904690876670

     20   S      33             0.1831916    1.000000000000

 H         

     21   S      34             5.4471780    0.156284978695
     21   S      35             0.8245472    0.904690876670

     22   S      36             0.1831916    1.000000000000

 O         

     23   S      37           322.0370000    0.059239393389
     23   S      38            48.4308000    0.351499960776
     23   S      39            10.4206000    0.707657921031

     24   L      40             7.4029400   -0.404453583190    0.244586106967
     24   L      41             1.5762000    1.221561761397    0.853955373466

     25   L      42             0.3736840    1.000000000000    1.000000000000

 O         

     26   S      43           322.0370000    0.059239393389
     26   S      44            48.4308000    0.351499960776
     26   S      45            10.4206000    0.707657921031

     27   L      46             7.4029400   -0.404453583190    0.244586106967
     27   L      47             1.5762000    1.221561761397    0.853955373466

     28   L      48             0.3736840    1.000000000000    1.000000000000

 O         

     29   S      49           322.0370000    0.059239393389
     29   S      50            48.4308000    0.351499960776
     29   S      51            10.4206000    0.707657921031

     30   L      52             7.4029400   -0.404453583190    0.244586106967
     30   L      53             1.5762000    1.221561761397    0.853955373466

     31   L      54             0.3736840    1.000000000000    1.000000000000

 O         

     32   S      55           322.0370000    0.059239393389
     32   S      56            48.4308000    0.351499960776
     32   S      57            10.4206000    0.707657921031

     33   L      58             7.4029400   -0.404453583190    0.244586106967
     33   L      59             1.5762000    1.221561761397    0.853955373466

     34   L      60             0.3736840    1.000000000000    1.000000000000

 O         

     35   S      61           322.0370000    0.059239393389
     35   S      62            48.4308000    0.351499960776
     35   S      63            10.4206000    0.707657921031

     36   L      64             7.4029400   -0.404453583190    0.244586106967
     36   L      65             1.5762000    1.221561761397    0.853955373466

     37   L      66             0.3736840    1.000000000000    1.000000000000

 O         

     38   S      67           322.0370000    0.059239393389
     38   S      68            48.4308000    0.351499960776
     38   S      69            10.4206000    0.707657921031

     39   L      70             7.4029400   -0.404453583190    0.244586106967
     39   L      71             1.5762000    1.221561761397    0.853955373466

     40   L      72             0.3736840    1.000000000000    1.000000000000

 O         

     41   S      73           322.0370000    0.059239393389
     41   S      74            48.4308000    0.351499960776
     41   S      75            10.4206000    0.707657921031

     42   L      76             7.4029400   -0.404453583190    0.244586106967
     42   L      77             1.5762000    1.221561761397    0.853955373466

     43   L      78             0.3736840    1.000000000000    1.000000000000

 O         

     44   S      79           322.0370000    0.059239393389
     44   S      80            48.4308000    0.351499960776
     44   S      81            10.4206000    0.707657921031

     45   L      82             7.4029400   -0.404453583190    0.244586106967
     45   L      83             1.5762000    1.221561761397    0.853955373466

     46   L      84             0.3736840    1.000000000000    1.000000000000

 O         

     47   S      85           322.0370000    0.059239393389
     47   S      86            48.4308000    0.351499960776
     47   S      87            10.4206000    0.707657921031

     48   L      88             7.4029400   -0.404453583190    0.244586106967
     48   L      89             1.5762000    1.221561761397    0.853955373466

     49   L      90             0.3736840    1.000000000000    1.000000000000

 C         

     50   S      91           172.2560000    0.061766907377
     50   S      92            25.9109000    0.358794042852
     50   S      93             5.5333500    0.700713083689

     51   L      94             3.6649800   -0.395895162119    0.236459946619
     51   L      95             0.7705450    1.215834355681    0.860618805716

     52   L      96             0.1958570    1.000000000000    1.000000000000

 C         

     53   S      97           172.2560000    0.061766907377
     53   S      98            25.9109000    0.358794042852
     53   S      99             5.5333500    0.700713083689

     54   L     100             3.6649800   -0.395895162119    0.236459946619
     54   L     101             0.7705450    1.215834355681    0.860618805716

     55   L     102             0.1958570    1.000000000000    1.000000000000

 C         

     56   S     103           172.2560000    0.061766907377
     56   S     104            25.9109000    0.358794042852
     56   S     105             5.5333500    0.700713083689

     57   L     106             3.6649800   -0.395895162119    0.236459946619
     57   L     107             0.7705450    1.215834355681    0.860618805716

     58   L     108             0.1958570    1.000000000000    1.000000000000

 C         

     59   S     109           172.2560000    0.061766907377
     59   S     110            25.9109000    0.358794042852
     59   S     111             5.5333500    0.700713083689

     60   L     112             3.6649800   -0.395895162119    0.236459946619
     60   L     113             0.7705450    1.215834355681    0.860618805716

     61   L     114             0.1958570    1.000000000000    1.000000000000

 C         

     62   S     115           172.2560000    0.061766907377
     62   S     116            25.9109000    0.358794042852
     62   S     117             5.5333500    0.700713083689

     63   L     118             3.6649800   -0.395895162119    0.236459946619
     63   L     119             0.7705450    1.215834355681    0.860618805716

     64   L     120             0.1958570    1.000000000000    1.000000000000

 C         

     65   S     121           172.2560000    0.061766907377
     65   S     122            25.9109000    0.358794042852
     65   S     123             5.5333500    0.700713083689

     66   L     124             3.6649800   -0.395895162119    0.236459946619
     66   L     125             0.7705450    1.215834355681    0.860618805716

     67   L     126             0.1958570    1.000000000000    1.000000000000

 C         

     68   S     127           172.2560000    0.061766907377
     68   S     128            25.9109000    0.358794042852
     68   S     129             5.5333500    0.700713083689

     69   L     130             3.6649800   -0.395895162119    0.236459946619
     69   L     131             0.7705450    1.215834355681    0.860618805716

     70   L     132             0.1958570    1.000000000000    1.000000000000

 C         

     71   S     133           172.2560000    0.061766907377
     71   S     134            25.9109000    0.358794042852
     71   S     135             5.5333500    0.700713083689

     72   L     136             3.6649800   -0.395895162119    0.236459946619
     72   L     137             0.7705450    1.215834355681    0.860618805716

     73   L     138             0.1958570    1.000000000000    1.000000000000

 C         

     74   S     139           172.2560000    0.061766907377
     74   S     140            25.9109000    0.358794042852
     74   S     141             5.5333500    0.700713083689

     75   L     142             3.6649800   -0.395895162119    0.236459946619
     75   L     143             0.7705450    1.215834355681    0.860618805716

     76   L     144             0.1958570    1.000000000000    1.000000000000

 C         

     77   S     145           172.2560000    0.061766907377
     77   S     146            25.9109000    0.358794042852
     77   S     147             5.5333500    0.700713083689

     78   L     148             3.6649800   -0.395895162119    0.236459946619
     78   L     149             0.7705450    1.215834355681    0.860618805716

     79   L     150             0.1958570    1.000000000000    1.000000000000

 O         

     80   S     151           322.0370000    0.059239393389
     80   S     152            48.4308000    0.351499960776
     80   S     153            10.4206000    0.707657921031

     81   L     154             7.4029400   -0.404453583190    0.244586106967
     81   L     155             1.5762000    1.221561761397    0.853955373466

     82   L     156             0.3736840    1.000000000000    1.000000000000

 O         

     83   S     157           322.0370000    0.059239393389
     83   S     158            48.4308000    0.351499960776
     83   S     159            10.4206000    0.707657921031

     84   L     160             7.4029400   -0.404453583190    0.244586106967
     84   L     161             1.5762000    1.221561761397    0.853955373466

     85   L     162             0.3736840    1.000000000000    1.000000000000

 H         

     86   S     163             5.4471780    0.156284978695
     86   S     164             0.8245472    0.904690876670

     87   S     165             0.1831916    1.000000000000

 H         

     88   S     166             5.4471780    0.156284978695
     88   S     167             0.8245472    0.904690876670

     89   S     168             0.1831916    1.000000000000

 H         

     90   S     169             5.4471780    0.156284978695
     90   S     170             0.8245472    0.904690876670

     91   S     171             0.1831916    1.000000000000

 H         

     92   S     172             5.4471780    0.156284978695
     92   S     173             0.8245472    0.904690876670

     93   S     174             0.1831916    1.000000000000

 H         

     94   S     175             5.4471780    0.156284978695
     94   S     176             0.8245472    0.904690876670

     95   S     177             0.1831916    1.000000000000

 H         

     96   S     178             5.4471780    0.156284978695
     96   S     179             0.8245472    0.904690876670

     97   S     180             0.1831916    1.000000000000

 H         

     98   S     181             5.4471780    0.156284978695
     98   S     182             0.8245472    0.904690876670

     99   S     183             0.1831916    1.000000000000

 H         

    100   S     184             5.4471780    0.156284978695
    100   S     185             0.8245472    0.904690876670

    101   S     186             0.1831916    1.000000000000

 H         

    102   S     187             5.4471780    0.156284978695
    102   S     188             0.8245472    0.904690876670

    103   S     189             0.1831916    1.000000000000

 H         

    104   S     190             5.4471780    0.156284978695
    104   S     191             0.8245472    0.904690876670

    105   S     192             0.1831916    1.000000000000

 H         

    106   S     193             5.4471780    0.156284978695
    106   S     194             0.8245472    0.904690876670

    107   S     195             0.1831916    1.000000000000

 H         

    108   S     196             5.4471780    0.156284978695
    108   S     197             0.8245472    0.904690876670

    109   S     198             0.1831916    1.000000000000

 H         

    110   S     199             5.4471780    0.156284978695
    110   S     200             0.8245472    0.904690876670

    111   S     201             0.1831916    1.000000000000

 H         

    112   S     202             5.4471780    0.156284978695
    112   S     203             0.8245472    0.904690876670

    113   S     204             0.1831916    1.000000000000

 TOTAL NUMBER OF BASIS SET SHELLS             =  113
 NUMBER OF CARTESIAN GAUSSIAN BASIS FUNCTIONS =  251
 NUMBER OF ELECTRONS                          =  183
 CHARGE OF MOLECULE                           =   -1
 SPIN MULTIPLICITY                            =    2
 NUMBER OF OCCUPIED ORBITALS (ALPHA)          =   92
 NUMBER OF OCCUPIED ORBITALS (BETA )          =   91
 TOTAL NUMBER OF ATOMS                        =   45
 THE NUCLEAR REPULSION ENERGY IS     2412.1739742860

     $CONTRL OPTIONS
     ---------------
 SCFTYP=UHF          RUNTYP=ENERGY       EXETYP=RUN     
 MPLEVL=       0     CITYP =NONE         CCTYP =NONE         VBTYP =NONE    
 DFTTYP=NONE         TDDFT =NONE    
 MULT  =       2     ICHARG=      -1     NZVAR =       0     COORD =UNIQUE  
 PP    =NONE         RELWFN=NONE         LOCAL =NONE         NUMGRD=       F
 ISPHER=      -1     NOSYM =       0     MAXIT =      60     UNITS =ANGS    
 PLTORB=       F     MOLPLT=       F     AIMPAC=       F     FRIEND=        
 NPRINT=       7     IREST =       0     GEOM  =INPUT   
 NORMF =       0     NORMP =       0     ITOL  =      20     ICUT  =       9
 INTTYP=BEST         GRDTYP=BEST         QMTTOL= 1.0E-06

     $SYSTEM OPTIONS
     ---------------
  REPLICATED MEMORY=    30000000 WORDS (ON EVERY NODE).
 DISTRIBUTED MEMDDI=        1000 MILLION WORDS IN AGGREGATE,
 MEMDDI DISTRIBUTED OVER   8 PROCESSORS IS   125000000 WORDS/PROCESSOR.
 TOTAL MEMORY REQUESTED ON EACH PROCESSOR=   155000000 WORDS.
 TIMLIM=      525600.00 MINUTES, OR     365.0 DAYS.
 PARALL= T  BALTYP=  DLB     KDIAG=    0  COREFL= F
 MXSEQ2=     300 MXSEQ3=     150  mem10=         0

          ----------------
          PROPERTIES INPUT
          ----------------

     MOMENTS            FIELD           POTENTIAL          DENSITY
 IEMOM =       1   IEFLD =       0   IEPOT =       0   IEDEN =       0
 WHERE =COMASS     WHERE =NUCLEI     WHERE =NUCLEI     WHERE =NUCLEI  
 OUTPUT=BOTH       OUTPUT=BOTH       OUTPUT=BOTH       OUTPUT=BOTH    
 IEMINT=       0   IEFINT=       0                     IEDINT=       0
                                                       MORB  =       0
          EXTRAPOLATION IN EFFECT
          SOSCF IN EFFECT
          DIIS or SOSCF will be reset if energy rises
 ORBITAL PRINTING OPTION: NPREO=     1   251     2     1

     -------------------------------
     INTEGRAL TRANSFORMATION OPTIONS
     -------------------------------
     NWORD  =            0
     CUTOFF = 1.0E-09     MPTRAN =       0
     DIRTRF =       T     AOINTS =DUP     

          ----------------------
          INTEGRAL INPUT OPTIONS
          ----------------------
 NOPK  =       1 NORDER=       0 SCHWRZ=       T

     ------------------------------------------
     THE POINT GROUP IS C1 , NAXIS= 0, ORDER= 1
     ------------------------------------------

     DIMENSIONS OF THE SYMMETRY SUBSPACES ARE
 A   =  251

 ..... DONE SETTING UP THE RUN .....
 CPU     0: STEP CPU TIME=     0.04 TOTAL CPU TIME=          0.0 (      0.0 MIN)
 TOTAL WALL CLOCK TIME=          0.1 SECONDS, CPU UTILIZATION IS    80.00%

          ********************
          1 ELECTRON INTEGRALS
          ********************
 ...... END OF ONE-ELECTRON INTEGRALS ......
 CPU     0: STEP CPU TIME=     0.02 TOTAL CPU TIME=          0.1 (      0.0 MIN)
 TOTAL WALL CLOCK TIME=          0.1 SECONDS, CPU UTILIZATION IS    50.00%

          -------------
          GUESS OPTIONS
          -------------
          GUESS =HUCKEL            NORB  =       0          NORDER=       0
          MIX   =       F          PRTMO =       F          PUNMO =       F
          TOLZ  = 1.0E-08          TOLE  = 1.0E-05
          SYMDEN=       F          PURIFY=       F

 INITIAL GUESS ORBITALS GENERATED BY HUCKEL   ROUTINE.
 HUCKEL GUESS REQUIRES    565344 WORDS.

 SYMMETRIES FOR INITIAL GUESS ORBITALS FOLLOW.  ALPHA SET(S).
    92 ORBITALS ARE OCCUPIED (   23 CORE ORBITALS).
    24=A       25=A       26=A       27=A       28=A       29=A       30=A   
    31=A       32=A       33=A       34=A       35=A       36=A       37=A   
    38=A       39=A       40=A       41=A       42=A       43=A       44=A   
    45=A       46=A       47=A       48=A       49=A       50=A       51=A   
    52=A       53=A       54=A       55=A       56=A       57=A       58=A   
    59=A       60=A       61=A       62=A       63=A       64=A       65=A   
    66=A       67=A       68=A       69=A       70=A       71=A       72=A   
    73=A       74=A       75=A       76=A       77=A       78=A       79=A   
    80=A       81=A       82=A       83=A       84=A       85=A       86=A   
    87=A       88=A       89=A       90=A       91=A       92=A       93=A   
    94=A       95=A       96=A       97=A       98=A       99=A      100=A   
   101=A      102=A   

 SYMMETRIES FOR INITIAL GUESS ORBITALS FOLLOW.   BETA SET(S).
    91 ORBITALS ARE OCCUPIED (   23 CORE ORBITALS).
    24=A       25=A       26=A       27=A       28=A       29=A       30=A   
    31=A       32=A       33=A       34=A       35=A       36=A       37=A   
    38=A       39=A       40=A       41=A       42=A       43=A       44=A   
    45=A       46=A       47=A       48=A       49=A       50=A       51=A   
    52=A       53=A       54=A       55=A       56=A       57=A       58=A   
    59=A       60=A       61=A       62=A       63=A       64=A       65=A   
    66=A       67=A       68=A       69=A       70=A       71=A       72=A   
    73=A       74=A       75=A       76=A       77=A       78=A       79=A   
    80=A       81=A       82=A       83=A       84=A       85=A       86=A   
    87=A       88=A       89=A       90=A       91=A       92=A       93=A   
    94=A       95=A       96=A       97=A       98=A       99=A      100=A   
   101=A   
 ...... END OF INITIAL ORBITAL SELECTION ......
 CPU     0: STEP CPU TIME=     0.13 TOTAL CPU TIME=          0.2 (      0.0 MIN)
 TOTAL WALL CLOCK TIME=          0.4 SECONDS, CPU UTILIZATION IS    43.18%

                    ----------------------
                    AO INTEGRAL TECHNOLOGY
                    ----------------------
     S,P,L SHELL ROTATED AXIS INTEGRALS, REPROGRAMMED BY
        KAZUYA ISHIMURA (IMS) AND JOSE SIERRA (SYNSTAR).
     S,P,D,L SHELL ROTATED AXIS INTEGRALS PROGRAMMED BY
        KAZUYA ISHIMURA (INSTITUTE FOR MOLECULAR SCIENCE).
     S,P,D,F,G SHELL TO TOTAL QUARTET ANGULAR MOMENTUM SUM 5,
        ERIC PROGRAM BY GRAHAM FLETCHER (ELORET AND NASA ADVANCED
        SUPERCOMPUTING DIVISION, AMES RESEARCH CENTER).
     S,P,D,F,G,L SHELL GENERAL RYS QUADRATURE PROGRAMMED BY
        MICHEL DUPUIS (PACIFIC NORTHWEST NATIONAL LABORATORY).

          --------------------
          2 ELECTRON INTEGRALS
          --------------------

 DIRECT SCF METHOD SKIPS INTEGRAL STORAGE ON DISK.
 DIRECT TRANSFORMATION SKIPS AO INTEGRAL STORAGE ON DISK.
  ...... END OF TWO-ELECTRON INTEGRALS .....
 CPU     0: STEP CPU TIME=     0.01 TOTAL CPU TIME=          0.2 (      0.0 MIN)
 TOTAL WALL CLOCK TIME=          0.5 SECONDS, CPU UTILIZATION IS    44.44%

          ---------------------------
                  UHF SCF CALCULATION
          ---------------------------

     NUCLEAR ENERGY =      2412.1739742860
     MAXIT = 60     NPUNCH=  2     MULT=  2
     EXTRAP=T  DAMP=F  SHIFT=F  RSTRCT=F  DIIS=F  SOSCF=T
     DENSITY MATRIX CONV=  2.00E-05
     SOSCF WILL OPTIMIZE   14628 ALPHA AND   14560 BETA ROTATION ANGLES.
     SOGTOL= 2.500E-01
     MEMORY REQUIRED FOR UHF/ROHF ITERS=    895580 WORDS.

 DIRECT SCF CALCULATION, SCHWRZ=T   FDIFF=T
 SCHWARZ INEQUALITY OVERHEAD:     25933 INTEGRALS, T=        0.00

                                                                                NONZERO     BLOCKS
 ITER EX      TOTAL ENERGY        E CHANGE  DENSITY CHANGE    ORB. GRAD       INTEGRALS    SKIPPED
   1  0    -1279.6190998552 -1279.6190998552   1.388090319   0.000000000      148767886   15707297
          ---------------START SECOND ORDER SCF---------------
   2  1    -1283.0092726374    -3.3901727822   0.536248291   0.050871977      149114853   15674455
   3  2    -1283.2312937556    -0.2220211181   0.593939906   0.040435694      147377597   15945286
   4  3    -1283.1709905029     0.0603032527   0.527999595   0.090933580      148422996   15803318
   5  4    -1283.2780562024    -0.1070656996   0.190734623   0.023463636      148228605   15841622
   6  5    -1283.2995859710    -0.0215297685   0.069822430   0.008918010      141610476   16395476
   7  6    -1283.3024760580    -0.0028900870   0.065873290   0.011818565      140306920   16493398
   8  7    -1283.3031274144    -0.0006513564   0.057023601   0.008466360      140016180   16503857
   9  8    -1283.3041235551    -0.0009961407   0.015713487   0.001163917      135220185   16762888
  10  9    -1283.3042385384    -0.0001149833   0.020668734   0.000696444      123870187   17224611
  11 10    -1283.3042806035    -0.0000420651   0.009865766   0.000246422      120086625   17347913
  12 11    -1283.3042874639    -0.0000068603   0.002861914   0.000206132      114498397   17589233
  13 12    -1283.3042889949    -0.0000015311   0.001193417   0.000104621      107841813   17812484
  14 13    -1283.3042895273    -0.0000005323   0.000482978   0.000028139      101394503   18033848
  15 14    -1283.3042895967    -0.0000000694   0.000334292   0.000014039       91997261   18321427
  16 15    -1283.3042896177    -0.0000000210   0.000233287   0.000013718       89043938   18413743
  17 16    -1283.3042896208    -0.0000000031   0.000056784   0.000006770       82337201   18662928
  18 17    -1283.3042896254    -0.0000000046   0.000033602   0.000004194       76915701   18797700
  19 18    -1283.3042896251     0.0000000003   0.000018763   0.000001101       69179906   19028356
  20 19    -1283.3042896265    -0.0000000014   0.000005880   0.000000437       62436163   19209051

          -----------------
          DENSITY CONVERGED
          -----------------
     TIME TO FORM FOCK OPERATORS=      33.9 SECONDS (       1.7 SEC/ITER)
     FOCK TIME ON FIRST ITERATION=       1.9, LAST ITERATION=       1.1
     TIME TO SOLVE SCF EQUATIONS=       1.0 SECONDS (       0.1 SEC/ITER)

 FINAL UHF ENERGY IS    -1283.3042896265 AFTER  20 ITERATIONS

          --------------------
          SPIN SZ   =    0.500
          S-SQUARED =    0.757
          --------------------

  ----- ALPHA SET ----- 

          ------------
          EIGENVECTORS
          ------------

                      1          2          3          4          5
                  -20.4087   -20.3881   -20.3705   -20.3682   -20.3467
                     A          A          A          A          A   
    1  C  1  S    0.000059   0.000162  -0.000082  -0.000851   0.000011
    2  C  1  S    0.000370   0.000599  -0.000440  -0.003430   0.000239
    3  C  1  X   -0.000060   0.000181  -0.000029  -0.001066  -0.000066
    4  C  1  Y    0.000016  -0.000697   0.000077  -0.000588   0.000118
    5  C  1  Z    0.000016  -0.000107   0.000003  -0.001017   0.000210
    6  C  1  S   -0.002474  -0.005534   0.003012   0.020403   0.000636
    7  C  1  X    0.000572  -0.002134   0.000102  -0.007934   0.000466
    8  C  1  Y   -0.001272  -0.002773   0.001338   0.002434   0.001159
    9  C  1  Z   -0.000465   0.001343   0.000648  -0.005217  -0.001123
   10  C  2  S   -0.000002   0.000001   0.000022   0.000002   0.000048
   11  C  2  S   -0.000004   0.000008   0.000116   0.000014   0.000311
   12  C  2  X    0.000016   0.000010   0.000038   0.000002  -0.000032
   13  C  2  Y   -0.000007  -0.000035  -0.000006  -0.000001  -0.000029
   14  C  2  Z    0.000009   0.000033  -0.000010   0.000007   0.000059
   15  C  2  S   -0.000041  -0.000003  -0.000605  -0.000075  -0.001378
   16  C  2  X   -0.000194  -0.000238   0.000185  -0.000001   0.000454
   17  C  2  Y   -0.000004   0.000122   0.000146   0.000018   0.000548
   18  C  2  Z   -0.000041  -0.000410  -0.000344  -0.000041  -0.000542
   19  H  3  S    0.000043  -0.000158  -0.000208   0.000000   0.000441
   20  H  3  S   -0.000580   0.000177   0.004137   0.000029  -0.000237
   21  H  4  S    0.000003   0.000008  -0.000006  -0.000015  -0.000174
   22  H  4  S   -0.000022  -0.000035  -0.000008  -0.000010   0.000398
   23  H  5  S    0.000001   0.000008   0.000009   0.000000   0.000049
   24  H  5  S    0.000009   0.000004  -0.000027   0.000011  -0.000111
   25  H  6  S   -0.000584  -0.000353   0.003458   0.000021  -0.000143
   26  H  6  S    0.003787   0.000259   0.006130  -0.000089  -0.000088
   27  H  7  S   -0.000007  -0.000032  -0.000012   0.000008   0.000041
   28  H  7  S   -0.000008   0.000006   0.000027  -0.000005  -0.000114
   29  H  8  S    0.003027   0.000454  -0.000713  -0.000021   0.000169
   30  H  8  S    0.004334  -0.000884  -0.000025   0.000046  -0.000175
   31  H  9  S   -0.000067  -0.000229  -0.000028   0.003005  -0.000013
   32  H  9  S   -0.000084  -0.000253   0.000120   0.005084  -0.000092
   33  H 10  S    0.000124  -0.000139  -0.000111  -0.000008  -0.000034
   34  H 10  S   -0.000280   0.000247   0.000240   0.000038  -0.000087
   35  O 11  S    0.000114  -0.002212   0.000585  -0.000046   0.002340
   36  O 11  S    0.000084  -0.000701   0.000037  -0.000019   0.000397
   37  O 11  X    0.000037  -0.000043  -0.000381   0.000010  -0.000053
   38  O 11  Y   -0.000079  -0.000009   0.000220  -0.000003   0.000364
   39  O 11  Z    0.000044   0.000151   0.000039   0.000020   0.000013
   40  O 11  S   -0.000626   0.001851   0.001352   0.000093  -0.001659
   41  O 11  X   -0.000468   0.000471   0.002562  -0.000060  -0.000195
   42  O 11  Y    0.000281  -0.000060  -0.001370   0.000047  -0.001417
   43  O 11  Z    0.000035  -0.000834  -0.000961  -0.000177   0.000329
   44  O 12  S    0.000012   0.000004  -0.000007   0.000036  -0.000400
   45  O 12  S    0.000011   0.000002  -0.000007   0.000029  -0.000241
   46  O 12  X   -0.000003  -0.000007   0.000003  -0.000001   0.000172
   47  O 12  Y    0.000001   0.000004  -0.000002   0.000000  -0.000177
   48  O 12  Z   -0.000004  -0.000002  -0.000006  -0.000013   0.000038
   49  O 12  S   -0.000042   0.000018   0.000021  -0.000120   0.000303
   50  O 12  X    0.000031   0.000027  -0.000028   0.000048  -0.000698
   51  O 12  Y   -0.000007  -0.000025   0.000015  -0.000002   0.000657
   52  O 12  Z    0.000016  -0.000003   0.000025   0.000070  -0.000223
   53  O 13  S   -0.000003   0.000043   0.000003  -0.000040   0.000624
   54  O 13  S   -0.000002   0.000029   0.000003  -0.000020   0.000218
   55  O 13  X    0.000002  -0.000001  -0.000003   0.000006  -0.000065
   56  O 13  Y   -0.000001   0.000001  -0.000006   0.000001  -0.000031
   57  O 13  Z    0.000003   0.000005   0.000009   0.000004   0.000038
   58  O 13  S   -0.000003  -0.000126  -0.000020   0.000068  -0.000544
   59  O 13  X   -0.000005   0.000049   0.000023  -0.000051   0.000341
   60  O 13  Y    0.000005  -0.000031   0.000015   0.000008   0.000078
   61  O 13  Z   -0.000016  -0.000035  -0.000032  -0.000020  -0.000221
   62  O 14  S   -0.000527  -0.002426   0.983573  -0.005208  -0.000136
   63  O 14  S   -0.000206  -0.000405   0.098653  -0.000454  -0.000046
   64  O 14  X   -0.000260   0.000078  -0.000146   0.000001   0.000115
   65  O 14  Y    0.000295   0.000191  -0.003082   0.000014  -0.000028
   66  O 14  Z   -0.000117   0.000081  -0.002137  -0.000006   0.000113
   67  O 14  S    0.001193   0.000197  -0.047468  -0.000095   0.000489
   68  O 14  X    0.001920  -0.000380  -0.001631  -0.000075  -0.000363
   69  O 14  Y   -0.001734  -0.000831   0.009242   0.000097  -0.000128
   70  O 14  Z    0.000307  -0.000190   0.005529   0.000068  -0.000540
   71  O 15  S    0.000023  -0.000030   0.000058   0.000014   0.000358
   72  O 15  S    0.000011  -0.000023   0.000026   0.000005   0.000124
   73  O 15  X   -0.000009  -0.000015  -0.000008  -0.000001  -0.000017
   74  O 15  Y    0.000007   0.000019   0.000012  -0.000004  -0.000014
   75  O 15  Z    0.000006  -0.000002  -0.000003   0.000003  -0.000033
   76  O 15  S   -0.000004   0.000152  -0.000073  -0.000003  -0.000396
   77  O 15  X    0.000032  -0.000006   0.000067   0.000003   0.000217
   78  O 15  Y   -0.000025  -0.000103  -0.000054   0.000018   0.000110
   79  O 15  Z   -0.000018   0.000034   0.000014  -0.000008   0.000099
   80  O 16  S    0.983481  -0.010439   0.000426   0.000183  -0.000532
   81  O 16  S    0.098404   0.000110  -0.000169  -0.000035   0.000120
   82  O 16  X    0.002315   0.000199  -0.000137  -0.000011   0.000020
   83  O 16  Y   -0.000973  -0.000421   0.000345   0.000010  -0.000031
   84  O 16  Z   -0.002204   0.000130   0.000465   0.000001  -0.000056
   85  O 16  S   -0.046484  -0.003274   0.002344   0.000277  -0.000786
   86  O 16  X   -0.008707  -0.002333   0.001673   0.000188  -0.000362
   87  O 16  Y    0.002366   0.002422  -0.001656  -0.000075   0.000113
   88  O 16  Z    0.003890  -0.000251  -0.001875   0.000030   0.000213
   89  O 17  S   -0.000184   0.001871   0.005229   0.983435  -0.000847
   90  O 17  S   -0.000069   0.000281   0.000576   0.097464  -0.000001
   91  O 17  X   -0.000023  -0.000038   0.000016   0.003013   0.000041
   92  O 17  Y    0.000048   0.000161   0.000026  -0.001917   0.000071
   93  O 17  Z    0.000013   0.000202   0.000011   0.000962  -0.000026
   94  O 17  S    0.000329   0.000012  -0.000426  -0.043448  -0.000249
   95  O 17  X    0.000149   0.000360  -0.000095  -0.007951  -0.000243
   96  O 17  Y   -0.000107  -0.000446  -0.000164   0.002795  -0.000314
   97  O 17  Z    0.000064  -0.000633  -0.000111  -0.003839   0.000072
   98  O 18  S    0.000200  -0.000436  -0.000504   0.000065  -0.002753
   99  O 18  S    0.000070  -0.000123  -0.000111   0.000014  -0.000384
  100  O 18  X   -0.000065   0.000050   0.000045  -0.000004   0.000002
  101  O 18  Y   -0.000028   0.000040   0.000040   0.000001   0.000010
  102  O 18  Z    0.000001  -0.000020   0.000006   0.000004  -0.000002
  103  O 18  S   -0.000058   0.000138   0.000161  -0.000020   0.000560
  104  O 18  X    0.000189  -0.000156  -0.000063   0.000022   0.000036
  105  O 18  Y    0.000091  -0.000130  -0.000144  -0.000006  -0.000162
  106  O 18  Z    0.000023   0.000089  -0.000059  -0.000017  -0.000020
  107  O 19  S    0.000582   0.000529   0.000123   0.000880   0.983495
  108  O 19  S    0.000228   0.000062   0.000018   0.000237   0.099887
  109  O 19  X   -0.000039  -0.000253   0.000017   0.000006  -0.000259
  110  O 19  Y    0.000043  -0.000005   0.000086   0.000048   0.002631
  111  O 19  Z   -0.000024  -0.000252  -0.000063   0.000136   0.002312
  112  O 19  S   -0.000683   0.000852   0.000115  -0.001066  -0.052467
  113  O 19  X    0.000320   0.000540  -0.000052   0.000458   0.000126
  114  O 19  Y   -0.000290   0.000206  -0.000275  -0.000077  -0.007732
  115  O 19  Z    0.000041   0.001031   0.000326  -0.000471  -0.006166
  116  C 20  S   -0.000094   0.000006  -0.000121  -0.000123  -0.000807
  117  C 20  S   -0.000468  -0.000467  -0.000685  -0.000786  -0.003198
  118  C 20  X   -0.000150   0.000574   0.000037   0.000116   0.001211
  119  C 20  Y   -0.000051  -0.000023   0.000044   0.000545  -0.000384
  120  C 20  Z   -0.000203   0.000835   0.000303   0.000266   0.000319
  121  C 20  S    0.003467  -0.000702   0.003022   0.002196   0.018058
  122  C 20  X   -0.000255  -0.002281  -0.001997  -0.000694   0.009885
  123  C 20  Y    0.000862   0.000135   0.000656  -0.003991  -0.000628
  124  C 20  Z   -0.000878   0.001395  -0.001702  -0.002062  -0.006217
  125  C 21  S   -0.000007   0.000027   0.000006  -0.000016  -0.000964
  126  C 21  S   -0.000045   0.000082   0.000066  -0.000080  -0.004087
[...]
   39   -0.0000000  -0.0000116   0.0001009  -0.0000000  -0.0381433
   40   -0.0000001  -0.0000023  -0.0000013   0.0000039   0.0011920
   41   -0.0000206  -0.0000000  -0.0000000   0.0011832   0.0000000
   42    0.0000000  -0.0000000  -0.0000000  -0.0000000   0.0000000
   43   -0.0000012   0.0000000  -0.0000003  -0.0000000   0.0000000
   44    0.0000000  -0.0000000   0.0000001  -0.0000000   0.0000308
   45   -0.0000000  -0.0000011   0.0000013   0.0000000   0.0181690

            16          17          18          19          20

   16    8.3473546
   17   -0.0000015   8.2873221
   18   -0.0000000  -0.0000000   8.2536004
   19   -0.0000001   0.0000039  -0.0000005   8.5545600
   20   -0.0002883   0.0014921  -0.0000011   0.2109828   5.3770336
   21   -0.0000000  -0.0000000   0.0000431   0.1083491  -0.0470128
   22    0.0013268  -0.0000130   0.0001306  -0.0301180   0.1615358
   23   -0.0000000   0.0000000  -0.0000012  -0.0706795   0.0054211
   24   -0.0050830  -0.0445866  -0.0000000  -0.0477590   0.1391340
   25   -0.0000000   0.0000000  -0.0000089   0.0046191  -0.0000139
   26   -0.0550429   0.0000012  -0.0178276   0.0012131  -0.0376693
   27    0.0000000  -0.0000000   0.0015626  -0.0024021   0.0000602
   28   -0.0000012   0.0000000  -0.0391935  -0.0000706   0.0003812
   29    0.1822479  -0.0000905   0.0001550  -0.0000366   0.0016355
   30   -0.0000000   0.0000000  -0.0046631  -0.0320407  -0.0004333
   31   -0.0319916   0.0006555  -0.0000001  -0.0000851  -0.0472290
   32   -0.0000048  -0.0000107  -0.0000000  -0.0309179   0.3613617
   33   -0.0000000   0.0000000   0.0000010  -0.0240180  -0.0062714
   34   -0.0000133   0.0000000   0.0000086  -0.0005877  -0.0496888
   35    0.0000000  -0.0000000   0.0000000   0.0130541  -0.0009100
   36    0.0143681   0.0014997  -0.0000000   0.0015681  -0.0551543
   37   -0.0000000  -0.0000001   0.0000001   0.0043055  -0.0002509
   38    0.0009489   0.0000000   0.0600164   0.0000371   0.0015368
   39   -0.0000000  -0.0000000  -0.0000085  -0.0000083  -0.0000057
   40    0.0000303  -0.0000003   0.0001848   0.0109964  -0.0012284
   41   -0.0327527  -0.0000010   0.0000396   0.0000011  -0.0004537
   42    0.0000004  -0.0320764   0.0000000  -0.0001295   0.0064283
   43    0.0000002  -0.0269443   0.0000000   0.0078157  -0.0014909
   44   -0.0000000  -0.0000000  -0.0269625   0.0000016   0.0000006
   45   -0.0000000  -0.0000000  -0.0256820  -0.0000005  -0.0000002

            21          22          23          24          25

   21    5.1041330
   22   -0.0070497   5.4432543
   23    0.1809520  -0.0000009   5.4805068
   24    0.0036112  -0.0736601  -0.0001366   5.4869278
   25   -0.0884938  -0.0000034   0.2524231   0.0000190   5.3434990
   26    0.0007078   0.1444437  -0.0000055  -0.0111845   0.0000023
   27    0.0082404   0.0000072  -0.0718155  -0.0000045   0.1645306
   28   -0.0973325   0.0001524  -0.0048865   0.0002855  -0.0382432
   29   -0.0000174  -0.0555889   0.0000002  -0.0949211  -0.0000001
   30    0.2065109   0.0022233  -0.0415992  -0.0000932  -0.0060715
   31   -0.0001009  -0.0010869  -0.0000020   0.1937539  -0.0000028
   32   -0.0011175  -0.0609765   0.0000311  -0.0516827   0.0000098
   33    0.3624463  -0.0000533  -0.0476963  -0.0001403   0.0026283
   34   -0.0009760   0.3849593   0.0001375   0.0033915  -0.0000056
   35   -0.0774308   0.0000020   0.2340991   0.0000052  -0.0603255
   36   -0.0000206  -0.0050694   0.0000025   0.3440789   0.0000002
   37    0.0011546   0.0000033  -0.0716635  -0.0000300   0.3511111
   38   -0.0000620  -0.0365256   0.0000059   0.0005299  -0.0000025
   39   -0.0001379  -0.0000005   0.0039123   0.0000004  -0.0603232
   40   -0.0073615  -0.0007806   0.0001907  -0.0016742   0.0004820
   41   -0.0000032   0.0026692  -0.0000000   0.0041534   0.0000000
   42   -0.0000085  -0.0000677   0.0000003  -0.0657679   0.0000011
   43   -0.0002336  -0.0000502  -0.0001055  -0.0487814   0.0000989
   44   -0.0000895  -0.0000025   0.0000057   0.0000002  -0.0000779
   45   -0.0001992   0.0000014   0.0000456   0.0000000   0.0002371

            26          27          28          29          30

   26    5.6686214
   27   -0.0000142   5.4553511
   28   -0.0002861   0.1015247   5.5828092
   29    0.1342372  -0.0000038   0.0004146   4.9782818
   30   -0.0006284  -0.0349235   0.2046251  -0.0000211   8.4436671
   31   -0.0396590   0.0000378  -0.0041561   0.2319901   0.0000103
   32    0.0043249  -0.0000019  -0.0000067  -0.0001146  -0.0000892
   33    0.0000733  -0.0004308   0.0039052  -0.0000003  -0.0352151
   34   -0.0530511   0.0000187  -0.0001797   0.0029306   0.0046024
   35   -0.0000004   0.0031882  -0.0002139   0.0000000   0.0016059
   36    0.0005537   0.0000001  -0.0000164  -0.0103523   0.0000002
   37   -0.0000005  -0.0702353   0.0019668  -0.0000004  -0.0000339
   38    0.2803825   0.0000914  -0.0004575  -0.0369499   0.0018088
   39    0.0000004   0.3452616  -0.0667520  -0.0000005   0.0015532
   40   -0.0011442  -0.0521064   0.3344549  -0.0014832  -0.0308624
   41   -0.0548651  -0.0000027   0.0002168   0.3859936  -0.0000030
   42    0.0000092  -0.0000000  -0.0000001  -0.0001072  -0.0000000
   43    0.0000154  -0.0000269  -0.0000560  -0.0001809   0.0000006
   44    0.0001005   0.0027305  -0.0557036  -0.0000026   0.0015050
   45   -0.0000541  -0.0042047  -0.0598354   0.0000005   0.0013373

            31          32          33          34          35

   31    8.3897385
   32    0.0015519   0.5360909
   33    0.0000002   0.0021753   0.5171097
   34    0.0000019  -0.0024683  -0.0005334   0.4968989
   35    0.0000002  -0.0000316   0.0057112  -0.0000007   0.7678119
   36   -0.0274880   0.0036843   0.0000002   0.0002234  -0.0000009
   37    0.0000009   0.0000025   0.0001316   0.0000003   0.0109819
   38    0.0008036  -0.0000626  -0.0000084   0.0002853  -0.0000000
   39   -0.0000077  -0.0000000   0.0000144  -0.0000002   0.0000884
   40    0.0200057   0.0001068   0.0000939  -0.0000754   0.0000196
   41   -0.0334746   0.0000067   0.0000001  -0.0000518   0.0000000
   42    0.0015363   0.0013971   0.0000003  -0.0000006   0.0000043
   43    0.0008829   0.0004179   0.0000150  -0.0000005   0.0000531
   44   -0.0000035   0.0000000   0.0000011   0.0000005  -0.0000000
   45   -0.0000001  -0.0000000   0.0000006  -0.0000004   0.0000006

            36          37          38          39          40

   36    0.4931949
   37   -0.0000006   0.6184907
   38    0.0000401   0.0000003   0.4352726
   39   -0.0000000   0.0027553  -0.0000027   0.6457004
   40    0.0001107   0.0004618   0.0007215   0.0040250   0.5109193
   41    0.0001779   0.0000001  -0.0011219   0.0000012  -0.0004550
   42   -0.0009335  -0.0000063   0.0000000  -0.0000000   0.0000018
   43    0.0034488   0.0012365  -0.0000001  -0.0000017   0.0003741
   44   -0.0000000   0.0000017  -0.0006048   0.0013882  -0.0006089
   45   -0.0000000  -0.0000048   0.0003717   0.0009178   0.0028108

            41          42          43          44          45

   41    0.4940835
   42    0.0000007   0.5831311
   43   -0.0000080  -0.0351329   0.5060111
   44    0.0000536   0.0000000  -0.0000000   0.5489062
   45    0.0000003   0.0000000  -0.0000000  -0.0269591   0.4814217

          TOTAL MULLIKEN AND LOWDIN ATOMIC POPULATIONS
       ATOM         MULL.POP.    CHARGE          LOW.POP.     CHARGE
    1 C             6.084576   -0.084576         5.976959    0.023041
    2 C             6.095012   -0.095012         5.985350    0.014650
    3 H             0.595464    0.404536         0.745775    0.254225
    4 H             1.158289   -0.158289         1.165557   -0.165557
    5 H             0.606206    0.393794         0.751248    0.248752
    6 H             0.579125    0.420875         0.737492    0.262508
    7 H             0.607616    0.392384         0.747304    0.252696
    8 H             0.597420    0.402580         0.730800    0.269200
    9 H             0.639350    0.360650         0.761989    0.238011
   10 H             0.601882    0.398118         0.743294    0.256706
   11 O             8.714311   -0.714311         8.438621   -0.438621
   12 O             8.620543   -0.620543         8.520687   -0.520687
   13 O             8.737930   -0.737930         8.463663   -0.463663
   14 O             8.705682   -0.705682         8.415165   -0.415165
   15 O             8.701810   -0.701810         8.423646   -0.423646
   16 O             8.712679   -0.712679         8.410204   -0.410204
   17 O             8.674602   -0.674602         8.407397   -0.407397
   18 O             8.680625   -0.680625         8.414378   -0.414378
   19 O             8.680077   -0.680077         8.371649   -0.371649
   20 C             5.903939    0.096061         5.925646    0.074354
   21 C             5.611789    0.388211         5.763721    0.236279
   22 C             5.964889    0.035111         5.946756    0.053244
   23 C             5.955381    0.044619         5.995738    0.004262
   24 C             5.984487    0.015513         5.926449    0.073551
   25 C             5.930764    0.069236         5.939130    0.060870
   26 C             6.058736   -0.058736         5.993257    0.006743
   27 C             5.908876    0.091124         5.940851    0.059149
   28 C             6.029839   -0.029839         5.951287    0.048713
   29 C             5.637264    0.362736         5.766992    0.233008
   30 O             8.664776   -0.664776         8.360580   -0.360580
   31 O             8.625008   -0.625008         8.336965   -0.336965
   32 H             0.766335    0.233665         0.915963    0.084037
   33 H             0.789666    0.210334         0.933025    0.066975
   34 H             0.760210    0.239790         0.915403    0.084597
   35 H             0.880743    0.119257         0.976261    0.023739
   36 H             0.738206    0.261794         0.902467    0.097533
   37 H             0.825679    0.174321         0.951400    0.048600
   38 H             0.680083    0.319917         0.878125    0.121875
   39 H             0.840079    0.159921         0.957912    0.042088
   40 H             0.754630    0.245370         0.917243    0.082757
   41 H             0.763846    0.236154         0.923418    0.076582
   42 H             0.817499    0.182501         0.935282    0.064718
   43 H             0.756158    0.243842         0.904289    0.095711
   44 H             0.816172    0.183828         0.931304    0.068696
   45 H             0.741747    0.258253         0.899360    0.100640

          -------------------------------
          BOND ORDER AND VALENCE ANALYSIS     BOND ORDER THRESHOLD=0.050
          -------------------------------

                   BOND                       BOND                       BOND
  ATOM PAIR DIST  ORDER      ATOM PAIR DIST  ORDER      ATOM PAIR DIST  ORDER
    1  17  1.459  0.855        1  24  1.515  0.922        1  42  1.101  0.899
    1  43  1.096  0.874        2  18  1.469  0.854        2  28  1.531  0.894
    2  44  1.092  0.920        2  45  1.093  0.869        3  11  1.013  0.723
    3  14  1.758  0.106        4  12  0.993  0.438        4  23  2.027  0.057
    4  35  2.327  0.067        5  12  1.781  0.145        5  13  1.011  0.670
    6  14  1.008  0.727        6  16  1.751  0.081        7  13  1.900  0.090
    7  15  1.004  0.739        8  16  0.993  0.793        9  17  0.994  0.827
   10  18  0.998  0.775       11  22  1.452  0.870       12  23  1.465  0.913
   13  25  1.470  0.868       14  26  1.478  0.850       15  27  1.446  0.889
   16  29  1.458  0.803       18  38  2.060  0.112       19  20  1.470  0.841
   19  21  1.438  0.738       20  22  1.546  0.867       20  24  1.518  0.857
   20  32  1.097  0.875       21  23  1.529  0.861       21  30  1.434  0.816
   21  33  1.096  0.899       22  26  1.572  0.854       22  34  1.098  0.889
   23  25  1.545  0.906       23  35  1.097  0.863       24  31  1.486  0.781
   24  36  1.091  0.860       25  27  1.561  0.851       25  37  1.090  0.892
   26  29  1.549  0.852       26  38  1.091  0.791       27  28  1.527  0.843
   27  39  1.103  0.890       28  30  1.493  0.810       28  40  1.092  0.861
   29  31  1.432  0.891       29  41  1.094  0.895

                       TOTAL       BONDED        FREE
      ATOM            VALENCE     VALENCE     VALENCE
    1 C                 3.534       3.534       0.000
    2 C                 3.517       3.517       0.000
    3 H                 0.833       0.833       0.000
    4 H                 1.151       0.723       0.429
    5 H                 0.866       0.864       0.001
    6 H                 0.815       0.815       0.000
    7 H                 0.848       0.848       0.000
    8 H                 0.818       0.818       0.000
    9 H                 0.842       0.842       0.000
   10 H                 0.826       0.826       0.000
   11 O                 1.704       1.704       0.000
   12 O                 1.612       1.578       0.035
   13 O                 1.719       1.718       0.001
   14 O                 1.766       1.766       0.000
   15 O                 1.727       1.727       0.000
   16 O                 1.755       1.755       0.000
   17 O                 1.727       1.727       0.000
   18 O                 1.791       1.791       0.000
   19 O                 1.727       1.727       0.000
   20 C                 3.438       3.438       0.000
   21 C                 3.346       3.345       0.001
   22 C                 3.463       3.463       0.000
   23 C                 3.612       3.591       0.021
   24 C                 3.372       3.372       0.000
   25 C                 3.523       3.522       0.001
   26 C                 3.348       3.348       0.000
   27 C                 3.452       3.452       0.000
   28 C                 3.403       3.403       0.000
   29 C                 3.435       3.435       0.000
   30 O                 1.766       1.766       0.000
   31 O                 1.799       1.799       0.000
   32 H                 0.896       0.896       0.000
   33 H                 0.932       0.932       0.000
   34 H                 0.901       0.901       0.000
   35 H                 0.971       0.968       0.002
   36 H                 0.905       0.905       0.000
   37 H                 0.918       0.918       0.001
   38 H                 0.905       0.905       0.000
   39 H                 0.914       0.914       0.000
   40 H                 0.917       0.917       0.000
   41 H                 0.899       0.899       0.000
   42 H                 0.912       0.912       0.000
   43 H                 0.901       0.901       0.000
   44 H                 0.919       0.919       0.000
   45 H                 0.902       0.902       0.000

          -----------------------------------------
          ATOMIC SPIN DENSITY AT THE NUCLEUS (A.U.)
          -----------------------------------------
                            SPIN DENS    ALPHA DENS     BETA DENS
    1  C            6.0     0.0003378      46.99257      46.99223
    2  C            6.0     0.0020554      47.00124      46.99919
    3  H            1.0     0.0000177       0.15425       0.15424
    4  H            1.0     0.0272060       0.16584       0.13863
    5  H            1.0    -0.0014665       0.14701       0.14847
    6  H            1.0    -0.0000001       0.15490       0.15490
    7  H            1.0    -0.0000225       0.15725       0.15727
    8  H            1.0    -0.0000012       0.16200       0.16200
    9  H            1.0    -0.0000030       0.16904       0.16904
   10  H            1.0    -0.0000093       0.16134       0.16135
   11  O            8.0     0.0010246     116.76938     116.76835
   12  O            8.0     1.0967635     117.71209     116.61532
   13  O            8.0     0.0850252     116.81172     116.72670
   14  O            8.0     0.0000123     116.75496     116.75495
   15  O            8.0     0.0125505     116.74994     116.73739
   16  O            8.0     0.0000423     116.71340     116.71336
   17  O            8.0    -0.0000471     116.73624     116.73629
   18  O            8.0     0.0000934     116.72483     116.72474
   19  O            8.0     0.0791621     116.85711     116.77795
   20  C            6.0     0.0050809      47.06213      47.05705
   21  C            6.0     0.0074379      47.03718      47.02974
   22  C            6.0    -0.0007916      47.07098      47.07178
   23  C            6.0     0.0218588      47.04537      47.02352
   24  C            6.0    -0.0007170      47.08317      47.08388
   25  C            6.0    -0.0170148      47.04341      47.06042
   26  C            6.0     0.0001639      47.08431      47.08414
   27  C            6.0     0.0028046      47.05932      47.05652
   28  C            6.0    -0.0011118      47.08470      47.08581
   29  C            6.0    -0.0000344      47.02025      47.02028
   30  O            8.0     0.0040587     116.80052     116.79646
   31  O            8.0     0.0005014     116.82864     116.82814
   32  H            1.0    -0.0003615       0.18639       0.18676
   33  H            1.0    -0.0005477       0.18912       0.18967
   34  H            1.0     0.0001009       0.18716       0.18706
   35  H            1.0    -0.0063107       0.18381       0.19013
   36  H            1.0     0.0004557       0.18564       0.18519
   37  H            1.0     0.0039152       0.19316       0.18924
   38  H            1.0    -0.0000112       0.18108       0.18109
   39  H            1.0    -0.0003868       0.18900       0.18938
   40  H            1.0    -0.0000371       0.18686       0.18690
   41  H            1.0     0.0000051       0.19081       0.19081
   42  H            1.0    -0.0000155       0.18724       0.18725
   43  H            1.0    -0.0000101       0.18508       0.18509
   44  H            1.0    -0.0000326       0.18906       0.18909
   45  H            1.0    -0.0000362       0.18484       0.18488

          ---------------------
          ELECTROSTATIC MOMENTS
          ---------------------

 POINT   1           X           Y           Z (BOHR)    CHARGE
                 0.060394    0.101710    0.005667       -1.00 (A.U.)
         DX          DY          DZ         /D/  (DEBYE)
   -12.250961    0.611890   -6.241828   13.763026
 ...... END OF PROPERTY EVALUATION ......
 CPU     0: STEP CPU TIME=     0.20 TOTAL CPU TIME=         35.9 (      0.6 MIN)
 TOTAL WALL CLOCK TIME=         95.3 SECONDS, CPU UTILIZATION IS    37.69%
               896333  WORDS OF DYNAMIC MEMORY USED
 EXECUTION OF GAMESS TERMINATED NORMALLY Sat May 23 13:00:29 2020
 DDI: 263640 bytes (0.3 MB / 0 MWords) used by master data server.
Note: The following floating-point exceptions are signalling:Note: The following floating-point exceptions are signalling:Note: The following floating-point exceptions are signalling: IEEE_DENORMALNote: The following floating-point exceptions are signalling: IEEE_DENORMAL IEEE_DENORMAL
 IEEE_DENORMAL
Note: The following floating-point exceptions are signalling: IEEE_DENORMALNote: The following floating-point exceptions are signalling: IEEE_DENORMALNote: The following floating-point exceptions are signalling: IEEE_DENORMAL

 ----------------------------------------
 CPU timing information for all processes
 ========================================
 0: 35.374 + 0.546 = 35.921
 1: 35.186 + 0.294 = 35.480
 2: 35.739 + 0.344 = 36.84
 3: 34.952 + 0.336 = 35.289
 4: 35.729 + 0.313 = 36.42
 5: 34.268 + 0.284 = 34.552
 6: 35.40 + 0.252 = 35.292
 7: 36.13 + 0.272 = 36.285
 ----------------------------------------




Note: The following floating-point exceptions are signalling: IEEE_DENORMAL
 ddikick.x: exited gracefully.
unset echo
----- accounting info -----
Files used on the master node pietdev were:
-rwxr-xr-x 1 piet piet     2564 mei 23 12:58 /home/piet/scr/maltose_fukui_acid.F05*
-rw-r--r-- 1 piet piet 68812800 mei 23 13:00 /home/piet/scr/maltose_fukui_acid.F10
ls: No match.
ls: No match.
ls: No match.
za 23 mei 2020 13:00:32 CEST
0.127u 0.035s 1:38.47 0.1%	0+0k 0+8io 0pf+0w
