----- GAMESS execution script 'rungms' -----
This job is running on host pietdev
under operating system Linux at za 23 mei 2020 12:58:54 CEST
Available scratch disk space (Kbyte units) at beginning of the job is
Filesystem     1K-blocks     Used Available Use% Mounted on
/dev/sda2      244568380 30947992 201127332  14% /
GAMESS temporary binary files will be written to /home/piet/scr
GAMESS supplementary output files will be written to /home/piet/gamess/scr
Copying input file maltose_fukui_neu.inp to your run's scratch directory...
cp maltose_fukui_neu.inp /home/piet/scr/maltose_fukui_neu.F05
unset echo
 
Assuming a single but multicore node.
 
/home/piet/gamess/ddikick.x /home/piet/gamess/gamess.03.x maltose_fukui_neu -ddi 1 8 pietdev:cpus=8 -scr /home/piet/scr

 Distributed Data Interface kickoff program.
 Initiating 8 compute processes on 1 nodes to run the following command:
 /home/piet/gamess/gamess.03.x maltose_fukui_neu 

          ******************************************************
          *         GAMESS VERSION = 30 SEP 2019 (R2)          *
          *             FROM IOWA STATE UNIVERSITY             *
          * M.W.SCHMIDT, K.K.BALDRIDGE, J.A.BOATZ, S.T.ELBERT, *
          *   M.S.GORDON, J.H.JENSEN, S.KOSEKI, N.MATSUNAGA,   *
          *          K.A.NGUYEN, S.J.SU, T.L.WINDUS,           *
          *       TOGETHER WITH M.DUPUIS, J.A.MONTGOMERY       *
          *         J.COMPUT.CHEM.  14, 1347-1363(1993)        *
          **************** 64 BIT LINUX VERSION ****************

  SINCE 1993, STUDENTS AND POSTDOCS WORKING AT IOWA STATE UNIVERSITY
  AND ALSO IN THEIR VARIOUS JOBS AFTER LEAVING ISU HAVE MADE IMPORTANT
  CONTRIBUTIONS TO THE CODE:
     IVANA ADAMOVIC, CHRISTINE AIKENS, YURI ALEXEEV, POOJA ARORA,
     ANDREY ASADCHEV, ROB BELL, PRADIPTA BANDYOPADHYAY, JONATHAN BENTZ,
     COLLEEN BERTONI, BRETT BODE, KURT BRORSEN, CALEB CARLIN, GALINA CHABAN,
     WEI CHEN, CHEOL HO CHOI, PAUL DAY, ALBERT DEFUSCO, NUWAN DESILVA,
     TIM DUDLEY, DMITRI FEDOROV, ALEX FINDLATER, GRAHAM FLETCHER, 
     MARK FREITAG, KURT GLAESEMANN, EMILIE B GUIDEZ, ANASTASIA GUNINA, 
     DAN KEMP, SAROM SOK LEANG, GRANT MERRILL,
     NORIYUKI MINEZAWA, JONATHAN MULLIN,
     TAKESHI NAGATA, SEAN NEDD, HEATHER NETZLOFF, BOSILJKA NJEGIC, RYAN OLSON,
     MIKE PAK, BUU PHAM, DAVID POOLE,
     SPENCER PRUITT, LUKE ROSKOP, TOSAPORN SATTASATHUCHANA,
     JIM SHOEMAKER, LYUDMILA SLIPCHENKO,
     TONY SMITH, JIE SONG, TETSUYA TAKETSUGU, SIMON WEBB,
     JORGE LUIS GALVEZ VALLEJO, PENG XU, SOOHAENG YOO,
     FEDERICO ZAHARIEV

  ADDITIONAL CODE HAS BEEN PROVIDED BY COLLABORATORS IN OTHER GROUPS:
     IOWA STATE UNIVERSITY:
          JOE IVANIC, AARON WEST, LAIMUTIS BYTAUTAS, KLAUS RUEDENBERG
     UNIVERSITY OF TOKYO: KIMIHIKO HIRAO, TAKAHITO NAKAJIMA,
          TAKAO TSUNEDA, MUNEAKI KAMIYA, SUSUMU YANAGISAWA,
          KIYOSHI YAGI, MAHITO CHIBA, SEIKEN TOKURA, NAOAKI KAWAKAMI
     UNIVERSITY OF AARHUS: FRANK JENSEN
     UNIVERSITY OF IOWA: VISVALDAS KAIRYS, HUI LI
     NATIONAL INST. OF STANDARDS AND TECHNOLOGY: WALT STEVENS, DAVID GARMER
     UNIVERSITY OF PISA: BENEDETTA MENNUCCI, JACOPO TOMASI
     UNIVERSITY OF MEMPHIS: HENRY KURTZ, PRAKASHAN KORAMBATH
     UNIVERSITY OF ALBERTA: TOBY ZENG, MARIUSZ KLOBUKOWSKI
     UNIVERSITY OF NEW ENGLAND: MARK SPACKMAN
     MIE UNIVERSITY: HIROAKI UMEDA
     NAT. INST. OF ADVANCED INDUSTRIAL SCIENCE AND TECHNOLOGY: KAZUO KITAURA
     MICHIGAN STATE UNIVERSITY:
          KAROL KOWALSKI, MARTA WLOCH, JEFFREY GOUR, JESSE LUTZ,
          WEI LI, JUN SHEN, J. EMILIANO DEUSTUA, PIOTR PIECUCH
     UNIVERSITY OF MINNESOTA:
          ANDREW SAND, PRACHI SHARMA, YINAN SHU
     UNIVERSITY OF SILESIA: MONIKA MUSIAL, STANISLAW KUCHARSKI
     FACULTES UNIVERSITAIRES NOTRE-DAME DE LA PAIX:
          OLIVIER QUINET, BENOIT CHAMPAGNE
     UNIVERSITY OF CALIFORNIA - SANTA BARBARA: BERNARD KIRTMAN
     INSTITUTE FOR MOLECULAR SCIENCE:
          KAZUYA ISHIMURA, MICHIO KATOUDA, AND SHIGERU NAGASE
     UNIVERSITY OF NOTRE DAME: ANNA POMOGAEVA, DAN CHIPMAN
     KYUSHU UNIVERSITY:
          HARUYUKI NAKANO,
          FENG LONG GU, JACEK KORCHOWIEC, MARCIN MAKOWSKI, AND YURIKO AOKI,
          HIROTOSHI MORI AND EISAKU MIYOSHI
     PENNSYLVANIA STATE UNIVERSITY:
          TZVETELIN IORDANOV, CHET SWALINA, JONATHAN SKONE,
          SHARON HAMMES-SCHIFFER
     WASEDA UNIVERSITY:
          MASATO KOBAYASHI, TOMOKO AKAMA, TSUGUKI TOUMA,
          TAKESHI YOSHIKAWA, YASUHIRO IKABATA, JUNJI SEINO,
          YUYA NAKAJIMA, HIROMI NAKAI
     NANJING UNIVERSITY: SHUHUA LI
     UNIVERSITY OF NEBRASKA:
          PEIFENG SU, DEJUN SI, NANDUN THELLAMUREGE, YALI WANG, HUI LI
     UNIVERSITY OF ZURICH: ROBERTO PEVERATI, KIM BALDRIDGE
     N. COPERNICUS UNIVERSITY AND JACKSON STATE UNIVERSITY:
          MARIA BARYSZ
     UNIVERSITY OF COPENHAGEN: Jimmy Kromann, CASPER STEINMANN
     TOKYO INSTITUTE OF TECHNOLOGY: HIROYA NAKATA
     NAGOYA UNIVERSITY: YOSHIO NISHIMOTO, STEPHAN IRLE
     MOSCOW STATE UNIVERSITY: VLADIMIR MIRONOV
     A.N.NESMEYANOV INSTITUTE OF ORGANOELEMENT COMPOUNDS OF RUSSIAN ACADEMY OF SCIENCES:
          IGOR S. GERASIMOV
     JOHANNES KEPLER UNIVERSITY LINZ:
          CHRISTIAN FRIEDL


 PARALLEL VERSION RUNNING ON        8 PROCESSORS IN        1 NODES.

 EXECUTION OF GAMESS BEGUN Sat May 23 12:58:54 2020

            ECHO OF THE FIRST FEW INPUT CARDS -
 INPUT CARD> $BASIS GBASIS=N21 NGAUSS=3 $END                                                
 INPUT CARD> $CONTRL SCFTYP=RHF MAXIT=60 MULT=1 ICHARG=0 $END                               
 INPUT CARD> $SYSTEM MEMDDI=1000 MWORDS=30 $END                                             
 INPUT CARD> $SCF DIRSCF=.TRUE. $END                                                        
 INPUT CARD> $DATA                                                                          
 INPUT CARD>                                                                                
 INPUT CARD>C1                                                                              
 INPUT CARD>C 6.0000000 -2.1299744135 -2.3927918316 -0.4882839672                           
 INPUT CARD>C 6.0000000 1.9211063153 2.1500050434 -1.1835092090                             
 INPUT CARD>H 1.0000000 -3.0821866169 1.7772788794 2.0638641858                             
 INPUT CARD>H 1.0000000 3.5788437524 -1.3152395192 2.5389368936                             
 INPUT CARD>H 1.0000000 4.2882320962 -2.0961759109 0.2125074858                             
 INPUT CARD>H 1.0000000 -3.5056871219 2.6741603241 0.2143049435                             
 INPUT CARD>H 1.0000000 4.4986210628 -0.5550208927 -1.1585812916                            
 INPUT CARD>H 1.0000000 -4.1436732612 0.9369415909 -1.6877966333                            
 INPUT CARD>H 1.0000000 -3.0999745836 -3.4553522991 -1.8780045866                           
 INPUT CARD>H 1.0000000 1.2656668344 2.8463389322 0.5226471270                              
 INPUT CARD>O 8.0000000 -2.7050640215 0.8578110056 2.2611775101                             
 INPUT CARD>O 8.0000000 3.5870332555 -1.1627552056 1.5577973084                             
 INPUT CARD>O 8.0000000 3.8646192341 -2.2830647596 -0.6857797571                            
 INPUT CARD>O 8.0000000 -2.6848300915 2.8859485505 0.7589782969                             
 INPUT CARD>O 8.0000000 3.9229178645 0.2675754941 -1.1493824470                             
 INPUT CARD>O 8.0000000 -3.7182462846 1.3209606906 -0.8768604098                            
 INPUT CARD>O 8.0000000 -3.2402732973 -2.5868214907 -1.4149665778                           
 INPUT CARD>O 8.0000000 1.1044705660 3.1080896533 -0.4271001687                             
 INPUT CARD>O 8.0000000 0.0375750921 -1.0537313160 0.6849055699                             
 INPUT CARD>C 6.0000000 -1.2918161700 -0.6003507748 1.1195522550                            
 INPUT CARD>C 6.0000000 1.2094776406 -0.4786997271 1.2872226664                             
 INPUT CARD>C 6.0000000 -1.4843930221 0.8922949669 1.4751832138                             
 INPUT CARD>C 6.0000000 2.2844777984 -1.5254987484 0.9938369472                             
 INPUT CARD>C 6.0000000 -2.2259198205 -0.9543084402 -0.0229091829                           
 INPUT CARD>C 6.0000000 2.5457593727 -1.6553593104 -0.5228847401                            
 INPUT CARD>C 6.0000000 -1.7071785167 1.8867009741 0.2787050238                             
 INPUT CARD>C 6.0000000 2.5956948506 -0.2912982210 -1.2794397173                            
 INPUT CARD>C 6.0000000 1.5643398616 0.7175419689 -0.7779451334                             
 INPUT CARD>C 6.0000000 -2.2693191864 1.2328554331 -1.0079333146                            
 INPUT CARD>O 8.0000000 1.5462380388 0.7915854018 0.7128743261                              
 INPUT CARD>O 8.0000000 -1.8359461225 -0.1197543461 -1.1893747240                           
 INPUT CARD>H 1.0000000 -1.5767474133 -1.1491024371 2.0251877703                            
 INPUT CARD>H 1.0000000 1.0923538833 -0.2991122558 2.3624176974                             
 INPUT CARD>H 1.0000000 -0.6318942888 1.2644153987 2.0586187407                             
 INPUT CARD>H 1.0000000 1.9366416003 -2.4900881533 1.3823000929                             
 INPUT CARD>H 1.0000000 -3.2440979741 -0.6987458276 0.2757838161                            
 INPUT CARD>H 1.0000000 1.7712729735 -2.2883808271 -0.9560411428                            
 INPUT CARD>H 1.0000000 -0.7717212391 2.3864506253 0.0243850262                             
 INPUT CARD>H 1.0000000 2.3530166238 -0.4970112220 -2.3360045372                            
 INPUT CARD>H 1.0000000 0.5665709145 0.4162242154 -1.1023305661                             
 INPUT CARD>H 1.0000000 -1.9221440841 1.7641998574 -1.8993846317                            
 INPUT CARD>H 1.0000000 -2.1964933111 -3.0561717798 0.3880967942                            
 INPUT CARD>H 1.0000000 -1.1475589235 -2.5233543249 -0.9552302149                           
   30000000 WORDS OF MEMORY AVAILABLE

     BASIS OPTIONS
     -------------
     GBASIS=N21          IGAUSS=       3      POLAR=NONE    
     NDFUNC=       0     NFFUNC=       0     DIFFSP=       F
     NPFUNC=       0      DIFFS=       F     BASNAM=        


     RUN TITLE
     ---------
                                                                                 

 THE POINT GROUP OF THE MOLECULE IS C1      
 THE ORDER OF THE PRINCIPAL AXIS IS     0

 ATOM      ATOMIC                      COORDINATES (BOHR)
           CHARGE         X                   Y                   Z
 C           6.0    -4.0250680024       -4.5217209074       -0.9227229022
 C           6.0     3.6303645292        4.0629204042       -2.2365081090
 H           1.0    -5.8244881490        3.3585700858        3.9001377870
 H           1.0     6.7630340449       -2.4854422995        4.7978950290
 H           1.0     8.1035836336       -3.9611980937        0.4015809185
 H           1.0    -6.6247880591        5.0534302598        0.4049776210
 H           1.0     8.5011611313       -1.0488374047       -2.1894011756
 H           1.0    -7.8304070463        1.7705628733       -3.1894731599
 H           1.0    -5.8581025319       -6.5296690363       -3.5489140724
 H           1.0     2.3917635088        5.3788006500        0.9876598583
 O           8.0    -5.1118297799        1.6210277498        4.2730059037
 O           8.0     6.7785099617       -2.1972887294        2.9438100573
 O           8.0     7.3030713993       -4.3143668079       -1.2959358288
 O           8.0    -5.0735931965        5.4536519751        1.4342610118
 O           8.0     7.4132398362        0.5056443649       -2.1720178799
 O           8.0    -7.0264666328        2.4962537458       -1.6570259040
 O           8.0    -6.1232286572       -4.8883837966       -2.6738991138
 O           8.0     2.0871467312        5.8734377900       -0.8071022882
 O           8.0     0.0710066280       -1.9912634519        1.2942838546
 C           6.0    -2.4411785878       -1.1344984609        2.1156469909
 C           6.0     2.2855813290       -0.9046113146        2.4324981247
 C           6.0    -2.8050960699        1.6861929877        2.7876920558
 C           6.0     4.3170370640       -2.8827746291        1.8780795067
 C           6.0    -4.2063785314       -1.8033814597       -0.0432920783
 C           6.0     4.8107876451       -3.1281755079       -0.9881088820
 C           6.0    -3.2260996087        3.5653478618        0.5266761264
 C           6.0     4.9051520154       -0.5504738184       -2.4177904835
 C           6.0     2.9561736901        1.3559577059       -1.4701031356
 C           6.0    -4.2883914410        2.3297589510       -1.9047177785
 O           8.0     2.9219662051        1.4958795053        1.3471371400
 O           8.0    -3.4694350997       -0.2263029000       -2.2475923251
 H           1.0    -2.9796205630       -2.1714887379        3.8270499596
 H           1.0     2.0642495211       -0.5652402030        4.4643221166
 H           1.0    -1.1941070590        2.3893986382        3.8902253331
 H           1.0     3.6597219610       -4.7055842950        2.6121684084
 H           1.0    -6.1304562484       -1.3204381492        0.5211558443
 H           1.0     3.3472205694       -4.3244127188       -1.8066557929
 H           1.0    -1.4583416808        4.5097377650        0.0460810177
 H           1.0     4.4465566635       -0.9392150224       -4.4144084814
 H           1.0     1.0706637810        0.7865497166       -2.0831027178
 H           1.0    -3.6323256279        3.3338543181       -3.5893164992
 H           1.0    -4.1507704918       -5.7753272352        0.7333965978
 H           1.0    -2.1685719202       -4.7684482440       -1.8051233614
 H           1.0     3.2276423785        4.3764108030       -4.2358573390
 H           1.0     5.6455855228        4.3327892272       -1.8774830254

          INTERNUCLEAR DISTANCES (ANGS.)
          ------------------------------

                1 C          2 C          3 H          4 H          5 H     

   1 C       0.0000000    6.1263037    4.9809294    6.5510144    6.4631621  
   2 C       6.1263037    0.0000000    5.9763951    5.3490764    5.0578849  
   3 H       4.9809294    5.9763951    0.0000000    7.3592588    8.5296099  
   4 H       6.5510144    5.3490764    7.3592588    0.0000000    2.5544798 *
   5 H       6.4631621    5.0578849    8.5296099    2.5544798 *  0.0000000  
   6 H       5.2971899    5.6283843    2.0987183 *  8.4563469    9.1379039  
   7 H       6.9112212    3.7364915    8.5610994    3.8853009    2.0734770 *
   8 H       4.0719698    6.2054315    3.9884683    9.0870713    9.1601302  
   9 H       2.0003146 *  7.5573546    6.5512651    8.2883092    7.7976406  
  10 H       6.3246227    1.9558761 *  4.7351947    5.1705848    5.8017704  
  11 O       4.2961244    5.9107600    1.0132005 *  6.6548325    7.8631596  
  12 O       6.1954512    4.6113398    7.3060521    0.9929519 *  1.7812239 *
  13 O       5.9988497    4.8659105    8.5032373    3.3789275    1.0105915 *
  14 O       5.4523965    5.0526746    1.7577735 *  7.7493125    8.5874205  
  15 O       6.6447054    2.7480821 *  7.8533844    4.0283235    2.7523661 *
  16 O       4.0577773    5.7082086    3.0431331    8.4773077    8.7730976  
  17 O       1.4591613 *  7.0093464    5.5832452    7.9843992    7.7180178  
  18 O       6.3816201    1.4686643 *  5.0501544    5.8724560    6.1343146  
  19 O       2.8049470 *  4.1596382    4.4327259    4.0057961    4.4020377  
  20 C       2.5496061 *  4.8157471    3.1225429    5.1233824    5.8478339  
  21 C       4.2388810    3.6770940    4.9102947    2.8072198 *  3.6400510  
  22 C       3.8812078    4.4997673    1.9190326 *  5.6250464    6.6218207  
  23 C       4.7366938    4.2874472    6.3917435    2.0265552 *  2.2251246 *
  24 C       1.5149303 *  5.3086326    3.5425111    6.3552031    6.6176625  
  25 C       4.7336551    3.9124690    7.0815289    3.2492609    1.9419918 *
  26 C       4.3681904    3.9206951    2.2559729 *  6.5805093    7.1980997  
  27 C       5.2320314    2.5346073 *  6.9061589    4.0737007    2.8893204 *
  28 C       4.8379787    1.5309197 *  5.5487954    4.3808827    4.0395041  
  29 C       3.6653473    4.2932105    3.2238316    7.2989099    7.4547572  
  30 O       5.0097483    2.3626470 *  4.9212885    3.4503191    4.0134852  
  31 O       2.3968063 *  4.3894516    3.9667889    6.6820238    6.5861274  
  32 H       2.8583848 *  5.7805560    3.2911321    5.1837882    6.2113398  
  33 H       4.7847041    4.3884626    4.6719720    2.6918963 *  4.2503164  
  34 H       4.7017148    4.2206012    2.5033955 *  4.9614151    6.2377355  
  35 H       4.4772667    5.3022716    6.6229591    2.3269950 *  2.6558538 *
  36 H       2.1667632 *  6.0765330    3.0584547    7.2148777    7.6611234  
  37 H       3.9305762    4.4467360    7.0146623    4.0532934    2.7816419 *
  38 H       4.9948813    2.9607829 *  3.1414671    6.2412256    6.7625778  
  39 H       5.2062716    2.9191586 *  7.3534124    5.0928581    3.5773314  
  40 H       3.9419514    2.2016703 *  5.0190328    5.0329497    4.6788583  
  41 H       4.3948809    3.9283453    4.1295534    7.7098970    7.6112654  
  42 H       1.1011544 *  6.8212058    5.1918103    6.4040203    6.5577502  
  43 H       1.0955481 *  5.5954540    5.5993894    6.0006356    5.5761920  
  44 H       6.3226255    1.0919350 *  6.4631475    6.2879241    5.6697671  
  45 H       6.9569292    1.0925740 *  6.8157659    5.0838938    4.7338776  

                6 H          7 H          8 H          9 H         10 H     

   1 C       5.2971899    6.9112212    4.0719698    2.0003146 *  6.3246227  
   2 C       5.6283843    3.7364915    6.2054315    7.5573546    1.9558761 *
   3 H       2.0987183 *  8.5610994    3.9884683    6.5512651    4.7351947  
   4 H       8.4563469    3.8853009    9.0870713    8.2883092    5.1705848  
   5 H       9.1379039    2.0734770 *  9.1601302    7.7976406    5.8017704  
   6 H       0.0000000    8.7396440    2.6538549 *  6.4894751    4.7844058  
   7 H       8.7396440    0.0000000    8.7860840    8.1650565    4.9847538  
   8 H       2.6538549 *  8.7860840    0.0000000    4.5185984    6.1475865  
   9 H       6.4894751    8.1650565    4.5185984    0.0000000    8.0332600  
  10 H       4.7844058    4.9847538    6.1475865    8.0332600    0.0000000  
  11 O       2.8512821 *  8.0983902    4.2036002    5.9910066    4.7690077  
  12 O       8.1751804    2.9290009 *  8.6432881    7.8598225    4.7469057  
  13 O       8.9278020    1.9004303 *  8.6893744    7.1624874    5.8758515  
  14 O       1.0076356 *  8.1926355    3.4516024    6.8802704    3.9577579  
  15 O       7.9268825    1.0040835 *  8.1122027    7.9819860    4.0628422  
  16 O       1.7512774 *  8.4330055    0.9930138 *  4.9191173    5.3967388  
  17 O       5.5138825    8.0052753    3.6479411    0.9942000 *  7.3196363  
  18 O       4.6747459    5.0471478    5.8177533    7.9285089    0.9982573 *
  19 O       5.1646247    4.8526371    5.2033962    4.7096189    4.0920759  
  20 C       4.0550117    6.2226289    4.2869062    4.5172799    4.3332072  
  21 C       5.7727340    4.0995422    6.2857780    6.1196816    3.4122742  
  22 C       2.9749770 *  6.6953638    4.1325786    5.7232866    3.5054874  
  23 C       7.1951940    3.2368444    7.3875501    6.4003231    4.5136416  
  24 C       3.8548490    6.8314443    3.1664578    3.2342806    5.1897716  
  25 C       7.4771782    2.3299192 *  7.2681189    6.0787035    4.7955251  
  26 C       1.9644014 *  6.8220045    3.2719533    5.9269563    3.1334043  
  27 C       6.9463717    1.9249116 *  6.8625368    6.5429480    3.8550303  
  28 C       5.5243180    3.2209170    5.7842355    6.3544478    2.5124733 *
  29 C       2.2582807 *  7.0017292    2.0156841 *  4.8400727    4.1763778  
  30 O       5.4142966    3.7459659    6.1773328    6.8070864    2.0825270 *
  31 O       3.5446172    6.3495785    2.5866262 *  3.6329317    4.6204687  
  32 H       4.6494562    6.8847237    4.9726191    4.7826687    5.1284012  
  33 H       5.8818976    4.9056681    6.7340957    6.7467511    3.6481031  
  34 H       3.6942603    6.3232043    5.1454309    6.6230379    2.9090255 *
  35 H       7.5929320    4.0944233    7.6249758    6.0769091    5.4467113  
  36 H       3.3835934    7.8757703    2.7093094 *  3.5012077    5.7416501  
  37 H       7.3377675    3.2378985    6.7767809    5.0932202    5.3672622  
  38 H       2.7556153 *  6.1504611    4.0500251    6.5701226    2.1472570 *
  39 H       7.1333594    2.4481236 *  6.6845623    6.2206639    4.5312481  
  40 H       4.8389141    4.0506172    4.7749678    5.3883514    3.0057853  
  41 H       2.7934424 *  6.8668624    2.3799827 *  5.3508379    4.1472161  
  42 H       5.8805525    7.3124910    4.9036515    2.4720111 *  6.8442888  
  43 H       5.8260398    5.9828953    4.6354075    2.3520331 *  6.0697105  
  44 H       5.7742450    4.1475919    6.0373957    7.5203745    2.8491471 *
  45 H       6.6155838    3.2281335    7.2920682    8.4191006    2.3600677 *

               11 O         12 O         13 O         14 O         15 O     

   1 C       4.2961244    6.1954512    5.9988497    5.4523965    6.6447054  
   2 C       5.9107600    4.6113398    4.8659105    5.0526746    2.7480821 *
   3 H       1.0132005 *  7.3060521    8.5032373    1.7577735 *  7.8533844  
   4 H       6.6548325    0.9929519 *  3.3789275    7.7493125    4.0283235  
   5 H       7.8631596    1.7812239 *  1.0105915 *  8.5874205    2.7523661 *
   6 H       2.8512821 *  8.1751804    8.9278020    1.0076356 *  7.9268825  
   7 H       8.0983902    2.9290009 *  1.9004303 *  8.1926355    1.0040835 *
   8 H       4.2036002    8.6432881    8.6893744    3.4516024    8.1122027  
   9 H       5.9910066    7.8598225    7.1624874    6.8802704    7.9819860  
  10 H       4.7690077    4.7469057    5.8758515    3.9577579    4.0628422  
  11 O       0.0000000    6.6458949    7.8555965    2.5239560 *  7.4773285  
  12 O       6.6458949    0.0000000    2.5230508 *  7.5077549    3.0801764  
  13 O       7.8555965    2.5230508 *  0.0000000    8.4676627    2.5930854 *
  14 O       2.5239560 *  7.5077549    8.4676627    0.0000000    7.3593513  
  15 O       7.4773285    3.0801764    2.5930854 *  7.3593513    0.0000000  
  16 O       3.3299141    8.0909525    8.3979379    2.4885948 *  7.7182432  
  17 O       5.0661600    7.5813854    7.1486698    5.9148766    7.7155314  
  18 O       5.1771754    5.3238192    6.0621681    3.9767987    4.0661846  
  19 O       3.6960380    3.6568401    4.2469172    4.7893689    4.4951477  
  20 C       2.3295522 *  4.9306723    5.7166053    3.7715758    5.7528090  
  21 C       4.2495277    2.4887574 *  3.7680563    5.1735416    3.7224628  
  22 C       1.4522444 *  5.4726064    6.5851805    2.4348826 *  6.0429819  
  23 C       5.6729045    1.4650204 *  2.4273165 *  6.6490636    3.2392886  
  24 C       2.9547264 *  6.0276452    6.2689438    3.9458232    6.3694699  
  25 C       6.4527648    2.3782657 *  1.4696735 *  7.0445522    2.4467822 *
  26 C       2.4463416 *  6.2421101    7.0258172    1.4781613 *  6.0298413  
  27 C       6.4772268    3.1292336    2.4351048 *  6.4910699    1.4459515 *
  28 C       5.2424948    3.6169737    3.7819863    5.0119423    2.4296760 *
  29 C       3.3192797    6.8277952    7.0774768    2.4550647 *  6.2686181  
  30 O       4.5249528    2.9492689 *  4.0969011    4.7212731    3.0645055  
  31 O       3.6901640    6.1679421    6.1180034    3.6811592    5.7720134  
  32 H       2.3144094 *  5.1849080    6.1841480    4.3718154    6.5062424  
  33 H       3.9710331    2.7598403 *  4.5730767    5.1944922    4.5459837  
  34 H       2.1223548 *  4.8929877    6.3509820    2.9211266 *  5.6596179  
  35 H       5.7901887    2.1251834 *  2.8349446 *  7.1167620    4.2378554  
  36 H       2.5797703 *  6.9658608    7.3463277    3.6600944    7.3709560  
  37 H       6.3471735    3.2990002    2.1107269 *  7.0407266    3.3466206  
  38 H       3.3283320    5.8264016    6.6184863    2.1092916 *  5.2827075  
  39 H       6.9680561    4.1385631    2.8632449 *  6.8119920    2.1112211 *
  40 H       4.7129376    4.3234996    4.2821488    4.4872728    3.3599665  
  41 H       4.3295244    7.1323354    7.1651809    2.9844436 *  6.0800606  
  42 H       4.3687912    6.1969674    6.2038690    5.9736773    7.1315028  
  43 H       4.9196931    5.5301809    5.0251639    5.8789685    5.7910896  
  44 H       6.4711191    5.4833031    5.3124198    5.3502202    3.2084681  
  45 H       6.7125075    4.3370040    4.6693338    5.9664535    2.2362601 *

               16 O         17 O         18 O         19 O         20 C     

   1 C       4.0577773    1.4591613 *  6.3816201    2.8049470 *  2.5496061 *
   2 C       5.7082086    7.0093464    1.4686643 *  4.1596382    4.8157471  
   3 H       3.0431331    5.5832452    5.0501544    4.4327259    3.1225429  
   4 H       8.4773077    7.9843992    5.8724560    4.0057961    5.1233824  
   5 H       8.7730976    7.7180178    6.1343146    4.4020377    5.8478339  
   6 H       1.7512774 *  5.5138825    4.6747459    5.1646247    4.0550117  
   7 H       8.4330055    8.0052753    5.0471478    4.8526371    6.2226289  
   8 H       0.9930138 *  3.6479411    5.8177533    5.2033962    4.2869062  
   9 H       4.9191173    0.9942000 *  7.9285089    4.7096189    4.5172799  
  10 H       5.3967388    7.3196363    0.9982573 *  4.0920759    4.3332072  
  11 O       3.3299141    5.0661600    5.1771754    3.6960380    2.3295522 *
  12 O       8.0909525    7.5813854    5.3238192    3.6568401    4.9306723  
  13 O       8.3979379    7.1486698    6.0621681    4.2469172    5.7166053  
  14 O       2.4885948 *  5.9148766    3.9767987    4.7893689    3.7715758  
  15 O       7.7182432    7.7155314    4.0661846    4.4951477    5.7528090  
  16 O       0.0000000    3.9735095    5.1628202    4.7100392    3.6830238  
  17 O       3.9735095    0.0000000    7.2308155    4.1837924    3.7638194  
  18 O       5.1628202    7.2308155    0.0000000    4.4379699    4.6783388  
  19 O       4.7100392    4.1837924    4.4379699    0.0000000    1.4702900 *
  20 C       3.6830238    3.7638194    4.6783388    1.4702900 *  0.0000000  
  21 C       5.6749006    5.6166082    3.9768062    1.4376379 *  2.5098572 *
  22 C       3.2719969    4.8518381    3.9026456    2.5938281 *  1.5464639 *
  23 C       6.9017778    6.1197725    4.9881480    2.3165869 *  3.6961577  
  24 C       2.8518627 *  2.3731489 *  5.2685813    2.3736672 *  1.5175816 *
  25 C       6.9441736    5.9280356    4.9776434    2.8481050 *  4.3055346  
  26 C       2.3874227 *  5.0230774    3.1456830    3.4431535    2.6580023 *
  27 C       6.5289587    6.2726644    3.8086836    3.3142018    4.5785825  
  28 C       5.3178581    5.8659118    2.4595305 *  2.7583241 *  3.6735494  
  29 C       1.4575090 *  3.9621156    3.9033739    3.6627781    2.9736093 *
  30 O       5.5246982    6.2331397    2.6193305 *  2.3837030 *  3.1870715  
  31 O       2.3908950 *  2.8477090 *  4.4323910    2.8098614 *  2.4203707 *
  32 H       4.3713971    4.0827707    5.5969930    2.1003545 *  1.0965810 *
  33 H       6.0215806    6.1865906    4.4034738    2.1203903 *  2.7054992 *
  34 H       4.2597892    5.8052960    3.5486471    2.7765232 *  2.1896793 *
  35 H       7.1837077    5.8851088    5.9418880    2.4811154 *  3.7500778  
  36 H       2.3733141 *  2.5344588 *  5.8220349    3.3260748    2.1290916 *
  37 H       6.5702692    5.0413565    5.4631765    2.6875219 *  4.0669458  
  38 H       3.2602948    5.7357578    2.0602664 *  3.5952885    3.2234876  
  39 H       6.5034112    6.0415652    4.2660914    3.8467005    5.0235802  
  40 H       4.3850933    4.8588155    2.8269085 *  2.3737773 *  3.0698193  
  41 H       2.1137644 *  4.5720359    3.6240940    4.2964859    3.8861797  
  42 H       4.8036588    2.1356039 *  7.0398173    3.0147844    2.7174482 *
  43 H       4.6252928    2.1435576 *  6.0879980    2.5008758 *  2.8325739 *
  44 H       5.6829821    7.0146416    2.0697651 *  4.7653605    5.3665790  
  45 H       6.7768243    7.9229922    2.1287006 *  4.7664061    5.5810535  

               21 C         22 C         23 C         24 C         25 C     

   1 C       4.2388810    3.8812078    4.7366938    1.5149303 *  4.7336551  
   2 C       3.6770940    4.4997673    4.2874472    5.3086326    3.9124690  
   3 H       4.9102947    1.9190326 *  6.3917435    3.5425111    7.0815289  
   4 H       2.8072198 *  5.6250464    2.0265552 *  6.3552031    3.2492609  
   5 H       3.6400510    6.6218207    2.2251246 *  6.6176625    1.9419918 *
   6 H       5.7727340    2.9749770 *  7.1951940    3.8548490    7.4771782  
   7 H       4.0995422    6.6953638    3.2368444    6.8314443    2.3299192 *
   8 H       6.2857780    4.1325786    7.3875501    3.1664578    7.2681189  
   9 H       6.1196816    5.7232866    6.4003231    3.2342806    6.0787035  
  10 H       3.4122742    3.5054874    4.5136416    5.1897716    4.7955251  
  11 O       4.2495277    1.4522444 *  5.6729045    2.9547264 *  6.4527648  
  12 O       2.4887574 *  5.4726064    1.4650204 *  6.0276452    2.3782657 *
  13 O       3.7680563    6.5851805    2.4273165 *  6.2689438    1.4696735 *
  14 O       5.1735416    2.4348826 *  6.6490636    3.9458232    7.0445522  
  15 O       3.7224628    6.0429819    3.2392886    6.3694699    2.4467822 *
  16 O       5.6749006    3.2719969    6.9017778    2.8518627 *  6.9441736  
  17 O       5.6166082    4.8518381    6.1197725    2.3731489 *  5.9280356  
  18 O       3.9768062    3.9026456    4.9881480    5.2685813    4.9776434  
  19 O       1.4376379 *  2.5938281 *  2.3165869 *  2.3736672 *  2.8481050 *
  20 C       2.5098572 *  1.5464639 *  3.6961577    1.5175816 *  4.3055346  
  21 C       0.0000000    3.0285136    1.5288848 *  3.7073717    2.5390284 *
  22 C       3.0285136    0.0000000    4.5035328    2.4908005 *  5.1696176  
  23 C       1.5288848 *  4.5035328    0.0000000    4.6587249    1.5445312 *
  24 C       3.7073717    2.4908005 *  4.6587249    0.0000000    4.8487493  
  25 C       2.5390284 *  5.1696176    1.5445312 *  4.8487493    0.0000000  
  26 C       3.8883302    1.5716351 *  5.2997963    2.9036870 *  5.5925145  
  27 C       2.9230931 *  5.0631964    2.6053587 *  5.0265714    1.5606190 *
  28 C       2.4128488 *  3.7949833    2.9477181 *  4.2108469    2.5804846 *
  29 C       4.5054622    2.6263964 *  5.6879407    2.3991336 *  5.6357819  
  30 O       1.4341924 *  3.1266567    2.4480231 *  4.2212199    2.9178214 *
  31 O       3.9416979    2.8718813 *  4.8703618    1.4863384 *  4.6905900  
  32 H       2.9592368 *  2.1162083 *  4.0142769    2.1573295 *  4.8727848  
  33 H       1.0963640 *  2.9742664 *  2.1904786 *  4.1388412    3.5038213  
  34 H       2.6503118 *  1.0980094 *  4.1740397    3.4345904    5.0285910  
  35 H       2.1409088 *  4.8117170    1.0965064 *  4.6540466    2.1673777 *
  36 H       4.5722822    2.6582948 *  5.6359800    1.0914287 *  5.9224513  
  37 H       2.9364591 *  5.1601271    2.1557813 *  4.3160207    1.0900321 *
  38 H       3.7052658    2.2011855 *  5.0580171    3.6438443    5.2575098  
  39 H       3.7994463    5.5839983    3.4857321    5.1503582    2.1601675 *
  40 H       2.6313842 *  3.3281637    3.3339782    3.2926456    2.9230810 *
  41 H       4.9992119    3.5127699    6.0735917    3.3171866    5.7922619  
  42 H       4.3649087    4.1568297    4.7737808    2.1418733 *  5.0280338  
  43 H       3.8425029    4.2055947    4.0710508    2.1199032 *  3.8184994  
  44 H       4.5288310    5.1021428    5.0553125    5.5760344    4.4075425  
  45 H       4.0055582    5.2965951    4.3615780    6.2181827    4.0005894  

               26 C         27 C         28 C         29 C         30 O     

   1 C       4.3681904    5.2320314    4.8379787    3.6653473    5.0097483  
   2 C       3.9206951    2.5346073 *  1.5309197 *  4.2932105    2.3626470 *
   3 H       2.2559729 *  6.9061589    5.5487954    3.2238316    4.9212885  
   4 H       6.5805093    4.0737007    4.3808827    7.2989099    3.4503191  
   5 H       7.1980997    2.8893204 *  4.0395041    7.4547572    4.0134852  
   6 H       1.9644014 *  6.9463717    5.5243180    2.2582807 *  5.4142966  
   7 H       6.8220045    1.9249116 *  3.2209170    7.0017292    3.7459659  
   8 H       3.2719533    6.8625368    5.7842355    2.0156841 *  6.1773328  
   9 H       5.9269563    6.5429480    6.3544478    4.8400727    6.8070864  
  10 H       3.1334043    3.8550303    2.5124733 *  4.1763778    2.0825270 *
  11 O       2.4463416 *  6.4772268    5.2424948    3.3192797    4.5249528  
  12 O       6.2421101    3.1292336    3.6169737    6.8277952    2.9492689 *
  13 O       7.0258172    2.4351048 *  3.7819863    7.0774768    4.0969011  
  14 O       1.4781613 *  6.4910699    5.0119423    2.4550647 *  4.7212731  
  15 O       6.0298413    1.4459515 *  2.4296760 *  6.2686181    3.0645055  
  16 O       2.3874227 *  6.5289587    5.3178581    1.4575090 *  5.5246982  
  17 O       5.0230774    6.2726644    5.8659118    3.9621156    6.2331397  
  18 O       3.1456830    3.8086836    2.4595305 *  3.9033739    2.6193305 *
  19 O       3.4431535    3.3142018    2.7583241 *  3.6627781    2.3837030 *
  20 C       2.6580023 *  4.5785825    3.6735494    2.9736093 *  3.1870715  
  21 C       3.8883302    2.9230931 *  2.4128488 *  4.5054622    1.4341924 *
  22 C       1.5716351 *  5.0631964    3.7949833    2.6263964 *  3.1266567  
  23 C       5.2997963    2.6053587 *  2.9477181 *  5.6879407    2.4480231 *
  24 C       2.9036870 *  5.0265714    4.2108469    2.3991336 *  4.2212199  
  25 C       5.5925145    1.5606190 *  2.5804846 *  5.6357819    2.9178214 *
  26 C       0.0000000    5.0681569    3.6312911    1.5488558 *  3.4601301  
  27 C       5.0681569    0.0000000    1.5273992 *  5.1054012    2.4986620 *
  28 C       3.6312911    1.5273992 *  0.0000000    3.8749689    1.4927668 *
  29 C       1.5488558 *  5.1054012    3.8749689    0.0000000    4.2088449  
  30 O       3.4601301    2.4986620 *  1.4927668 *  4.2088449    0.0000000  
  31 O       2.4895185 *  4.4358743    3.5259444    1.4318821 *  3.9860082  
  32 H       3.5047563    5.3912582    4.6052519    3.9183163    3.9040330  
  33 H       4.1178902    3.9399518    3.3344018    5.0007036    2.0289469 *
  34 H       2.1706147 *  4.8969593    3.6288579    3.4764778    2.6036238 *
  35 H       5.8010025    3.5148097    3.8851202    6.1043944    3.3719323  
  36 H       3.0077675    6.0570549    5.1222349    2.5157915 *  5.0358172  
  37 H       5.5727490    2.1846274 *  3.0182961    5.3598678    3.5102865  
  38 H       1.0906460 *  4.4955299    2.9809682 *  2.1538948 *  2.8966442 *
  39 H       5.3855338    1.1034219 *  2.1271341 *  5.1109882    3.4069099  
  40 H       3.0396542    2.1562235 *  1.0915865 *  2.9526378 *  2.0965716 *
  41 H       2.1920975 *  5.0020269    3.8090274    1.0943230 *  4.4496686  
  42 H       4.9682378    5.7784316    5.4538459    4.5110928    5.3776160  
  43 H       4.6134974    4.3702557    4.2295666    3.9204892    4.5856232  
  44 H       4.2660461    2.9173748 *  2.1719634 *  4.3027597    3.3283830  
  45 H       4.8809465    2.6292406 *  2.1338655 *  5.3626513    2.6912362 *

               31 O         32 H         33 H         34 H         35 H     

   1 C       2.3968063 *  2.8583848 *  4.7847041    4.7017148    4.4772667  
   2 C       4.3894516    5.7805560    4.3884626    4.2206012    5.3022716  
   3 H       3.9667889    3.2911321    4.6719720    2.5033955 *  6.6229591  
   4 H       6.6820238    5.1837882    2.6918963 *  4.9614151    2.3269950 *
   5 H       6.5861274    6.2113398    4.2503164    6.2377355    2.6558538 *
   6 H       3.5446172    4.6494562    5.8818976    3.6942603    7.5929320  
   7 H       6.3495785    6.8847237    4.9056681    6.3232043    4.0944233  
   8 H       2.5866262 *  4.9726191    6.7340957    5.1454309    7.6249758  
   9 H       3.6329317    4.7826687    6.7467511    6.6230379    6.0769091  
  10 H       4.6204687    5.1284012    3.6481031    2.9090255 *  5.4467113  
  11 O       3.6901640    2.3144094 *  3.9710331    2.1223548 *  5.7901887  
  12 O       6.1679421    5.1849080    2.7598403 *  4.8929877    2.1251834 *
  13 O       6.1180034    6.1841480    4.5730767    6.3509820    2.8349446 *
  14 O       3.6811592    4.3718154    5.1944922    2.9211266 *  7.1167620  
  15 O       5.7720134    6.5062424    4.5459837    5.6596179    4.2378554  
  16 O       2.3908950 *  4.3713971    6.0215806    4.2597892    7.1837077  
  17 O       2.8477090 *  4.0827707    6.1865906    5.8052960    5.8851088  
  18 O       4.4323910    5.5969930    4.4034738    3.5486471    5.9418880  
  19 O       2.8098614 *  2.1003545 *  2.1203903 *  2.7765232 *  2.4811154 *
  20 C       2.4203707 *  1.0965810 *  2.7054992 *  2.1896793 *  3.7500778  
  21 C       3.9416979    2.9592368 *  1.0963640 *  2.6503118 *  2.1409088 *
  22 C       2.8718813 *  2.1162083 *  2.9742664 *  1.0980094 *  4.8117170  
  23 C       4.8703618    4.0142769    2.1904786 *  4.1740397    1.0965064 *
  24 C       1.4863384 *  2.1573295 *  4.1388412    3.4345904    4.6540466  
  25 C       4.6905900    4.8727848    3.5038213    5.0285910    2.1673777 *
  26 C       2.4895185 *  3.5047563    4.1178902    2.1706147 *  5.8010025  
  27 C       4.4358743    5.3912582    3.9399518    4.8969593    3.5148097  
  28 C       3.5259444    4.6052519    3.3344018    3.6288579    3.8851202  
  29 C       1.4318821 *  3.9183163    5.0007036    3.4764778    6.1043944  
  30 O       3.9860082    3.9040330    2.0289469 *  2.6036238 *  3.3719323  
  31 O       0.0000000    3.3852848    4.6067711    3.7302987    5.1443573  
  32 H       3.3852848    0.0000000    2.8214020 *  2.5920905 *  3.8151605  
  33 H       4.6067711    2.8214020 *  0.0000000    2.3473271 *  2.5443718 *
  34 H       3.7302987    2.5920905 *  2.3473271 *  0.0000000    4.5990304  
  35 H       5.1443573    3.8151605    2.5443718 *  4.5990304    0.0000000  
  36 H       2.1130103 *  2.4583110 *  4.8289298    3.7223797    5.5922579  
  37 H       4.2153784    4.6254645    3.9281407    5.2426852    2.3528435 *
  38 H       2.9810821 *  4.1414266    4.0191318    2.3273636 *  5.7410620  
  39 H       4.3594141    5.9066290    4.8686349    5.5968769    4.2392821  
  40 H       2.4631155 *  4.1018815    3.5766793    3.4853045    4.0616665  
  41 H       2.0151495 *  4.8998875    5.6131465    4.1928892    6.6150320  
  42 H       3.3527538    2.5886416 *  4.7239640    4.8893852    4.2885540  
  43 H       2.5111737 *  3.3099339    4.5794377    4.8678943    3.8700707  
  44 H       4.4270672    6.4031666    5.3304337    5.0071831    6.0234409  
  45 H       5.3967234    6.4646643    4.6445713    4.8449240    5.4428863  

               36 H         37 H         38 H         39 H         40 H     

   1 C       2.1667632 *  3.9305762    4.9948813    5.2062716    3.9419514  
   2 C       6.0765330    4.4467360    2.9607829 *  2.9191586 *  2.2016703 *
   3 H       3.0584547    7.0146623    3.1414671    7.3534124    5.0190328  
   4 H       7.2148777    4.0532934    6.2412256    5.0928581    5.0329497  
   5 H       7.6611234    2.7816419 *  6.7625778    3.5773314    4.6788583  
   6 H       3.3835934    7.3377675    2.7556153 *  7.1333594    4.8389141  
   7 H       7.8757703    3.2378985    6.1504611    2.4481236 *  4.0506172  
   8 H       2.7093094 *  6.7767809    4.0500251    6.6845623    4.7749678  
   9 H       3.5012077    5.0932202    6.5701226    6.2206639    5.3883514  
  10 H       5.7416501    5.3672622    2.1472570 *  4.5312481    3.0057853  
  11 O       2.5797703 *  6.3471735    3.3283320    6.9680561    4.7129376  
  12 O       6.9658608    3.2990002    5.8264016    4.1385631    4.3234996  
  13 O       7.3463277    2.1107269 *  6.6184863    2.8632449 *  4.2821488  
  14 O       3.6600944    7.0407266    2.1092916 *  6.8119920    4.4872728  
  15 O       7.3709560    3.3466206    5.2827075    2.1112211 *  3.3599665  
  16 O       2.3733141 *  6.5702692    3.2602948    6.5034112    4.3850933  
  17 O       2.5344588 *  5.0413565    5.7357578    6.0415652    4.8588155  
  18 O       5.8220349    5.4631765    2.0602664 *  4.2660914    2.8269085 *
  19 O       3.3260748    2.6875219 *  3.5952885    3.8467005    2.3737773 *
  20 C       2.1290916 *  4.0669458    3.2234876    5.0235802    3.0698193  
  21 C       4.5722822    2.9364591 *  3.7052658    3.7994463    2.6313842 *
  22 C       2.6582948 *  5.1601271    2.2011855 *  5.5839983    3.3281637  
  23 C       5.6359800    2.1557813 *  5.0580171    3.4857321    3.3339782  
  24 C       1.0914287 *  4.3160207    3.6438443    5.1503582    3.2926456  
  25 C       5.9224513    1.0900321 *  5.2575098    2.1601675 *  2.9230810 *
  26 C       3.0077675    5.5727490    1.0906460 *  5.3855338    3.0396542  
  27 C       6.0570549    2.1846274 *  4.4955299    1.1034219 *  2.1562235 *
  28 C       5.1222349    3.0182961    2.9809682 *  2.1271341 *  1.0915865 *
  29 C       2.5157915 *  5.3598678    2.1538948 *  5.1109882    2.9526378 *
  30 O       5.0358172    3.5102865    2.8966442 *  3.4069099    2.0965716 *
  31 O       2.1130103 *  4.2153784    2.9810821 *  4.3594141    2.4631155 *
  32 H       2.4583110 *  4.6254645    4.1414266    5.9066290    4.1018815  
  33 H       4.8289298    3.9281407    4.0191318    4.8686349    3.5766793  
  34 H       3.7223797    5.2426852    2.3273636 *  5.5968769    3.4853045  
  35 H       5.5922579    2.3528435 *  5.7410620    4.2392821    4.0616665  
  36 H       0.0000000    5.4035431    3.9616013    6.1797918    4.2028032  
  37 H       5.4035431    0.0000000    5.4112941    2.3348939 *  2.9643880 *
  38 H       3.9616013    5.4112941    0.0000000    4.8631037    2.6348256 *
  39 H       6.1797918    2.3348939 *  4.8631037    0.0000000    2.3552789 *
  40 H       4.2028032    2.9643880 *  2.6348256 *  2.3552789 *  0.0000000  
  41 H       3.5418952    5.5636891    2.3262757 *  4.8559975    2.9404142 *
  42 H       2.5821593 *  4.2590350    5.6377655    5.8879599    4.6811784  
  43 H       3.0397480    2.9282747 *  5.0206658    4.2739482    3.4060243  
  44 H       6.3204518    4.7807774    3.3598054    2.8874614 *  2.4918581 *
  45 H       7.0280558    4.7400413    3.8957363    3.1603753    3.0650284  

               41 H         42 H         43 H         44 H         45 H     

   1 C       4.3948809    1.1011544 *  1.0955481 *  6.3226255    6.9569292  
   2 C       3.9283453    6.8212058    5.5954540    1.0919350 *  1.0925740 *
   3 H       4.1295534    5.1918103    5.5993894    6.4631475    6.8157659  
   4 H       7.7098970    6.4040203    6.0006356    6.2879241    5.0838938  
   5 H       7.6112654    6.5577502    5.5761920    5.6697671    4.7338776  
   6 H       2.7934424 *  5.8805525    5.8260398    5.7742450    6.6155838  
   7 H       6.8668624    7.3124910    5.9828953    4.1475919    3.2281335  
   8 H       2.3799827 *  4.9036515    4.6354075    6.0373957    7.2920682  
   9 H       5.3508379    2.4720111 *  2.3520331 *  7.5203745    8.4191006  
  10 H       4.1472161    6.8442888    6.0697105    2.8491471 *  2.3600677 *
  11 O       4.3295244    4.3687912    4.9196931    6.4711191    6.7125075  
  12 O       7.1323354    6.1969674    5.5301809    5.4833031    4.3370040  
  13 O       7.1651809    6.2038690    5.0251639    5.3124198    4.6693338  
  14 O       2.9844436 *  5.9736773    5.8789685    5.3502202    5.9664535  
  15 O       6.0800606    7.1315028    5.7910896    3.2084681    2.2362601 *
  16 O       2.1137644 *  4.8036588    4.6252928    5.6829821    6.7768243  
  17 O       4.5720359    2.1356039 *  2.1435576 *  7.0146416    7.9229922  
  18 O       3.6240940    7.0398173    6.0879980    2.0697651 *  2.1287006 *
  19 O       4.2964859    3.0147844    2.5008758 *  4.7653605    4.7664061  
  20 C       3.8861797    2.7174482 *  2.8325739 *  5.3665790    5.5810535  
  21 C       4.9992119    4.3649087    3.8425029    4.5288310    4.0055582  
  22 C       3.5127699    4.1568297    4.2055947    5.1021428    5.2965951  
  23 C       6.0735917    4.7737808    4.0710508    5.0553125    4.3615780  
  24 C       3.3171866    2.1418733 *  2.1199032 *  5.5760344    6.2181827  
  25 C       5.7922619    5.0280338    3.8184994    4.4075425    4.0005894  
  26 C       2.1920975 *  4.9682378    4.6134974    4.2660461    4.8809465  
  27 C       5.0020269    5.7784316    4.3702557    2.9173748 *  2.6292406 *
  28 C       3.8090274    5.4538459    4.2295666    2.1719634 *  2.1338655 *
  29 C       1.0943230 *  4.5110928    3.9204892    4.3027597    5.3626513  
  30 O       4.4496686    5.3776160    4.5856232    3.3283830    2.6912362 *
  31 O       2.0151495 *  3.3527538    2.5111737 *  4.4270672    5.3967234  
  32 H       4.8998875    2.5886416 *  3.3099339    6.4031666    6.4646643  
  33 H       5.6131465    4.7239640    4.5794377    5.3304337    4.6445713  
  34 H       4.1928892    4.8893852    4.8678943    5.0071831    4.8449240  
  35 H       6.6150320    4.2885540    3.8700707    6.0234409    5.4428863  
  36 H       3.5418952    2.5821593 *  3.0397480    6.3204518    7.0280558  
  37 H       5.5636891    4.2590350    2.9282747 *  4.7807774    4.7400413  
  38 H       2.3262757 *  5.6377655    5.0206658    3.3598054    3.8957363  
  39 H       4.8559975    5.8879599    4.2739482    2.8874614 *  3.1603753  
  40 H       2.9404142 *  4.6811784    3.4060243    2.4918581 *  3.0650284  
  41 H       0.0000000    5.3426418    4.4580860    3.6877276    5.0204360  
  42 H       5.3426418    0.0000000    1.7856890 *  7.1427609    7.5759130  
  43 H       4.4580860    1.7856890 *  0.0000000    5.7642936    6.3478956  
  44 H       3.6877276    7.1427609    5.7642936    0.0000000    1.7875135 *
  45 H       5.0204360    7.5759130    6.3478956    1.7875135 *  0.0000000  

  * ... LESS THAN  3.000


     ATOMIC BASIS SET
     ----------------
 THE CONTRACTED PRIMITIVE FUNCTIONS HAVE BEEN UNNORMALIZED
 THE CONTRACTED BASIS FUNCTIONS ARE NOW NORMALIZED TO UNITY

  SHELL TYPE  PRIMITIVE        EXPONENT          CONTRACTION COEFFICIENT(S)

 C         

      1   S       1           172.2560000    0.061766907377
      1   S       2            25.9109000    0.358794042852
      1   S       3             5.5333500    0.700713083689

      2   L       4             3.6649800   -0.395895162119    0.236459946619
      2   L       5             0.7705450    1.215834355681    0.860618805716

      3   L       6             0.1958570    1.000000000000    1.000000000000

 C         

      4   S       7           172.2560000    0.061766907377
      4   S       8            25.9109000    0.358794042852
      4   S       9             5.5333500    0.700713083689

      5   L      10             3.6649800   -0.395895162119    0.236459946619
      5   L      11             0.7705450    1.215834355681    0.860618805716

      6   L      12             0.1958570    1.000000000000    1.000000000000

 H         

      7   S      13             5.4471780    0.156284978695
      7   S      14             0.8245472    0.904690876670

      8   S      15             0.1831916    1.000000000000

 H         

      9   S      16             5.4471780    0.156284978695
      9   S      17             0.8245472    0.904690876670

     10   S      18             0.1831916    1.000000000000

 H         

     11   S      19             5.4471780    0.156284978695
     11   S      20             0.8245472    0.904690876670

     12   S      21             0.1831916    1.000000000000

 H         

     13   S      22             5.4471780    0.156284978695
     13   S      23             0.8245472    0.904690876670

     14   S      24             0.1831916    1.000000000000

 H         

     15   S      25             5.4471780    0.156284978695
     15   S      26             0.8245472    0.904690876670

     16   S      27             0.1831916    1.000000000000

 H         

     17   S      28             5.4471780    0.156284978695
     17   S      29             0.8245472    0.904690876670

     18   S      30             0.1831916    1.000000000000

 H         

     19   S      31             5.4471780    0.156284978695
     19   S      32             0.8245472    0.904690876670

     20   S      33             0.1831916    1.000000000000

 H         

     21   S      34             5.4471780    0.156284978695
     21   S      35             0.8245472    0.904690876670

     22   S      36             0.1831916    1.000000000000

 O         

     23   S      37           322.0370000    0.059239393389
     23   S      38            48.4308000    0.351499960776
     23   S      39            10.4206000    0.707657921031

     24   L      40             7.4029400   -0.404453583190    0.244586106967
     24   L      41             1.5762000    1.221561761397    0.853955373466

     25   L      42             0.3736840    1.000000000000    1.000000000000

 O         

     26   S      43           322.0370000    0.059239393389
     26   S      44            48.4308000    0.351499960776
     26   S      45            10.4206000    0.707657921031

     27   L      46             7.4029400   -0.404453583190    0.244586106967
     27   L      47             1.5762000    1.221561761397    0.853955373466

     28   L      48             0.3736840    1.000000000000    1.000000000000

 O         

     29   S      49           322.0370000    0.059239393389
     29   S      50            48.4308000    0.351499960776
     29   S      51            10.4206000    0.707657921031

     30   L      52             7.4029400   -0.404453583190    0.244586106967
     30   L      53             1.5762000    1.221561761397    0.853955373466

     31   L      54             0.3736840    1.000000000000    1.000000000000

 O         

     32   S      55           322.0370000    0.059239393389
     32   S      56            48.4308000    0.351499960776
     32   S      57            10.4206000    0.707657921031

     33   L      58             7.4029400   -0.404453583190    0.244586106967
     33   L      59             1.5762000    1.221561761397    0.853955373466

     34   L      60             0.3736840    1.000000000000    1.000000000000

 O         

     35   S      61           322.0370000    0.059239393389
     35   S      62            48.4308000    0.351499960776
     35   S      63            10.4206000    0.707657921031

     36   L      64             7.4029400   -0.404453583190    0.244586106967
     36   L      65             1.5762000    1.221561761397    0.853955373466

     37   L      66             0.3736840    1.000000000000    1.000000000000

 O         

     38   S      67           322.0370000    0.059239393389
     38   S      68            48.4308000    0.351499960776
     38   S      69            10.4206000    0.707657921031

     39   L      70             7.4029400   -0.404453583190    0.244586106967
     39   L      71             1.5762000    1.221561761397    0.853955373466

     40   L      72             0.3736840    1.000000000000    1.000000000000

 O         

     41   S      73           322.0370000    0.059239393389
     41   S      74            48.4308000    0.351499960776
     41   S      75            10.4206000    0.707657921031

     42   L      76             7.4029400   -0.404453583190    0.244586106967
     42   L      77             1.5762000    1.221561761397    0.853955373466

     43   L      78             0.3736840    1.000000000000    1.000000000000

 O         

     44   S      79           322.0370000    0.059239393389
     44   S      80            48.4308000    0.351499960776
     44   S      81            10.4206000    0.707657921031

     45   L      82             7.4029400   -0.404453583190    0.244586106967
     45   L      83             1.5762000    1.221561761397    0.853955373466

     46   L      84             0.3736840    1.000000000000    1.000000000000

 O         

     47   S      85           322.0370000    0.059239393389
     47   S      86            48.4308000    0.351499960776
     47   S      87            10.4206000    0.707657921031

     48   L      88             7.4029400   -0.404453583190    0.244586106967
     48   L      89             1.5762000    1.221561761397    0.853955373466

     49   L      90             0.3736840    1.000000000000    1.000000000000

 C         

     50   S      91           172.2560000    0.061766907377
     50   S      92            25.9109000    0.358794042852
     50   S      93             5.5333500    0.700713083689

     51   L      94             3.6649800   -0.395895162119    0.236459946619
     51   L      95             0.7705450    1.215834355681    0.860618805716

     52   L      96             0.1958570    1.000000000000    1.000000000000

 C         

     53   S      97           172.2560000    0.061766907377
     53   S      98            25.9109000    0.358794042852
     53   S      99             5.5333500    0.700713083689

     54   L     100             3.6649800   -0.395895162119    0.236459946619
     54   L     101             0.7705450    1.215834355681    0.860618805716

     55   L     102             0.1958570    1.000000000000    1.000000000000

 C         

     56   S     103           172.2560000    0.061766907377
     56   S     104            25.9109000    0.358794042852
     56   S     105             5.5333500    0.700713083689

     57   L     106             3.6649800   -0.395895162119    0.236459946619
     57   L     107             0.7705450    1.215834355681    0.860618805716

     58   L     108             0.1958570    1.000000000000    1.000000000000

 C         

     59   S     109           172.2560000    0.061766907377
     59   S     110            25.9109000    0.358794042852
     59   S     111             5.5333500    0.700713083689

     60   L     112             3.6649800   -0.395895162119    0.236459946619
     60   L     113             0.7705450    1.215834355681    0.860618805716

     61   L     114             0.1958570    1.000000000000    1.000000000000

 C         

     62   S     115           172.2560000    0.061766907377
     62   S     116            25.9109000    0.358794042852
     62   S     117             5.5333500    0.700713083689

     63   L     118             3.6649800   -0.395895162119    0.236459946619
     63   L     119             0.7705450    1.215834355681    0.860618805716

     64   L     120             0.1958570    1.000000000000    1.000000000000

 C         

     65   S     121           172.2560000    0.061766907377
     65   S     122            25.9109000    0.358794042852
     65   S     123             5.5333500    0.700713083689

     66   L     124             3.6649800   -0.395895162119    0.236459946619
     66   L     125             0.7705450    1.215834355681    0.860618805716

     67   L     126             0.1958570    1.000000000000    1.000000000000

 C         

     68   S     127           172.2560000    0.061766907377
     68   S     128            25.9109000    0.358794042852
     68   S     129             5.5333500    0.700713083689

     69   L     130             3.6649800   -0.395895162119    0.236459946619
     69   L     131             0.7705450    1.215834355681    0.860618805716

     70   L     132             0.1958570    1.000000000000    1.000000000000

 C         

     71   S     133           172.2560000    0.061766907377
     71   S     134            25.9109000    0.358794042852
     71   S     135             5.5333500    0.700713083689

     72   L     136             3.6649800   -0.395895162119    0.236459946619
     72   L     137             0.7705450    1.215834355681    0.860618805716

     73   L     138             0.1958570    1.000000000000    1.000000000000

 C         

     74   S     139           172.2560000    0.061766907377
     74   S     140            25.9109000    0.358794042852
     74   S     141             5.5333500    0.700713083689

     75   L     142             3.6649800   -0.395895162119    0.236459946619
     75   L     143             0.7705450    1.215834355681    0.860618805716

     76   L     144             0.1958570    1.000000000000    1.000000000000

 C         

     77   S     145           172.2560000    0.061766907377
     77   S     146            25.9109000    0.358794042852
     77   S     147             5.5333500    0.700713083689

     78   L     148             3.6649800   -0.395895162119    0.236459946619
     78   L     149             0.7705450    1.215834355681    0.860618805716

     79   L     150             0.1958570    1.000000000000    1.000000000000

 O         

     80   S     151           322.0370000    0.059239393389
     80   S     152            48.4308000    0.351499960776
     80   S     153            10.4206000    0.707657921031

     81   L     154             7.4029400   -0.404453583190    0.244586106967
     81   L     155             1.5762000    1.221561761397    0.853955373466

     82   L     156             0.3736840    1.000000000000    1.000000000000

 O         

     83   S     157           322.0370000    0.059239393389
     83   S     158            48.4308000    0.351499960776
     83   S     159            10.4206000    0.707657921031

     84   L     160             7.4029400   -0.404453583190    0.244586106967
     84   L     161             1.5762000    1.221561761397    0.853955373466

     85   L     162             0.3736840    1.000000000000    1.000000000000

 H         

     86   S     163             5.4471780    0.156284978695
     86   S     164             0.8245472    0.904690876670

     87   S     165             0.1831916    1.000000000000

 H         

     88   S     166             5.4471780    0.156284978695
     88   S     167             0.8245472    0.904690876670

     89   S     168             0.1831916    1.000000000000

 H         

     90   S     169             5.4471780    0.156284978695
     90   S     170             0.8245472    0.904690876670

     91   S     171             0.1831916    1.000000000000

 H         

     92   S     172             5.4471780    0.156284978695
     92   S     173             0.8245472    0.904690876670

     93   S     174             0.1831916    1.000000000000

 H         

     94   S     175             5.4471780    0.156284978695
     94   S     176             0.8245472    0.904690876670

     95   S     177             0.1831916    1.000000000000

 H         

     96   S     178             5.4471780    0.156284978695
     96   S     179             0.8245472    0.904690876670

     97   S     180             0.1831916    1.000000000000

 H         

     98   S     181             5.4471780    0.156284978695
     98   S     182             0.8245472    0.904690876670

     99   S     183             0.1831916    1.000000000000

 H         

    100   S     184             5.4471780    0.156284978695
    100   S     185             0.8245472    0.904690876670

    101   S     186             0.1831916    1.000000000000

 H         

    102   S     187             5.4471780    0.156284978695
    102   S     188             0.8245472    0.904690876670

    103   S     189             0.1831916    1.000000000000

 H         

    104   S     190             5.4471780    0.156284978695
    104   S     191             0.8245472    0.904690876670

    105   S     192             0.1831916    1.000000000000

 H         

    106   S     193             5.4471780    0.156284978695
    106   S     194             0.8245472    0.904690876670

    107   S     195             0.1831916    1.000000000000

 H         

    108   S     196             5.4471780    0.156284978695
    108   S     197             0.8245472    0.904690876670

    109   S     198             0.1831916    1.000000000000

 H         

    110   S     199             5.4471780    0.156284978695
    110   S     200             0.8245472    0.904690876670

    111   S     201             0.1831916    1.000000000000

 H         

    112   S     202             5.4471780    0.156284978695
    112   S     203             0.8245472    0.904690876670

    113   S     204             0.1831916    1.000000000000

 TOTAL NUMBER OF BASIS SET SHELLS             =  113
 NUMBER OF CARTESIAN GAUSSIAN BASIS FUNCTIONS =  251
 NUMBER OF ELECTRONS                          =  182
 CHARGE OF MOLECULE                           =    0
 SPIN MULTIPLICITY                            =    1
 NUMBER OF OCCUPIED ORBITALS (ALPHA)          =   91
 NUMBER OF OCCUPIED ORBITALS (BETA )          =   91
 TOTAL NUMBER OF ATOMS                        =   45
 THE NUCLEAR REPULSION ENERGY IS     2412.1739742860

     $CONTRL OPTIONS
     ---------------
 SCFTYP=RHF          RUNTYP=ENERGY       EXETYP=RUN     
 MPLEVL=       0     CITYP =NONE         CCTYP =NONE         VBTYP =NONE    
 DFTTYP=NONE         TDDFT =NONE    
 MULT  =       1     ICHARG=       0     NZVAR =       0     COORD =UNIQUE  
 PP    =NONE         RELWFN=NONE         LOCAL =NONE         NUMGRD=       F
 ISPHER=      -1     NOSYM =       0     MAXIT =      60     UNITS =ANGS    
 PLTORB=       F     MOLPLT=       F     AIMPAC=       F     FRIEND=        
 NPRINT=       7     IREST =       0     GEOM  =INPUT   
 NORMF =       0     NORMP =       0     ITOL  =      20     ICUT  =       9
 INTTYP=BEST         GRDTYP=BEST         QMTTOL= 1.0E-06

     $SYSTEM OPTIONS
     ---------------
  REPLICATED MEMORY=    30000000 WORDS (ON EVERY NODE).
 DISTRIBUTED MEMDDI=        1000 MILLION WORDS IN AGGREGATE,
 MEMDDI DISTRIBUTED OVER   8 PROCESSORS IS   125000000 WORDS/PROCESSOR.
 TOTAL MEMORY REQUESTED ON EACH PROCESSOR=   155000000 WORDS.
 TIMLIM=      525600.00 MINUTES, OR     365.0 DAYS.
 PARALL= T  BALTYP=  DLB     KDIAG=    0  COREFL= F
 MXSEQ2=     300 MXSEQ3=     150  mem10=         0

          ----------------
          PROPERTIES INPUT
          ----------------

     MOMENTS            FIELD           POTENTIAL          DENSITY
 IEMOM =       1   IEFLD =       0   IEPOT =       0   IEDEN =       0
 WHERE =COMASS     WHERE =NUCLEI     WHERE =NUCLEI     WHERE =NUCLEI  
 OUTPUT=BOTH       OUTPUT=BOTH       OUTPUT=BOTH       OUTPUT=BOTH    
 IEMINT=       0   IEFINT=       0                     IEDINT=       0
                                                       MORB  =       0
          EXTRAPOLATION IN EFFECT
          SOSCF IN EFFECT
 ORBITAL PRINTING OPTION: NPREO=     1   251     2     1

     -------------------------------
     INTEGRAL TRANSFORMATION OPTIONS
     -------------------------------
     NWORD  =            0
     CUTOFF = 1.0E-09     MPTRAN =       0
     DIRTRF =       T     AOINTS =DUP     

          ----------------------
          INTEGRAL INPUT OPTIONS
          ----------------------
 NOPK  =       1 NORDER=       0 SCHWRZ=       T

     ------------------------------------------
     THE POINT GROUP IS C1 , NAXIS= 0, ORDER= 1
     ------------------------------------------

     DIMENSIONS OF THE SYMMETRY SUBSPACES ARE
 A   =  251

 ..... DONE SETTING UP THE RUN .....
 CPU     0: STEP CPU TIME=     0.03 TOTAL CPU TIME=          0.0 (      0.0 MIN)
 TOTAL WALL CLOCK TIME=          0.1 SECONDS, CPU UTILIZATION IS    60.00%

          ********************
          1 ELECTRON INTEGRALS
          ********************
 ...... END OF ONE-ELECTRON INTEGRALS ......
 CPU     0: STEP CPU TIME=     0.02 TOTAL CPU TIME=          0.0 (      0.0 MIN)
 TOTAL WALL CLOCK TIME=          0.1 SECONDS, CPU UTILIZATION IS    55.56%

          -------------
          GUESS OPTIONS
          -------------
          GUESS =HUCKEL            NORB  =       0          NORDER=       0
          MIX   =       F          PRTMO =       F          PUNMO =       F
          TOLZ  = 1.0E-08          TOLE  = 1.0E-05
          SYMDEN=       F          PURIFY=       F

 INITIAL GUESS ORBITALS GENERATED BY HUCKEL   ROUTINE.
 HUCKEL GUESS REQUIRES    565344 WORDS.

 SYMMETRIES FOR INITIAL GUESS ORBITALS FOLLOW.   BOTH SET(S).
    91 ORBITALS ARE OCCUPIED (   23 CORE ORBITALS).
    24=A       25=A       26=A       27=A       28=A       29=A       30=A   
    31=A       32=A       33=A       34=A       35=A       36=A       37=A   
    38=A       39=A       40=A       41=A       42=A       43=A       44=A   
    45=A       46=A       47=A       48=A       49=A       50=A       51=A   
    52=A       53=A       54=A       55=A       56=A       57=A       58=A   
    59=A       60=A       61=A       62=A       63=A       64=A       65=A   
    66=A       67=A       68=A       69=A       70=A       71=A       72=A   
    73=A       74=A       75=A       76=A       77=A       78=A       79=A   
    80=A       81=A       82=A       83=A       84=A       85=A       86=A   
    87=A       88=A       89=A       90=A       91=A       92=A       93=A   
    94=A       95=A       96=A       97=A       98=A       99=A      100=A   
   101=A   
 ...... END OF INITIAL ORBITAL SELECTION ......
 CPU     0: STEP CPU TIME=     0.11 TOTAL CPU TIME=          0.2 (      0.0 MIN)
 TOTAL WALL CLOCK TIME=          0.4 SECONDS, CPU UTILIZATION IS    41.03%

                    ----------------------
                    AO INTEGRAL TECHNOLOGY
                    ----------------------
     S,P,L SHELL ROTATED AXIS INTEGRALS, REPROGRAMMED BY
        KAZUYA ISHIMURA (IMS) AND JOSE SIERRA (SYNSTAR).
     S,P,D,L SHELL ROTATED AXIS INTEGRALS PROGRAMMED BY
        KAZUYA ISHIMURA (INSTITUTE FOR MOLECULAR SCIENCE).
     S,P,D,F,G SHELL TO TOTAL QUARTET ANGULAR MOMENTUM SUM 5,
        ERIC PROGRAM BY GRAHAM FLETCHER (ELORET AND NASA ADVANCED
        SUPERCOMPUTING DIVISION, AMES RESEARCH CENTER).
     S,P,D,F,G,L SHELL GENERAL RYS QUADRATURE PROGRAMMED BY
        MICHEL DUPUIS (PACIFIC NORTHWEST NATIONAL LABORATORY).

          --------------------
          2 ELECTRON INTEGRALS
          --------------------

 DIRECT SCF METHOD SKIPS INTEGRAL STORAGE ON DISK.
 DIRECT TRANSFORMATION SKIPS AO INTEGRAL STORAGE ON DISK.
  ...... END OF TWO-ELECTRON INTEGRALS .....
 CPU     0: STEP CPU TIME=     0.02 TOTAL CPU TIME=          0.2 (      0.0 MIN)
 TOTAL WALL CLOCK TIME=          0.4 SECONDS, CPU UTILIZATION IS    43.90%

          --------------------------
                 RHF SCF CALCULATION
          --------------------------

     NUCLEAR ENERGY =      2412.1739742860
     MAXIT =   60     NPUNCH=    2
     EXTRAP=T  DAMP=F  SHIFT=F  RSTRCT=F  DIIS=F  DEM=F  SOSCF=T
     DENSITY MATRIX CONV=  2.00E-05
     SOSCF WILL OPTIMIZE   14560 ORBITAL ROTATIONS, SOGTOL=   0.250
     MEMORY REQUIRED FOR RHF ITERS=    559999 WORDS.

 DIRECT SCF CALCULATION, SCHWRZ=T   FDIFF=T,  DIRTHR=  0.00E+00 NITDIR=10
 SCHWARZ INEQUALITY OVERHEAD:     25933 INTEGRALS, T=        0.00

                                                                                   NONZERO     BLOCKS
 ITER EX DEM     TOTAL ENERGY        E CHANGE  DENSITY CHANGE     ORB. GRAD      INTEGRALS    SKIPPED
   1  0  0    -1279.9819710139 -1279.9819710139   0.719395188   0.000000000      149336096   15565403
          ---------------START SECOND ORDER SCF---------------
   2  1  0    -1283.2815202359    -3.2995492220   0.153362401   0.063204809      149226531   15653205
   3  2  0    -1283.4516468428    -0.1701266069   0.107074625   0.010456033      145590360   16116957
   4  3  0    -1283.4801311774    -0.0284843346   0.012759627   0.004597883      142885120   16333442
   5  4  0    -1283.4813570016    -0.0012258242   0.002485595   0.000591981      131589480   16918918
   6  5  0    -1283.4814808532    -0.0001238516   0.001623228   0.000357998      123487835   17224140
   7  6  0    -1283.4814933494    -0.0000124962   0.000362485   0.000105474      115700811   17526368
   8  7  0    -1283.4814942929    -0.0000009435   0.000170688   0.000035404      102702124   17972889
   9  8  0    -1283.4814944382    -0.0000001453   0.000050387   0.000007161       93903038   18282544
  10  9  0    -1283.4814944482    -0.0000000101   0.000010576   0.000003299       82237320   18641331
  11 10  0    -1283.4814944512    -0.0000000030   0.000004220   0.000001031       70676159   18976165

          -----------------
          DENSITY CONVERGED
          -----------------
     TIME TO FORM FOCK OPERATORS=      16.5 SECONDS (       1.5 SEC/ITER)
     FOCK TIME ON FIRST ITERATION=       1.7, LAST ITERATION=       1.1
     TIME TO SOLVE SCF EQUATIONS=       0.3 SECONDS (       0.0 SEC/ITER)

 FINAL RHF ENERGY IS    -1283.4814944512 AFTER  11 ITERATIONS

          ------------
          EIGENVECTORS
          ------------

                      1          2          3          4          5
                  -20.4987   -20.4920   -20.4914   -20.4847   -20.4837
                     A          A          A          A          A   
    1  C  1  S   -0.000000   0.000062   0.000006   0.000009   0.000162
    2  C  1  S    0.000010   0.000392   0.000210   0.000034   0.000594
    3  C  1  X   -0.000002  -0.000061  -0.000062   0.000057   0.000182
    4  C  1  Y    0.000022   0.000012   0.000116  -0.000023  -0.000698
    5  C  1  Z    0.000020   0.000027   0.000208   0.000003  -0.000108
    6  C  1  S    0.000044  -0.002520   0.000823  -0.000389  -0.005507
    7  C  1  X    0.000027   0.000564   0.000418  -0.000271  -0.002140
    8  C  1  Y   -0.000061  -0.001247   0.001236  -0.000372  -0.002753
    9  C  1  Z   -0.000052  -0.000508  -0.001102  -0.000029   0.001356
   10  C  2  S   -0.000002   0.000001   0.000050   0.000282  -0.000002
   11  C  2  S   -0.000044   0.000015   0.000316   0.001216  -0.000007
   12  C  2  X   -0.000040   0.000014  -0.000032   0.000273   0.000006
   13  C  2  Y    0.000045  -0.000009  -0.000019   0.000679  -0.000043
   14  C  2  Z   -0.000065   0.000013   0.000057  -0.000240   0.000035
   15  C  2  S   -0.000002  -0.000124  -0.001427  -0.008834   0.000107
   16  C  2  X    0.000290  -0.000173   0.000451  -0.000189  -0.000234
   17  C  2  Y   -0.000028   0.000033   0.000585   0.002441   0.000090
   18  C  2  Z    0.000437  -0.000081  -0.000566  -0.004314  -0.000357
   19  H  3  S    0.000021   0.000066   0.000430   0.000000  -0.000161
   20  H  3  S   -0.000047  -0.000590  -0.000215  -0.000097   0.000191
   21  H  4  S    0.002903  -0.000007  -0.000153   0.000183   0.000006
   22  H  4  S    0.004666   0.000002   0.000435  -0.000157  -0.000034
   23  H  5  S   -0.000526   0.000004   0.000049   0.000215   0.000006
   24  H  5  S    0.003934   0.000003  -0.000081  -0.000489   0.000011
   25  H  6  S   -0.000019  -0.000596  -0.000108   0.000014  -0.000340
   26  H  6  S    0.000010   0.003776  -0.000307  -0.000031   0.000203
   27  H  7  S    0.000065  -0.000005   0.000039  -0.000284  -0.000029
   28  H  7  S   -0.000516  -0.000014  -0.000115   0.000051   0.000006
   29  H  8  S    0.000016   0.003041  -0.000010  -0.000010   0.000404
   30  H  8  S   -0.000019   0.004292  -0.000430  -0.000009  -0.000952
   31  H  9  S   -0.000009  -0.000071  -0.000005   0.000016  -0.000229
   32  H  9  S   -0.000018  -0.000093  -0.000080  -0.000028  -0.000254
   33  H 10  S    0.000026   0.000120  -0.000041  -0.000818  -0.000132
   34  H 10  S   -0.000005  -0.000278  -0.000038   0.002284   0.000224
   35  O 11  S    0.000172   0.000127   0.000363   0.000182  -0.002243
   36  O 11  S    0.000069   0.000087   0.000192   0.000050  -0.000706
   37  O 11  X    0.000012   0.000033  -0.000059   0.000004  -0.000044
   38  O 11  Y    0.000008  -0.000058   0.000362  -0.000023  -0.000008
   39  O 11  Z    0.000003   0.000047   0.000015  -0.000024   0.000151
   40  O 11  S   -0.000255  -0.000687  -0.001513  -0.000052   0.001869
   41  O 11  X   -0.000113  -0.000470  -0.000149  -0.000008   0.000482
   42  O 11  Y   -0.000019   0.000196  -0.001418   0.000037  -0.000061
   43  O 11  Z    0.000021   0.000040   0.000311   0.000089  -0.000837
   44  O 12  S    0.983491   0.000146   0.007031  -0.000092  -0.000050
   45  O 12  S    0.098088   0.000012   0.000494  -0.000128  -0.000002
   46  O 12  X   -0.002918   0.000006   0.000150  -0.000124  -0.000006
   47  O 12  Y   -0.001523  -0.000009  -0.000189   0.000024   0.000005
   48  O 12  Z    0.001056  -0.000001   0.000047   0.000054  -0.000003
   49  O 12  S   -0.045704  -0.000029  -0.000005   0.001334   0.000005
   50  O 12  X    0.008787  -0.000010  -0.000650  -0.000259   0.000031
   51  O 12  Y    0.003493   0.000032   0.000683  -0.000125  -0.000026
   52  O 12  Z    0.000010   0.000002  -0.000232  -0.000639   0.000005
   53  O 13  S    0.001139   0.000066   0.001351   0.005257   0.000127
   54  O 13  S    0.000220   0.000015   0.000297   0.001098   0.000029
   55  O 13  X    0.000230  -0.000002  -0.000065  -0.000101   0.000001
   56  O 13  Y   -0.000237  -0.000003  -0.000031   0.000066   0.000000
   57  O 13  Z    0.000233   0.000005   0.000041   0.000056   0.000005
   58  O 13  S    0.000301  -0.000040  -0.000604  -0.002854  -0.000097
   59  O 13  X   -0.001735   0.000017   0.000342   0.001128   0.000035
   60  O 13  Y    0.001171   0.000008   0.000073  -0.000828  -0.000022
   61  O 13  Z   -0.001117  -0.000030  -0.000235  -0.000450  -0.000030
   62  O 14  S   -0.000028  -0.000606   0.000115   0.000405  -0.001649
   63  O 14  S   -0.000009  -0.000219  -0.000011   0.000086  -0.000326
   64  O 14  X    0.000009  -0.000252   0.000130   0.000012   0.000081
   65  O 14  Y    0.000000   0.000296  -0.000046  -0.000012   0.000184
   66  O 14  Z    0.000009  -0.000108   0.000118  -0.000008   0.000081
   67  O 14  S    0.000042   0.001224   0.000403  -0.000183   0.000143
   68  O 14  X   -0.000035   0.001889  -0.000476  -0.000073  -0.000409
   69  O 14  Y   -0.000013  -0.001752  -0.000023   0.000051  -0.000796
   70  O 14  Z   -0.000045   0.000271  -0.000550   0.000067  -0.000190
   71  O 15  S   -0.000056   0.000064   0.000316  -0.001112  -0.000045
   72  O 15  S   -0.000004   0.000020   0.000116  -0.000480  -0.000021
   73  O 15  X   -0.000008  -0.000010  -0.000017  -0.000118  -0.000013
   74  O 15  Y    0.000033   0.000006  -0.000013   0.000129   0.000018
   75  O 15  Z   -0.000042   0.000004  -0.000033   0.000033  -0.000003
   76  O 15  S   -0.000237  -0.000025  -0.000371   0.002462   0.000126
   77  O 15  X    0.000186   0.000044   0.000209  -0.000614  -0.000000
   78  O 15  Y   -0.000011  -0.000021   0.000103  -0.000882  -0.000093
   79  O 15  Z    0.000266  -0.000011   0.000103   0.000069   0.000033
   80  O 16  S    0.000274   0.981448  -0.058462  -0.000375  -0.026237
   81  O 16  S    0.000039   0.098228  -0.005674  -0.000024  -0.001472
   82  O 16  X    0.000000   0.002350  -0.000118   0.000007   0.000161
   83  O 16  Y   -0.000002  -0.000992   0.000027  -0.000004  -0.000405
   84  O 16  Z   -0.000004  -0.002189   0.000074   0.000008   0.000166
   85  O 16  S   -0.000073  -0.046504   0.001950  -0.000036  -0.002520
   86  O 16  X   -0.000030  -0.008769   0.000148  -0.000041  -0.002188
   87  O 16  Y    0.000011   0.002413  -0.000023   0.000036   0.002380
   88  O 16  Z    0.000011   0.003884  -0.000018  -0.000034  -0.000317
   89  O 17  S    0.000112  -0.000152   0.000535   0.000100   0.001291
   90  O 17  S    0.000031  -0.000060   0.000140   0.000022   0.000225
   91  O 17  X    0.000004  -0.000021   0.000047  -0.000001  -0.000039
   92  O 17  Y    0.000012   0.000055   0.000065  -0.000014   0.000161
   93  O 17  Z    0.000006   0.000014  -0.000024   0.000013   0.000201
   94  O 17  S   -0.000057   0.000312  -0.000333  -0.000062   0.000033
   95  O 17  X   -0.000023   0.000140  -0.000264  -0.000000   0.000362
   96  O 17  Y   -0.000046  -0.000133  -0.000305   0.000063  -0.000445
   97  O 17  Z   -0.000029   0.000058   0.000059  -0.000054  -0.000631
   98  O 18  S   -0.000062   0.000268  -0.000523   0.000410  -0.000586
   99  O 18  S   -0.000017   0.000068  -0.000166   0.000021  -0.000138
  100  O 18  X    0.000017  -0.000064   0.000009  -0.000129   0.000053
  101  O 18  Y    0.000012  -0.000027   0.000005   0.000009   0.000041
  102  O 18  Z    0.000016   0.000001   0.000000   0.000067  -0.000021
  103  O 18  S    0.000015  -0.000033   0.000469   0.000501   0.000138
  104  O 18  X   -0.000078   0.000188   0.000022   0.000843  -0.000168
  105  O 18  Y   -0.000032   0.000081  -0.000156  -0.000533  -0.000126
  106  O 18  Z   -0.000076   0.000023  -0.000026  -0.000546   0.000096
  107  O 19  S   -0.007067   0.058434   0.981475  -0.030557  -0.002440
  108  O 19  S   -0.000911   0.006104   0.099681  -0.002002  -0.000255
  109  O 19  X   -0.000436  -0.000047  -0.000074   0.000379  -0.000257
  110  O 19  Y    0.000208   0.000198   0.002618   0.000349  -0.000019
  111  O 19  Z    0.000008   0.000113   0.002386  -0.000398  -0.000256
  112  O 19  S    0.000415  -0.003757  -0.052369  -0.002116   0.001067
  113  O 19  X    0.001809   0.000326  -0.000046  -0.003236   0.000575
  114  O 19  Y   -0.000795  -0.000743  -0.007736  -0.002639   0.000269
  115  O 19  Z   -0.000150  -0.000307  -0.006192   0.001236   0.001039
  116  C 20  S   -0.000028  -0.000141  -0.000798   0.000090   0.000009
  117  C 20  S   -0.000026  -0.000664  -0.003163   0.000573  -0.000456
  118  C 20  X    0.000294  -0.000069   0.001211   0.000078   0.000572
  119  C 20  Y   -0.000048  -0.000073  -0.000376   0.000108  -0.000023
  120  C 20  Z    0.000076  -0.000171   0.000330  -0.000044   0.000840
  121  C 20  S    0.001161   0.004515   0.017788  -0.001997  -0.000799
  122  C 20  X   -0.000309   0.000286   0.009837  -0.000999  -0.002297
  123  C 20  Y   -0.000186   0.000828  -0.000641   0.001216   0.000116
  124  C 20  Z   -0.001264  -0.001217  -0.006099   0.000973   0.001419
  125  C 21  S    0.000267  -0.000064  -0.000972  -0.000859   0.000041
  126  C 21  S    0.001025  -0.000286  -0.004107  -0.003408   0.000139
  127  C 21  X   -0.000201  -0.000046  -0.001636   0.000061   0.000139
  128  C 21  Y    0.000353  -0.000066  -0.000317   0.001485   0.000016
  129  C 21  Z   -0.000058  -0.000002  -0.000106  -0.000544   0.000106
  130  C 21  S   -0.006611   0.001222   0.021843   0.018763  -0.001260
  131  C 21  X   -0.004564  -0.000640  -0.006080   0.002565   0.000047
  132  C 21  Y    0.000055   0.000131  -0.003475   0.008199   0.000317
  133  C 21  Z    0.000930  -0.000581  -0.008169  -0.008076  -0.000020
  134  C 22  S    0.000013  -0.000021   0.000239   0.000019   0.000020
  135  C 22  S    0.000100   0.000105   0.001283   0.000209   0.000297
  136  C 22  X    0.000081   0.000014   0.000665   0.000084  -0.000571
  137  C 22  Y    0.000008   0.000280   0.000210  -0.000158  -0.000066
  138  C 22  Z   -0.000045  -0.000450  -0.000033   0.000014  -0.000397
  139  C 22  S   -0.000221   0.001156  -0.005139  -0.000175   0.002041
  140  C 22  X   -0.000356  -0.002158  -0.006123  -0.000199   0.003205
  141  C 22  Y   -0.000121   0.001364   0.001503   0.001069   0.002478
  142  C 22  Z    0.000553   0.000402   0.002109  -0.000263  -0.001022
  143  C 23  S   -0.000961   0.000010   0.000218   0.000232  -0.000007
  144  C 23  S   -0.004161   0.000031   0.000720   0.000834  -0.000026
  145  C 23  X    0.000957   0.000032   0.000744   0.000677  -0.000031
  146  C 23  Y   -0.000220  -0.000032  -0.000442  -0.000736   0.000019
  147  C 23  Z    0.000979  -0.000014  -0.000242  -0.000189   0.000027
  148  C 23  S    0.022090  -0.000222  -0.007040  -0.007101   0.000242
  149  C 23  X    0.010455   0.000082   0.002622  -0.002202  -0.000243
  150  C 23  Y    0.006909   0.000068  -0.001465  -0.002616   0.000189
  151  C 23  Z    0.002234   0.000229   0.001876   0.003600   0.000166
  152  C 24  S    0.000026   0.000173   0.000180  -0.000054  -0.000748
  153  C 24  S    0.000125   0.001443   0.000709  -0.000277  -0.002993
  154  C 24  X   -0.000067   0.000026  -0.000401  -0.000011  -0.000182
  155  C 24  Y    0.000010   0.000756  -0.000077  -0.000003   0.001283
[...]
   25    0.0000000  -0.0115773  -0.0000000   0.0000000  -0.0000035
   26   -0.0612963  -0.0000000   0.0061589  -0.0000002   0.0025413
   27    0.0000000  -0.0662714  -0.0000000  -0.0000000   0.0003935
   28    0.0000000   0.0069352   0.0000003   0.0000000  -0.0089555
   29   -0.0170143  -0.0000000  -0.0374724   0.0000094   0.0000080
   30   -0.0000000  -0.0000883  -0.0000000   0.0000000   0.0193597
   31    0.0003563   0.0000000   0.0020685  -0.0000378  -0.0000004
   32    0.0000038   0.0000000  -0.0000014   0.0000002   0.0000002
   33    0.0000000   0.0000003  -0.0000000   0.0000000  -0.0000794
   34   -0.0000743  -0.0000000   0.0000013  -0.0000000   0.0005911
   35    0.0000000  -0.0000306   0.0000000  -0.0000000  -0.0000004
   36    0.0000406   0.0000000  -0.0007147  -0.0000572  -0.0000000
   37   -0.0000000   0.0007891  -0.0000000   0.0000000   0.0000000
   38    0.0023795   0.0000000  -0.0000563  -0.0000000  -0.0074561
   39    0.0000000   0.0005135   0.0000000  -0.0000000  -0.0000063
   40   -0.0000006  -0.0001033  -0.0000032   0.0000000   0.0000513
   41    0.0010603  -0.0000000  -0.0024871   0.0000002  -0.0000051
   42   -0.0000000  -0.0000000   0.0000020  -0.0007144   0.0000000
   43   -0.0000000   0.0000000   0.0000003  -0.0035523  -0.0000000
   44    0.0000000  -0.0000120   0.0000000  -0.0000000   0.0048929
   45   -0.0000000  -0.0001932   0.0000000  -0.0000000  -0.0034631

            11          12          13          14          15

   11    8.3589977
   12   -0.0000000   8.2844881
   13   -0.0000000  -0.0117995   8.2951059
   14   -0.0155625   0.0000000   0.0000000   8.3000264
   15   -0.0000000  -0.0001867  -0.0097760   0.0000000   8.3062422
   16   -0.0000945   0.0000000   0.0000000  -0.0117115  -0.0000000
   17    0.0000000   0.0000000  -0.0000000  -0.0000000   0.0000000
   18   -0.0000000   0.0000000   0.0000000   0.0000148   0.0000060
   19    0.0001937   0.0002439   0.0000017  -0.0000001   0.0000001
   20   -0.0483432  -0.0000060  -0.0000000   0.0013720  -0.0000000
   21    0.0000303  -0.0372658   0.0014265  -0.0000002   0.0000049
   22    0.2126093   0.0000001   0.0000000  -0.0489128  -0.0000000
   23    0.0000001   0.2045834  -0.0370562   0.0000000   0.0017963
   24    0.0012007   0.0000000  -0.0000000   0.0000247  -0.0000000
   25   -0.0000000  -0.0503176   0.2393112  -0.0000000  -0.0441953
   26   -0.0413464   0.0000000  -0.0000000   0.2147209   0.0000000
   27    0.0000000   0.0024412  -0.0508621   0.0000000   0.2419508
   28    0.0000000   0.0002169   0.0013801   0.0000003  -0.0433655
   29    0.0008480  -0.0000000  -0.0000000  -0.0312662  -0.0000000
   30    0.0000009   0.0002481   0.0000002   0.0000001   0.0002553
   31    0.0000250  -0.0000000  -0.0000000   0.0001958  -0.0000000
   32    0.0043183  -0.0000001   0.0000000  -0.0000182   0.0000000
   33   -0.0000273   0.0002171  -0.0000093  -0.0000000   0.0000007
   34   -0.0288971  -0.0000006   0.0000000   0.0005820  -0.0000000
   35   -0.0000000  -0.0286409   0.0006665  -0.0000000  -0.0000237
   36    0.0107221  -0.0000000   0.0000000   0.0000223  -0.0000000
   37   -0.0000000   0.0012432  -0.0243829   0.0000000   0.0012116
   38    0.0009266  -0.0000000   0.0000000  -0.0194701  -0.0000001
   39   -0.0000000  -0.0000135   0.0004425  -0.0000000  -0.0340921
   40    0.0000001  -0.0000033  -0.0000006   0.0000036   0.0011159
   41   -0.0000195   0.0000000  -0.0000000   0.0011397   0.0000000
   42   -0.0000002  -0.0000000  -0.0000000  -0.0000000   0.0000000
   43   -0.0000011   0.0000000  -0.0000001  -0.0000000   0.0000000
   44    0.0000000  -0.0000000   0.0000001  -0.0000000   0.0000223
   45   -0.0000000  -0.0000011   0.0000016   0.0000000   0.0165320

            16          17          18          19          20

   16    8.3325951
   17   -0.0000014   8.2661741
   18   -0.0000000  -0.0000000   8.2253241
   19   -0.0000001   0.0000032  -0.0000005   8.4984269
   20   -0.0002887   0.0015414  -0.0000008   0.1964995   5.4346415
   21   -0.0000000  -0.0000000   0.0000422   0.1795716  -0.0560535
   22    0.0013103  -0.0000133   0.0001368  -0.0288872   0.1595888
   23   -0.0000000   0.0000000  -0.0000016  -0.0572442   0.0031700
   24   -0.0050854  -0.0445606  -0.0000000  -0.0457447   0.1307262
   25   -0.0000000   0.0000000  -0.0000095   0.0063529  -0.0002033
   26   -0.0558344   0.0000012  -0.0173858   0.0012213  -0.0375940
   27    0.0000000  -0.0000000   0.0015499  -0.0026320   0.0000495
   28   -0.0000013   0.0000000  -0.0397038   0.0001217   0.0005247
   29    0.1903343  -0.0000932   0.0001550  -0.0000496   0.0013992
   30    0.0000000   0.0000000  -0.0041697  -0.0330923  -0.0001585
   31   -0.0319371   0.0006384  -0.0000001   0.0000100  -0.0485508
   32   -0.0000044  -0.0000101  -0.0000000  -0.0296111   0.3583616
   33   -0.0000000   0.0000000   0.0000015  -0.0297284  -0.0038127
   34   -0.0000140   0.0000000   0.0000190  -0.0005229  -0.0540145
   35    0.0000000  -0.0000000   0.0000000   0.0065408   0.0000396
   36    0.0149294   0.0015046  -0.0000000   0.0014532  -0.0544931
   37   -0.0000000  -0.0000001   0.0000001   0.0036568  -0.0000238
   38    0.0009708   0.0000000   0.0578002   0.0000304   0.0016971
   39   -0.0000000  -0.0000000  -0.0000082  -0.0000231   0.0000002
   40    0.0000315  -0.0000003   0.0001424   0.0101967  -0.0012114
   41   -0.0318058  -0.0000011   0.0000344   0.0000009  -0.0004512
   42    0.0000004  -0.0316961   0.0000000  -0.0000986   0.0068619
   43    0.0000002  -0.0277524   0.0000000   0.0068270  -0.0012985
   44   -0.0000000  -0.0000000  -0.0256598   0.0000014   0.0000005
   45   -0.0000000  -0.0000000  -0.0255655  -0.0000006  -0.0000001

            21          22          23          24          25

   21    4.9774924
   22   -0.0060218   5.4333717
   23    0.1362095   0.0000296   5.4731195
   24    0.0040080  -0.0715715  -0.0001187   5.4925290
   25   -0.0744649  -0.0000046   0.1852416   0.0000076   5.3675221
   26    0.0004417   0.1417857  -0.0000102  -0.0105044   0.0000016
   27    0.0091739   0.0000043  -0.0791652  -0.0000027   0.1609128
   28   -0.0978980   0.0001135  -0.0046139   0.0002728  -0.0433819
   29    0.0000054  -0.0552969   0.0000005  -0.0953185  -0.0000001
   30    0.2260151   0.0017052  -0.0429868  -0.0000895  -0.0072829
   31   -0.0001050  -0.0012622  -0.0000011   0.1963519  -0.0000022
   32   -0.0016190  -0.0572117  -0.0000085  -0.0466815   0.0000125
   33    0.3845371   0.0006052  -0.0513121  -0.0001887   0.0029647
   34   -0.0003610   0.3834002   0.0002059   0.0034393  -0.0000060
   35   -0.0544466   0.0000079   0.3592348  -0.0000022  -0.0436022
   36   -0.0000400  -0.0044836   0.0000010   0.3468767  -0.0000000
   37    0.0003062   0.0000035  -0.0468303  -0.0000221   0.3688060
   38   -0.0000356  -0.0390599   0.0000065   0.0005497  -0.0000021
   39   -0.0001471  -0.0000004   0.0039005   0.0000012  -0.0572034
   40   -0.0073054  -0.0006562   0.0002462  -0.0017306   0.0004822
   41   -0.0000029   0.0026976  -0.0000000   0.0040814   0.0000001
   42   -0.0000122  -0.0000515  -0.0000003  -0.0671419   0.0000016
   43   -0.0001863  -0.0000838  -0.0000180  -0.0514232   0.0001007
   44   -0.0000819  -0.0000021   0.0000044   0.0000002  -0.0000768
   45   -0.0002224   0.0000014   0.0000364   0.0000000   0.0002228

            26          27          28          29          30

   26    5.6530982
   27   -0.0000082   5.4437911
   28   -0.0001099   0.0896184   5.6496729
   29    0.1328433  -0.0000032   0.0003987   4.9832463
   30   -0.0005138  -0.0335537   0.1875977  -0.0000210   8.4349955
   31   -0.0396172   0.0000392  -0.0044219   0.2231661   0.0000103
   32    0.0041170  -0.0000020  -0.0000083  -0.0001485  -0.0000800
   33    0.0000727  -0.0005463   0.0041416  -0.0000003  -0.0352046
   34   -0.0532653   0.0000167  -0.0001905   0.0030011   0.0039616
   35   -0.0000000   0.0032776   0.0000238   0.0000000   0.0017692
   36    0.0002609   0.0000001  -0.0000161  -0.0099379   0.0000003
   37   -0.0000001  -0.0502123   0.0030591  -0.0000003  -0.0000052
   38    0.2863228   0.0000845  -0.0006870  -0.0374787   0.0015894
   39    0.0000006   0.3621088  -0.0584520  -0.0000003   0.0014850
   40   -0.0011439  -0.0502897   0.3302746  -0.0015648  -0.0292010
   41   -0.0540448  -0.0000025   0.0002053   0.3854803  -0.0000025
   42    0.0000089  -0.0000000  -0.0000000  -0.0001051  -0.0000000
   43    0.0000180  -0.0000141  -0.0000614  -0.0001963   0.0000004
   44    0.0000966   0.0024771  -0.0551451   0.0000006   0.0013836
   45   -0.0000533  -0.0040864  -0.0624501   0.0000005   0.0012994

            31          32          33          34          35

   31    8.3968381
   32    0.0015410   0.5106652
   33    0.0000000   0.0021973   0.4995389
   34   -0.0000005  -0.0024450  -0.0012366   0.5158989
   35    0.0000001  -0.0000515  -0.0010026  -0.0000051   0.5250299
   36   -0.0263281   0.0031026   0.0000033   0.0002476  -0.0000001
   37   -0.0000003   0.0000024  -0.0000355  -0.0000000  -0.0028429
   38    0.0008198  -0.0000668  -0.0000130   0.0004066  -0.0000001
   39   -0.0000078  -0.0000000   0.0000069  -0.0000002  -0.0000042
   40    0.0218330   0.0001006   0.0000738  -0.0000727   0.0000127
   41   -0.0327026   0.0000064   0.0000000  -0.0000535   0.0000000
   42    0.0015491   0.0014006   0.0000004  -0.0000005   0.0000041
   43    0.0008719   0.0003659   0.0000112  -0.0000006   0.0000015
   44   -0.0000036   0.0000000   0.0000009   0.0000004  -0.0000000
   45   -0.0000001  -0.0000000  -0.0000007  -0.0000004   0.0000002

            36          37          38          39          40

   36    0.4600289
   37    0.0000002   0.4899883
   38    0.0000438   0.0000001   0.4407179
   39   -0.0000000  -0.0002711  -0.0000027   0.5624782
   40    0.0001136   0.0004068   0.0008570   0.0035405   0.4803672
   41    0.0002010  -0.0000000  -0.0010919   0.0000007  -0.0005184
   42   -0.0012033  -0.0000083   0.0000000  -0.0000000   0.0000016
   43    0.0034890   0.0009478  -0.0000001  -0.0000054   0.0003899
   44   -0.0000000   0.0000009  -0.0005841   0.0011756  -0.0009338
   45   -0.0000000  -0.0000050   0.0003659   0.0007518   0.0026111

            41          42          43          44          45

   41    0.4801608
   42    0.0000006   0.5822252
   43   -0.0000088  -0.0375459   0.5353775
   44    0.0000485   0.0000000  -0.0000000   0.5092779
   45    0.0000002   0.0000000  -0.0000000  -0.0249984   0.4752946

          TOTAL MULLIKEN AND LOWDIN ATOMIC POPULATIONS
       ATOM         MULL.POP.    CHARGE          LOW.POP.     CHARGE
    1 C             6.075008   -0.075008         5.975127    0.024873
    2 C             6.094318   -0.094318         5.983152    0.016848
    3 H             0.582065    0.417935         0.735845    0.264155
    4 H             0.605221    0.394779         0.736315    0.263685
    5 H             0.577745    0.422255         0.733576    0.266424
    6 H             0.568674    0.431326         0.729894    0.270106
    7 H             0.598445    0.401555         0.741780    0.258220
    8 H             0.585776    0.414224         0.721943    0.278057
    9 H             0.627259    0.372741         0.752591    0.247409
   10 H             0.603234    0.396766         0.744114    0.255886
   11 O             8.703584   -0.703584         8.429423   -0.429423
   12 O             8.672315   -0.672315         8.380898   -0.380898
   13 O             8.693425   -0.693425         8.412464   -0.412464
   14 O             8.694591   -0.694591         8.405684   -0.405684
   15 O             8.685773   -0.685773         8.408762   -0.408762
   16 O             8.707867   -0.707867         8.405208   -0.405208
   17 O             8.663069   -0.663069         8.397887   -0.397887
   18 O             8.658058   -0.658058         8.395783   -0.395783
   19 O             8.684704   -0.684704         8.362502   -0.362502
   20 C             5.920337    0.079663         5.924100    0.075900
   21 C             5.588368    0.411632         5.752673    0.247327
   22 C             5.963279    0.036721         5.947924    0.052076
   23 C             5.988313    0.011687         5.961474    0.038526
   24 C             5.986998    0.013002         5.926666    0.073334
   25 C             5.941902    0.058098         5.937442    0.062558
   26 C             6.054998   -0.054998         5.993846    0.006154
   27 C             5.920179    0.079821         5.940465    0.059535
   28 C             6.048142   -0.048142         5.954671    0.045329
   29 C             5.640228    0.359772         5.767909    0.232091
   30 O             8.656367   -0.656367         8.354353   -0.354353
   31 O             8.627758   -0.627758         8.339065   -0.339065
   32 H             0.747449    0.252551         0.906329    0.093671
   33 H             0.772767    0.227233         0.925167    0.074833
   34 H             0.772390    0.227610         0.923185    0.076815
   35 H             0.763133    0.236867         0.913532    0.086468
   36 H             0.714035    0.285965         0.887891    0.112109
   37 H             0.749384    0.250616         0.903387    0.096613
   38 H             0.685808    0.314192         0.881214    0.118786
   39 H             0.784726    0.215274         0.925951    0.074049
   40 H             0.728003    0.271997         0.903374    0.096626
   41 H             0.751892    0.248108         0.917003    0.082997
   42 H             0.813855    0.186145         0.933779    0.066221
   43 H             0.777696    0.222304         0.916304    0.083696
   44 H             0.785057    0.214943         0.913354    0.086646
   45 H             0.735805    0.264195         0.895992    0.104008

          -------------------------------
          BOND ORDER AND VALENCE ANALYSIS     BOND ORDER THRESHOLD=0.050
          -------------------------------

                   BOND                       BOND                       BOND
  ATOM PAIR DIST  ORDER      ATOM PAIR DIST  ORDER      ATOM PAIR DIST  ORDER
    1  17  1.459  0.878        1  24  1.515  0.918        1  42  1.101  0.895
    1  43  1.096  0.881        2  18  1.469  0.869        2  28  1.531  0.888
    2  44  1.092  0.910        2  45  1.093  0.866        3  11  1.013  0.711
    3  14  1.758  0.107        4  12  0.993  0.801        5  12  1.781  0.082
    5  13  1.011  0.724        6  14  1.008  0.719        6  16  1.751  0.080
    7  13  1.900  0.078        7  15  1.004  0.745        8  16  0.993  0.785
    9  17  0.994  0.818       10  18  0.998  0.780       11  22  1.452  0.890
   12  23  1.465  0.837       13  25  1.470  0.885       14  26  1.478  0.869
   15  27  1.446  0.898       16  29  1.458  0.821       18  38  2.060  0.107
   19  20  1.470  0.775       19  21  1.438  0.819       20  22  1.546  0.867
   20  24  1.518  0.857       20  32  1.097  0.870       21  23  1.529  0.847
   21  30  1.434  0.862       21  33  1.096  0.897       22  26  1.572  0.852
   22  34  1.098  0.892       23  25  1.545  0.880       23  35  1.097  0.882
   24  31  1.486  0.790       24  36  1.091  0.850       25  27  1.561  0.851
   25  37  1.090  0.885       26  29  1.549  0.851       26  38  1.091  0.796
   27  28  1.527  0.840       27  39  1.103  0.882       28  30  1.493  0.773
   28  40  1.092  0.848       29  31  1.432  0.874       29  41  1.094  0.890

                       TOTAL       BONDED        FREE
      ATOM            VALENCE     VALENCE     VALENCE
    1 C                 3.557       3.557      -0.000
    2 C                 3.513       3.513      -0.000
    3 H                 0.823       0.823      -0.000
    4 H                 0.819       0.819       0.000
    5 H                 0.815       0.815      -0.000
    6 H                 0.807       0.807      -0.000
    7 H                 0.834       0.834       0.000
    8 H                 0.809       0.809       0.000
    9 H                 0.834       0.834       0.000
   10 H                 0.824       0.824       0.000
   11 O                 1.713       1.713      -0.000
   12 O                 1.774       1.774      -0.000
   13 O                 1.770       1.770      -0.000
   14 O                 1.777       1.777      -0.000
   15 O                 1.740       1.740      -0.000
   16 O                 1.765       1.765      -0.000
   17 O                 1.741       1.741       0.000
   18 O                 1.808       1.808      -0.000
   19 O                 1.739       1.739      -0.000
   20 C                 3.365       3.365       0.000
   21 C                 3.419       3.419      -0.000
   22 C                 3.483       3.483       0.000
   23 C                 3.450       3.450      -0.000
   24 C                 3.364       3.364      -0.000
   25 C                 3.473       3.473      -0.000
   26 C                 3.370       3.370       0.000
   27 C                 3.445       3.445      -0.000
   28 C                 3.346       3.346      -0.000
   29 C                 3.432       3.432      -0.000
   30 O                 1.773       1.773      -0.000
   31 O                 1.797       1.797      -0.000
   32 H                 0.889       0.889       0.000
   33 H                 0.908       0.908       0.000
   34 H                 0.904       0.904      -0.000
   35 H                 0.895       0.895       0.000
   36 H                 0.895       0.895       0.000
   37 H                 0.895       0.895       0.000
   38 H                 0.906       0.906      -0.000
   39 H                 0.898       0.898       0.000
   40 H                 0.907       0.907      -0.000
   41 H                 0.894       0.894       0.000
   42 H                 0.910       0.910       0.000
   43 H                 0.907       0.907      -0.000
   44 H                 0.910       0.910       0.000
   45 H                 0.898       0.898       0.000

          ---------------------
          ELECTROSTATIC MOMENTS
          ---------------------

 POINT   1           X           Y           Z (BOHR)    CHARGE
                 0.060394    0.101710    0.005667       -0.00 (A.U.)
         DX          DY          DZ         /D/  (DEBYE)
    -0.402830   -5.114867    0.711407    5.179792
 ...... END OF PROPERTY EVALUATION ......
 CPU     0: STEP CPU TIME=     0.09 TOTAL CPU TIME=         17.3 (      0.3 MIN)
 TOTAL WALL CLOCK TIME=         59.3 SECONDS, CPU UTILIZATION IS    29.20%
               580000  WORDS OF DYNAMIC MEMORY USED
 EXECUTION OF GAMESS TERMINATED NORMALLY Sat May 23 12:59:53 2020
 DDI: 263640 bytes (0.3 MB / 0 MWords) used by master data server.
Note: The following floating-point exceptions are signalling: IEEE_DENORMALNote: The following floating-point exceptions are signalling: IEEE_DENORMALNote: The following floating-point exceptions are signalling: IEEE_DENORMAL

 ----------------------------------------
 CPU timing information for all processes
 ========================================
 0: 16.988 + 0.356 = 17.345
 1: 17.249 + 0.121 = 17.371
 2: 16.877 + 0.124 = 17.01
 3: 17.398 + 0.92 = 17.491
 4: 17.297 + 0.83 = 17.381
 5: 17.435 + 0.101 = 17.537
 6: 16.827 + 0.111 = 16.939
 7: 16.780 + 0.147 = 16.927
 ----------------------------------------
Note: The following floating-point exceptions are signalling: IEEE_DENORMAL
Note: The following floating-point exceptions are signalling: IEEE_DENORMAL

Note: The following floating-point exceptions are signalling: IEEE_DENORMALNote: The following floating-point exceptions are signalling: IEEE_DENORMALNote: The following floating-point exceptions are signalling:


 IEEE_DENORMAL
 ddikick.x: exited gracefully.
unset echo
----- accounting info -----
Files used on the master node pietdev were:
-rwxr-xr-x 1 piet piet     2525 mei 23 12:58 /home/piet/scr/maltose_fukui_neu.F05*
-rw-r--r-- 1 piet piet 49152000 mei 23 12:59 /home/piet/scr/maltose_fukui_neu.F10
ls: No match.
ls: No match.
ls: No match.
za 23 mei 2020 12:59:57 CEST
0.116u 0.032s 1:02.74 0.2%	0+0k 0+8io 0pf+0w
