----- GAMESS execution script 'rungms' -----
This job is running on host pietdev
under operating system Linux at do 21 mei 2020 17:24:12 CEST
Available scratch disk space (Kbyte units) at beginning of the job is
Filesystem     1K-blocks     Used Available Use% Mounted on
/dev/sda2      244568380 30771628 201303696  14% /
GAMESS temporary binary files will be written to /home/piet/scr
GAMESS supplementary output files will be written to /home/piet/gamess/scr
Copying input file glucose-6-phosphate_fukui_base.inp to your run's scratch directory...
cp glucose-6-phosphate_fukui_base.inp /home/piet/scr/glucose-6-phosphate_fukui_base.F05
unset echo
 
Assuming a single but multicore node.
 
/home/piet/gamess/ddikick.x /home/piet/gamess/gamess.03.x glucose-6-phosphate_fukui_base -ddi 1 8 pietdev:cpus=8 -scr /home/piet/scr

 Distributed Data Interface kickoff program.
 Initiating 8 compute processes on 1 nodes to run the following command:
 /home/piet/gamess/gamess.03.x glucose-6-phosphate_fukui_base 

          ******************************************************
          *         GAMESS VERSION = 30 SEP 2019 (R2)          *
          *             FROM IOWA STATE UNIVERSITY             *
          * M.W.SCHMIDT, K.K.BALDRIDGE, J.A.BOATZ, S.T.ELBERT, *
          *   M.S.GORDON, J.H.JENSEN, S.KOSEKI, N.MATSUNAGA,   *
          *          K.A.NGUYEN, S.J.SU, T.L.WINDUS,           *
          *       TOGETHER WITH M.DUPUIS, J.A.MONTGOMERY       *
          *         J.COMPUT.CHEM.  14, 1347-1363(1993)        *
          **************** 64 BIT LINUX VERSION ****************

  SINCE 1993, STUDENTS AND POSTDOCS WORKING AT IOWA STATE UNIVERSITY
  AND ALSO IN THEIR VARIOUS JOBS AFTER LEAVING ISU HAVE MADE IMPORTANT
  CONTRIBUTIONS TO THE CODE:
     IVANA ADAMOVIC, CHRISTINE AIKENS, YURI ALEXEEV, POOJA ARORA,
     ANDREY ASADCHEV, ROB BELL, PRADIPTA BANDYOPADHYAY, JONATHAN BENTZ,
     COLLEEN BERTONI, BRETT BODE, KURT BRORSEN, CALEB CARLIN, GALINA CHABAN,
     WEI CHEN, CHEOL HO CHOI, PAUL DAY, ALBERT DEFUSCO, NUWAN DESILVA,
     TIM DUDLEY, DMITRI FEDOROV, ALEX FINDLATER, GRAHAM FLETCHER, 
     MARK FREITAG, KURT GLAESEMANN, EMILIE B GUIDEZ, ANASTASIA GUNINA, 
     DAN KEMP, SAROM SOK LEANG, GRANT MERRILL,
     NORIYUKI MINEZAWA, JONATHAN MULLIN,
     TAKESHI NAGATA, SEAN NEDD, HEATHER NETZLOFF, BOSILJKA NJEGIC, RYAN OLSON,
     MIKE PAK, BUU PHAM, DAVID POOLE,
     SPENCER PRUITT, LUKE ROSKOP, TOSAPORN SATTASATHUCHANA,
     JIM SHOEMAKER, LYUDMILA SLIPCHENKO,
     TONY SMITH, JIE SONG, TETSUYA TAKETSUGU, SIMON WEBB,
     JORGE LUIS GALVEZ VALLEJO, PENG XU, SOOHAENG YOO,
     FEDERICO ZAHARIEV

  ADDITIONAL CODE HAS BEEN PROVIDED BY COLLABORATORS IN OTHER GROUPS:
     IOWA STATE UNIVERSITY:
          JOE IVANIC, AARON WEST, LAIMUTIS BYTAUTAS, KLAUS RUEDENBERG
     UNIVERSITY OF TOKYO: KIMIHIKO HIRAO, TAKAHITO NAKAJIMA,
          TAKAO TSUNEDA, MUNEAKI KAMIYA, SUSUMU YANAGISAWA,
          KIYOSHI YAGI, MAHITO CHIBA, SEIKEN TOKURA, NAOAKI KAWAKAMI
     UNIVERSITY OF AARHUS: FRANK JENSEN
     UNIVERSITY OF IOWA: VISVALDAS KAIRYS, HUI LI
     NATIONAL INST. OF STANDARDS AND TECHNOLOGY: WALT STEVENS, DAVID GARMER
     UNIVERSITY OF PISA: BENEDETTA MENNUCCI, JACOPO TOMASI
     UNIVERSITY OF MEMPHIS: HENRY KURTZ, PRAKASHAN KORAMBATH
     UNIVERSITY OF ALBERTA: TOBY ZENG, MARIUSZ KLOBUKOWSKI
     UNIVERSITY OF NEW ENGLAND: MARK SPACKMAN
     MIE UNIVERSITY: HIROAKI UMEDA
     NAT. INST. OF ADVANCED INDUSTRIAL SCIENCE AND TECHNOLOGY: KAZUO KITAURA
     MICHIGAN STATE UNIVERSITY:
          KAROL KOWALSKI, MARTA WLOCH, JEFFREY GOUR, JESSE LUTZ,
          WEI LI, JUN SHEN, J. EMILIANO DEUSTUA, PIOTR PIECUCH
     UNIVERSITY OF MINNESOTA:
          ANDREW SAND, PRACHI SHARMA, YINAN SHU
     UNIVERSITY OF SILESIA: MONIKA MUSIAL, STANISLAW KUCHARSKI
     FACULTES UNIVERSITAIRES NOTRE-DAME DE LA PAIX:
          OLIVIER QUINET, BENOIT CHAMPAGNE
     UNIVERSITY OF CALIFORNIA - SANTA BARBARA: BERNARD KIRTMAN
     INSTITUTE FOR MOLECULAR SCIENCE:
          KAZUYA ISHIMURA, MICHIO KATOUDA, AND SHIGERU NAGASE
     UNIVERSITY OF NOTRE DAME: ANNA POMOGAEVA, DAN CHIPMAN
     KYUSHU UNIVERSITY:
          HARUYUKI NAKANO,
          FENG LONG GU, JACEK KORCHOWIEC, MARCIN MAKOWSKI, AND YURIKO AOKI,
          HIROTOSHI MORI AND EISAKU MIYOSHI
     PENNSYLVANIA STATE UNIVERSITY:
          TZVETELIN IORDANOV, CHET SWALINA, JONATHAN SKONE,
          SHARON HAMMES-SCHIFFER
     WASEDA UNIVERSITY:
          MASATO KOBAYASHI, TOMOKO AKAMA, TSUGUKI TOUMA,
          TAKESHI YOSHIKAWA, YASUHIRO IKABATA, JUNJI SEINO,
          YUYA NAKAJIMA, HIROMI NAKAI
     NANJING UNIVERSITY: SHUHUA LI
     UNIVERSITY OF NEBRASKA:
          PEIFENG SU, DEJUN SI, NANDUN THELLAMUREGE, YALI WANG, HUI LI
     UNIVERSITY OF ZURICH: ROBERTO PEVERATI, KIM BALDRIDGE
     N. COPERNICUS UNIVERSITY AND JACKSON STATE UNIVERSITY:
          MARIA BARYSZ
     UNIVERSITY OF COPENHAGEN: Jimmy Kromann, CASPER STEINMANN
     TOKYO INSTITUTE OF TECHNOLOGY: HIROYA NAKATA
     NAGOYA UNIVERSITY: YOSHIO NISHIMOTO, STEPHAN IRLE
     MOSCOW STATE UNIVERSITY: VLADIMIR MIRONOV
     A.N.NESMEYANOV INSTITUTE OF ORGANOELEMENT COMPOUNDS OF RUSSIAN ACADEMY OF SCIENCES:
          IGOR S. GERASIMOV
     JOHANNES KEPLER UNIVERSITY LINZ:
          CHRISTIAN FRIEDL


 PARALLEL VERSION RUNNING ON        8 PROCESSORS IN        1 NODES.

 EXECUTION OF GAMESS BEGUN Thu May 21 17:24:12 2020

            ECHO OF THE FIRST FEW INPUT CARDS -
 INPUT CARD> $BASIS GBASIS=N21 NGAUSS=3 $END                                                
 INPUT CARD> $CONTRL SCFTYP=UHF MAXIT=60 MULT=2 ICHARG=1 $END                               
 INPUT CARD> $SYSTEM MEMDDI=1000 MWORDS=30 $END                                             
 INPUT CARD> $SCF DIRSCF=.TRUE. $END                                                        
 INPUT CARD> $STATPT OPTTOL=0.0001 NSTEP=999 $END                                           
 INPUT CARD> $DATA                                                                          
 INPUT CARD>                                                                                
 INPUT CARD>C1                                                                              
 INPUT CARD>P 15.0000000 -3.8843191121 -0.2071821315 -0.3395519812                          
 INPUT CARD>O 8.0000000 -4.6567007344 -0.6206711105 -1.6160212724                           
 INPUT CARD>O 8.0000000 -3.7416216026 1.4175199955 0.0122508866                             
 INPUT CARD>O 8.0000000 -4.5769279714 -0.6717879640 1.1119530030                            
 INPUT CARD>O 8.0000000 -2.3073711758 -0.7287487979 -0.2124046376                           
 INPUT CARD>C 6.0000000 -1.1971159443 0.1725926591 -0.6496612381                            
 INPUT CARD>C 6.0000000 0.0201214321 -0.3942639998 0.0566527134                             
 INPUT CARD>H 1.0000000 -0.0835449313 -0.2443488511 1.1393399271                            
 INPUT CARD>C 6.0000000 1.2937448572 0.2962091118 -0.4207064092                             
 INPUT CARD>H 1.0000000 1.4328463464 0.0699850931 -1.4823848266                             
 INPUT CARD>C 6.0000000 2.4923024969 -0.1777010449 0.4077278172                             
 INPUT CARD>H 1.0000000 2.5012343029 -1.2692020345 0.4912407929                             
 INPUT CARD>C 6.0000000 3.8210158870 0.4001208261 -0.1698651989                             
 INPUT CARD>H 1.0000000 3.5738580436 1.3619774649 -0.6338482954                             
 INPUT CARD>C 6.0000000 4.4565554885 -0.5649066342 -1.1375901666                            
 INPUT CARD>O 8.0000000 5.5343712601 -1.1074430231 -0.8629527284                            
 INPUT CARD>O 8.0000000 4.7339461737 0.6030079654 0.9485278095                              
 INPUT CARD>O 8.0000000 2.3190347740 0.4738413019 1.7074963820                              
 INPUT CARD>O 8.0000000 1.1917777180 1.7383080221 -0.2552904391                             
 INPUT CARD>O 8.0000000 0.1909838662 -1.7987965636 -0.2879637021                            
 INPUT CARD>H 1.0000000 -4.3498194275 1.6759883086 0.7568638075                             
 INPUT CARD>H 1.0000000 -5.0618783282 -1.5378444056 1.0887237949                            
 INPUT CARD>H 1.0000000 -1.0848949673 0.0857131341 -1.7346272734                            
 INPUT CARD>H 1.0000000 -1.3920960447 1.2019609671 -0.3559077561                            
 INPUT CARD>H 1.0000000 3.9013033494 -0.7736778495 -2.0624903417                            
 INPUT CARD>H 1.0000000 5.4591336247 -0.0809821070 0.8046252732                             
 INPUT CARD>H 1.0000000 3.2729907931 0.6225289943 2.0076726247                              
 INPUT CARD>H 1.0000000 1.4591475113 1.8365650677 0.7136225472                              
 INPUT CARD>H 1.0000000 -0.7153776856 -2.2019625945 -0.1854311119                           
 INPUT CARD> $END                                                                           
   30000000 WORDS OF MEMORY AVAILABLE

     BASIS OPTIONS
     -------------
     GBASIS=N21          IGAUSS=       3      POLAR=NONE    
     NDFUNC=       0     NFFUNC=       0     DIFFSP=       F
     NPFUNC=       0      DIFFS=       F     BASNAM=        


     RUN TITLE
     ---------
                                                                                 

 THE POINT GROUP OF THE MOLECULE IS C1      
 THE ORDER OF THE PRINCIPAL AXIS IS     0

 ATOM      ATOMIC                      COORDINATES (BOHR)
           CHARGE         X                   Y                   Z
 P          15.0    -7.3402987707       -0.3915174581       -0.6416602031
 O           8.0    -8.7998883948       -1.1728983273       -3.0538373952
 O           8.0    -7.0706395787        2.6787243736        0.0231508188
 O           8.0    -8.6491397315       -1.2694951738        2.1012864869
 O           8.0    -4.3602992742       -1.3771355419       -0.4013865636
 C           6.0    -2.2622211103        0.3261528332       -1.2276817249
 C           6.0     0.0380239931       -0.7450509264        0.1070581048
 H           1.0    -0.1578770278       -0.4617523740        2.1530402691
 C           6.0     2.4448232781        0.5597540564       -0.7950198347
 H           1.0     2.7076869772        0.1322526492       -2.8013011306
 C           6.0     4.7097687977       -0.3358062826        0.7704938521
 H           1.0     4.7266474636       -2.3984440683        0.9283104926
 C           6.0     7.2206730212        0.7561187233       -0.3209986808
 H           1.0     6.7536124214        2.5737642101       -1.1977995961
 C           6.0     8.4216687223       -1.0675187473       -2.1497337012
 O           8.0    10.4584451959       -2.0927638607       -1.6307441970
 O           8.0     8.9458611089        1.1395198230        1.7924576517
 O           8.0     4.3823402789        0.8954302223        3.2267002870
 O           8.0     2.2521333253        3.2849258440       -0.4824289772
 O           8.0     0.3609071752       -3.3992326129       -0.5441724914
 H           1.0    -8.2199668140        3.1671586619        1.4302652062
 H           1.0    -9.5655630235       -2.9061045383        2.0573896487
 H           1.0    -2.0501542137        0.1619743370       -3.2779702376
 H           1.0    -2.6306800731        2.2713768758       -0.6725681359
 H           1.0     7.3723943253       -1.4620391383       -3.8975415981
 H           1.0    10.3162666810       -0.1530339921        1.5205212891
 H           1.0     6.1850557593        1.1764092186        3.7939511337
 H           1.0     2.7573889720        3.4706047366        1.3485510729
 H           1.0    -1.3518678035       -4.1611059388       -0.3504139911

          INTERNUCLEAR DISTANCES (ANGS.)
          ------------------------------

                1 P          2 O          3 O          4 O          5 O     

   1 P       0.0000000    1.5481991 *  1.6684678 *  1.6740467 *  1.6658220 *
   2 O       1.5481991 *  0.0000000    2.7645728 *  2.7296191 *  2.7388264 *
   3 O       1.6684678 *  2.7645728 *  0.0000000    2.5044539 *  2.5911415 *
   4 O       1.6740467 *  2.7296191 *  2.5044539 *  0.0000000    2.6283180 *
   5 O       1.6658220 *  2.7388264 *  2.5911415 *  2.6283180 *  0.0000000  
   6 C       2.7315669 *  3.6785658    2.9090343 *  3.9037665    1.4954185 *
   7 C       3.9289482    4.9720986    4.1755531    4.7247795    2.3667475 *
   8 H       4.0785276    5.3523255    4.1729681    4.5137507    2.6471229 *
   9 C       5.2031082    6.1381797    5.1768432    6.1441731    3.7499287  
  10 H       5.4456530    6.1300447    5.5520181    6.5877313    4.0298949  
  11 C       6.4203270    7.4431196    6.4469327    7.1213815    4.8708403  
  12 H       6.5263616    7.4898051    6.8133073    7.1303975    4.8897744  
  13 C       7.7310929    8.6605463    7.6329387    8.5625643    6.2316358  
  14 H       7.6271409    8.5227728    7.3441658    8.5801711    6.2560058  
  15 C       8.3865977    9.1259764    8.5124766    9.3099781    6.8288737  
  16 O       9.4760829   10.2304451    9.6532618   10.3115673    7.8777882  
  17 O       8.7515744    9.8111443    8.5659380    9.3991590    7.2595792  
  18 O       6.5677850    7.8041408    6.3636422    7.0157993    5.1512984  
  19 O       5.4367997    6.4514395    4.9510516    6.3996783    4.2816179  
  20 O       4.3753848    5.1625345    5.0892246    5.0953801    2.7189133 *
  21 H       2.2282614 *  3.3165350    0.9955696 *  2.3853134 *  3.3005813  
  22 H       2.2797543 *  2.8846181 *  3.4111656    0.9928596 *  3.1519646  
  23 H       3.1414643    3.6429168    3.4472437    4.5684923    2.1154097 *
  24 H       2.8630626 *  3.9455694    2.3879441 *  3.9760162    2.1414859 *
  25 H       7.9940823    8.5710081    8.2170677    9.0536113    6.4786168  
  26 H       9.4140946   10.4154164    9.3556006   10.0581327    7.8595514  
  27 H       7.5779264    8.8066288    7.3361097    8.0061723    6.1559024  
  28 H       5.8171054    6.9906258    5.2645532    6.5486418    4.6502715  
  29 H       3.7476782    4.4811939    4.7220636    4.3515756    2.1692233 *

                6 C          7 C          8 H          9 C         10 H     

   1 P       2.7315669 *  3.9289482    4.0785276    5.2031082    5.4456530  
   2 O       3.6785658    4.9720986    5.3523255    6.1381797    6.1300447  
   3 O       2.9090343 *  4.1755531    4.1729681    5.1768432    5.5520181  
   4 O       3.9037665    4.7247795    4.5137507    6.1441731    6.5877313  
   5 O       1.4954185 *  2.3667475 *  2.6471229 *  3.7499287    4.0298949  
   6 C       0.0000000    1.5171924 *  2.1481168 *  2.5044139 *  2.7605540 *
   7 C       1.5171924 *  0.0000000    1.0979221 *  1.5253660 *  2.1400830 *
   8 H       2.1481168 *  1.0979221 *  0.0000000    2.1500871 *  3.0449448  
   9 C       2.5044139 *  1.5253660 *  2.1500871 *  0.0000000    1.0943891 *
  10 H       2.7605540 *  2.1400830 *  3.0449448    1.0943891 *  0.0000000  
  11 C       3.8539053    2.5063584 *  2.6785608 *  1.5321340 *  2.1808993 *
  12 H       4.1301603    2.6665154 *  2.8550727 *  2.1771979 *  2.6134408 *
  13 C       5.0461491    3.8896216    4.1683275    2.5418139 *  2.7450048 *
  14 H       4.9170193    4.0237072    4.3704779    2.5259073 *  2.6406798 *
  15 C       5.7224104    4.5975300    5.0891728    3.3554156    3.1088242  
  16 O       6.8554288    5.6357120    6.0262003    4.4887341    4.3119067  
  17 O       6.1576752    4.9000139    4.8951653    3.7153618    4.1340912  
  18 O       4.2438495    2.9603875 *  2.5711842 *  2.3689702 *  3.3352319  
  19 O       2.8833671 *  2.4531511 *  2.7390455 *  1.4551320 *  2.0849883 *
  20 O       2.4380364 *  1.4562507 *  2.1281140 *  2.3712341 *  2.5418909 *
  21 H       3.7653752    4.8859619    4.6941539    5.9279238    6.4056775  
  22 H       4.5698978    5.3103360    5.1438795    6.7849892    7.1677865  
  23 H       1.0942088 *  2.1587319 *  3.0612629    2.7255502 *  2.5303942 *
  24 H       1.0880751 *  2.1708290 *  2.4576175 *  2.8351943 *  3.2450916  
  25 H       5.3745133    4.4382762    5.1391558    3.2618206    2.6723715 *
  26 H       6.8179841    5.4991329    5.5551785    4.3582307    4.6329467  
  27 H       5.2197433    3.9270225    3.5737671    3.1497498    3.9839600  
  28 H       3.4180524    2.7347767 *  2.6251358 *  1.9200929 *  2.8185005 *
  29 H       2.4670010 *  1.9665548 *  2.4467289 *  3.2144657    3.3850704  

               11 C         12 H         13 C         14 H         15 C     

   1 P       6.4203270    6.5263616    7.7310929    7.6271409    8.3865977  
   2 O       7.4431196    7.4898051    8.6605463    8.5227728    9.1259764  
   3 O       6.4469327    6.8133073    7.6329387    7.3441658    8.5124766  
   4 O       7.1213815    7.1303975    8.5625643    8.5801711    9.3099781  
   5 O       4.8708403    4.8897744    6.2316358    6.2560058    6.8288737  
   6 C       3.8539053    4.1301603    5.0461491    4.9170193    5.7224104  
   7 C       2.5063584 *  2.6665154 *  3.8896216    4.0237072    4.5975300  
   8 H       2.6785608 *  2.8550727 *  4.1683275    4.3704779    5.0891728  
   9 C       1.5321340 *  2.1771979 *  2.5418139 *  2.5259073 *  3.3554156  
  10 H       2.1808993 *  2.6134408 *  2.7450048 *  2.6406798 *  3.1088242  
  11 C       0.0000000    1.0947276 *  1.5597984 *  2.1506402 *  2.5290760 *
  12 H       1.0947276 *  0.0000000    2.2283454 *  3.0560518    2.6405309 *
  13 C       1.5597984 *  2.2283454 *  0.0000000    1.0961458 *  1.5072094 *
  14 H       2.1506402 *  3.0560518    1.0961458 *  0.0000000    2.1784841 *
  15 C       2.5290760 *  2.6405309 *  1.5072094 *  2.1784841 *  0.0000000  
  16 O       3.4253805    3.3256467    2.3851008 *  3.1613507    1.2375210 *
  17 O       2.4345303 *  2.9494549 *  1.4578778 *  2.1037474 *  2.4068357 *
  18 O       1.4642156 *  2.1332310 *  2.4053832 *  2.8009395 *  3.7070891  
  19 O       2.4087442 *  3.3640901    2.9514294 *  2.4411549 *  4.0917019  
  20 O       2.8996560 *  2.4949724 *  4.2457411    4.6426249    4.5210011  
  21 H       7.0973722    7.4620131    8.3216113    8.0509222    9.2823922  
  22 H       7.7058026    7.5914312    9.1785383    9.2710390    9.8236278  
  23 H       4.1779677    4.4329005    5.1590012    4.9542451    5.6113664  
  24 H       4.1922737    4.6885316    5.2776979    4.9762995    6.1595108  
  25 H       2.9055894 *  2.9541971 *  2.2285151 *  2.5902243 *  1.0987860 *
  26 H       2.9948237 *  3.2030056    1.9658386 *  2.7758967 *  2.2386484 *
  27 H       1.9518365 *  2.5443702 *  2.2564281 *  2.7595177 *  3.5641979  
  28 H       2.2843487 *  3.2834719    2.9021276 *  2.5520407 *  4.2636263  
  29 H       3.8390994    3.4167996    5.2297177    5.5946662    5.5077629  

               16 O         17 O         18 O         19 O         20 O     

   1 P       9.4760829    8.7515744    6.5677850    5.4367997    4.3753848  
   2 O      10.2304451    9.8111443    7.8041408    6.4514395    5.1625345  
   3 O       9.6532618    8.5659380    6.3636422    4.9510516    5.0892246  
   4 O      10.3115673    9.3991590    7.0157993    6.3996783    5.0953801  
   5 O       7.8777882    7.2595792    5.1512984    4.2816179    2.7189133 *
   6 C       6.8554288    6.1576752    4.2438495    2.8833671 *  2.4380364 *
   7 C       5.6357120    4.9000139    2.9603875 *  2.4531511 *  1.4562507 *
   8 H       6.0262003    4.8951653    2.5711842 *  2.7390455 *  2.1281140 *
   9 C       4.4887341    3.7153618    2.3689702 *  1.4551320 *  2.3712341 *
  10 H       4.3119067    4.1340912    3.3352319    2.0849883 *  2.5418909 *
  11 C       3.4253805    2.4345303 *  1.4642156 *  2.4087442 *  2.8996560 *
  12 H       3.3256467    2.9494549 *  2.1332310 *  3.3640901    2.4949724 *
  13 C       2.3851008 *  1.4578778 *  2.4053832 *  2.9514294 *  4.2457411  
  14 H       3.1613507    2.1037474 *  2.8009395 *  2.4411549 *  4.6426249  
  15 C       1.2375210 *  2.4068357 *  3.7070891    4.0917019    4.5210011  
  16 O       0.0000000    2.6168272 *  4.4097684    5.2273962    5.4185211  
  17 O       2.6168272 *  0.0000000    2.5346626 *  3.9096089    5.2854596  
  18 O       4.4097684    2.5346626 *  0.0000000    2.5927045 *  3.6980190  
  19 O       5.2273962    3.9096089    2.5927045 *  0.0000000    3.6761073  
  20 O       5.4185211    5.2854596    3.6980190    3.6761073    0.0000000  
  21 H      10.3956010    9.1489245    6.8426951    5.6336169    5.8124598  
  22 H      10.7830790   10.0280148    7.6751311    7.1866378    5.4365362  
  23 H       6.7821916    6.4285167    4.8565004    3.1784817    2.6966793 *
  24 H       7.3189064    6.2919544    4.3081651    2.6408702 *  3.3934207  
  25 H       2.0535824 *  3.4139110    4.2746553    4.1130978    4.2386653  
  26 H       1.9596171 *  1.0071977 *  3.3140951    4.7585254    5.6478349  
  27 H       4.0431590    1.8045940 *  1.0110618 *  3.2706899    4.5421944  
  28 H       5.2687970    3.5072995    1.8932003 *  1.0099175 *  3.9783499  
  29 H       6.3809381    6.2328848    4.4666274    4.3781108    0.9972698 *

               21 H         22 H         23 H         24 H         25 H     

   1 P       2.2282614 *  2.2797543 *  3.1414643    2.8630626 *  7.9940823  
   2 O       3.3165350    2.8846181 *  3.6429168    3.9455694    8.5710081  
   3 O       0.9955696 *  3.4111656    3.4472437    2.3879441 *  8.2170677  
   4 O       2.3853134 *  0.9928596 *  4.5684923    3.9760162    9.0536113  
   5 O       3.3005813    3.1519646    2.1154097 *  2.1414859 *  6.4786168  
   6 C       3.7653752    4.5698978    1.0942088 *  1.0880751 *  5.3745133  
   7 C       4.8859619    5.3103360    2.1587319 *  2.1708290 *  4.4382762  
   8 H       4.6941539    5.1438795    3.0612629    2.4576175 *  5.1391558  
   9 C       5.9279238    6.7849892    2.7255502 *  2.8351943 *  3.2618206  
  10 H       6.4056775    7.1677865    2.5303942 *  3.2450916    2.6723715 *
  11 C       7.0973722    7.7058026    4.1779677    4.1922737    2.9055894 *
  12 H       7.4620131    7.5914312    4.4329005    4.6885316    2.9541971 *
  13 C       8.3216113    9.1785383    5.1590012    5.2776979    2.2285151 *
  14 H       8.0509222    9.2710390    4.9542451    4.9762995    2.5902243 *
  15 C       9.2823922    9.8236278    5.6113664    6.1595108    1.0987860 *
  16 O      10.3956010   10.7830790    6.7821916    7.3189064    2.0535824 *
  17 O       9.1489245   10.0280148    6.4285167    6.2919544    3.4139110  
  18 O       6.8426951    7.6751311    4.8565004    4.3081651    4.2746553  
  19 O       5.6336169    7.1866378    3.1784817    2.6408702 *  4.1130978  
  20 O       5.8124598    5.4365362    2.6966793 *  3.3934207    4.2386653  
  21 H       0.0000000    3.3084558    4.4041157    3.1954796    9.0570773  
  22 H       3.3084558    0.0000000    5.1403937    4.8021657    9.5316697  
  23 H       4.4041157    5.1403937    0.0000000    1.8003470 *  5.0703275  
  24 H       3.1954796    4.8021657    1.8003470 *  0.0000000    5.9021733  
  25 H       9.0570773    9.5316697    5.0703275    5.9021733    0.0000000  
  26 H       9.9651787   10.6251989    7.0213888    7.0662669    3.3357180  
  27 H       7.7962513    8.6591988    5.7692416    5.2616812    4.3486086  
  28 H       5.8113468    7.3519466    3.9410103    3.1106603    4.5259580  
  29 H       5.3977393    4.5778370    2.7874741 *  3.4747238    5.1843121  

               26 H         27 H         28 H         29 H     

   1 P       9.4140946    7.5779264    5.8171054    3.7476782  
   2 O      10.4154164    8.8066288    6.9906258    4.4811939  
   3 O       9.3556006    7.3361097    5.2645532    4.7220636  
   4 O      10.0581327    8.0061723    6.5486418    4.3515756  
   5 O       7.8595514    6.1559024    4.6502715    2.1692233 *
   6 C       6.8179841    5.2197433    3.4180524    2.4670010 *
   7 C       5.4991329    3.9270225    2.7347767 *  1.9665548 *
   8 H       5.5551785    3.5737671    2.6251358 *  2.4467289 *
   9 C       4.3582307    3.1497498    1.9200929 *  3.2144657  
  10 H       4.6329467    3.9839600    2.8185005 *  3.3850704  
  11 C       2.9948237 *  1.9518365 *  2.2843487 *  3.8390994  
  12 H       3.2030056    2.5443702 *  3.2834719    3.4167996  
  13 C       1.9658386 *  2.2564281 *  2.9021276 *  5.2297177  
  14 H       2.7758967 *  2.7595177 *  2.5520407 *  5.5946662  
  15 C       2.2386484 *  3.5641979    4.2636263    5.5077629  
  16 O       1.9596171 *  4.0431590    5.2687970    6.3809381  
  17 O       1.0071977 *  1.8045940 *  3.5072995    6.2328848  
  18 O       3.3140951    1.0110618 *  1.8932003 *  4.4666274  
  19 O       4.7585254    3.2706899    1.0099175 *  4.3781108  
  20 O       5.6478349    4.5421944    3.9783499    0.9972698 *
  21 H       9.9651787    7.7962513    5.8113468    5.3977393  
  22 H      10.6251989    8.6591988    7.3519466    4.5778370  
  23 H       7.0213888    5.7692416    3.9410103    2.7874741 *
  24 H       7.0662669    5.2616812    3.1106603    3.4747238  
  25 H       3.3357180    4.3486086    4.5259580    5.1843121  
  26 H       0.0000000    2.5925800 *  4.4367959    6.6032840  
  27 H       2.5925800 *  0.0000000    2.5374153 *  5.3567285  
  28 H       4.4367959    2.5374153 *  0.0000000    4.6740307  
  29 H       6.6032840    5.3567285    4.6740307    0.0000000  

  * ... LESS THAN  3.000


     ATOMIC BASIS SET
     ----------------
 THE CONTRACTED PRIMITIVE FUNCTIONS HAVE BEEN UNNORMALIZED
 THE CONTRACTED BASIS FUNCTIONS ARE NOW NORMALIZED TO UNITY

  SHELL TYPE  PRIMITIVE        EXPONENT          CONTRACTION COEFFICIENT(S)

 P         

      1   S       1          1054.9000000    0.065540713549
      1   S       2           159.1950000    0.384036079392
      1   S       3            34.5304000    0.674541139449

      2   L       4            44.2866000   -0.102130053458    0.110851002536
      2   L       5            10.1019000    0.081592242708    0.456495010442
      2   L       6             2.7399700    0.969788507613    0.606936013883

      3   L       7             1.2186500   -0.371496021877    0.091582310217
      3   L       8             0.3955460    1.270993496131    0.934924104303

      4   L       9             0.1228110    1.000000000000    1.000000000000

 O         

      5   S      10           322.0370000    0.059239393389
      5   S      11            48.4308000    0.351499960776
      5   S      12            10.4206000    0.707657921031

      6   L      13             7.4029400   -0.404453583190    0.244586106967
      6   L      14             1.5762000    1.221561761397    0.853955373466

      7   L      15             0.3736840    1.000000000000    1.000000000000

 O         

      8   S      16           322.0370000    0.059239393389
      8   S      17            48.4308000    0.351499960776
      8   S      18            10.4206000    0.707657921031

      9   L      19             7.4029400   -0.404453583190    0.244586106967
      9   L      20             1.5762000    1.221561761397    0.853955373466

     10   L      21             0.3736840    1.000000000000    1.000000000000

 O         

     11   S      22           322.0370000    0.059239393389
     11   S      23            48.4308000    0.351499960776
     11   S      24            10.4206000    0.707657921031

     12   L      25             7.4029400   -0.404453583190    0.244586106967
     12   L      26             1.5762000    1.221561761397    0.853955373466

     13   L      27             0.3736840    1.000000000000    1.000000000000

 O         

     14   S      28           322.0370000    0.059239393389
     14   S      29            48.4308000    0.351499960776
     14   S      30            10.4206000    0.707657921031

     15   L      31             7.4029400   -0.404453583190    0.244586106967
     15   L      32             1.5762000    1.221561761397    0.853955373466

     16   L      33             0.3736840    1.000000000000    1.000000000000

 C         

     17   S      34           172.2560000    0.061766907377
     17   S      35            25.9109000    0.358794042852
     17   S      36             5.5333500    0.700713083689

     18   L      37             3.6649800   -0.395895162119    0.236459946619
     18   L      38             0.7705450    1.215834355681    0.860618805716

     19   L      39             0.1958570    1.000000000000    1.000000000000

 C         

     20   S      40           172.2560000    0.061766907377
     20   S      41            25.9109000    0.358794042852
     20   S      42             5.5333500    0.700713083689

     21   L      43             3.6649800   -0.395895162119    0.236459946619
     21   L      44             0.7705450    1.215834355681    0.860618805716

     22   L      45             0.1958570    1.000000000000    1.000000000000

 H         

     23   S      46             5.4471780    0.156284978695
     23   S      47             0.8245472    0.904690876670

     24   S      48             0.1831916    1.000000000000

 C         

     25   S      49           172.2560000    0.061766907377
     25   S      50            25.9109000    0.358794042852
     25   S      51             5.5333500    0.700713083689

     26   L      52             3.6649800   -0.395895162119    0.236459946619
     26   L      53             0.7705450    1.215834355681    0.860618805716

     27   L      54             0.1958570    1.000000000000    1.000000000000

 H         

     28   S      55             5.4471780    0.156284978695
     28   S      56             0.8245472    0.904690876670

     29   S      57             0.1831916    1.000000000000

 C         

     30   S      58           172.2560000    0.061766907377
     30   S      59            25.9109000    0.358794042852
     30   S      60             5.5333500    0.700713083689

     31   L      61             3.6649800   -0.395895162119    0.236459946619
     31   L      62             0.7705450    1.215834355681    0.860618805716

     32   L      63             0.1958570    1.000000000000    1.000000000000

 H         

     33   S      64             5.4471780    0.156284978695
     33   S      65             0.8245472    0.904690876670

     34   S      66             0.1831916    1.000000000000

 C         

     35   S      67           172.2560000    0.061766907377
     35   S      68            25.9109000    0.358794042852
     35   S      69             5.5333500    0.700713083689

     36   L      70             3.6649800   -0.395895162119    0.236459946619
     36   L      71             0.7705450    1.215834355681    0.860618805716

     37   L      72             0.1958570    1.000000000000    1.000000000000

 H         

     38   S      73             5.4471780    0.156284978695
     38   S      74             0.8245472    0.904690876670

     39   S      75             0.1831916    1.000000000000

 C         

     40   S      76           172.2560000    0.061766907377
     40   S      77            25.9109000    0.358794042852
     40   S      78             5.5333500    0.700713083689

     41   L      79             3.6649800   -0.395895162119    0.236459946619
     41   L      80             0.7705450    1.215834355681    0.860618805716

     42   L      81             0.1958570    1.000000000000    1.000000000000

 O         

     43   S      82           322.0370000    0.059239393389
     43   S      83            48.4308000    0.351499960776
     43   S      84            10.4206000    0.707657921031

     44   L      85             7.4029400   -0.404453583190    0.244586106967
     44   L      86             1.5762000    1.221561761397    0.853955373466

     45   L      87             0.3736840    1.000000000000    1.000000000000

 O         

     46   S      88           322.0370000    0.059239393389
     46   S      89            48.4308000    0.351499960776
     46   S      90            10.4206000    0.707657921031

     47   L      91             7.4029400   -0.404453583190    0.244586106967
     47   L      92             1.5762000    1.221561761397    0.853955373466

     48   L      93             0.3736840    1.000000000000    1.000000000000

 O         

     49   S      94           322.0370000    0.059239393389
     49   S      95            48.4308000    0.351499960776
     49   S      96            10.4206000    0.707657921031

     50   L      97             7.4029400   -0.404453583190    0.244586106967
     50   L      98             1.5762000    1.221561761397    0.853955373466

     51   L      99             0.3736840    1.000000000000    1.000000000000

 O         

     52   S     100           322.0370000    0.059239393389
     52   S     101            48.4308000    0.351499960776
     52   S     102            10.4206000    0.707657921031

     53   L     103             7.4029400   -0.404453583190    0.244586106967
     53   L     104             1.5762000    1.221561761397    0.853955373466

     54   L     105             0.3736840    1.000000000000    1.000000000000

 O         

     55   S     106           322.0370000    0.059239393389
     55   S     107            48.4308000    0.351499960776
     55   S     108            10.4206000    0.707657921031

     56   L     109             7.4029400   -0.404453583190    0.244586106967
     56   L     110             1.5762000    1.221561761397    0.853955373466

     57   L     111             0.3736840    1.000000000000    1.000000000000

 H         

     58   S     112             5.4471780    0.156284978695
     58   S     113             0.8245472    0.904690876670

     59   S     114             0.1831916    1.000000000000

 H         

     60   S     115             5.4471780    0.156284978695
     60   S     116             0.8245472    0.904690876670

     61   S     117             0.1831916    1.000000000000

 H         

     62   S     118             5.4471780    0.156284978695
     62   S     119             0.8245472    0.904690876670

     63   S     120             0.1831916    1.000000000000

 H         

     64   S     121             5.4471780    0.156284978695
     64   S     122             0.8245472    0.904690876670

     65   S     123             0.1831916    1.000000000000

 H         

     66   S     124             5.4471780    0.156284978695
     66   S     125             0.8245472    0.904690876670

     67   S     126             0.1831916    1.000000000000

 H         

     68   S     127             5.4471780    0.156284978695
     68   S     128             0.8245472    0.904690876670

     69   S     129             0.1831916    1.000000000000

 H         

     70   S     130             5.4471780    0.156284978695
     70   S     131             0.8245472    0.904690876670

     71   S     132             0.1831916    1.000000000000

 H         

     72   S     133             5.4471780    0.156284978695
     72   S     134             0.8245472    0.904690876670

     73   S     135             0.1831916    1.000000000000

 H         

     74   S     136             5.4471780    0.156284978695
     74   S     137             0.8245472    0.904690876670

     75   S     138             0.1831916    1.000000000000

 TOTAL NUMBER OF BASIS SET SHELLS             =   75
 NUMBER OF CARTESIAN GAUSSIAN BASIS FUNCTIONS =  174
 NUMBER OF ELECTRONS                          =  135
 CHARGE OF MOLECULE                           =    1
 SPIN MULTIPLICITY                            =    2
 NUMBER OF OCCUPIED ORBITALS (ALPHA)          =   68
 NUMBER OF OCCUPIED ORBITALS (BETA )          =   67
 TOTAL NUMBER OF ATOMS                        =   29
 THE NUCLEAR REPULSION ENERGY IS     1341.7803760088

     $CONTRL OPTIONS
     ---------------
 SCFTYP=UHF          RUNTYP=ENERGY       EXETYP=RUN     
 MPLEVL=       0     CITYP =NONE         CCTYP =NONE         VBTYP =NONE    
 DFTTYP=NONE         TDDFT =NONE    
 MULT  =       2     ICHARG=       1     NZVAR =       0     COORD =UNIQUE  
 PP    =NONE         RELWFN=NONE         LOCAL =NONE         NUMGRD=       F
 ISPHER=      -1     NOSYM =       0     MAXIT =      60     UNITS =ANGS    
 PLTORB=       F     MOLPLT=       F     AIMPAC=       F     FRIEND=        
 NPRINT=       7     IREST =       0     GEOM  =INPUT   
 NORMF =       0     NORMP =       0     ITOL  =      20     ICUT  =       9
 INTTYP=BEST         GRDTYP=BEST         QMTTOL= 1.0E-06

     $SYSTEM OPTIONS
     ---------------
  REPLICATED MEMORY=    30000000 WORDS (ON EVERY NODE).
 DISTRIBUTED MEMDDI=        1000 MILLION WORDS IN AGGREGATE,
 MEMDDI DISTRIBUTED OVER   8 PROCESSORS IS   125000000 WORDS/PROCESSOR.
 TOTAL MEMORY REQUESTED ON EACH PROCESSOR=   155000000 WORDS.
 TIMLIM=      525600.00 MINUTES, OR     365.0 DAYS.
 PARALL= T  BALTYP=  DLB     KDIAG=    0  COREFL= F
 MXSEQ2=     300 MXSEQ3=     150  mem10=         0

          ----------------
          PROPERTIES INPUT
          ----------------

     MOMENTS            FIELD           POTENTIAL          DENSITY
 IEMOM =       1   IEFLD =       0   IEPOT =       0   IEDEN =       0
 WHERE =COMASS     WHERE =NUCLEI     WHERE =NUCLEI     WHERE =NUCLEI  
 OUTPUT=BOTH       OUTPUT=BOTH       OUTPUT=BOTH       OUTPUT=BOTH    
 IEMINT=       0   IEFINT=       0                     IEDINT=       0
                                                       MORB  =       0
          EXTRAPOLATION IN EFFECT
          SOSCF IN EFFECT
          DIIS or SOSCF will be reset if energy rises
 ORBITAL PRINTING OPTION: NPREO=     1   174     2     1

     -------------------------------
     INTEGRAL TRANSFORMATION OPTIONS
     -------------------------------
     NWORD  =            0
     CUTOFF = 1.0E-09     MPTRAN =       0
     DIRTRF =       T     AOINTS =DUP     

          ----------------------
          INTEGRAL INPUT OPTIONS
          ----------------------
 NOPK  =       1 NORDER=       0 SCHWRZ=       T

     ------------------------------------------
     THE POINT GROUP IS C1 , NAXIS= 0, ORDER= 1
     ------------------------------------------

     DIMENSIONS OF THE SYMMETRY SUBSPACES ARE
 A   =  174

 ..... DONE SETTING UP THE RUN .....
 CPU     0: STEP CPU TIME=     0.03 TOTAL CPU TIME=          0.0 (      0.0 MIN)
 TOTAL WALL CLOCK TIME=          0.0 SECONDS, CPU UTILIZATION IS   100.00%

          ********************
          1 ELECTRON INTEGRALS
          ********************
 ...... END OF ONE-ELECTRON INTEGRALS ......
 CPU     0: STEP CPU TIME=     0.00 TOTAL CPU TIME=          0.0 (      0.0 MIN)
 TOTAL WALL CLOCK TIME=          0.1 SECONDS, CPU UTILIZATION IS    60.00%

          -------------
          GUESS OPTIONS
          -------------
          GUESS =HUCKEL            NORB  =       0          NORDER=       0
          MIX   =       F          PRTMO =       F          PUNMO =       F
          TOLZ  = 1.0E-08          TOLE  = 1.0E-05
          SYMDEN=       F          PURIFY=       F

 INITIAL GUESS ORBITALS GENERATED BY HUCKEL   ROUTINE.
 HUCKEL GUESS REQUIRES    278994 WORDS.

 SYMMETRIES FOR INITIAL GUESS ORBITALS FOLLOW.  ALPHA SET(S).
    68 ORBITALS ARE OCCUPIED (   20 CORE ORBITALS).
    21=A       22=A       23=A       24=A       25=A       26=A       27=A   
    28=A       29=A       30=A       31=A       32=A       33=A       34=A   
    35=A       36=A       37=A       38=A       39=A       40=A       41=A   
    42=A       43=A       44=A       45=A       46=A       47=A       48=A   
    49=A       50=A       51=A       52=A       53=A       54=A       55=A   
    56=A       57=A       58=A       59=A       60=A       61=A       62=A   
    63=A       64=A       65=A       66=A       67=A       68=A       69=A   
    70=A       71=A       72=A       73=A       74=A       75=A       76=A   
    77=A       78=A   

 SYMMETRIES FOR INITIAL GUESS ORBITALS FOLLOW.   BETA SET(S).
    67 ORBITALS ARE OCCUPIED (   20 CORE ORBITALS).
    21=A       22=A       23=A       24=A       25=A       26=A       27=A   
    28=A       29=A       30=A       31=A       32=A       33=A       34=A   
    35=A       36=A       37=A       38=A       39=A       40=A       41=A   
    42=A       43=A       44=A       45=A       46=A       47=A       48=A   
    49=A       50=A       51=A       52=A       53=A       54=A       55=A   
    56=A       57=A       58=A       59=A       60=A       61=A       62=A   
    63=A       64=A       65=A       66=A       67=A       68=A       69=A   
    70=A       71=A       72=A       73=A       74=A       75=A       76=A   
    77=A   
 ...... END OF INITIAL ORBITAL SELECTION ......
 CPU     0: STEP CPU TIME=     0.06 TOTAL CPU TIME=          0.1 (      0.0 MIN)
 TOTAL WALL CLOCK TIME=          0.1 SECONDS, CPU UTILIZATION IS    90.00%

                    ----------------------
                    AO INTEGRAL TECHNOLOGY
                    ----------------------
     S,P,L SHELL ROTATED AXIS INTEGRALS, REPROGRAMMED BY
        KAZUYA ISHIMURA (IMS) AND JOSE SIERRA (SYNSTAR).
     S,P,D,L SHELL ROTATED AXIS INTEGRALS PROGRAMMED BY
        KAZUYA ISHIMURA (INSTITUTE FOR MOLECULAR SCIENCE).
     S,P,D,F,G SHELL TO TOTAL QUARTET ANGULAR MOMENTUM SUM 5,
        ERIC PROGRAM BY GRAHAM FLETCHER (ELORET AND NASA ADVANCED
        SUPERCOMPUTING DIVISION, AMES RESEARCH CENTER).
     S,P,D,F,G,L SHELL GENERAL RYS QUADRATURE PROGRAMMED BY
        MICHEL DUPUIS (PACIFIC NORTHWEST NATIONAL LABORATORY).

          --------------------
          2 ELECTRON INTEGRALS
          --------------------

 DIRECT SCF METHOD SKIPS INTEGRAL STORAGE ON DISK.
 DIRECT TRANSFORMATION SKIPS AO INTEGRAL STORAGE ON DISK.
  ...... END OF TWO-ELECTRON INTEGRALS .....
 CPU     0: STEP CPU TIME=     0.01 TOTAL CPU TIME=          0.1 (      0.0 MIN)
 TOTAL WALL CLOCK TIME=          0.1 SECONDS, CPU UTILIZATION IS    90.91%

          ---------------------------
                  UHF SCF CALCULATION
          ---------------------------

     NUCLEAR ENERGY =      1341.7803760088
     MAXIT = 60     NPUNCH=  2     MULT=  2
     EXTRAP=T  DAMP=F  SHIFT=F  RSTRCT=F  DIIS=F  SOSCF=T
     DENSITY MATRIX CONV=  2.00E-05
     SOSCF WILL OPTIMIZE    7208 ALPHA AND    7169 BETA ROTATION ANGLES.
     SOGTOL= 2.500E-01
     MEMORY REQUIRED FOR UHF/ROHF ITERS=    456239 WORDS.

 DIRECT SCF CALCULATION, SCHWRZ=T   FDIFF=T
 SCHWARZ INEQUALITY OVERHEAD:     11628 INTEGRALS, T=        0.00

                                                                                NONZERO     BLOCKS
 ITER EX      TOTAL ENERGY        E CHANGE  DENSITY CHANGE    ORB. GRAD       INTEGRALS    SKIPPED
   1  0    -1238.9747557807 -1238.9747557807   0.937547033   0.000000000       32704302    2967716
          ---------------START SECOND ORDER SCF---------------
   2  1    -1241.4027109227    -2.4279551420   0.393348417   0.181379556       32691725    2977088
   3  2    -1241.6705368215    -0.2678258988   0.168982710   0.104808897       32489000    3018221
   4  3    -1242.0858111619    -0.4152743404   0.321597909   0.047477107       32253583    3057181
   5  4    -1242.0850797165     0.0007314454   0.231228587   0.073660566       31650377    3103492
   6  5    -1242.0881635160    -0.0030837995   0.272598880   0.063978735       31102131    3137924
   7  6    -1242.0830173178     0.0051461981   0.099291371   0.050548139       31537954    3114726
   8  7    -1242.1421749682    -0.0591576503   0.083191791   0.012892021       30954197    3152137
   9  8    -1242.1407864138     0.0013885544   0.054132022   0.025150531       30638014    3174281
  10  9    -1242.1451300104    -0.0043435966   0.013270899   0.007268488       29628946    3226904
  11 10    -1242.1450877322     0.0000422782   0.006139919   0.005837130       29657967    3227300
  12 11    -1242.1455234998    -0.0004357676   0.003285356   0.001447205       28752280    3267488
  13 12    -1242.1455219095     0.0000015903   0.001772070   0.002159194       27550264    3312530
  14 13    -1242.1455571362    -0.0000352268   0.002817831   0.000405314       26382510    3358686
  15 14    -1242.1455601310    -0.0000029947   0.001117301   0.000537692       26201829    3364460
  16 15    -1242.1455669786    -0.0000068477   0.000993505   0.000193471       25056697    3404311
  17 16    -1242.1455684866    -0.0000015080   0.000518705   0.000238221       25545259    3387107
  18 17    -1242.1455696864    -0.0000011997   0.000822034   0.000118636       24456578    3428709
  19 18    -1242.1455700345    -0.0000003482   0.000232141   0.000171217       23938143    3445090
  20 19    -1242.1455704260    -0.0000003914   0.000455071   0.000077212       22577330    3485669
  21 20    -1242.1455707026    -0.0000002766   0.000879849   0.000093752       23085731    3472360
  22 21    -1242.1455711410    -0.0000004384   0.003129935   0.000098059       23388996    3461049
  23 22    -1242.1455721576    -0.0000010167   0.003381269   0.000128211       25165409    3400539
  24 23    -1242.1455731912    -0.0000010335   0.004109478   0.000161740       24982658    3409458
  25 24    -1242.1455747023    -0.0000015111   0.007028174   0.000161690       25297852    3399467
  26 25    -1242.1455773103    -0.0000026079   0.007071349   0.000271905       26349476    3359034
  27 26    -1242.1455806416    -0.0000033314   0.012139630   0.000315333       26617835    3347865
  28 27    -1242.1455876154    -0.0000069738   0.011730130   0.000461462       27536503    3311950
  29 28    -1242.1455997396    -0.0000121242   0.010808975   0.000591935       27772548    3301327
  30 29    -1242.1456277019    -0.0000279623   0.013806499   0.000998142       27245367    3319861
  31 30    -1242.1456704251    -0.0000427232   0.010543332   0.001146126       27697654    3304335
  32 31    -1242.1456968811    -0.0000264560   0.008647812   0.000679955       27861764    3297050
  33 32    -1242.1457033220    -0.0000064409   0.012965090   0.000475698       27314682    3318058
  34 33    -1242.1457040728    -0.0000007508   0.005904354   0.000688332       27508668    3313822
  35 34    -1242.1457152753    -0.0000112025   0.002876659   0.000436326       26721557    3341119
  36 35    -1242.1457169741    -0.0000016988   0.001449685   0.000260103       24729161    3418377
  37 36    -1242.1457180110    -0.0000010369   0.000456610   0.000118457       24523828    3420013
  38 37    -1242.1457182878    -0.0000002768   0.000178607   0.000082123       23721971    3448487
  39 38    -1242.1457184008    -0.0000001130   0.000304556   0.000053361       22674664    3480870
  40 39    -1242.1457184249    -0.0000000241   0.000079323   0.000027246       21445016    3526377
  41 40    -1242.1457184341    -0.0000000092   0.000104521   0.000023171       20018616    3568697
  42 41    -1242.1457184393    -0.0000000052   0.000065159   0.000006847       19804338    3578093
  43 42    -1242.1457184407    -0.0000000014   0.000031564   0.000005807       19044545    3598525
  44 43    -1242.1457184417    -0.0000000010   0.000015085   0.000002608       17797208    3638901
  45 44    -1242.1457184420    -0.0000000003   0.000003608   0.000002065       16695849    3672158

          -----------------
          DENSITY CONVERGED
          -----------------
     TIME TO FORM FOCK OPERATORS=      14.8 SECONDS (       0.3 SEC/ITER)
     FOCK TIME ON FIRST ITERATION=       0.4, LAST ITERATION=       0.2
     TIME TO SOLVE SCF EQUATIONS=       0.9 SECONDS (       0.0 SEC/ITER)

 FINAL UHF ENERGY IS    -1242.1457184420 AFTER  45 ITERATIONS

          --------------------
          SPIN SZ   =    0.500
          S-SQUARED =    0.822
          --------------------

  ----- ALPHA SET ----- 

          ------------
          EIGENVECTORS
          ------------

                      1          2          3          4          5
                  -79.9001   -20.8700   -20.7508   -20.7426   -20.7385
                     A          A          A          A          A   
    1  P  1  S    0.986983   0.000062   0.000098   0.000089   0.000081
    2  P  1  S    0.049325  -0.000795  -0.001225  -0.001050  -0.001055
    3  P  1  X    0.000031   0.000120   0.000155  -0.000450   0.000079
    4  P  1  Y    0.000014   0.000057   0.000177  -0.000049  -0.000400
    5  P  1  Z    0.000024   0.000171  -0.000340  -0.000042  -0.000251
    6  P  1  S   -0.015206  -0.000148  -0.001947  -0.001300  -0.001949
    7  P  1  X   -0.000193  -0.001516  -0.000981   0.002413  -0.000614
    8  P  1  Y   -0.000046  -0.000736  -0.001116   0.000118   0.002200
    9  P  1  Z    0.000031  -0.002376   0.001565   0.000001   0.001078
   10  P  1  S    0.001031   0.011969   0.014378   0.011641   0.012737
   11  P  1  X    0.000081  -0.005092  -0.001136   0.006274   0.002888
   12  P  1  Y   -0.000038  -0.003118   0.000304  -0.000675   0.007682
   13  P  1  Z   -0.001029  -0.008148   0.009088   0.002852   0.003300
   14  O  2  S   -0.000139   0.983023  -0.000926  -0.000617  -0.000530
   15  O  2  S   -0.001064   0.096989   0.000329   0.000224   0.000169
   16  O  2  X   -0.000112   0.001911  -0.000257   0.000473   0.000055
   17  O  2  Y   -0.000070   0.000993  -0.000093  -0.000096   0.000634
   18  O  2  Z   -0.000267   0.003209   0.000576   0.000022   0.000061
   19  O  2  S    0.002276  -0.038702  -0.000535  -0.000349  -0.000088
   20  O  2  X    0.001146  -0.003898   0.000935  -0.001728  -0.000140
   21  O  2  Y    0.000643  -0.001997   0.000339   0.000396  -0.002291
   22  O  2  Z    0.002182  -0.006485  -0.002179  -0.000034  -0.000117
   23  O  3  S   -0.000141   0.000637   0.027207   0.061606   0.981053
   24  O  3  S   -0.001318   0.000357   0.004137   0.007145   0.096509
   25  O  3  X    0.000040  -0.000386  -0.000079   0.000326  -0.001821
   26  O  3  Y    0.000559  -0.000092  -0.000560  -0.000586  -0.002599
   27  O  3  Z    0.000109  -0.000627   0.000262   0.000027   0.001139
   28  O  3  S    0.002586  -0.000410  -0.005483  -0.005559  -0.040147
   29  O  3  X   -0.000229   0.001370   0.000354  -0.001557   0.002831
   30  O  3  Y   -0.002573   0.000337   0.002816   0.002553   0.005353
   31  O  3  Z   -0.000409   0.002283  -0.001040   0.000121  -0.002029
   32  O  4  S   -0.000146   0.000980   0.982590  -0.029767  -0.025056
   33  O  4  S   -0.001370   0.000541   0.096731  -0.001869  -0.001087
   34  O  4  X   -0.000247  -0.000380   0.000170   0.000628   0.000286
   35  O  4  Y   -0.000143  -0.000205  -0.001277   0.000156   0.000556
   36  O  4  Z    0.000515  -0.000603  -0.002949  -0.000027   0.000018
   37  O  4  S    0.002803  -0.000771  -0.040521  -0.001823  -0.003040
   38  O  4  X    0.001142   0.001413  -0.001215  -0.002616  -0.001495
   39  O  4  Y    0.000703   0.000846   0.001502  -0.000707  -0.002617
   40  O  4  Z   -0.002318   0.002286   0.005608   0.000681   0.000745
   41  O  5  S   -0.000133   0.000664   0.028344   0.981101  -0.062154
   42  O  5  S   -0.001234   0.000383   0.003800   0.097799  -0.005145
   43  O  5  X    0.000676  -0.000351  -0.000612  -0.000839  -0.000243
   44  O  5  Y   -0.000250  -0.000323   0.000080   0.002658   0.000237
   45  O  5  Z    0.000025  -0.000589   0.000515  -0.001151   0.000385
   46  O  5  S    0.002491  -0.000589  -0.003886  -0.044216  -0.000167
   47  O  5  X   -0.002879   0.001302   0.002994  -0.000273   0.001900
   48  O  5  Y    0.001117   0.001191  -0.000209  -0.006195  -0.001247
   49  O  5  Z   -0.000090   0.002107  -0.002108   0.002078  -0.001382
   50  C  6  S    0.000015  -0.000007   0.000077  -0.000746   0.000159
   51  C  6  S    0.000086  -0.000038   0.000418  -0.002892   0.001104
   52  C  6  X   -0.000120  -0.000180   0.000061  -0.001243  -0.000406
   53  C  6  Y    0.000028   0.000085   0.000025  -0.000532   0.000044
   54  C  6  Z    0.000048  -0.000254   0.000213   0.000295  -0.000023
   55  C  6  S   -0.000064   0.000718  -0.002167   0.016816  -0.003156
   56  C  6  X    0.000828   0.001377  -0.000215  -0.002223   0.002709
   57  C  6  Y   -0.000641  -0.000538   0.001212  -0.006440   0.000015
   58  C  6  Z   -0.000232   0.000671  -0.001171   0.003369   0.000134
   59  C  7  S    0.000007   0.000058  -0.000066   0.000289  -0.000003
   60  C  7  S   -0.000036   0.000402  -0.000387   0.001288   0.000039
   61  C  7  X    0.000240  -0.000135   0.000013   0.000586  -0.000081
   62  C  7  Y    0.000043   0.000038  -0.000063   0.000031   0.000021
   63  C  7  Z   -0.000038   0.000050  -0.000066  -0.000169  -0.000041
   64  C  7  S   -0.000753  -0.001862   0.002292  -0.009761  -0.000254
   65  C  7  X   -0.000949   0.001136  -0.000861   0.001913   0.000273
   66  C  7  Y   -0.000403  -0.000352   0.000631  -0.001432  -0.000345
   67  C  7  Z    0.000628   0.000094  -0.000109   0.003725   0.000379
   68  H  8  S   -0.000041   0.000106  -0.000134   0.000412   0.000044
   69  H  8  S   -0.000291   0.000356  -0.000328  -0.001029  -0.000289
   70  C  9  S   -0.000028   0.000001   0.000023  -0.000147   0.000010
   71  C  9  S   -0.000162   0.000040   0.000126  -0.000892   0.000089
   72  C  9  X   -0.000037  -0.000037  -0.000038   0.000419  -0.000098
   73  C  9  Y   -0.000006   0.000002   0.000023  -0.000111   0.000033
   74  C  9  Z   -0.000040  -0.000003  -0.000001   0.000123  -0.000027
   75  C  9  S    0.001198  -0.000040  -0.000543   0.003666   0.000029
   76  C  9  X   -0.000285   0.000107   0.000491  -0.004148   0.000502
   77  C  9  Y   -0.000306   0.000064  -0.000204  -0.000060  -0.000211
   78  C  9  Z    0.000395   0.000110  -0.000138  -0.000698   0.000238
   79  H 10  S   -0.000029   0.000005   0.000033  -0.000439   0.000041
   80  H 10  S    0.000063   0.000070  -0.000065  -0.000147   0.000037
   81  C 11  S    0.000010   0.000009  -0.000003  -0.000028   0.000016
   82  C 11  S    0.000044   0.000065  -0.000020  -0.000192   0.000100
   83  C 11  X    0.000036  -0.000047   0.000044  -0.000181  -0.000007
   84  C 11  Y    0.000010  -0.000010   0.000005  -0.000084  -0.000004
   85  C 11  Z   -0.000002   0.000007  -0.000014   0.000047  -0.000009
   86  C 11  S   -0.000419  -0.000141  -0.000082   0.001700  -0.000510
   87  C 11  X    0.000051   0.000327  -0.000262   0.000667   0.000253
   88  C 11  Y   -0.000145   0.000025  -0.000004   0.000924  -0.000058
   89  C 11  Z    0.000140  -0.000063   0.000173  -0.000776   0.000149
   90  H 12  S    0.000011   0.000031  -0.000015   0.000077   0.000035
   91  H 12  S   -0.000031  -0.000006   0.000032   0.000150  -0.000003
   92  C 13  S   -0.000006   0.000006  -0.000005   0.000022   0.000000
   93  C 13  S   -0.000042   0.000037  -0.000022   0.000064   0.000009
   94  C 13  X    0.000013   0.000002  -0.000023   0.000171  -0.000013
   95  C 13  Y   -0.000007  -0.000008   0.000009  -0.000003  -0.000006
   96  C 13  Z    0.000008   0.000003  -0.000007   0.000042   0.000001
   97  C 13  S    0.000182  -0.000201   0.000208  -0.001129   0.000012
   98  C 13  X   -0.000195   0.000056   0.000028  -0.000185   0.000007
   99  C 13  Y    0.000025   0.000093  -0.000118   0.000251   0.000037
  100  C 13  Z   -0.000021  -0.000067   0.000107  -0.000722  -0.000005
  101  H 14  S   -0.000034   0.000007   0.000011  -0.000073   0.000005
  102  H 14  S   -0.000015  -0.000040   0.000035   0.000088  -0.000043
  103  C 15  S   -0.000001   0.000000  -0.000001   0.000006  -0.000001
  104  C 15  S   -0.000005   0.000005  -0.000013   0.000064  -0.000008
  105  C 15  X    0.000002  -0.000005   0.000007  -0.000023   0.000002
  106  C 15  Y   -0.000002   0.000003  -0.000002   0.000005   0.000001
  107  C 15  Z   -0.000006   0.000005  -0.000002  -0.000011   0.000001
  108  C 15  S    0.000031   0.000024  -0.000012  -0.000091   0.000032
  109  C 15  X    0.000057   0.000002  -0.000047   0.000316  -0.000019
  110  C 15  Y   -0.000002  -0.000002  -0.000005  -0.000046  -0.000004
  111  C 15  Z    0.000051   0.000019  -0.000062   0.000340  -0.000005
  112  O 16  S    0.000001   0.000000  -0.000005   0.000053  -0.000001
  113  O 16  S    0.000010   0.000000  -0.000005   0.000044  -0.000001
  114  O 16  X   -0.000001   0.000001  -0.000002   0.000006  -0.000001
  115  O 16  Y   -0.000001  -0.000000  -0.000000  -0.000001  -0.000001
  116  O 16  Z   -0.000000  -0.000000   0.000000   0.000001  -0.000000
  117  O 16  S   -0.000048  -0.000007   0.000032  -0.000217   0.000004
  118  O 16  X    0.000013   0.000000  -0.000002   0.000031   0.000003
  119  O 16  Y   -0.000006  -0.000001   0.000006  -0.000034   0.000004
  120  O 16  Z    0.000002   0.000000   0.000001  -0.000017   0.000001
  121  O 17  S   -0.000001  -0.000003   0.000020  -0.000141   0.000010
  122  O 17  S   -0.000007  -0.000005   0.000019  -0.000127   0.000008
  123  O 17  X   -0.000004  -0.000000  -0.000001   0.000010  -0.000003
  124  O 17  Y    0.000000   0.000001  -0.000003   0.000008  -0.000002
  125  O 17  Z    0.000003   0.000001  -0.000003   0.000019  -0.000000
  126  O 17  S    0.000034   0.000029  -0.000076   0.000513  -0.000018
  127  O 17  X    0.000014  -0.000010   0.000022  -0.000159   0.000015
  128  O 17  Y   -0.000006  -0.000009   0.000022  -0.000071   0.000005
  129  O 17  Z   -0.000019  -0.000011   0.000030  -0.000196   0.000003
  130  O 18  S   -0.000000  -0.000009   0.000015   0.000011  -0.000017
  131  O 18  S   -0.000001  -0.000015   0.000017   0.000012  -0.000016
  132  O 18  X    0.000001  -0.000005   0.000006   0.000013   0.000010
  133  O 18  Y    0.000000   0.000001  -0.000004   0.000034   0.000000
  134  O 18  Z   -0.000006   0.000002   0.000000  -0.000019   0.000003
  135  O 18  S    0.000021   0.000072  -0.000081  -0.000053   0.000052
  136  O 18  X    0.000004  -0.000002  -0.000005  -0.000112  -0.000040
  137  O 18  Y    0.000000  -0.000022   0.000030  -0.000143  -0.000009
  138  O 18  Z   -0.000002  -0.000033   0.000025   0.000102  -0.000034
  139  O 19  S    0.000003   0.000014  -0.000059   0.000103   0.000009
  140  O 19  S    0.000017   0.000017  -0.000058   0.000128  -0.000002
  141  O 19  X   -0.000006  -0.000018   0.000014   0.000021  -0.000028
  142  O 19  Y   -0.000001   0.000000   0.000006  -0.000030   0.000006
  143  O 19  Z    0.000010  -0.000007   0.000011  -0.000053   0.000003
  144  O 19  S   -0.000076  -0.000035   0.000227  -0.000707   0.000087
  145  O 19  X    0.000029   0.000039  -0.000065   0.000217   0.000041
  146  O 19  Y    0.000054   0.000008  -0.000116   0.000471  -0.000068
  147  O 19  Z   -0.000050   0.000018  -0.000045   0.000272  -0.000035
  148  O 20  S    0.000009  -0.000022  -0.000073   0.000383  -0.000067
  149  O 20  S    0.000091  -0.000031  -0.000048   0.000183  -0.000045
  150  O 20  X   -0.000041   0.000027  -0.000003  -0.000160   0.000024
  151  O 20  Y   -0.000018  -0.000008   0.000008  -0.000048   0.000035
  152  O 20  Z    0.000015  -0.000001   0.000008  -0.000014   0.000019
  153  O 20  S   -0.000234   0.000086   0.000131   0.000141   0.000117
  154  O 20  X    0.000257  -0.000161   0.000030   0.000464  -0.000132
  155  O 20  Y    0.000087   0.000085  -0.000075   0.000805  -0.000153
  156  O 20  Z   -0.000081   0.000016  -0.000026  -0.000061  -0.000083
  157  H 21  S   -0.000277  -0.000061   0.000744   0.000112   0.002643
  158  H 21  S    0.000221  -0.000155  -0.001687  -0.000656   0.004171
  159  H 22  S   -0.000230   0.001135   0.002417  -0.000017  -0.000571
  160  H 22  S    0.000301  -0.001411   0.004354  -0.001320  -0.000156
  161  H 23  S    0.000023   0.000226  -0.000066  -0.001059   0.000442
  162  H 23  S   -0.000308  -0.000367   0.000187  -0.001469   0.000043
  163  H 24  S    0.000179  -0.000002   0.000256  -0.000967  -0.000138
  164  H 24  S    0.000310   0.000620  -0.000835  -0.000897   0.001008
  165  H 25  S    0.000009   0.000004  -0.000007   0.000043   0.000000
  166  H 25  S    0.000023  -0.000002  -0.000041   0.000262  -0.000022
  167  H 26  S   -0.000005  -0.000001   0.000008  -0.000044   0.000004
  168  H 26  S    0.000002   0.000002  -0.000011   0.000075  -0.000007
  169  H 27  S   -0.000001  -0.000008   0.000011   0.000017   0.000008
  170  H 27  S   -0.000003  -0.000000  -0.000013   0.000041  -0.000004
  171  H 28  S    0.000006   0.000003  -0.000004  -0.000092   0.000009
  172  H 28  S    0.000004  -0.000031   0.000056   0.000004   0.000000
  173  H 29  S    0.000004  -0.000060   0.000071  -0.000347   0.000089
  174  H 29  S    0.000258   0.000082  -0.000227   0.001246  -0.000446

                      6          7          8          9         10
                  -20.5940   -20.5823   -20.5616   -20.5561   -20.5530
                     A          A          A          A          A   
    1  P  1  S   -0.000001  -0.000007   0.000000  -0.000000  -0.000000
    2  P  1  S    0.000002   0.000069  -0.000006   0.000019   0.000001
    3  P  1  X    0.000005   0.000043  -0.000001  -0.000001  -0.000000
    4  P  1  Y   -0.000001  -0.000016   0.000003  -0.000017   0.000005
    5  P  1  Z   -0.000000  -0.000014   0.000001  -0.000013   0.000004
    6  P  1  S   -0.000046   0.000027  -0.000001   0.000123  -0.000002
    7  P  1  X   -0.000040  -0.000247   0.000017   0.000012   0.000002
    8  P  1  Y    0.000002   0.000146  -0.000013   0.000114  -0.000028
    9  P  1  Z    0.000001   0.000076  -0.000009   0.000088  -0.000029
   10  P  1  S    0.000032  -0.000812   0.000088  -0.000380  -0.000007
   11  P  1  X    0.000045  -0.000509   0.000034  -0.000199  -0.000034
   12  P  1  Y    0.000042  -0.000260  -0.000051  -0.000209   0.000028
   13  P  1  Z   -0.000022  -0.000146   0.000080  -0.000231   0.000077
   14  O  2  S   -0.000000   0.000017   0.000002  -0.000011   0.000007
   15  O  2  S   -0.000000  -0.000016  -0.000003   0.000015  -0.000008
   16  O  2  X    0.000002  -0.000042   0.000001  -0.000007  -0.000004
   17  O  2  Y    0.000003  -0.000015  -0.000005  -0.000011   0.000001
   18  O  2  Z   -0.000002   0.000005   0.000003  -0.000001   0.000002
   19  O  2  S   -0.000000   0.000011   0.000013  -0.000070   0.000030
   20  O  2  X   -0.000007   0.000155  -0.000005   0.000028   0.000015
   21  O  2  Y   -0.000012   0.000052   0.000020   0.000038  -0.000003
   22  O  2  Z    0.000007  -0.000015  -0.000010   0.000011  -0.000008
   23  O  3  S   -0.000001   0.000033  -0.000002  -0.000016   0.000015
   24  O  3  S    0.000002  -0.000042   0.000001  -0.000003  -0.000008
   25  O  3  X   -0.000005   0.000050   0.000004   0.000049  -0.000012
   26  O  3  Y    0.000002   0.000006  -0.000003  -0.000001   0.000005
   27  O  3  Z   -0.000001  -0.000006   0.000001  -0.000008   0.000001
   28  O  3  S   -0.000018   0.000252  -0.000003   0.000100   0.000008
   29  O  3  X    0.000012  -0.000110  -0.000015  -0.000128   0.000033
   30  O  3  Y   -0.000003  -0.000096   0.000013  -0.000030  -0.000015
   31  O  3  Z    0.000004   0.000009  -0.000007   0.000029  -0.000007
   32  O  4  S    0.000005   0.000075  -0.000019   0.000051  -0.000013
   33  O  4  S   -0.000004  -0.000044   0.000015  -0.000038   0.000010
   34  O  4  X    0.000001  -0.000057   0.000006  -0.000025   0.000003
   35  O  4  Y    0.000001  -0.000011   0.000002  -0.000014   0.000004
   36  O  4  Z    0.000002  -0.000003  -0.000003  -0.000002  -0.000001
   37  O  4  S    0.000013   0.000129  -0.000052   0.000127  -0.000033
   38  O  4  X   -0.000001   0.000195  -0.000028   0.000093  -0.000009
   39  O  4  Y   -0.000002   0.000058  -0.000008   0.000064  -0.000015
   40  O  4  Z   -0.000009   0.000003   0.000019  -0.000007   0.000006
   41  O  5  S   -0.000044  -0.000373   0.000112  -0.000076  -0.000010
   42  O  5  S    0.000028   0.000158  -0.000098   0.000055   0.000008
   43  O  5  X    0.000030   0.000384  -0.000053   0.000079  -0.000003
   44  O  5  Y   -0.000009  -0.000204  -0.000008   0.000029  -0.000021
   45  O  5  Z    0.000004   0.000254  -0.000002   0.000094  -0.000031
   46  O  5  S   -0.000086   0.000264   0.000396  -0.000118  -0.000029
   47  O  5  X   -0.000135  -0.001057   0.000330  -0.000309   0.000001
   48  O  5  Y    0.000033   0.000812   0.000088  -0.000154   0.000095
   49  O  5  Z    0.000001  -0.001005  -0.000027  -0.000409   0.000163
   50  C  6  S   -0.000022   0.000135   0.000041   0.000046   0.000009
   51  C  6  S   -0.000108   0.000238   0.000158   0.000376   0.000061
   52  C  6  X    0.000012  -0.000736  -0.000141   0.000121   0.000027
   53  C  6  Y    0.000003   0.000377  -0.000012  -0.000159   0.000049
   54  C  6  Z    0.000047  -0.000488  -0.000034  -0.000253   0.000115
   55  C  6  S    0.000632  -0.004582  -0.001728  -0.000824  -0.000552
   56  C  6  X    0.000349  -0.001580  -0.000473  -0.000470  -0.000326
   57  C  6  Y   -0.000179   0.003740   0.000616   0.001099  -0.000566
   58  C  6  Z   -0.000210   0.002206  -0.000343   0.002206  -0.001295
   59  C  7  S    0.000075  -0.000981  -0.000106   0.000151   0.000080
   60  C  7  S    0.000442  -0.004408  -0.000599   0.000337   0.000670
   61  C  7  X   -0.000010  -0.000076   0.000237  -0.000481   0.000376
   62  C  7  Y   -0.000013  -0.001427  -0.000044  -0.000186  -0.000118
   63  C  7  Z   -0.000074   0.000354   0.000128   0.000535  -0.000106
   64  C  7  S   -0.002708   0.022197   0.004705  -0.004262  -0.001082
   65  C  7  X   -0.001045   0.002513   0.000495  -0.001297  -0.001625
   66  C  7  Y   -0.000347  -0.011201   0.001432  -0.004972   0.002589
   67  C  7  Z    0.000736  -0.008148  -0.001677  -0.003219   0.001353
   68  H  8  S    0.000081  -0.000847  -0.000078   0.001001  -0.000325
   69  H  8  S   -0.000093   0.000905   0.000201   0.001151  -0.000224
   70  C  9  S    0.000022   0.000130  -0.000059  -0.000954   0.000222
   71  C  9  S    0.000277   0.000216  -0.000445  -0.004179   0.000703
   72  C  9  X    0.000371   0.000489  -0.000790  -0.000241  -0.000766
   73  C  9  Y    0.000220   0.000260  -0.000170   0.001350   0.000393
   74  C  9  Z   -0.000076  -0.000519   0.000230  -0.000460  -0.000488
   75  C  9  S    0.001205  -0.004732  -0.001001   0.021171  -0.006794
   76  C  9  X   -0.001536   0.003211   0.004638  -0.000648  -0.001842
   77  C  9  Y   -0.001597   0.004801   0.002208   0.012943  -0.004688
   78  C  9  Z    0.001799   0.003661  -0.001719   0.006862  -0.004373
   79  H 10  S   -0.000087   0.000833  -0.000476  -0.000742  -0.000408
   80  H 10  S    0.001310   0.001751  -0.000375   0.000712  -0.000221
   81  C 11  S   -0.000012   0.000157   0.000288   0.000160  -0.001050
   82  C 11  S   -0.000031   0.001059   0.001187   0.000428  -0.004715
   83  C 11  X    0.000043  -0.000272  -0.000269   0.000839   0.000117
   84  C 11  Y    0.000354   0.000126  -0.000350  -0.000254  -0.000073
   85  C 11  Z   -0.000040   0.000238   0.000108   0.000809   0.001478
   86  C 11  S   -0.000275  -0.003463  -0.007868  -0.005244   0.023816
   87  C 11  X    0.001346   0.001816  -0.005088   0.001191  -0.000952
   88  C 11  Y   -0.003369  -0.001983  -0.000355  -0.004733   0.011467
   89  C 11  Z    0.001302  -0.002092  -0.001388  -0.002075   0.008622
   90  H 12  S   -0.000053  -0.000367   0.000703  -0.000422  -0.000734
   91  H 12  S   -0.002496   0.000463   0.000693  -0.000497   0.001028
   92  C 13  S    0.000227   0.000005  -0.001028   0.000088   0.000301
   93  C 13  S    0.000820   0.000117  -0.004445   0.000795   0.001120
   94  C 13  X    0.000366  -0.000085   0.000387  -0.000250   0.000634
   95  C 13  Y   -0.000006  -0.000112   0.000859  -0.000164   0.000197
   96  C 13  Z    0.000847  -0.000040   0.000872  -0.000296  -0.000375
   97  C 13  S   -0.004840  -0.000072   0.024679  -0.001688  -0.009127
   98  C 13  X   -0.009471   0.000345   0.010501   0.000025   0.002879
   99  C 13  Y    0.004124   0.000932  -0.004908   0.001221  -0.000466
  100  C 13  Z   -0.006058   0.000590   0.011270   0.002785  -0.003223
  101  H 14  S   -0.000877   0.000037  -0.000502  -0.000232   0.000818
  102  H 14  S   -0.001865  -0.000621   0.000722   0.000633   0.000270
  103  C 15  S   -0.000028   0.000021   0.000197  -0.000023  -0.000116
  104  C 15  S    0.000154   0.000180   0.000379  -0.000088  -0.000826
  105  C 15  X    0.001817  -0.000112   0.000330  -0.000087   0.000381
  106  C 15  Y   -0.001262  -0.000008  -0.000454   0.000004   0.000073
  107  C 15  Z   -0.000154   0.000120  -0.000354   0.000133  -0.000043
  108  C 15  S    0.020783   0.000015  -0.007951   0.001591   0.001637
  109  C 15  X    0.018128   0.000000  -0.004907  -0.000863  -0.002329
  110  C 15  Y   -0.005488   0.000281  -0.000526   0.001251  -0.000242
  111  C 15  Z    0.011258  -0.000314  -0.007752   0.000159   0.000618
  112  O 16  S    0.983588   0.001481   0.003509   0.000856   0.000872
  113  O 16  S    0.099416   0.000074  -0.000316  -0.000062  -0.000068
  114  O 16  X   -0.003914   0.000023   0.000113   0.000025  -0.000049
  115  O 16  Y    0.002181   0.000016   0.000054   0.000031  -0.000068
  116  O 16  Z   -0.000615  -0.000023   0.000248   0.000011   0.000066
  117  O 16  S   -0.052805   0.000191   0.004592   0.000556   0.000661
  118  O 16  X    0.012681  -0.000151  -0.001782  -0.000197   0.000187
  119  O 16  Y   -0.007200  -0.000035   0.000654  -0.000114   0.000332
  120  O 16  Z    0.001780   0.000091  -0.000768  -0.000086  -0.000342
  121  O 17  S   -0.003700   0.000554   0.983558  -0.002849  -0.008102
  122  O 17  S   -0.001061   0.000121   0.098776  -0.000190  -0.000581
  123  O 17  X    0.000404   0.000010  -0.000668   0.000017  -0.000144
  124  O 17  Y   -0.000146   0.000042  -0.002308   0.000073  -0.000086
  125  O 17  Z    0.000100  -0.000008  -0.002727  -0.000034   0.000393
  126  O 17  S    0.004277  -0.000385  -0.048398  -0.000562   0.000694
  127  O 17  X   -0.002665   0.000075   0.003971   0.000175   0.000226
  128  O 17  Y    0.000192  -0.000167   0.005426  -0.000250   0.000215
  129  O 17  Z   -0.001756   0.000117   0.008525   0.000258  -0.001865
  130  O 18  S   -0.000948  -0.002993   0.008191   0.019507   0.983335
  131  O 18  S   -0.000250  -0.000737   0.001079   0.002069   0.098459
  132  O 18  X   -0.000040  -0.000018   0.000148  -0.000448   0.002667
  133  O 18  Y   -0.000069   0.000111   0.000216   0.000326  -0.000868
  134  O 18  Z    0.000113   0.000066   0.000156  -0.000270  -0.002397
  135  O 18  S    0.000486   0.002123  -0.000807   0.000469  -0.047147
  136  O 18  X    0.000070   0.000073  -0.000671   0.001922  -0.006001
  137  O 18  Y    0.000367  -0.000713  -0.001080  -0.001556   0.003024
  138  O 18  Z   -0.000557  -0.000902  -0.001150   0.000186   0.008319
  139  O 19  S   -0.000886   0.000152   0.002715   0.983364  -0.019544
  140  O 19  S   -0.000253   0.000113   0.000375   0.098332  -0.001836
  141  O 19  X   -0.000002   0.000247   0.000053   0.000867   0.000202
  142  O 19  Y    0.000037   0.000129  -0.000043  -0.003260   0.000233
  143  O 19  Z    0.000029   0.000015  -0.000116   0.002045   0.000249
  144  O 19  S    0.000736  -0.001276  -0.000728  -0.046975   0.001830
  145  O 19  X    0.000225  -0.001053  -0.000530  -0.002152  -0.000685
  146  O 19  Y   -0.000311   0.000022   0.000397   0.010279  -0.001900
  147  O 19  Z   -0.000229  -0.000196   0.000563  -0.004018  -0.001290
  148  O 20  S   -0.001503   0.983535  -0.000517  -0.000049   0.002888
  149  O 20  S   -0.000243   0.098148   0.000011   0.000092  -0.000133
  150  O 20  X   -0.000020  -0.002862   0.000023  -0.000334  -0.000033
  151  O 20  Y    0.000010   0.002357  -0.000003  -0.000155  -0.000068
  152  O 20  Z   -0.000023   0.001102  -0.000027   0.000073  -0.000049
  153  O 20  S    0.000485  -0.046376  -0.000245  -0.001255   0.001651
  154  O 20  X    0.000079   0.005885  -0.000022   0.001396   0.000087
  155  O 20  Y    0.000163  -0.008391  -0.000155   0.000066   0.000844
  156  O 20  Z    0.000070  -0.002719   0.000145  -0.000253   0.000297
  157  H 21  S    0.000003  -0.000046  -0.000002  -0.000040   0.000008
  158  H 21  S   -0.000001   0.000059  -0.000007   0.000052  -0.000010
  159  H 22  S   -0.000006   0.000031   0.000006   0.000018  -0.000001
  160  H 22  S    0.000015  -0.000000  -0.000028   0.000010  -0.000011
  161  H 23  S   -0.000043   0.000709   0.000056   0.000489  -0.000054
  162  H 23  S   -0.000284   0.001249   0.000123   0.000911  -0.000744
  163  H 24  S   -0.000012  -0.000565   0.000044  -0.000589   0.000227
  164  H 24  S    0.000060  -0.000304  -0.000099   0.000267   0.000209
  165  H 25  S    0.000516   0.000016  -0.000818  -0.000183  -0.000372
  166  H 25  S    0.004561  -0.000135  -0.002400   0.000038  -0.000412
  167  H 26  S   -0.000779   0.000000   0.003051  -0.000036   0.000066
  168  H 26  S    0.002749  -0.000035   0.005732  -0.000087  -0.000222
  169  H 27  S   -0.000042  -0.000113  -0.000545  -0.000270   0.003157
  170  H 27  S    0.000202   0.000264   0.003619  -0.000411   0.005968
  171  H 28  S    0.000092  -0.000176   0.000020   0.003002  -0.000557
  172  H 28  S   -0.000006   0.000512  -0.000374   0.005948   0.003201
  173  H 29  S   -0.000018   0.003045  -0.000011   0.000457  -0.000086
  174  H 29  S   -0.000023   0.005481   0.000092  -0.000137   0.000337

                     11         12         13         14         15
                  -11.4145   -11.3857   -11.3690   -11.3516   -11.3449
                     A          A          A          A          A   
    1  P  1  S   -0.000007   0.000000   0.000004   0.000003   0.000001
    2  P  1  S   -0.000193   0.000003  -0.000079  -0.000062  -0.000010
    3  P  1  X    0.000100  -0.000005  -0.000047  -0.000014  -0.000012
    4  P  1  Y   -0.000001  -0.000002   0.000033   0.000029   0.000005
    5  P  1  Z    0.000011  -0.000001  -0.000016   0.000003   0.000001
    6  P  1  S   -0.002299   0.000056  -0.000285  -0.000162   0.000047
    7  P  1  X   -0.001011   0.000030   0.000125   0.000098   0.000076
    8  P  1  Y   -0.000264   0.000012  -0.000281  -0.000198  -0.000036
    9  P  1  Z   -0.000087   0.000013   0.000211  -0.000016   0.000004
   10  P  1  S    0.004967  -0.000118   0.001101   0.001029   0.000068
   11  P  1  X    0.004417  -0.000074   0.000957   0.000652   0.000028
   12  P  1  Y    0.001733  -0.000003   0.000997   0.000083   0.000031
   13  P  1  Z    0.000482  -0.000075  -0.001556   0.000054  -0.000063
   14  O  2  S   -0.000007   0.000001   0.000021   0.000004   0.000001
   15  O  2  S   -0.000033   0.000006   0.000224   0.000047   0.000016
   16  O  2  X    0.000247  -0.000002   0.000098   0.000044   0.000006
   17  O  2  Y    0.000094   0.000001   0.000087   0.000001   0.000003
   18  O  2  Z   -0.000090  -0.000001  -0.000043   0.000001  -0.000000
   19  O  2  S    0.000302  -0.000023  -0.000710  -0.000114  -0.000047
   20  O  2  X   -0.000910   0.000007  -0.000423  -0.000185  -0.000027
   21  O  2  Y   -0.000347  -0.000005  -0.000342  -0.000005  -0.000011
   22  O  2  Z    0.000346   0.000003   0.000125  -0.000017  -0.000001
   23  O  3  S    0.000080  -0.000001   0.000012   0.000006   0.000001
   24  O  3  S    0.000749  -0.000004   0.000103   0.000054   0.000006
   25  O  3  X    0.000235   0.000002  -0.000060   0.000001  -0.000001
   26  O  3  Y    0.000028  -0.000000   0.000031  -0.000015  -0.000004
   27  O  3  Z   -0.000065  -0.000001  -0.000023  -0.000008  -0.000001
   28  O  3  S   -0.002486   0.000024  -0.000498  -0.000232  -0.000023
   29  O  3  X   -0.001152   0.000000   0.000167  -0.000041   0.000002
   30  O  3  Y    0.000459  -0.000006  -0.000021   0.000105   0.000015
   31  O  3  Z    0.000380   0.000006   0.000174   0.000037   0.000008
   32  O  4  S    0.000010  -0.000001  -0.000018   0.000005  -0.000000
   33  O  4  S    0.000120  -0.000013  -0.000178   0.000052  -0.000004
   34  O  4  X    0.000241  -0.000006  -0.000007   0.000046   0.000002
   35  O  4  Y    0.000066  -0.000003  -0.000023   0.000004  -0.000002
   36  O  4  Z    0.000081   0.000001   0.000043  -0.000004   0.000000
   37  O  4  S   -0.000352   0.000044   0.000625  -0.000143   0.000017
   38  O  4  X   -0.000943   0.000029   0.000080  -0.000187  -0.000004
   39  O  4  Y   -0.000310   0.000014   0.000109  -0.000028   0.000006
   40  O  4  Z   -0.000252  -0.000009  -0.000232   0.000035  -0.000003
   41  O  5  S   -0.000194   0.000008   0.000071  -0.000047   0.000001
   42  O  5  S   -0.000266   0.000068   0.000323  -0.000451  -0.000012
   43  O  5  X    0.000428   0.000012  -0.000292  -0.000390  -0.000076
   44  O  5  Y    0.000532   0.000022  -0.000037  -0.000040   0.000022
   45  O  5  Z   -0.000152  -0.000005  -0.000171  -0.000124  -0.000038
   46  O  5  S    0.007178  -0.000312  -0.002409   0.001392  -0.000113
   47  O  5  X    0.003479  -0.000161  -0.000631   0.001842   0.000203
   48  O  5  Y    0.001411  -0.000155  -0.000263   0.000326  -0.000135
   49  O  5  Z   -0.001047   0.000035   0.000685   0.000411   0.000149
   50  C  6  S    0.987749  -0.000065   0.002401   0.002607   0.000386
   51  C  6  S    0.102160  -0.000086  -0.002872  -0.000734  -0.000231
   52  C  6  X   -0.000550   0.000133   0.000427  -0.000933  -0.000028
   53  C  6  Y   -0.000402   0.000003   0.000265  -0.000130   0.000026
   54  C  6  Z    0.000137  -0.000003   0.000256   0.000041  -0.000019
   55  C  6  S   -0.081342   0.001324   0.027395   0.000192   0.001604
   56  C  6  X   -0.006301   0.000098   0.013756   0.001149   0.000404
   57  C  6  Y    0.002365  -0.000348  -0.007812   0.000532  -0.000505
   58  C  6  Z   -0.002824   0.000668   0.005383  -0.001746   0.000658
   59  C  7  S   -0.003316   0.000075   0.988328   0.008513   0.003336
   60  C  7  S   -0.002636   0.000038   0.106274  -0.002200  -0.000772
   61  C  7  X    0.000136  -0.000263  -0.000170   0.000583  -0.000365
   62  C  7  Y    0.000053   0.000048   0.000516  -0.000063   0.000079
   63  C  7  Z    0.000184  -0.000072  -0.001021  -0.000152  -0.000149
   64  C  7  S    0.020794  -0.001599  -0.100773   0.025876   0.004901
   65  C  7  X   -0.012747   0.001097  -0.002172   0.012597   0.004856
   66  C  7  Y    0.004075  -0.001491  -0.009083   0.008715   0.000254
   67  C  7  Z   -0.006096   0.000479   0.010848  -0.001955   0.000130
   68  H  8  S   -0.001261  -0.000029   0.000988  -0.001865  -0.000580
   69  H  8  S    0.001127   0.000216   0.013658  -0.000365   0.000327
   70  C  9  S   -0.002765   0.001686  -0.009800   0.987771   0.019352
   71  C  9  S   -0.001502   0.000868  -0.004386   0.105793   0.001442
   72  C  9  X    0.001091   0.000418  -0.000257  -0.000201  -0.001303
   73  C  9  Y   -0.000168  -0.000061  -0.000131  -0.000467   0.000038
   74  C  9  Z    0.000367  -0.000188  -0.000226   0.000974   0.000057
   75  C  9  S    0.000829  -0.002396   0.029316  -0.096869  -0.004800
   76  C  9  X   -0.004300  -0.003531  -0.016477   0.000355   0.003110
   77  C  9  Y    0.001677   0.000840  -0.007762   0.006589   0.002385
   78  C  9  Z   -0.002784   0.001856   0.004239  -0.010332  -0.001832
   79  H 10  S   -0.000203   0.000617  -0.001862   0.000708  -0.000142
   80  H 10  S   -0.001942   0.000910   0.000989   0.014344  -0.000338
   81  C 11  S   -0.001563  -0.005510  -0.004215  -0.022271  -0.127330
   82  C 11  S   -0.001281  -0.002499  -0.000938  -0.005540  -0.016738
   83  C 11  X    0.000441  -0.001187   0.001003  -0.000812   0.000337
   84  C 11  Y    0.000150   0.000298   0.000140  -0.000151  -0.000039
   85  C 11  Z    0.000044   0.000987   0.000110  -0.000132  -0.000466
   86  C 11  S    0.004547   0.005544  -0.002065   0.027484   0.037908
   87  C 11  X   -0.004718   0.004507  -0.002587  -0.012720   0.015745
   88  C 11  Y   -0.000224  -0.000320  -0.000182   0.005903   0.004459
   89  C 11  Z   -0.000814  -0.005056   0.001379  -0.007438  -0.004707
   90  H 12  S   -0.000626  -0.001381  -0.000287  -0.001287  -0.001543
   91  H 12  S    0.000180   0.001536   0.000640   0.000823  -0.003078
   92  C 13  S   -0.000591  -0.003281  -0.004059  -0.022381   0.980025
   93  C 13  S   -0.000443  -0.001515  -0.001486  -0.003202   0.105521
   94  C 13  X    0.000043   0.000021   0.000456   0.000944  -0.000318
   95  C 13  Y    0.000084   0.000154   0.000023   0.000437  -0.001167
   96  C 13  Z   -0.000020   0.000427   0.000207   0.000021  -0.000083
   97  C 13  S    0.001882   0.011780   0.004219   0.002033  -0.100475
   98  C 13  X   -0.000530   0.004677  -0.004097   0.000483   0.005665
[...]
             88  C 11  Y      0.53152     0.55332
             89  C 11  Z      0.25592     0.43582
             90  H 12  S      0.47160     0.48149
             91  H 12  S      0.26166     0.41711
             92  C 13  S      1.99007     1.97570
             93  C 13  S      0.34934     0.42684
             94  C 13  X      0.50734     0.49830
             95  C 13  Y      0.57707     0.55292
             96  C 13  Z      0.48542     0.47215
             97  C 13  S      1.05370     0.56287
             98  C 13  X      0.28184     0.46955
             99  C 13  Y      0.53978     0.56901
            100  C 13  Z      0.29507     0.47216
            101  H 14  S      0.46267     0.47356
            102  H 14  S      0.24426     0.40576
            103  C 15  S      1.98736     1.97710
            104  C 15  S      0.42266     0.44585
            105  C 15  X      0.53669     0.51953
            106  C 15  Y      0.44617     0.43070
            107  C 15  Z      0.54657     0.51545
            108  C 15  S      0.75678     0.56369
            109  C 15  X      0.20814     0.42012
            110  C 15  Y      0.34182     0.45601
            111  C 15  Z      0.42871     0.51353
            112  O 16  S      1.98710     1.98190
            113  O 16  S      0.43470     0.59187
            114  O 16  X      0.63117     0.61979
            115  O 16  Y      0.64194     0.63695
            116  O 16  Z      0.77393     0.77444
            117  O 16  S      1.55455     1.05702
            118  O 16  X      0.75277     0.79418
            119  O 16  Y      0.80725     0.82318
            120  O 16  Z      0.91837     0.93682
            121  O 17  S      1.98617     1.98028
            122  O 17  S      0.41284     0.57189
            123  O 17  X      0.63506     0.62581
            124  O 17  Y      0.76431     0.76610
            125  O 17  Z      0.67975     0.67924
            126  O 17  S      1.52044     1.03937
            127  O 17  X      0.81620     0.83048
            128  O 17  Y      0.97222     0.97071
            129  O 17  Z      0.90268     0.92579
            130  O 18  S      1.98611     1.98031
            131  O 18  S      0.41082     0.57169
            132  O 18  X      0.67596     0.66938
            133  O 18  Y      0.77996     0.78578
            134  O 18  Z      0.62319     0.61879
            135  O 18  S      1.52442     1.04796
            136  O 18  X      0.89958     0.88640
            137  O 18  Y      0.98976     1.00192
            138  O 18  Z      0.81372     0.85536
            139  O 19  S      1.98621     1.98056
            140  O 19  S      0.41372     0.57504
            141  O 19  X      0.83405     0.84480
            142  O 19  Y      0.58107     0.57377
            143  O 19  Z      0.65711     0.64543
            144  O 19  S      1.52849     1.05206
            145  O 19  X      1.05519     1.05141
            146  O 19  Y      0.78340     0.83675
            147  O 19  Z      0.84825     0.85544
            148  O 20  S      1.98617     1.98053
            149  O 20  S      0.41512     0.57594
            150  O 20  X      0.65961     0.64918
            151  O 20  Y      0.56634     0.55492
            152  O 20  Z      0.84752     0.85824
            153  O 20  S      1.52464     1.04986
            154  O 20  X      0.86616     0.87134
            155  O 20  Y      0.74338     0.79398
            156  O 20  Z      1.04872     1.05270
            157  H 21  S      0.36839     0.38289
            158  H 21  S      0.13959     0.27341
            159  H 22  S      0.37641     0.38850
            160  H 22  S      0.14021     0.27600
            161  H 23  S      0.47115     0.47570
            162  H 23  S      0.25478     0.41116
            163  H 24  S      0.46639     0.46760
            164  H 24  S      0.21806     0.39480
            165  H 25  S      0.47494     0.47350
            166  H 25  S      0.28635     0.44092
            167  H 26  S      0.38175     0.39982
            168  H 26  S      0.18988     0.32151
            169  H 27  S      0.37072     0.38981
            170  H 27  S      0.18184     0.32451
            171  H 28  S      0.38157     0.39964
            172  H 28  S      0.20146     0.33222
            173  H 29  S      0.40748     0.42384
            174  H 29  S      0.20024     0.32090

          ----- MULLIKEN ATOMIC OVERLAP POPULATIONS -----
          (OFF-DIAGONAL ELEMENTS NEED TO BE MULTIPLIED BY 2)

             1           2           3           4           5

    1   12.0651506
    2    0.1627121   8.2008285
    3    0.2391679  -0.0101314   8.3207505
    4    0.2323988  -0.0125956  -0.0211977   8.3291077
    5    0.2658302  -0.0100315  -0.0171853  -0.0153399   8.4762555
    6   -0.0361603  -0.0004075  -0.0024010   0.0000478   0.1129932
    7    0.0025756  -0.0000031   0.0000185  -0.0000122  -0.0339405
    8   -0.0000395   0.0000000   0.0000077  -0.0000033   0.0009768
    9   -0.0000897   0.0000000  -0.0000002   0.0000000   0.0013351
   10    0.0000023  -0.0000000   0.0000000  -0.0000000  -0.0000155
   11    0.0000018  -0.0000000   0.0000000  -0.0000000  -0.0000097
   12   -0.0000000  -0.0000000   0.0000000   0.0000000  -0.0000002
   13   -0.0000000   0.0000000   0.0000000   0.0000000   0.0000000
   14   -0.0000000   0.0000000   0.0000000   0.0000000   0.0000000
   15    0.0000000  -0.0000000   0.0000000  -0.0000000  -0.0000000
   16    0.0000000   0.0000000   0.0000000   0.0000000   0.0000000
   17    0.0000000   0.0000000   0.0000000   0.0000000  -0.0000000
   18   -0.0000000   0.0000000   0.0000000   0.0000000   0.0000000
   19    0.0000098  -0.0000000  -0.0000000  -0.0000000   0.0000020
   20    0.0000216  -0.0000000  -0.0000000   0.0000000  -0.0017081
   21   -0.0203579  -0.0001257   0.2554012   0.0039414   0.0001286
   22   -0.0105830  -0.0004106   0.0003891   0.2524567   0.0000222
   23   -0.0040057   0.0001070  -0.0000043  -0.0000087  -0.0257016
   24   -0.0066599  -0.0000317   0.0081910   0.0000199  -0.0228742
   25   -0.0000000   0.0000000  -0.0000000  -0.0000000   0.0000000
   26   -0.0000000   0.0000000  -0.0000000   0.0000000   0.0000000
   27    0.0000000  -0.0000000   0.0000000  -0.0000000  -0.0000000
   28   -0.0000009   0.0000000  -0.0000000   0.0000000  -0.0000008
   29   -0.0002555  -0.0000011   0.0000009  -0.0000038   0.0112799

             6           7           8           9          10

    6    5.4292662
    7    0.1709352   5.4524950
    8   -0.0587024   0.3657567   0.4789497
    9   -0.0819698   0.1326202  -0.0412196   5.4347672
   10   -0.0042811  -0.0622182   0.0033860   0.3769089   0.4944759
   11    0.0053958  -0.0751041  -0.0080206   0.1520612  -0.0426022
   12    0.0001565  -0.0025826   0.0004593  -0.0477532   0.0024080
   13   -0.0000650   0.0042041   0.0001351  -0.0719919  -0.0023204
   14   -0.0000046   0.0004774  -0.0000080  -0.0016890  -0.0011253
   15    0.0000003  -0.0000753  -0.0000044   0.0038699   0.0006498
   16    0.0000000   0.0000000   0.0000000   0.0000167  -0.0000045
   17    0.0000000  -0.0000149   0.0000003   0.0015900   0.0000103
   18    0.0000056  -0.0017543   0.0078155  -0.0561548   0.0013513
   19    0.0029444  -0.0534145   0.0012964   0.2313578  -0.0244020
   20   -0.0448107   0.2028244  -0.0273452  -0.0407036   0.0049968
   21    0.0001769   0.0000045  -0.0000020  -0.0000002   0.0000000
   22    0.0000073   0.0000006   0.0000001  -0.0000000   0.0000000
   23    0.3596827  -0.0445075   0.0029556   0.0009074   0.0025928
   24    0.3297094  -0.0318365   0.0012810   0.0006015   0.0004802
   25   -0.0000002   0.0000113   0.0000002   0.0002787   0.0008609
   26   -0.0000000   0.0000016  -0.0000000  -0.0000822  -0.0000001
   27    0.0000025  -0.0002367  -0.0001278   0.0070971  -0.0000968
   28   -0.0004353   0.0011849   0.0022585  -0.0727909   0.0049706
   29   -0.0087073  -0.0513836  -0.0005275   0.0057071  -0.0001751

            11          12          13          14          15

   11    5.5084900
   12    0.3615087   0.4682828
   13    0.1444107  -0.0430915   5.6511081
   14   -0.0556466   0.0024307   0.3554946   0.4393255
   15   -0.0730049   0.0028189   0.1149113  -0.0283928   4.8830498
   16    0.0001650   0.0002800  -0.0762683   0.0007266   0.4655579
   17   -0.0458902   0.0008358   0.2228779  -0.0252449  -0.0329304
   18    0.2183473  -0.0250730  -0.0403138   0.0010428   0.0013963
   19   -0.0405461   0.0012761  -0.0053970   0.0135212   0.0001065
   20   -0.0001936   0.0090533   0.0000064  -0.0000034  -0.0000011
   21    0.0000000   0.0000000  -0.0000000  -0.0000000   0.0000000
   22    0.0000000  -0.0000000  -0.0000000  -0.0000000   0.0000000
   23   -0.0001140   0.0000065  -0.0000010   0.0000002  -0.0000001
   24    0.0000317  -0.0000136   0.0000006  -0.0000025  -0.0000000
   25    0.0034904   0.0005708  -0.0873215   0.0021133   0.3434415
   26    0.0052551   0.0002266  -0.0736337   0.0032858  -0.0078182
   27   -0.0595602   0.0005944  -0.0147168   0.0004022   0.0013304
   28   -0.0170279   0.0010625   0.0015958   0.0002268   0.0000080
   29   -0.0001415  -0.0002014   0.0000022   0.0000002  -0.0000001

            16          17          18          19          20

   16    8.1288053
   17   -0.0073542   8.2869463
   18   -0.0000013  -0.0124372   8.3245530
   19   -0.0000000  -0.0000023  -0.0098361   8.3088543
   20    0.0000000  -0.0000000   0.0000147   0.0002156   8.2888680
   21    0.0000000   0.0000000  -0.0000000   0.0000000   0.0000000
   22    0.0000000   0.0000000  -0.0000000   0.0000000   0.0000000
   23    0.0000000  -0.0000000  -0.0000004  -0.0000628   0.0014771
   24    0.0000000   0.0000000   0.0000002   0.0082194   0.0014068
   25   -0.0452663   0.0012555  -0.0000164  -0.0000030  -0.0000059
   26    0.0351282   0.2565290   0.0002948  -0.0000007  -0.0000000
   27   -0.0000112   0.0435187   0.2515349   0.0001189  -0.0000009
   28   -0.0000000  -0.0000156   0.0427524   0.2532581  -0.0000158
   29   -0.0000000  -0.0000000  -0.0000021  -0.0000264   0.2635650

            21          22          23          24          25

   21    0.2688138
   22   -0.0000455   0.2747863
   23   -0.0000114   0.0000002   0.4526649
   24    0.0000582  -0.0000020  -0.0199637   0.4155651
   25   -0.0000000  -0.0000000  -0.0000001   0.0000000   0.5403254
   26   -0.0000000  -0.0000000   0.0000000   0.0000000   0.0015827
   27    0.0000000   0.0000000   0.0000000  -0.0000001  -0.0000332
   28    0.0000000  -0.0000000   0.0000130   0.0000011   0.0000005
   29   -0.0000001  -0.0000008  -0.0000921   0.0002651   0.0000003

            26          27          28          29

   26    0.3519362
   27   -0.0010831   0.3252348
   28   -0.0000011  -0.0014088   0.3673894
   29    0.0000000   0.0000000   0.0000022   0.3884095

          TOTAL MULLIKEN AND LOWDIN ATOMIC POPULATIONS
       ATOM         MULL.POP.    CHARGE          LOW.POP.     CHARGE
    1 P            12.889718    2.110282        13.429204    1.570796
    2 O             8.329910   -0.329910         8.160615   -0.160615
    3 O             8.773007   -0.773007         8.499149   -0.499149
    4 O             8.768811   -0.768811         8.501465   -0.501465
    5 O             8.742016   -0.742016         8.454105   -0.454105
    6 C             6.173379   -0.173379         5.979028    0.020972
    7 C             5.976026    0.023974         5.942774    0.057226
    8 H             0.729279    0.270721         0.896606    0.103394
    9 C             5.934674    0.065326         5.936779    0.063221
   10 H             0.755853    0.244147         0.910027    0.089973
   11 C             5.981296    0.018704         5.948773    0.051227
   12 H             0.733255    0.266745         0.898593    0.101407
   13 C             6.079626   -0.079626         5.999487    0.000513
   14 H             0.706930    0.293070         0.879327    0.120673
   15 C             5.674913    0.325087         5.841987    0.158013
   16 O             8.501774   -0.501774         8.216143   -0.216143
   17 O             8.689674   -0.689674         8.389672   -0.389672
   18 O             8.703519   -0.703519         8.417594   -0.417594
   19 O             8.687490   -0.687490         8.415257   -0.415257
   20 O             8.657661   -0.657661         8.386692   -0.386692
   21 H             0.507982    0.492018         0.656303    0.343697
   22 H             0.516621    0.483379         0.664496    0.335504
   23 H             0.725934    0.274066         0.886865    0.113135
   24 H             0.684447    0.315553         0.862393    0.137607
   25 H             0.761285    0.238715         0.914415    0.085585
   26 H             0.571621    0.428379         0.721327    0.278673
   27 H             0.552559    0.447441         0.714322    0.285678
   28 H             0.583027    0.416973         0.731861    0.268139
   29 H             0.607714    0.392286         0.744740    0.255260

          -------------------------------
          BOND ORDER AND VALENCE ANALYSIS     BOND ORDER THRESHOLD=0.050
          -------------------------------

                   BOND                       BOND                       BOND
  ATOM PAIR DIST  ORDER      ATOM PAIR DIST  ORDER      ATOM PAIR DIST  ORDER
    1   2  1.548  0.896        1   3  1.668  0.897        1   4  1.674  0.903
    1   5  1.666  0.967        3  21  0.996  0.717        4  22  0.993  0.728
    5   6  1.495  0.614        6   7  1.517  0.873        6  23  1.094  0.883
    6  24  1.088  0.846        7   8  1.098  0.865        7   9  1.525  0.846
    7  20  1.456  0.871        9  10  1.094  0.891        9  11  1.532  0.860
    9  19  1.455  0.899       11  12  1.095  0.871       11  13  1.560  0.838
   11  18  1.464  0.881       13  14  1.096  0.858       13  15  1.507  0.845
   13  17  1.458  0.869       15  16  1.238  1.753       15  25  1.099  0.848
   16  26  1.960  0.067       17  26  1.007  0.730       17  27  1.805  0.085
   18  27  1.011  0.702       18  28  1.893  0.082       19  28  1.010  0.731
   20  29  0.997  0.794

                       TOTAL       BONDED        FREE
      ATOM            VALENCE     VALENCE     VALENCE
    1 P                 3.723       3.719       0.004
    2 O                 1.927       1.030       0.897
    3 O                 1.743       1.743       0.000
    4 O                 1.754       1.754       0.000
    5 O                 1.740       1.734       0.006
    6 C                 3.229       3.229       0.000
    7 C                 3.431       3.431       0.000
    8 H                 0.887       0.887       0.000
    9 C                 3.462       3.462       0.000
   10 H                 0.897       0.897       0.000
   11 C                 3.435       3.435       0.000
   12 H                 0.895       0.895       0.000
   13 C                 3.409       3.408       0.001
   14 H                 0.886       0.886       0.000
   15 C                 3.515       3.451       0.064
   16 O                 1.966       1.901       0.066
   17 O                 1.770       1.770       0.000
   18 O                 1.754       1.754       0.000
   19 O                 1.746       1.746       0.000
   20 O                 1.749       1.749       0.000
   21 H                 0.746       0.746       0.000
   22 H                 0.751       0.751       0.000
   23 H                 0.884       0.884       0.000
   24 H                 0.876       0.876      -0.000
   25 H                 0.889       0.889       0.001
   26 H                 0.810       0.810       0.000
   27 H                 0.797       0.797       0.000
   28 H                 0.821       0.821       0.000
   29 H                 0.826       0.826       0.000

          -----------------------------------------
          ATOMIC SPIN DENSITY AT THE NUCLEUS (A.U.)
          -----------------------------------------
                            SPIN DENS    ALPHA DENS     BETA DENS
    1  P           15.0    -0.1243680     813.54600     813.67037
    2  O            8.0     0.1239219     117.19488     117.07096
    3  O            8.0    -0.0084751     116.74371     116.75218
    4  O            8.0    -0.0036941     116.76650     116.77020
    5  O            8.0    -0.0103120     116.81710     116.82741
    6  C            6.0    -0.0019353      47.04403      47.04597
    7  C            6.0     0.0014103      47.07326      47.07185
    8  H            1.0    -0.0001566       0.18391       0.18406
    9  C            6.0     0.0009471      47.06891      47.06796
   10  H            1.0    -0.0000469       0.18634       0.18639
   11  C            6.0    -0.0119067      47.07247      47.08437
   12  H            1.0     0.0003511       0.18490       0.18455
   13  C            6.0     0.0126544      47.08047      47.06782
   14  H            1.0    -0.0041303       0.17923       0.18336
   15  C            6.0    -0.0621839      46.98053      47.04271
   16  O            8.0     0.0650666     116.97972     116.91465
   17  O            8.0    -0.0003356     116.74251     116.74284
   18  O            8.0     0.0003006     116.74232     116.74202
   19  O            8.0    -0.0000085     116.77269     116.77270
   20  O            8.0     0.0001254     116.77207     116.77194
   21  H            1.0    -0.0009000       0.14800       0.14890
   22  H            1.0    -0.0001788       0.15136       0.15154
   23  H            1.0    -0.0001080       0.18395       0.18406
   24  H            1.0    -0.0000081       0.18205       0.18206
   25  H            1.0     0.0066103       0.18739       0.18078
   26  H            1.0     0.0002541       0.15408       0.15382
   27  H            1.0    -0.0000048       0.14940       0.14940
   28  H            1.0    -0.0000010       0.15415       0.15415
   29  H            1.0     0.0000149       0.16480       0.16478

          ---------------------
          ELECTROSTATIC MOMENTS
          ---------------------

 POINT   1           X           Y           Z (BOHR)    CHARGE
                -0.012233   -0.145295   -0.175870        1.00 (A.U.)
         DX          DY          DZ         /D/  (DEBYE)
   -17.938220   -1.787828   -1.285697   18.072883
 ...... END OF PROPERTY EVALUATION ......
 CPU     0: STEP CPU TIME=     0.07 TOTAL CPU TIME=         16.0 (      0.3 MIN)
 TOTAL WALL CLOCK TIME=         16.4 SECONDS, CPU UTILIZATION IS    97.50%
               580000  WORDS OF DYNAMIC MEMORY USED
 EXECUTION OF GAMESS TERMINATED NORMALLY Thu May 21 17:24:28 2020
 DDI: 263640 bytes (0.3 MB / 0 MWords) used by master data server.
Note: The following floating-point exceptions are signalling:Note: The following floating-point exceptions are signalling:Note: The following floating-point exceptions are signalling: IEEE_DENORMAL IEEE_DENORMAL
Note: The following floating-point exceptions are signalling: IEEE_DENORMALNote: The following floating-point exceptions are signalling: IEEE_DENORMALNote: The following floating-point exceptions are signalling: IEEE_DENORMAL IEEE_DENORMAL
 ----------------------------------------
 CPU timing information for all processes
 ========================================
 0: 15.491 + 0.512 = 16.04
 1: 15.382 + 0.220 = 15.602
 2: 15.347 + 0.269 = 15.616
 3: 15.370 + 0.237 = 15.607
 4: 15.311 + 0.320 = 15.631
 5: 15.355 + 0.181 = 15.537
 6: 15.380 + 0.256 = 15.637
 7: 15.374 + 0.180 = 15.555
 ----------------------------------------





Note: The following floating-point exceptions are signalling: IEEE_DENORMALNote: The following floating-point exceptions are signalling:
 IEEE_DENORMAL
 ddikick.x: exited gracefully.
unset echo
----- accounting info -----
Files used on the master node pietdev were:
-rwxr-xr-x 1 piet piet     1722 mei 21 17:24 /home/piet/scr/glucose-6-phosphate_fukui_base.F05*
-rw-r--r-- 1 piet piet 68812800 mei 21 17:24 /home/piet/scr/glucose-6-phosphate_fukui_base.F10
ls: No match.
ls: No match.
ls: No match.
do 21 mei 2020 17:24:31 CEST
0.101u 0.039s 0:19.56 0.6%	0+0k 0+8io 0pf+0w
