----- GAMESS execution script 'rungms' -----
This job is running on host pietdev
under operating system Linux at do 21 mei 2020 17:17:35 CEST
Available scratch disk space (Kbyte units) at beginning of the job is
Filesystem     1K-blocks     Used Available Use% Mounted on
/dev/sda2      244568380 30770604 201304720  14% /
GAMESS temporary binary files will be written to /home/piet/scr
GAMESS supplementary output files will be written to /home/piet/gamess/scr
Copying input file glucose-6-phosphate_charge_geodisk.inp to your run's scratch directory...
cp glucose-6-phosphate_charge_geodisk.inp /home/piet/scr/glucose-6-phosphate_charge_geodisk.F05
unset echo
 
Assuming a single but multicore node.
 
/home/piet/gamess/ddikick.x /home/piet/gamess/gamess.03.x glucose-6-phosphate_charge_geodisk -ddi 1 8 pietdev:cpus=8 -scr /home/piet/scr

 Distributed Data Interface kickoff program.
 Initiating 8 compute processes on 1 nodes to run the following command:
 /home/piet/gamess/gamess.03.x glucose-6-phosphate_charge_geodisk 

          ******************************************************
          *         GAMESS VERSION = 30 SEP 2019 (R2)          *
          *             FROM IOWA STATE UNIVERSITY             *
          * M.W.SCHMIDT, K.K.BALDRIDGE, J.A.BOATZ, S.T.ELBERT, *
          *   M.S.GORDON, J.H.JENSEN, S.KOSEKI, N.MATSUNAGA,   *
          *          K.A.NGUYEN, S.J.SU, T.L.WINDUS,           *
          *       TOGETHER WITH M.DUPUIS, J.A.MONTGOMERY       *
          *         J.COMPUT.CHEM.  14, 1347-1363(1993)        *
          **************** 64 BIT LINUX VERSION ****************

  SINCE 1993, STUDENTS AND POSTDOCS WORKING AT IOWA STATE UNIVERSITY
  AND ALSO IN THEIR VARIOUS JOBS AFTER LEAVING ISU HAVE MADE IMPORTANT
  CONTRIBUTIONS TO THE CODE:
     IVANA ADAMOVIC, CHRISTINE AIKENS, YURI ALEXEEV, POOJA ARORA,
     ANDREY ASADCHEV, ROB BELL, PRADIPTA BANDYOPADHYAY, JONATHAN BENTZ,
     COLLEEN BERTONI, BRETT BODE, KURT BRORSEN, CALEB CARLIN, GALINA CHABAN,
     WEI CHEN, CHEOL HO CHOI, PAUL DAY, ALBERT DEFUSCO, NUWAN DESILVA,
     TIM DUDLEY, DMITRI FEDOROV, ALEX FINDLATER, GRAHAM FLETCHER, 
     MARK FREITAG, KURT GLAESEMANN, EMILIE B GUIDEZ, ANASTASIA GUNINA, 
     DAN KEMP, SAROM SOK LEANG, GRANT MERRILL,
     NORIYUKI MINEZAWA, JONATHAN MULLIN,
     TAKESHI NAGATA, SEAN NEDD, HEATHER NETZLOFF, BOSILJKA NJEGIC, RYAN OLSON,
     MIKE PAK, BUU PHAM, DAVID POOLE,
     SPENCER PRUITT, LUKE ROSKOP, TOSAPORN SATTASATHUCHANA,
     JIM SHOEMAKER, LYUDMILA SLIPCHENKO,
     TONY SMITH, JIE SONG, TETSUYA TAKETSUGU, SIMON WEBB,
     JORGE LUIS GALVEZ VALLEJO, PENG XU, SOOHAENG YOO,
     FEDERICO ZAHARIEV

  ADDITIONAL CODE HAS BEEN PROVIDED BY COLLABORATORS IN OTHER GROUPS:
     IOWA STATE UNIVERSITY:
          JOE IVANIC, AARON WEST, LAIMUTIS BYTAUTAS, KLAUS RUEDENBERG
     UNIVERSITY OF TOKYO: KIMIHIKO HIRAO, TAKAHITO NAKAJIMA,
          TAKAO TSUNEDA, MUNEAKI KAMIYA, SUSUMU YANAGISAWA,
          KIYOSHI YAGI, MAHITO CHIBA, SEIKEN TOKURA, NAOAKI KAWAKAMI
     UNIVERSITY OF AARHUS: FRANK JENSEN
     UNIVERSITY OF IOWA: VISVALDAS KAIRYS, HUI LI
     NATIONAL INST. OF STANDARDS AND TECHNOLOGY: WALT STEVENS, DAVID GARMER
     UNIVERSITY OF PISA: BENEDETTA MENNUCCI, JACOPO TOMASI
     UNIVERSITY OF MEMPHIS: HENRY KURTZ, PRAKASHAN KORAMBATH
     UNIVERSITY OF ALBERTA: TOBY ZENG, MARIUSZ KLOBUKOWSKI
     UNIVERSITY OF NEW ENGLAND: MARK SPACKMAN
     MIE UNIVERSITY: HIROAKI UMEDA
     NAT. INST. OF ADVANCED INDUSTRIAL SCIENCE AND TECHNOLOGY: KAZUO KITAURA
     MICHIGAN STATE UNIVERSITY:
          KAROL KOWALSKI, MARTA WLOCH, JEFFREY GOUR, JESSE LUTZ,
          WEI LI, JUN SHEN, J. EMILIANO DEUSTUA, PIOTR PIECUCH
     UNIVERSITY OF MINNESOTA:
          ANDREW SAND, PRACHI SHARMA, YINAN SHU
     UNIVERSITY OF SILESIA: MONIKA MUSIAL, STANISLAW KUCHARSKI
     FACULTES UNIVERSITAIRES NOTRE-DAME DE LA PAIX:
          OLIVIER QUINET, BENOIT CHAMPAGNE
     UNIVERSITY OF CALIFORNIA - SANTA BARBARA: BERNARD KIRTMAN
     INSTITUTE FOR MOLECULAR SCIENCE:
          KAZUYA ISHIMURA, MICHIO KATOUDA, AND SHIGERU NAGASE
     UNIVERSITY OF NOTRE DAME: ANNA POMOGAEVA, DAN CHIPMAN
     KYUSHU UNIVERSITY:
          HARUYUKI NAKANO,
          FENG LONG GU, JACEK KORCHOWIEC, MARCIN MAKOWSKI, AND YURIKO AOKI,
          HIROTOSHI MORI AND EISAKU MIYOSHI
     PENNSYLVANIA STATE UNIVERSITY:
          TZVETELIN IORDANOV, CHET SWALINA, JONATHAN SKONE,
          SHARON HAMMES-SCHIFFER
     WASEDA UNIVERSITY:
          MASATO KOBAYASHI, TOMOKO AKAMA, TSUGUKI TOUMA,
          TAKESHI YOSHIKAWA, YASUHIRO IKABATA, JUNJI SEINO,
          YUYA NAKAJIMA, HIROMI NAKAI
     NANJING UNIVERSITY: SHUHUA LI
     UNIVERSITY OF NEBRASKA:
          PEIFENG SU, DEJUN SI, NANDUN THELLAMUREGE, YALI WANG, HUI LI
     UNIVERSITY OF ZURICH: ROBERTO PEVERATI, KIM BALDRIDGE
     N. COPERNICUS UNIVERSITY AND JACKSON STATE UNIVERSITY:
          MARIA BARYSZ
     UNIVERSITY OF COPENHAGEN: Jimmy Kromann, CASPER STEINMANN
     TOKYO INSTITUTE OF TECHNOLOGY: HIROYA NAKATA
     NAGOYA UNIVERSITY: YOSHIO NISHIMOTO, STEPHAN IRLE
     MOSCOW STATE UNIVERSITY: VLADIMIR MIRONOV
     A.N.NESMEYANOV INSTITUTE OF ORGANOELEMENT COMPOUNDS OF RUSSIAN ACADEMY OF SCIENCES:
          IGOR S. GERASIMOV
     JOHANNES KEPLER UNIVERSITY LINZ:
          CHRISTIAN FRIEDL


 PARALLEL VERSION RUNNING ON        8 PROCESSORS IN        1 NODES.

 EXECUTION OF GAMESS BEGUN Thu May 21 17:17:35 2020

            ECHO OF THE FIRST FEW INPUT CARDS -
 INPUT CARD> $BASIS GBASIS=N21 NGAUSS=3 $END                                                
 INPUT CARD> $CONTRL SCFTYP=RHF DFTTYP=B3LYP MAXIT=60 MULT=1 ICHARG=0 $END                  
 INPUT CARD> $SYSTEM MEMDDI=1000 MWORDS=30 $END                                             
 INPUT CARD> $SCF DIRSCF=.TRUE. $END                                                        
 INPUT CARD> $ELPOT  IEPOT=1 WHERE=PDC $END                                                 
 INPUT CARD> $PDC PTSEL=GEODESIC CONSTR=CHARGE $END                                         
 INPUT CARD> $DATA                                                                          
 INPUT CARD>                                                                                
 INPUT CARD>C1                                                                              
 INPUT CARD>P 15.0000000 -3.8843191121 -0.2071821315 -0.3395519812                          
 INPUT CARD>O 8.0000000 -4.6567007344 -0.6206711105 -1.6160212724                           
 INPUT CARD>O 8.0000000 -3.7416216026 1.4175199955 0.0122508866                             
 INPUT CARD>O 8.0000000 -4.5769279714 -0.6717879640 1.1119530030                            
 INPUT CARD>O 8.0000000 -2.3073711758 -0.7287487979 -0.2124046376                           
 INPUT CARD>C 6.0000000 -1.1971159443 0.1725926591 -0.6496612381                            
 INPUT CARD>C 6.0000000 0.0201214321 -0.3942639998 0.0566527134                             
 INPUT CARD>H 1.0000000 -0.0835449313 -0.2443488511 1.1393399271                            
 INPUT CARD>C 6.0000000 1.2937448572 0.2962091118 -0.4207064092                             
 INPUT CARD>H 1.0000000 1.4328463464 0.0699850931 -1.4823848266                             
 INPUT CARD>C 6.0000000 2.4923024969 -0.1777010449 0.4077278172                             
 INPUT CARD>H 1.0000000 2.5012343029 -1.2692020345 0.4912407929                             
 INPUT CARD>C 6.0000000 3.8210158870 0.4001208261 -0.1698651989                             
 INPUT CARD>H 1.0000000 3.5738580436 1.3619774649 -0.6338482954                             
 INPUT CARD>C 6.0000000 4.4565554885 -0.5649066342 -1.1375901666                            
 INPUT CARD>O 8.0000000 5.5343712601 -1.1074430231 -0.8629527284                            
 INPUT CARD>O 8.0000000 4.7339461737 0.6030079654 0.9485278095                              
 INPUT CARD>O 8.0000000 2.3190347740 0.4738413019 1.7074963820                              
 INPUT CARD>O 8.0000000 1.1917777180 1.7383080221 -0.2552904391                             
 INPUT CARD>O 8.0000000 0.1909838662 -1.7987965636 -0.2879637021                            
 INPUT CARD>H 1.0000000 -4.3498194275 1.6759883086 0.7568638075                             
 INPUT CARD>H 1.0000000 -5.0618783282 -1.5378444056 1.0887237949                            
 INPUT CARD>H 1.0000000 -1.0848949673 0.0857131341 -1.7346272734                            
 INPUT CARD>H 1.0000000 -1.3920960447 1.2019609671 -0.3559077561                            
 INPUT CARD>H 1.0000000 3.9013033494 -0.7736778495 -2.0624903417                            
 INPUT CARD>H 1.0000000 5.4591336247 -0.0809821070 0.8046252732                             
 INPUT CARD>H 1.0000000 3.2729907931 0.6225289943 2.0076726247                              
 INPUT CARD>H 1.0000000 1.4591475113 1.8365650677 0.7136225472                              
 INPUT CARD>H 1.0000000 -0.7153776856 -2.2019625945 -0.1854311119                           
 INPUT CARD> $END                                                                           
   30000000 WORDS OF MEMORY AVAILABLE

     BASIS OPTIONS
     -------------
     GBASIS=N21          IGAUSS=       3      POLAR=NONE    
     NDFUNC=       0     NFFUNC=       0     DIFFSP=       F
     NPFUNC=       0      DIFFS=       F     BASNAM=        


     RUN TITLE
     ---------
                                                                                 

 THE POINT GROUP OF THE MOLECULE IS C1      
 THE ORDER OF THE PRINCIPAL AXIS IS     0

 ATOM      ATOMIC                      COORDINATES (BOHR)
           CHARGE         X                   Y                   Z
 P          15.0    -7.3402987707       -0.3915174581       -0.6416602031
 O           8.0    -8.7998883948       -1.1728983273       -3.0538373952
 O           8.0    -7.0706395787        2.6787243736        0.0231508188
 O           8.0    -8.6491397315       -1.2694951738        2.1012864869
 O           8.0    -4.3602992742       -1.3771355419       -0.4013865636
 C           6.0    -2.2622211103        0.3261528332       -1.2276817249
 C           6.0     0.0380239931       -0.7450509264        0.1070581048
 H           1.0    -0.1578770278       -0.4617523740        2.1530402691
 C           6.0     2.4448232781        0.5597540564       -0.7950198347
 H           1.0     2.7076869772        0.1322526492       -2.8013011306
 C           6.0     4.7097687977       -0.3358062826        0.7704938521
 H           1.0     4.7266474636       -2.3984440683        0.9283104926
 C           6.0     7.2206730212        0.7561187233       -0.3209986808
 H           1.0     6.7536124214        2.5737642101       -1.1977995961
 C           6.0     8.4216687223       -1.0675187473       -2.1497337012
 O           8.0    10.4584451959       -2.0927638607       -1.6307441970
 O           8.0     8.9458611089        1.1395198230        1.7924576517
 O           8.0     4.3823402789        0.8954302223        3.2267002870
 O           8.0     2.2521333253        3.2849258440       -0.4824289772
 O           8.0     0.3609071752       -3.3992326129       -0.5441724914
 H           1.0    -8.2199668140        3.1671586619        1.4302652062
 H           1.0    -9.5655630235       -2.9061045383        2.0573896487
 H           1.0    -2.0501542137        0.1619743370       -3.2779702376
 H           1.0    -2.6306800731        2.2713768758       -0.6725681359
 H           1.0     7.3723943253       -1.4620391383       -3.8975415981
 H           1.0    10.3162666810       -0.1530339921        1.5205212891
 H           1.0     6.1850557593        1.1764092186        3.7939511337
 H           1.0     2.7573889720        3.4706047366        1.3485510729
 H           1.0    -1.3518678035       -4.1611059388       -0.3504139911

          INTERNUCLEAR DISTANCES (ANGS.)
          ------------------------------

                1 P          2 O          3 O          4 O          5 O     

   1 P       0.0000000    1.5481991 *  1.6684678 *  1.6740467 *  1.6658220 *
   2 O       1.5481991 *  0.0000000    2.7645728 *  2.7296191 *  2.7388264 *
   3 O       1.6684678 *  2.7645728 *  0.0000000    2.5044539 *  2.5911415 *
   4 O       1.6740467 *  2.7296191 *  2.5044539 *  0.0000000    2.6283180 *
   5 O       1.6658220 *  2.7388264 *  2.5911415 *  2.6283180 *  0.0000000  
   6 C       2.7315669 *  3.6785658    2.9090343 *  3.9037665    1.4954185 *
   7 C       3.9289482    4.9720986    4.1755531    4.7247795    2.3667475 *
   8 H       4.0785276    5.3523255    4.1729681    4.5137507    2.6471229 *
   9 C       5.2031082    6.1381797    5.1768432    6.1441731    3.7499287  
  10 H       5.4456530    6.1300447    5.5520181    6.5877313    4.0298949  
  11 C       6.4203270    7.4431196    6.4469327    7.1213815    4.8708403  
  12 H       6.5263616    7.4898051    6.8133073    7.1303975    4.8897744  
  13 C       7.7310929    8.6605463    7.6329387    8.5625643    6.2316358  
  14 H       7.6271409    8.5227728    7.3441658    8.5801711    6.2560058  
  15 C       8.3865977    9.1259764    8.5124766    9.3099781    6.8288737  
  16 O       9.4760829   10.2304451    9.6532618   10.3115673    7.8777882  
  17 O       8.7515744    9.8111443    8.5659380    9.3991590    7.2595792  
  18 O       6.5677850    7.8041408    6.3636422    7.0157993    5.1512984  
  19 O       5.4367997    6.4514395    4.9510516    6.3996783    4.2816179  
  20 O       4.3753848    5.1625345    5.0892246    5.0953801    2.7189133 *
  21 H       2.2282614 *  3.3165350    0.9955696 *  2.3853134 *  3.3005813  
  22 H       2.2797543 *  2.8846181 *  3.4111656    0.9928596 *  3.1519646  
  23 H       3.1414643    3.6429168    3.4472437    4.5684923    2.1154097 *
  24 H       2.8630626 *  3.9455694    2.3879441 *  3.9760162    2.1414859 *
  25 H       7.9940823    8.5710081    8.2170677    9.0536113    6.4786168  
  26 H       9.4140946   10.4154164    9.3556006   10.0581327    7.8595514  
  27 H       7.5779264    8.8066288    7.3361097    8.0061723    6.1559024  
  28 H       5.8171054    6.9906258    5.2645532    6.5486418    4.6502715  
  29 H       3.7476782    4.4811939    4.7220636    4.3515756    2.1692233 *

                6 C          7 C          8 H          9 C         10 H     

   1 P       2.7315669 *  3.9289482    4.0785276    5.2031082    5.4456530  
   2 O       3.6785658    4.9720986    5.3523255    6.1381797    6.1300447  
   3 O       2.9090343 *  4.1755531    4.1729681    5.1768432    5.5520181  
   4 O       3.9037665    4.7247795    4.5137507    6.1441731    6.5877313  
   5 O       1.4954185 *  2.3667475 *  2.6471229 *  3.7499287    4.0298949  
   6 C       0.0000000    1.5171924 *  2.1481168 *  2.5044139 *  2.7605540 *
   7 C       1.5171924 *  0.0000000    1.0979221 *  1.5253660 *  2.1400830 *
   8 H       2.1481168 *  1.0979221 *  0.0000000    2.1500871 *  3.0449448  
   9 C       2.5044139 *  1.5253660 *  2.1500871 *  0.0000000    1.0943891 *
  10 H       2.7605540 *  2.1400830 *  3.0449448    1.0943891 *  0.0000000  
  11 C       3.8539053    2.5063584 *  2.6785608 *  1.5321340 *  2.1808993 *
  12 H       4.1301603    2.6665154 *  2.8550727 *  2.1771979 *  2.6134408 *
  13 C       5.0461491    3.8896216    4.1683275    2.5418139 *  2.7450048 *
  14 H       4.9170193    4.0237072    4.3704779    2.5259073 *  2.6406798 *
  15 C       5.7224104    4.5975300    5.0891728    3.3554156    3.1088242  
  16 O       6.8554288    5.6357120    6.0262003    4.4887341    4.3119067  
  17 O       6.1576752    4.9000139    4.8951653    3.7153618    4.1340912  
  18 O       4.2438495    2.9603875 *  2.5711842 *  2.3689702 *  3.3352319  
  19 O       2.8833671 *  2.4531511 *  2.7390455 *  1.4551320 *  2.0849883 *
  20 O       2.4380364 *  1.4562507 *  2.1281140 *  2.3712341 *  2.5418909 *
  21 H       3.7653752    4.8859619    4.6941539    5.9279238    6.4056775  
  22 H       4.5698978    5.3103360    5.1438795    6.7849892    7.1677865  
  23 H       1.0942088 *  2.1587319 *  3.0612629    2.7255502 *  2.5303942 *
  24 H       1.0880751 *  2.1708290 *  2.4576175 *  2.8351943 *  3.2450916  
  25 H       5.3745133    4.4382762    5.1391558    3.2618206    2.6723715 *
  26 H       6.8179841    5.4991329    5.5551785    4.3582307    4.6329467  
  27 H       5.2197433    3.9270225    3.5737671    3.1497498    3.9839600  
  28 H       3.4180524    2.7347767 *  2.6251358 *  1.9200929 *  2.8185005 *
  29 H       2.4670010 *  1.9665548 *  2.4467289 *  3.2144657    3.3850704  

               11 C         12 H         13 C         14 H         15 C     

   1 P       6.4203270    6.5263616    7.7310929    7.6271409    8.3865977  
   2 O       7.4431196    7.4898051    8.6605463    8.5227728    9.1259764  
   3 O       6.4469327    6.8133073    7.6329387    7.3441658    8.5124766  
   4 O       7.1213815    7.1303975    8.5625643    8.5801711    9.3099781  
   5 O       4.8708403    4.8897744    6.2316358    6.2560058    6.8288737  
   6 C       3.8539053    4.1301603    5.0461491    4.9170193    5.7224104  
   7 C       2.5063584 *  2.6665154 *  3.8896216    4.0237072    4.5975300  
   8 H       2.6785608 *  2.8550727 *  4.1683275    4.3704779    5.0891728  
   9 C       1.5321340 *  2.1771979 *  2.5418139 *  2.5259073 *  3.3554156  
  10 H       2.1808993 *  2.6134408 *  2.7450048 *  2.6406798 *  3.1088242  
  11 C       0.0000000    1.0947276 *  1.5597984 *  2.1506402 *  2.5290760 *
  12 H       1.0947276 *  0.0000000    2.2283454 *  3.0560518    2.6405309 *
  13 C       1.5597984 *  2.2283454 *  0.0000000    1.0961458 *  1.5072094 *
  14 H       2.1506402 *  3.0560518    1.0961458 *  0.0000000    2.1784841 *
  15 C       2.5290760 *  2.6405309 *  1.5072094 *  2.1784841 *  0.0000000  
  16 O       3.4253805    3.3256467    2.3851008 *  3.1613507    1.2375210 *
  17 O       2.4345303 *  2.9494549 *  1.4578778 *  2.1037474 *  2.4068357 *
  18 O       1.4642156 *  2.1332310 *  2.4053832 *  2.8009395 *  3.7070891  
  19 O       2.4087442 *  3.3640901    2.9514294 *  2.4411549 *  4.0917019  
  20 O       2.8996560 *  2.4949724 *  4.2457411    4.6426249    4.5210011  
  21 H       7.0973722    7.4620131    8.3216113    8.0509222    9.2823922  
  22 H       7.7058026    7.5914312    9.1785383    9.2710390    9.8236278  
  23 H       4.1779677    4.4329005    5.1590012    4.9542451    5.6113664  
  24 H       4.1922737    4.6885316    5.2776979    4.9762995    6.1595108  
  25 H       2.9055894 *  2.9541971 *  2.2285151 *  2.5902243 *  1.0987860 *
  26 H       2.9948237 *  3.2030056    1.9658386 *  2.7758967 *  2.2386484 *
  27 H       1.9518365 *  2.5443702 *  2.2564281 *  2.7595177 *  3.5641979  
  28 H       2.2843487 *  3.2834719    2.9021276 *  2.5520407 *  4.2636263  
  29 H       3.8390994    3.4167996    5.2297177    5.5946662    5.5077629  

               16 O         17 O         18 O         19 O         20 O     

   1 P       9.4760829    8.7515744    6.5677850    5.4367997    4.3753848  
   2 O      10.2304451    9.8111443    7.8041408    6.4514395    5.1625345  
   3 O       9.6532618    8.5659380    6.3636422    4.9510516    5.0892246  
   4 O      10.3115673    9.3991590    7.0157993    6.3996783    5.0953801  
   5 O       7.8777882    7.2595792    5.1512984    4.2816179    2.7189133 *
   6 C       6.8554288    6.1576752    4.2438495    2.8833671 *  2.4380364 *
   7 C       5.6357120    4.9000139    2.9603875 *  2.4531511 *  1.4562507 *
   8 H       6.0262003    4.8951653    2.5711842 *  2.7390455 *  2.1281140 *
   9 C       4.4887341    3.7153618    2.3689702 *  1.4551320 *  2.3712341 *
  10 H       4.3119067    4.1340912    3.3352319    2.0849883 *  2.5418909 *
  11 C       3.4253805    2.4345303 *  1.4642156 *  2.4087442 *  2.8996560 *
  12 H       3.3256467    2.9494549 *  2.1332310 *  3.3640901    2.4949724 *
  13 C       2.3851008 *  1.4578778 *  2.4053832 *  2.9514294 *  4.2457411  
  14 H       3.1613507    2.1037474 *  2.8009395 *  2.4411549 *  4.6426249  
  15 C       1.2375210 *  2.4068357 *  3.7070891    4.0917019    4.5210011  
  16 O       0.0000000    2.6168272 *  4.4097684    5.2273962    5.4185211  
  17 O       2.6168272 *  0.0000000    2.5346626 *  3.9096089    5.2854596  
  18 O       4.4097684    2.5346626 *  0.0000000    2.5927045 *  3.6980190  
  19 O       5.2273962    3.9096089    2.5927045 *  0.0000000    3.6761073  
  20 O       5.4185211    5.2854596    3.6980190    3.6761073    0.0000000  
  21 H      10.3956010    9.1489245    6.8426951    5.6336169    5.8124598  
  22 H      10.7830790   10.0280148    7.6751311    7.1866378    5.4365362  
  23 H       6.7821916    6.4285167    4.8565004    3.1784817    2.6966793 *
  24 H       7.3189064    6.2919544    4.3081651    2.6408702 *  3.3934207  
  25 H       2.0535824 *  3.4139110    4.2746553    4.1130978    4.2386653  
  26 H       1.9596171 *  1.0071977 *  3.3140951    4.7585254    5.6478349  
  27 H       4.0431590    1.8045940 *  1.0110618 *  3.2706899    4.5421944  
  28 H       5.2687970    3.5072995    1.8932003 *  1.0099175 *  3.9783499  
  29 H       6.3809381    6.2328848    4.4666274    4.3781108    0.9972698 *

               21 H         22 H         23 H         24 H         25 H     

   1 P       2.2282614 *  2.2797543 *  3.1414643    2.8630626 *  7.9940823  
   2 O       3.3165350    2.8846181 *  3.6429168    3.9455694    8.5710081  
   3 O       0.9955696 *  3.4111656    3.4472437    2.3879441 *  8.2170677  
   4 O       2.3853134 *  0.9928596 *  4.5684923    3.9760162    9.0536113  
   5 O       3.3005813    3.1519646    2.1154097 *  2.1414859 *  6.4786168  
   6 C       3.7653752    4.5698978    1.0942088 *  1.0880751 *  5.3745133  
   7 C       4.8859619    5.3103360    2.1587319 *  2.1708290 *  4.4382762  
   8 H       4.6941539    5.1438795    3.0612629    2.4576175 *  5.1391558  
   9 C       5.9279238    6.7849892    2.7255502 *  2.8351943 *  3.2618206  
  10 H       6.4056775    7.1677865    2.5303942 *  3.2450916    2.6723715 *
  11 C       7.0973722    7.7058026    4.1779677    4.1922737    2.9055894 *
  12 H       7.4620131    7.5914312    4.4329005    4.6885316    2.9541971 *
  13 C       8.3216113    9.1785383    5.1590012    5.2776979    2.2285151 *
  14 H       8.0509222    9.2710390    4.9542451    4.9762995    2.5902243 *
  15 C       9.2823922    9.8236278    5.6113664    6.1595108    1.0987860 *
  16 O      10.3956010   10.7830790    6.7821916    7.3189064    2.0535824 *
  17 O       9.1489245   10.0280148    6.4285167    6.2919544    3.4139110  
  18 O       6.8426951    7.6751311    4.8565004    4.3081651    4.2746553  
  19 O       5.6336169    7.1866378    3.1784817    2.6408702 *  4.1130978  
  20 O       5.8124598    5.4365362    2.6966793 *  3.3934207    4.2386653  
  21 H       0.0000000    3.3084558    4.4041157    3.1954796    9.0570773  
  22 H       3.3084558    0.0000000    5.1403937    4.8021657    9.5316697  
  23 H       4.4041157    5.1403937    0.0000000    1.8003470 *  5.0703275  
  24 H       3.1954796    4.8021657    1.8003470 *  0.0000000    5.9021733  
  25 H       9.0570773    9.5316697    5.0703275    5.9021733    0.0000000  
  26 H       9.9651787   10.6251989    7.0213888    7.0662669    3.3357180  
  27 H       7.7962513    8.6591988    5.7692416    5.2616812    4.3486086  
  28 H       5.8113468    7.3519466    3.9410103    3.1106603    4.5259580  
  29 H       5.3977393    4.5778370    2.7874741 *  3.4747238    5.1843121  

               26 H         27 H         28 H         29 H     

   1 P       9.4140946    7.5779264    5.8171054    3.7476782  
   2 O      10.4154164    8.8066288    6.9906258    4.4811939  
   3 O       9.3556006    7.3361097    5.2645532    4.7220636  
   4 O      10.0581327    8.0061723    6.5486418    4.3515756  
   5 O       7.8595514    6.1559024    4.6502715    2.1692233 *
   6 C       6.8179841    5.2197433    3.4180524    2.4670010 *
   7 C       5.4991329    3.9270225    2.7347767 *  1.9665548 *
   8 H       5.5551785    3.5737671    2.6251358 *  2.4467289 *
   9 C       4.3582307    3.1497498    1.9200929 *  3.2144657  
  10 H       4.6329467    3.9839600    2.8185005 *  3.3850704  
  11 C       2.9948237 *  1.9518365 *  2.2843487 *  3.8390994  
  12 H       3.2030056    2.5443702 *  3.2834719    3.4167996  
  13 C       1.9658386 *  2.2564281 *  2.9021276 *  5.2297177  
  14 H       2.7758967 *  2.7595177 *  2.5520407 *  5.5946662  
  15 C       2.2386484 *  3.5641979    4.2636263    5.5077629  
  16 O       1.9596171 *  4.0431590    5.2687970    6.3809381  
  17 O       1.0071977 *  1.8045940 *  3.5072995    6.2328848  
  18 O       3.3140951    1.0110618 *  1.8932003 *  4.4666274  
  19 O       4.7585254    3.2706899    1.0099175 *  4.3781108  
  20 O       5.6478349    4.5421944    3.9783499    0.9972698 *
  21 H       9.9651787    7.7962513    5.8113468    5.3977393  
  22 H      10.6251989    8.6591988    7.3519466    4.5778370  
  23 H       7.0213888    5.7692416    3.9410103    2.7874741 *
  24 H       7.0662669    5.2616812    3.1106603    3.4747238  
  25 H       3.3357180    4.3486086    4.5259580    5.1843121  
  26 H       0.0000000    2.5925800 *  4.4367959    6.6032840  
  27 H       2.5925800 *  0.0000000    2.5374153 *  5.3567285  
  28 H       4.4367959    2.5374153 *  0.0000000    4.6740307  
  29 H       6.6032840    5.3567285    4.6740307    0.0000000  

  * ... LESS THAN  3.000


     ATOMIC BASIS SET
     ----------------
 THE CONTRACTED PRIMITIVE FUNCTIONS HAVE BEEN UNNORMALIZED
 THE CONTRACTED BASIS FUNCTIONS ARE NOW NORMALIZED TO UNITY

  SHELL TYPE  PRIMITIVE        EXPONENT          CONTRACTION COEFFICIENT(S)

 P         

      1   S       1          1054.9000000    0.065540713549
      1   S       2           159.1950000    0.384036079392
      1   S       3            34.5304000    0.674541139449

      2   L       4            44.2866000   -0.102130053458    0.110851002536
      2   L       5            10.1019000    0.081592242708    0.456495010442
      2   L       6             2.7399700    0.969788507613    0.606936013883

      3   L       7             1.2186500   -0.371496021877    0.091582310217
      3   L       8             0.3955460    1.270993496131    0.934924104303

      4   L       9             0.1228110    1.000000000000    1.000000000000

 O         

      5   S      10           322.0370000    0.059239393389
      5   S      11            48.4308000    0.351499960776
      5   S      12            10.4206000    0.707657921031

      6   L      13             7.4029400   -0.404453583190    0.244586106967
      6   L      14             1.5762000    1.221561761397    0.853955373466

      7   L      15             0.3736840    1.000000000000    1.000000000000

 O         

      8   S      16           322.0370000    0.059239393389
      8   S      17            48.4308000    0.351499960776
      8   S      18            10.4206000    0.707657921031

      9   L      19             7.4029400   -0.404453583190    0.244586106967
      9   L      20             1.5762000    1.221561761397    0.853955373466

     10   L      21             0.3736840    1.000000000000    1.000000000000

 O         

     11   S      22           322.0370000    0.059239393389
     11   S      23            48.4308000    0.351499960776
     11   S      24            10.4206000    0.707657921031

     12   L      25             7.4029400   -0.404453583190    0.244586106967
     12   L      26             1.5762000    1.221561761397    0.853955373466

     13   L      27             0.3736840    1.000000000000    1.000000000000

 O         

     14   S      28           322.0370000    0.059239393389
     14   S      29            48.4308000    0.351499960776
     14   S      30            10.4206000    0.707657921031

     15   L      31             7.4029400   -0.404453583190    0.244586106967
     15   L      32             1.5762000    1.221561761397    0.853955373466

     16   L      33             0.3736840    1.000000000000    1.000000000000

 C         

     17   S      34           172.2560000    0.061766907377
     17   S      35            25.9109000    0.358794042852
     17   S      36             5.5333500    0.700713083689

     18   L      37             3.6649800   -0.395895162119    0.236459946619
     18   L      38             0.7705450    1.215834355681    0.860618805716

     19   L      39             0.1958570    1.000000000000    1.000000000000

 C         

     20   S      40           172.2560000    0.061766907377
     20   S      41            25.9109000    0.358794042852
     20   S      42             5.5333500    0.700713083689

     21   L      43             3.6649800   -0.395895162119    0.236459946619
     21   L      44             0.7705450    1.215834355681    0.860618805716

     22   L      45             0.1958570    1.000000000000    1.000000000000

 H         

     23   S      46             5.4471780    0.156284978695
     23   S      47             0.8245472    0.904690876670

     24   S      48             0.1831916    1.000000000000

 C         

     25   S      49           172.2560000    0.061766907377
     25   S      50            25.9109000    0.358794042852
     25   S      51             5.5333500    0.700713083689

     26   L      52             3.6649800   -0.395895162119    0.236459946619
     26   L      53             0.7705450    1.215834355681    0.860618805716

     27   L      54             0.1958570    1.000000000000    1.000000000000

 H         

     28   S      55             5.4471780    0.156284978695
     28   S      56             0.8245472    0.904690876670

     29   S      57             0.1831916    1.000000000000

 C         

     30   S      58           172.2560000    0.061766907377
     30   S      59            25.9109000    0.358794042852
     30   S      60             5.5333500    0.700713083689

     31   L      61             3.6649800   -0.395895162119    0.236459946619
     31   L      62             0.7705450    1.215834355681    0.860618805716

     32   L      63             0.1958570    1.000000000000    1.000000000000

 H         

     33   S      64             5.4471780    0.156284978695
     33   S      65             0.8245472    0.904690876670

     34   S      66             0.1831916    1.000000000000

 C         

     35   S      67           172.2560000    0.061766907377
     35   S      68            25.9109000    0.358794042852
     35   S      69             5.5333500    0.700713083689

     36   L      70             3.6649800   -0.395895162119    0.236459946619
     36   L      71             0.7705450    1.215834355681    0.860618805716

     37   L      72             0.1958570    1.000000000000    1.000000000000

 H         

     38   S      73             5.4471780    0.156284978695
     38   S      74             0.8245472    0.904690876670

     39   S      75             0.1831916    1.000000000000

 C         

     40   S      76           172.2560000    0.061766907377
     40   S      77            25.9109000    0.358794042852
     40   S      78             5.5333500    0.700713083689

     41   L      79             3.6649800   -0.395895162119    0.236459946619
     41   L      80             0.7705450    1.215834355681    0.860618805716

     42   L      81             0.1958570    1.000000000000    1.000000000000

 O         

     43   S      82           322.0370000    0.059239393389
     43   S      83            48.4308000    0.351499960776
     43   S      84            10.4206000    0.707657921031

     44   L      85             7.4029400   -0.404453583190    0.244586106967
     44   L      86             1.5762000    1.221561761397    0.853955373466

     45   L      87             0.3736840    1.000000000000    1.000000000000

 O         

     46   S      88           322.0370000    0.059239393389
     46   S      89            48.4308000    0.351499960776
     46   S      90            10.4206000    0.707657921031

     47   L      91             7.4029400   -0.404453583190    0.244586106967
     47   L      92             1.5762000    1.221561761397    0.853955373466

     48   L      93             0.3736840    1.000000000000    1.000000000000

 O         

     49   S      94           322.0370000    0.059239393389
     49   S      95            48.4308000    0.351499960776
     49   S      96            10.4206000    0.707657921031

     50   L      97             7.4029400   -0.404453583190    0.244586106967
     50   L      98             1.5762000    1.221561761397    0.853955373466

     51   L      99             0.3736840    1.000000000000    1.000000000000

 O         

     52   S     100           322.0370000    0.059239393389
     52   S     101            48.4308000    0.351499960776
     52   S     102            10.4206000    0.707657921031

     53   L     103             7.4029400   -0.404453583190    0.244586106967
     53   L     104             1.5762000    1.221561761397    0.853955373466

     54   L     105             0.3736840    1.000000000000    1.000000000000

 O         

     55   S     106           322.0370000    0.059239393389
     55   S     107            48.4308000    0.351499960776
     55   S     108            10.4206000    0.707657921031

     56   L     109             7.4029400   -0.404453583190    0.244586106967
     56   L     110             1.5762000    1.221561761397    0.853955373466

     57   L     111             0.3736840    1.000000000000    1.000000000000

 H         

     58   S     112             5.4471780    0.156284978695
     58   S     113             0.8245472    0.904690876670

     59   S     114             0.1831916    1.000000000000

 H         

     60   S     115             5.4471780    0.156284978695
     60   S     116             0.8245472    0.904690876670

     61   S     117             0.1831916    1.000000000000

 H         

     62   S     118             5.4471780    0.156284978695
     62   S     119             0.8245472    0.904690876670

     63   S     120             0.1831916    1.000000000000

 H         

     64   S     121             5.4471780    0.156284978695
     64   S     122             0.8245472    0.904690876670

     65   S     123             0.1831916    1.000000000000

 H         

     66   S     124             5.4471780    0.156284978695
     66   S     125             0.8245472    0.904690876670

     67   S     126             0.1831916    1.000000000000

 H         

     68   S     127             5.4471780    0.156284978695
     68   S     128             0.8245472    0.904690876670

     69   S     129             0.1831916    1.000000000000

 H         

     70   S     130             5.4471780    0.156284978695
     70   S     131             0.8245472    0.904690876670

     71   S     132             0.1831916    1.000000000000

 H         

     72   S     133             5.4471780    0.156284978695
     72   S     134             0.8245472    0.904690876670

     73   S     135             0.1831916    1.000000000000

 H         

     74   S     136             5.4471780    0.156284978695
     74   S     137             0.8245472    0.904690876670

     75   S     138             0.1831916    1.000000000000

 TOTAL NUMBER OF BASIS SET SHELLS             =   75
 NUMBER OF CARTESIAN GAUSSIAN BASIS FUNCTIONS =  174
 NUMBER OF ELECTRONS                          =  136
 CHARGE OF MOLECULE                           =    0
 SPIN MULTIPLICITY                            =    1
 NUMBER OF OCCUPIED ORBITALS (ALPHA)          =   68
 NUMBER OF OCCUPIED ORBITALS (BETA )          =   68
 TOTAL NUMBER OF ATOMS                        =   29
 THE NUCLEAR REPULSION ENERGY IS     1341.7803760088

 SELECTED MURRAY-HANDY-LAMING RADIAL GRID

 LEGACY BECKE'S FUZZY CELL METHOD

 SELECTED ORIGINAL BECKE'S PARTITION FUNCTION

     LEBEDEV GRID-BASED DFT OPTIONS
     ------------------------------
     DFTTYP=B3LYP   
     NRAD  =      96     NLEB  =     302
     NRAD0 =      24     NLEB0 =     110
     SWOFF =    5.00E-03 (PURE SCF -> DFT)
     SWITCH=    3.00E-04 (COARSE -> TIGHT GRID)
     THRESH=    0.00E+00 GTHRE=    1.00E+00

 GRIMME'S EMPIRICAL DISPERSION CORRECTION= F

     $CONTRL OPTIONS
     ---------------
 SCFTYP=RHF          RUNTYP=ENERGY       EXETYP=RUN     
 MPLEVL=       0     CITYP =NONE         CCTYP =NONE         VBTYP =NONE    
 DFTTYP=B3LYP        TDDFT =NONE    
 MULT  =       1     ICHARG=       0     NZVAR =       0     COORD =UNIQUE  
 PP    =NONE         RELWFN=NONE         LOCAL =NONE         NUMGRD=       F
 ISPHER=      -1     NOSYM =       0     MAXIT =      60     UNITS =ANGS    
 PLTORB=       F     MOLPLT=       F     AIMPAC=       F     FRIEND=        
 NPRINT=       7     IREST =       0     GEOM  =INPUT   
 NORMF =       0     NORMP =       0     ITOL  =      20     ICUT  =       9
 INTTYP=BEST         GRDTYP=BEST         QMTTOL= 1.0E-06

     $SYSTEM OPTIONS
     ---------------
  REPLICATED MEMORY=    30000000 WORDS (ON EVERY NODE).
 DISTRIBUTED MEMDDI=        1000 MILLION WORDS IN AGGREGATE,
 MEMDDI DISTRIBUTED OVER   8 PROCESSORS IS   125000000 WORDS/PROCESSOR.
 TOTAL MEMORY REQUESTED ON EACH PROCESSOR=   155000000 WORDS.
 TIMLIM=      525600.00 MINUTES, OR     365.0 DAYS.
 PARALL= T  BALTYP=  DLB     KDIAG=    0  COREFL= F
 MXSEQ2=     300 MXSEQ3=     150  mem10=         0

     INPUT FOR POTENTIAL-DERIVED CHARGES 
     -----------------------------------
     VDWSCL=    1.40   RMAX=    3.00   DELR=    0.80
     VDWINC=    0.20 PTDENS=    0.28
     LAYER =       4  NFREQ=      30 MAXPDC=   10000
     CONSTR=CHARGE    UNITS=ANGS      PTSEL=GEODESIC
     CENTER=  0.0000  0.0000  0.0000
     DPOLE =  0.0000  0.0000  0.0000
     QPOLE =  0.0000  0.0000  0.0000  0.0000  0.0000  0.0000


          ----------------
          PROPERTIES INPUT
          ----------------

     MOMENTS            FIELD           POTENTIAL          DENSITY
 IEMOM =       1   IEFLD =       0   IEPOT =       1   IEDEN =       0
 WHERE =COMASS     WHERE =NUCLEI     WHERE =PDC        WHERE =NUCLEI  
 OUTPUT=BOTH       OUTPUT=BOTH       OUTPUT=BOTH       OUTPUT=BOTH    
 IEMINT=       0   IEFINT=       0                     IEDINT=       0
                                                       MORB  =       0
          EXTRAPOLATION IN EFFECT
          DIIS IN EFFECT
 ORBITAL PRINTING OPTION: NPREO=     1   174     2     1

     -------------------------------
     INTEGRAL TRANSFORMATION OPTIONS
     -------------------------------
     NWORD  =            0
     CUTOFF = 1.0E-09     MPTRAN =       0
     DIRTRF =       T     AOINTS =DUP     

          ----------------------
          INTEGRAL INPUT OPTIONS
          ----------------------
 NOPK  =       1 NORDER=       0 SCHWRZ=       T

     ------------------------------------------
     THE POINT GROUP IS C1 , NAXIS= 0, ORDER= 1
     ------------------------------------------

     DIMENSIONS OF THE SYMMETRY SUBSPACES ARE
 A   =  174

 ..... DONE SETTING UP THE RUN .....
 CPU     0: STEP CPU TIME=     0.02 TOTAL CPU TIME=          0.0 (      0.0 MIN)
 TOTAL WALL CLOCK TIME=          0.1 SECONDS, CPU UTILIZATION IS    40.00%

          ********************
          1 ELECTRON INTEGRALS
          ********************
 ...... END OF ONE-ELECTRON INTEGRALS ......
 CPU     0: STEP CPU TIME=     0.02 TOTAL CPU TIME=          0.0 (      0.0 MIN)
 TOTAL WALL CLOCK TIME=          0.1 SECONDS, CPU UTILIZATION IS    57.14%

          -------------
          GUESS OPTIONS
          -------------
          GUESS =HUCKEL            NORB  =       0          NORDER=       0
          MIX   =       F          PRTMO =       F          PUNMO =       F
          TOLZ  = 1.0E-08          TOLE  = 1.0E-05
          SYMDEN=       F          PURIFY=       F

 INITIAL GUESS ORBITALS GENERATED BY HUCKEL   ROUTINE.
 HUCKEL GUESS REQUIRES    278994 WORDS.

 SYMMETRIES FOR INITIAL GUESS ORBITALS FOLLOW.   BOTH SET(S).
    68 ORBITALS ARE OCCUPIED (   20 CORE ORBITALS).
    21=A       22=A       23=A       24=A       25=A       26=A       27=A   
    28=A       29=A       30=A       31=A       32=A       33=A       34=A   
    35=A       36=A       37=A       38=A       39=A       40=A       41=A   
    42=A       43=A       44=A       45=A       46=A       47=A       48=A   
    49=A       50=A       51=A       52=A       53=A       54=A       55=A   
    56=A       57=A       58=A       59=A       60=A       61=A       62=A   
    63=A       64=A       65=A       66=A       67=A       68=A       69=A   
    70=A       71=A       72=A       73=A       74=A       75=A       76=A   
    77=A       78=A   
 ...... END OF INITIAL ORBITAL SELECTION ......
 CPU     0: STEP CPU TIME=     0.05 TOTAL CPU TIME=          0.1 (      0.0 MIN)
 TOTAL WALL CLOCK TIME=          0.1 SECONDS, CPU UTILIZATION IS    64.29%

                    ----------------------
                    AO INTEGRAL TECHNOLOGY
                    ----------------------
     S,P,L SHELL ROTATED AXIS INTEGRALS, REPROGRAMMED BY
        KAZUYA ISHIMURA (IMS) AND JOSE SIERRA (SYNSTAR).
     S,P,D,L SHELL ROTATED AXIS INTEGRALS PROGRAMMED BY
        KAZUYA ISHIMURA (INSTITUTE FOR MOLECULAR SCIENCE).
     S,P,D,F,G SHELL TO TOTAL QUARTET ANGULAR MOMENTUM SUM 5,
        ERIC PROGRAM BY GRAHAM FLETCHER (ELORET AND NASA ADVANCED
        SUPERCOMPUTING DIVISION, AMES RESEARCH CENTER).
     S,P,D,F,G,L SHELL GENERAL RYS QUADRATURE PROGRAMMED BY
        MICHEL DUPUIS (PACIFIC NORTHWEST NATIONAL LABORATORY).

          --------------------
          2 ELECTRON INTEGRALS
          --------------------

 DIRECT SCF METHOD SKIPS INTEGRAL STORAGE ON DISK.
 DIRECT TRANSFORMATION SKIPS AO INTEGRAL STORAGE ON DISK.
  ...... END OF TWO-ELECTRON INTEGRALS .....
 CPU     0: STEP CPU TIME=     0.02 TOTAL CPU TIME=          0.1 (      0.0 MIN)
 TOTAL WALL CLOCK TIME=          0.2 SECONDS, CPU UTILIZATION IS    68.75%

          --------------------------
             R-B3LYP SCF CALCULATION
          --------------------------

     NUCLEAR ENERGY =      1341.7803760088
     MAXIT =   60     NPUNCH=    2
     EXTRAP=T  DAMP=F  SHIFT=F  RSTRCT=F  DIIS=T  DEM=F  SOSCF=F
         DENSITY MATRIX CONVERGENCE THRESHOLD=  2.00E-05
     COARSE -> FINE DFT GRID SWITCH THRESHOLD=  3.00E-04 (SWITCH IN $DFT)
                   HF -> DFT SWITCH THRESHOLD=  5.00E-03 (SWOFF IN $DFT)
     MEMORY REQUIRED FOR RHF ITERS=   1207995 WORDS.

 DIRECT SCF CALCULATION, SCHWRZ=T   FDIFF=T,  DIRTHR=  0.00E+00 NITDIR=10
 SCHWARZ INEQUALITY OVERHEAD:     11628 INTEGRALS, T=        0.00

 DFT CODE IS SWITCHING FROM THE FINE GRID NRAD= 96,  NLEB=  302
                      TO THE COARSE GRID NRAD0= 24, NLEB0=  110

     EXCHANGE FUNCTIONAL   =B88&HFX   
     CORRELATION FUNCTIONAL=LYP88&VWN5
     DFT THRESHOLD         =.476E-08
     GRID CHANGE THRESHOLD =.300E-03
 FOR AN EULER-MACLAURIN QUADRATURE USING  96 RADIAL POINTS:
 SMALLEST GAUSSIAN PRIMITIVE EXPONENT=        0.1228110000 OF TYPE -P-
 ON ATOM NUMBER   1 HAS RADIAL NORMALIZATION=  1.000000
  LARGEST GAUSSIAN PRIMITIVE EXPONENT=     1054.9000000000 OF TYPE -S-
 ON ATOM NUMBER   1 HAS RADIAL NORMALIZATION=  1.000000
 DFT IS SWITCHED OFF, PERFORMING PURE SCF UNTIL SWOFF THRESHOLD IS REACHED.

                                                                                   NONZERO     BLOCKS
 ITER EX DEM     TOTAL ENERGY        E CHANGE  DENSITY CHANGE    DIIS ERROR      INTEGRALS    SKIPPED
   1  0  0    -1239.5150207793 -1239.5150207793   0.831398655   0.685759237       32770050    2937428
          * * *   INITIATING DIIS PROCEDURE   * * *
   2  1  0    -1242.1587950082    -2.6437742289   0.212069413   0.193905733       32738993    2955736
   3  2  0    -1242.3422429512    -0.1834479429   0.109934491   0.147221826       32433740    3021747
   4  3  0    -1242.4796881084    -0.1374451573   0.032444430   0.012455517       31905636    3081553
   5  4  0    -1242.4838278990    -0.0041397906   0.005201732   0.005138316       31309834    3124370
   6  5  0    -1242.4842695918    -0.0004416928   0.001958793   0.003051363       29781970    3204024
 CONVERGED TO SWOFF, SO DFT CALCULATION IS NOW SWITCHED ON.
          * * *   INITIATING DIIS PROCEDURE   * * *
   7  6  0    -1247.4542605393    -4.9699909476   0.142159216   0.068343576       32804768    2921198
   8  7  0    -1247.5370499520    -0.0827894126   0.138050887   0.068244893       32534623    3009793
   9  8  0    -1247.5184866180     0.0185633340   0.075168157   0.118918843       32131071    3058460
  10  9  0    -1247.5558867691    -0.0374001511   0.013959712   0.016843395       31664952    3101807
  11 10  0    -1247.5572129459    -0.0013261768   0.004211987   0.002701335       30586208    3165927
  12 11  0    -1247.5573149290    -0.0001019830   0.001216154   0.001160875       29000415    3243091
  13 12  0    -1247.5573201686    -0.0000052396   0.000426512   0.001069820       27163331    3308097
  14 13  0    -1247.5573222713    -0.0000021028   0.000148338   0.000150338       25377050    3380449
 DFT CODE IS SWITCHING BACK TO THE FINE GRID
          * * *   INITIATING DIIS PROCEDURE   * * *
  15 14  0    -1247.5192230186     0.0380992527   0.006077375   0.006456741       32817908    2913328
  16 15  0    -1247.5195932238    -0.0003702052   0.006764751   0.002179869       29993241    3198777
  17 16  0    -1247.5196110437    -0.0000178199   0.002358434   0.002024232       28261899    3269376
  18 17  0    -1247.5196455636    -0.0000345199   0.000655870   0.000912691       27201348    3312915
  19 18  0    -1247.5196502029    -0.0000046393   0.000178708   0.000156957       25165301    3388428
  20 19  0    -1247.5196504200    -0.0000002171   0.000057569   0.000054360       23812555    3428889
  21 20  0    -1247.5196504544    -0.0000000344   0.000014931   0.000027272       22280382    3482665
  22 21  0    -1247.5196504585    -0.0000000040   0.000005099   0.000004794       19818734    3564602

          -----------------
          DENSITY CONVERGED
          -----------------
     TIME TO FORM FOCK OPERATORS=      47.9 SECONDS (       2.2 SEC/ITER)
     FOCK TIME ON FIRST ITERATION=       0.4, LAST ITERATION=       5.2
     TIME TO SOLVE SCF EQUATIONS=       0.4 SECONDS (       0.0 SEC/ITER)

 FINAL R-B3LYP ENERGY IS    -1247.5196504585 AFTER  22 ITERATIONS
 DFT EXCHANGE + CORRELATION ENERGY =      -110.8023129300
 TOTAL ELECTRON NUMBER             =       135.9999815173

          ------------
          EIGENVECTORS
          ------------

                      1          2          3          4          5
                  -76.7326   -19.0834   -19.0811   -19.0801   -19.0747
                     A          A          A          A          A   
    1  P  1  S    0.986820  -0.000001   0.000124   0.000059   0.000081
    2  P  1  S    0.049955  -0.000001  -0.001585  -0.000705  -0.001095
    3  P  1  X    0.000067   0.000005   0.000032  -0.000488   0.000074
    4  P  1  Y    0.000030  -0.000001   0.000149  -0.000099  -0.000414
    5  P  1  Z    0.000075  -0.000000  -0.000360   0.000051  -0.000260
    6  P  1  S   -0.015863  -0.000054  -0.002592  -0.000828  -0.002133
    7  P  1  X   -0.000216  -0.000038  -0.000358   0.002742  -0.000610
    8  P  1  Y   -0.000053   0.000002  -0.001053   0.000419   0.002363
    9  P  1  Z    0.000012   0.000002   0.001629  -0.000457   0.001117
   10  P  1  S    0.000990   0.000066   0.018954   0.007838   0.013569
   11  P  1  X    0.000078   0.000067   0.000748   0.006871   0.003345
   12  P  1  Y   -0.000047   0.000044   0.000409  -0.001004   0.008397
   13  P  1  Z   -0.001089  -0.000017   0.010573   0.000323   0.003284
   14  O  2  S   -0.000147   0.000003   0.002202   0.000810   0.001255
   15  O  2  S   -0.001119   0.000001   0.000735   0.000255   0.000355
   16  O  2  X   -0.000117   0.000003  -0.000127   0.000581   0.000085
   17  O  2  Y   -0.000073   0.000003  -0.000104  -0.000089   0.000705
   18  O  2  Z   -0.000278  -0.000002   0.000634  -0.000139   0.000052
   19  O  2  S    0.002395  -0.000001  -0.000708  -0.000243  -0.000129
   20  O  2  X    0.001202  -0.000013   0.000486  -0.002082  -0.000230
   21  O  2  Y    0.000675  -0.000012   0.000395   0.000377  -0.002511
   22  O  2  Z    0.002287   0.000007  -0.002307   0.000588  -0.000043
   23  O  3  S   -0.000149   0.000117   0.069409   0.032408   0.979337
   24  O  3  S   -0.001391   0.000018   0.009190   0.004139   0.103393
   25  O  3  X    0.000041  -0.000004  -0.000022   0.000423  -0.001683
   26  O  3  Y    0.000588   0.000001  -0.000818  -0.000391  -0.002391
   27  O  3  Z    0.000114  -0.000001   0.000323  -0.000069   0.001281
   28  O  3  S    0.002738  -0.000033  -0.008691  -0.003398  -0.044741
   29  O  3  X   -0.000238   0.000008  -0.000012  -0.001806   0.002946
   30  O  3  Y   -0.002717   0.000003   0.003863   0.001749   0.005623
   31  O  3  Z   -0.000432   0.000005  -0.001120   0.000461  -0.002193
   32  O  4  S   -0.000155  -0.000126   0.937916  -0.286444  -0.056645
   33  O  4  S   -0.001445  -0.000015   0.099512  -0.029198  -0.004476
   34  O  4  X   -0.000261   0.000003   0.000386   0.000611   0.000318
   35  O  4  Y   -0.000151   0.000001  -0.001178   0.000488   0.000660
   36  O  4  Z    0.000540   0.000002  -0.002603   0.000658   0.000089
   37  O  4  S    0.002964   0.000012  -0.044285   0.010097  -0.001838
   38  O  4  X    0.001210  -0.000008  -0.002099  -0.002370  -0.001628
   39  O  4  Y    0.000747  -0.000004   0.001245  -0.001107  -0.002923
   40  O  4  Z   -0.002443  -0.000009   0.005952  -0.000859   0.000618
   41  O  5  S   -0.000141   0.002585   0.283976   0.939147  -0.050946
   42  O  5  S   -0.001301   0.000313   0.031455   0.100208  -0.004336
   43  O  5  X    0.000711   0.000033  -0.000775  -0.000271  -0.000286
   44  O  5  Y   -0.000261  -0.000003   0.000790   0.002542   0.000310
   45  O  5  Z    0.000024   0.000002   0.000318  -0.001091   0.000371
   46  O  5  S    0.002632  -0.000227  -0.017160  -0.046538  -0.000591
   47  O  5  X   -0.003041  -0.000152   0.003071  -0.001446   0.001988
   48  O  5  Y    0.001174   0.000019  -0.002028  -0.006366  -0.001436
   49  O  5  Z   -0.000088   0.000005  -0.001711   0.002734  -0.001395
   50  C  6  S    0.000015  -0.000026  -0.000129  -0.000817   0.000164
   51  C  6  S    0.000086  -0.000127  -0.000372  -0.003264   0.001171
   52  C  6  X   -0.000123   0.000009  -0.000302  -0.001289  -0.000467
   53  C  6  Y    0.000029   0.000003  -0.000114  -0.000532   0.000042
   54  C  6  Z    0.000051   0.000052   0.000306   0.000231  -0.000027
   55  C  6  S   -0.000059   0.000741   0.002501   0.018620  -0.003211
   56  C  6  X    0.000853   0.000375  -0.000751  -0.002337   0.002954
   57  C  6  Y   -0.000677  -0.000211  -0.000609  -0.007261  -0.000128
   58  C  6  Z   -0.000244  -0.000216  -0.000252   0.003956   0.000223
   59  C  7  S    0.000007   0.000083   0.000014   0.000326   0.000003
   60  C  7  S   -0.000038   0.000486  -0.000034   0.001472   0.000073
   61  C  7  X    0.000252  -0.000010   0.000191   0.000649  -0.000085
   62  C  7  Y    0.000045  -0.000016  -0.000055   0.000058   0.000026
   63  C  7  Z   -0.000039  -0.000082  -0.000123  -0.000164  -0.000044
   64  C  7  S   -0.000786  -0.002992  -0.000458  -0.011112  -0.000476
   65  C  7  X   -0.000998  -0.001144  -0.000387   0.002166   0.000364
   66  C  7  Y   -0.000422  -0.000409   0.000217  -0.001791  -0.000416
   67  C  7  Z    0.000656   0.000812   0.001012   0.004033   0.000461
   68  H  8  S   -0.000043   0.000090  -0.000022   0.000476   0.000060
   69  H  8  S   -0.000304  -0.000104  -0.000671  -0.001022  -0.000318
   70  C  9  S   -0.000029   0.000024  -0.000019  -0.000168   0.000009
   71  C  9  S   -0.000171   0.000303  -0.000131  -0.001014   0.000083
   72  C  9  X   -0.000038   0.000414   0.000078   0.000462  -0.000100
   73  C  9  Y   -0.000006   0.000243  -0.000007  -0.000127   0.000034
   74  C  9  Z   -0.000042  -0.000085   0.000033   0.000126  -0.000028
   75  C  9  S    0.001257   0.001339   0.000548   0.004212   0.000087
   76  C  9  X   -0.000303  -0.001715  -0.000687  -0.004633   0.000482
   77  C  9  Y   -0.000319  -0.001750  -0.000255  -0.000008  -0.000221
   78  C  9  Z    0.000413   0.001992  -0.000325  -0.000654   0.000254
   79  H 10  S   -0.000031  -0.000093  -0.000093  -0.000480   0.000038
   80  H 10  S    0.000066   0.001444  -0.000110  -0.000129   0.000042
   81  C 11  S    0.000010  -0.000013  -0.000011  -0.000029   0.000017
   82  C 11  S    0.000045  -0.000036  -0.000072  -0.000199   0.000108
   83  C 11  X    0.000038   0.000044  -0.000005  -0.000202  -0.000012
   84  C 11  Y    0.000010   0.000392  -0.000019  -0.000091  -0.000005
   85  C 11  Z   -0.000002  -0.000042  -0.000002   0.000055  -0.000009
   86  C 11  S   -0.000436  -0.000293   0.000376   0.001821  -0.000531
   87  C 11  X    0.000052   0.001497  -0.000071   0.000790   0.000295
   88  C 11  Y   -0.000152  -0.003715   0.000261   0.000974  -0.000051
   89  C 11  Z    0.000145   0.001425  -0.000032  -0.000878   0.000145
   90  H 12  S    0.000011  -0.000062   0.000008   0.000085   0.000040
   91  H 12  S   -0.000033  -0.002747   0.000078   0.000151  -0.000002
   92  C 13  S   -0.000007   0.000249   0.000001   0.000024   0.000000
   93  C 13  S   -0.000044   0.000910  -0.000006   0.000072   0.000011
   94  C 13  X    0.000013   0.000417   0.000026   0.000191  -0.000012
   95  C 13  Y   -0.000008  -0.000020   0.000007  -0.000008  -0.000007
   96  C 13  Z    0.000008   0.000926   0.000004   0.000045   0.000002
   97  C 13  S    0.000191  -0.005309  -0.000102  -0.001264  -0.000007
   98  C 13  X   -0.000205  -0.010429  -0.000027  -0.000217   0.000007
   99  C 13  Y    0.000027   0.004533  -0.000052   0.000302   0.000047
  100  C 13  Z   -0.000022  -0.006704  -0.000096  -0.000801  -0.000017
  101  H 14  S   -0.000035  -0.000969  -0.000011  -0.000082   0.000004
  102  H 14  S   -0.000016  -0.002056   0.000061   0.000087  -0.000047
  103  C 15  S   -0.000001  -0.000022   0.000001   0.000006  -0.000001
  104  C 15  S   -0.000006   0.000068   0.000005   0.000071  -0.000007
  105  C 15  X    0.000002   0.001851  -0.000000  -0.000032   0.000002
  106  C 15  Y   -0.000002  -0.001313   0.000001   0.000010   0.000001
  107  C 15  Z   -0.000006  -0.000203  -0.000006  -0.000010   0.000001
  108  C 15  S    0.000032   0.022690  -0.000050  -0.000140   0.000034
  109  C 15  X    0.000060   0.019921   0.000032   0.000314  -0.000016
  110  C 15  Y   -0.000002  -0.006033  -0.000015  -0.000030  -0.000005
  111  C 15  Z    0.000054   0.012363   0.000029   0.000366  -0.000000
  112  O 16  S    0.000001   0.982642  -0.000634  -0.002508   0.000011
  113  O 16  S    0.000010   0.106367  -0.000062  -0.000228   0.000001
  114  O 16  X   -0.000001  -0.003893   0.000002   0.000017  -0.000001
  115  O 16  Y   -0.000001   0.002184  -0.000002  -0.000006  -0.000001
  116  O 16  Z   -0.000000  -0.000593   0.000001   0.000002  -0.000000
  117  O 16  S   -0.000050  -0.058685   0.000006  -0.000100   0.000000
  118  O 16  X    0.000013   0.013739  -0.000001   0.000001   0.000004
  119  O 16  Y   -0.000006  -0.007809   0.000002  -0.000019   0.000004
  120  O 16  Z    0.000002   0.001921  -0.000005  -0.000022   0.000001
  121  O 17  S   -0.000001  -0.005410  -0.000146  -0.001247   0.000093
  122  O 17  S   -0.000007  -0.001339  -0.000031  -0.000259   0.000015
  123  O 17  X   -0.000004   0.000449   0.000001   0.000011  -0.000004
  124  O 17  Y    0.000000  -0.000161  -0.000001   0.000013  -0.000002
  125  O 17  Z    0.000003   0.000111   0.000003   0.000024  -0.000000
  126  O 17  S    0.000036   0.004803   0.000074   0.000624  -0.000015
  127  O 17  X    0.000015  -0.002936  -0.000021  -0.000173   0.000013
  128  O 17  Y   -0.000006   0.000197   0.000001  -0.000090   0.000004
  129  O 17  Z   -0.000020  -0.001948  -0.000026  -0.000227   0.000000
  130  O 18  S   -0.000000  -0.001041   0.000084   0.000029  -0.000103
  131  O 18  S   -0.000001  -0.000284   0.000028   0.000010  -0.000027
  132  O 18  X    0.000001  -0.000045   0.000011   0.000012   0.000011
  133  O 18  Y    0.000000  -0.000076   0.000006   0.000038   0.000001
  134  O 18  Z   -0.000006   0.000124  -0.000006  -0.000022   0.000003
  135  O 18  S    0.000022   0.000547  -0.000102  -0.000029   0.000064
  136  O 18  X    0.000005   0.000079  -0.000040  -0.000115  -0.000046
  137  O 18  Y    0.000000   0.000404  -0.000010  -0.000163  -0.000012
  138  O 18  Z   -0.000002  -0.000616   0.000057   0.000104  -0.000038
  139  O 19  S    0.000003  -0.000659  -0.000112   0.000404   0.000057
  140  O 19  S    0.000019  -0.000251  -0.000032   0.000188   0.000007
  141  O 19  X   -0.000006  -0.000003   0.000020   0.000019  -0.000032
  142  O 19  Y   -0.000001   0.000040  -0.000002  -0.000035   0.000006
  143  O 19  Z    0.000010   0.000033  -0.000003  -0.000058   0.000002
  144  O 19  S   -0.000081   0.000794   0.000037  -0.000859   0.000075
  145  O 19  X    0.000031   0.000250  -0.000003   0.000252   0.000053
  146  O 19  Y    0.000057  -0.000339   0.000014   0.000553  -0.000065
  147  O 19  Z   -0.000052  -0.000254   0.000028   0.000298  -0.000032
  148  O 20  S    0.000010  -0.000346   0.000110   0.001363  -0.000201
  149  O 20  S    0.000096  -0.000138   0.000014   0.000329  -0.000059
  150  O 20  X   -0.000043  -0.000027  -0.000052  -0.000181   0.000025
  151  O 20  Y   -0.000019   0.000014  -0.000005  -0.000055   0.000038
  152  O 20  Z    0.000016  -0.000024   0.000006  -0.000015   0.000020
  153  O 20  S   -0.000247   0.000473   0.000169   0.000007   0.000131
  154  O 20  X    0.000271   0.000097   0.000174   0.000529  -0.000143
  155  O 20  Y    0.000091   0.000171   0.000153   0.000879  -0.000157
  156  O 20  Z   -0.000085   0.000073  -0.000052  -0.000069  -0.000089
  157  H 21  S   -0.000294   0.000004   0.000883  -0.000156   0.002739
  158  H 21  S    0.000245  -0.000003  -0.001843  -0.000299   0.004700
  159  H 22  S   -0.000243  -0.000006   0.002398  -0.000662  -0.000713
  160  H 22  S    0.000327   0.000013   0.004270  -0.002671  -0.000327
  161  H 23  S    0.000023  -0.000049  -0.000361  -0.001107   0.000480
  162  H 23  S   -0.000322  -0.000314  -0.000228  -0.001614   0.000011
  163  H 24  S    0.000186  -0.000017  -0.000007  -0.001091  -0.000184
  164  H 24  S    0.000329   0.000064  -0.001109  -0.000702   0.001180
  165  H 25  S    0.000010   0.000588   0.000005   0.000048   0.000001
  166  H 25  S    0.000024   0.005033   0.000031   0.000286  -0.000020
  167  H 26  S   -0.000006  -0.000864  -0.000005  -0.000052   0.000004
  168  H 26  S    0.000002   0.003009   0.000007   0.000070  -0.000006
  169  H 27  S   -0.000001  -0.000045   0.000018   0.000015   0.000008
  170  H 27  S   -0.000004   0.000218  -0.000003   0.000044  -0.000003
  171  H 28  S    0.000006   0.000101  -0.000031  -0.000097   0.000009
  172  H 28  S    0.000003  -0.000003   0.000060  -0.000010  -0.000003
  173  H 29  S    0.000004  -0.000017  -0.000023  -0.000392   0.000091
  174  H 29  S    0.000273  -0.000016   0.000120   0.001451  -0.000470

                      6          7          8          9         10
                  -19.0592   -19.0413   -19.0249   -19.0247   -19.0127
                     A          A          A          A          A   
    1  P  1  S    0.000001  -0.000000  -0.000007  -0.000000   0.000060
    2  P  1  S   -0.000007   0.000001   0.000078   0.000020  -0.000826
    3  P  1  X   -0.000002  -0.000001   0.000047  -0.000002   0.000118
    4  P  1  Y    0.000003   0.000005  -0.000018  -0.000019   0.000056
    5  P  1  Z    0.000001   0.000004  -0.000016  -0.000015   0.000166
    6  P  1  S   -0.000003   0.000001   0.000036   0.000136  -0.000204
    7  P  1  X    0.000022   0.000006  -0.000272   0.000017  -0.001629
    8  P  1  Y   -0.000013  -0.000029   0.000163   0.000123  -0.000789
    9  P  1  Z   -0.000010  -0.000030   0.000088   0.000095  -0.002556
   10  P  1  S    0.000107  -0.000012  -0.000917  -0.000403   0.012981
   11  P  1  X    0.000044  -0.000038  -0.000571  -0.000216  -0.005646
   12  P  1  Y   -0.000058   0.000028  -0.000288  -0.000227  -0.003467
   13  P  1  Z    0.000090   0.000081  -0.000164  -0.000257  -0.009048
   14  O  2  S   -0.000016  -0.000089  -0.000450   0.000403   0.982263
   15  O  2  S   -0.000005  -0.000019  -0.000066   0.000061   0.102936
   16  O  2  X    0.000002  -0.000005  -0.000048  -0.000006   0.001823
   17  O  2  Y   -0.000006   0.000001  -0.000018  -0.000011   0.000927
   18  O  2  Z    0.000003   0.000002   0.000005  -0.000000   0.003036
   19  O  2  S    0.000015   0.000035   0.000029  -0.000096  -0.043335
   20  O  2  X   -0.000007   0.000016   0.000175   0.000027  -0.004189
   21  O  2  Y    0.000022  -0.000003   0.000058   0.000039  -0.002134
   22  O  2  Z   -0.000011  -0.000008  -0.000014   0.000009  -0.006955
   23  O  3  S   -0.000040   0.000093   0.000135  -0.000068  -0.001391
   24  O  3  S   -0.000002  -0.000000  -0.000037  -0.000008   0.000157
   25  O  3  X    0.000005  -0.000013   0.000056   0.000053  -0.000428
   26  O  3  Y   -0.000004   0.000006   0.000007  -0.000001  -0.000093
   27  O  3  Z    0.000001   0.000001  -0.000006  -0.000009  -0.000700
   28  O  3  S   -0.000004   0.000006   0.000279   0.000109  -0.000294
   29  O  3  X   -0.000019   0.000034  -0.000121  -0.000138   0.001506
   30  O  3  Y    0.000017  -0.000017  -0.000107  -0.000032   0.000322
   31  O  3  Z   -0.000007  -0.000008   0.000009   0.000033   0.002517
   32  O  4  S   -0.000215  -0.000074   0.000276   0.000210  -0.001706
   33  O  4  S   -0.000003   0.000004  -0.000029  -0.000025   0.000288
   34  O  4  X    0.000007   0.000003  -0.000064  -0.000027  -0.000426
   35  O  4  Y    0.000002   0.000004  -0.000013  -0.000016  -0.000225
   36  O  4  Z   -0.000003  -0.000001  -0.000004  -0.000002  -0.000664
   37  O  4  S   -0.000051  -0.000032   0.000139   0.000132  -0.000664
   38  O  4  X   -0.000034  -0.000010   0.000220   0.000101   0.001583
   39  O  4  Y   -0.000010  -0.000016   0.000066   0.000071   0.000943
   40  O  4  Z    0.000020   0.000006   0.000003  -0.000006   0.002481
   41  O  5  S    0.001221  -0.000051  -0.001338  -0.000300  -0.001292
   42  O  5  S    0.000011   0.000003   0.000072   0.000035   0.000193
   43  O  5  X   -0.000058  -0.000005   0.000426   0.000080  -0.000385
   44  O  5  Y   -0.000006  -0.000020  -0.000228   0.000036  -0.000365
   45  O  5  Z   -0.000003  -0.000034   0.000282   0.000100  -0.000657
   46  O  5  S    0.000380  -0.000034   0.000343  -0.000132  -0.000500
   47  O  5  X    0.000361   0.000005  -0.001158  -0.000324   0.001395
   48  O  5  Y    0.000090   0.000092   0.000891  -0.000188   0.001334
   49  O  5  Z   -0.000028   0.000178  -0.001117  -0.000435   0.002329
   50  C  6  S    0.000044   0.000010   0.000149   0.000048  -0.000007
   51  C  6  S    0.000169   0.000077   0.000280   0.000409  -0.000045
   52  C  6  X   -0.000158   0.000040  -0.000792   0.000151  -0.000193
   53  C  6  Y   -0.000013   0.000045   0.000397  -0.000181   0.000095
   54  C  6  Z   -0.000038   0.000125  -0.000543  -0.000272  -0.000283
   55  C  6  S   -0.001882  -0.000598  -0.005025  -0.000787   0.000781
   56  C  6  X   -0.000525  -0.000363  -0.001744  -0.000484   0.001505
   57  C  6  Y    0.000676  -0.000623   0.004159   0.001146  -0.000584
   58  C  6  Z   -0.000369  -0.001389   0.002502   0.002431   0.000741
   59  C  7  S   -0.000117   0.000103  -0.001068   0.000181   0.000064
   60  C  7  S   -0.000662   0.000797  -0.004888   0.000447   0.000438
   61  C  7  X    0.000263   0.000404  -0.000111  -0.000530  -0.000151
   62  C  7  Y   -0.000049  -0.000121  -0.001478  -0.000164   0.000042
   63  C  7  Z    0.000142  -0.000101   0.000424   0.000580   0.000056
   64  C  7  S    0.005191  -0.001539   0.024277  -0.005034  -0.002025
   65  C  7  X    0.000553  -0.001860   0.002823  -0.001397   0.001255
   66  C  7  Y    0.001557   0.002826  -0.012363  -0.005357  -0.000393
   67  C  7  Z   -0.001856   0.001448  -0.009017  -0.003408   0.000088
   68  H  8  S   -0.000086  -0.000323  -0.000901   0.001128   0.000116
   69  H  8  S    0.000225  -0.000194   0.001023   0.001243   0.000399
   70  C  9  S   -0.000064   0.000215   0.000126  -0.001050   0.000002
   71  C  9  S   -0.000483   0.000653   0.000162  -0.004671   0.000046
   72  C  9  X   -0.000864  -0.000855   0.000527  -0.000245  -0.000040
   73  C  9  Y   -0.000194   0.000462   0.000324   0.001360   0.000001
   74  C  9  Z    0.000255  -0.000550  -0.000582  -0.000483  -0.000003
   75  C  9  S   -0.001111  -0.006860  -0.004909   0.023487  -0.000063
   76  C  9  X    0.005106  -0.002067   0.003523  -0.000732   0.000123
   77  C  9  Y    0.002440  -0.004829   0.005424   0.014311   0.000071
   78  C  9  Z   -0.001864  -0.004630   0.004081   0.007491   0.000121
   79  H 10  S   -0.000519  -0.000476   0.000895  -0.000826   0.000007
   80  H 10  S   -0.000402  -0.000223   0.001920   0.000724   0.000079
   81  C 11  S    0.000322  -0.001143   0.000167   0.000201   0.000010
   82  C 11  S    0.001342  -0.005228   0.001139   0.000592   0.000071
   83  C 11  X   -0.000289   0.000174  -0.000283   0.000917  -0.000053
   84  C 11  Y   -0.000377  -0.000132   0.000129  -0.000266  -0.000010
   85  C 11  Z    0.000111   0.001558   0.000293   0.000842   0.000007
   86  C 11  S   -0.008784   0.025984  -0.003722  -0.006317  -0.000152
   87  C 11  X   -0.005598  -0.001122   0.002019   0.001247   0.000361
   88  C 11  Y   -0.000497   0.012488  -0.002119  -0.005511   0.000028
   89  C 11  Z   -0.001577   0.009426  -0.002261  -0.002494  -0.000069
   90  H 12  S    0.000775  -0.000799  -0.000422  -0.000443   0.000034
   91  H 12  S    0.000735   0.001113   0.000560  -0.000603  -0.000007
   92  C 13  S   -0.001124   0.000326   0.000011   0.000085   0.000006
   93  C 13  S   -0.004944   0.001233   0.000156   0.000827   0.000041
   94  C 13  X    0.000366   0.000681  -0.000095  -0.000296   0.000002
   95  C 13  Y    0.000919   0.000222  -0.000124  -0.000179  -0.000008
   96  C 13  Z    0.000881  -0.000404  -0.000055  -0.000315   0.000003
   97  C 13  S    0.027131  -0.009914  -0.000207  -0.001511  -0.000221
   98  C 13  X    0.011446   0.003208   0.000419  -0.000022   0.000062
   99  C 13  Y   -0.005295  -0.000567   0.001031   0.001322   0.000103
  100  C 13  Z    0.012438  -0.003449   0.000669   0.003184  -0.000074
  101  H 14  S   -0.000559   0.000895   0.000047  -0.000275   0.000008
  102  H 14  S    0.000754   0.000336  -0.000662   0.000693  -0.000045
  103  C 15  S    0.000214  -0.000127   0.000022  -0.000021   0.000000
  104  C 15  S    0.000423  -0.000911   0.000190  -0.000076   0.000005
  105  C 15  X    0.000365   0.000424  -0.000125  -0.000104  -0.000005
  106  C 15  Y   -0.000494   0.000077  -0.000007   0.000001   0.000003
  107  C 15  Z   -0.000373  -0.000050   0.000135   0.000145   0.000005
  108  C 15  S   -0.008632   0.001771   0.000031   0.001672   0.000026
  109  C 15  X   -0.005389  -0.002597  -0.000056  -0.000908   0.000002
  110  C 15  Y   -0.000563  -0.000259   0.000337   0.001380  -0.000002
  111  C 15  Z   -0.008504   0.000639  -0.000354   0.000133   0.000021
  112  O 16  S    0.005190   0.000979   0.000341   0.000605   0.000000
  113  O 16  S   -0.000174  -0.000071  -0.000050  -0.000095   0.000000
  114  O 16  X    0.000120  -0.000053   0.000031   0.000030   0.000001
  115  O 16  Y    0.000066  -0.000074   0.000015   0.000035  -0.000000
  116  O 16  Z    0.000278   0.000074  -0.000024   0.000011  -0.000000
  117  O 16  S    0.004958   0.000754   0.000294   0.000622  -0.000008
  118  O 16  X   -0.001943   0.000197  -0.000185  -0.000230   0.000000
  119  O 16  Y    0.000706   0.000368  -0.000028  -0.000129  -0.000001
  120  O 16  Z   -0.000843  -0.000380   0.000095  -0.000088   0.000000
  121  O 17  S    0.982573  -0.004656  -0.000405  -0.000454   0.000016
  122  O 17  S    0.105948  -0.000241   0.000033   0.000052  -0.000004
  123  O 17  X   -0.000674  -0.000167   0.000009   0.000021  -0.000000
  124  O 17  Y   -0.002307  -0.000106   0.000049   0.000077   0.000001
  125  O 17  Z   -0.002695   0.000424  -0.000003  -0.000056   0.000001
  126  O 17  S   -0.053935   0.000569  -0.000391  -0.000762   0.000031
  127  O 17  X    0.004361   0.000264   0.000089   0.000197  -0.000011
  128  O 17  Y    0.005836   0.000260  -0.000190  -0.000264  -0.000010
  129  O 17  Z    0.009229  -0.002013   0.000112   0.000359  -0.000012
  130  O 18  S    0.004687   0.982523   0.005815  -0.004425   0.000090
  131  O 18  S    0.000787   0.105629   0.000146  -0.000341  -0.000006
  132  O 18  X    0.000160   0.002687  -0.000004  -0.000568  -0.000005
  133  O 18  Y    0.000242  -0.000831   0.000122   0.000386   0.000001
  134  O 18  Z    0.000186  -0.002396   0.000047  -0.000238   0.000003
  135  O 18  S   -0.000685  -0.052563   0.001895   0.001761   0.000075
  136  O 18  X   -0.000722  -0.006412   0.000058   0.002275  -0.000003
  137  O 18  Y   -0.001202   0.003235  -0.000789  -0.001782  -0.000023
  138  O 18  Z   -0.001322   0.009049  -0.000912  -0.000013  -0.000036
  139  O 19  S    0.000512   0.004307   0.016320   0.982406  -0.000392
  140  O 19  S    0.000170   0.000598   0.001854   0.105475  -0.000025
  141  O 19  X    0.000055   0.000245   0.000291   0.000915  -0.000020
  142  O 19  Y   -0.000040   0.000168   0.000095  -0.003259   0.000002
  143  O 19  Z   -0.000135   0.000333   0.000054   0.002037  -0.000009
  144  O 19  S   -0.000700   0.000756  -0.002229  -0.052392  -0.000019
  145  O 19  X   -0.000573  -0.000801  -0.001207  -0.002305   0.000043
  146  O 19  Y    0.000424  -0.001807   0.000176   0.011204   0.000004
  147  O 19  Z    0.000638  -0.001522  -0.000304  -0.004255   0.000021
  148  O 20  S    0.000389  -0.006011   0.982371  -0.016244   0.000449
  149  O 20  S    0.000112  -0.001103   0.105254  -0.001621   0.000018
  150  O 20  X    0.000024  -0.000019  -0.002800  -0.000323   0.000029
  151  O 20  Y   -0.000000  -0.000102   0.002338  -0.000209  -0.000008
  152  O 20  Z   -0.000029  -0.000063   0.001118   0.000066  -0.000001
  153  O 20  S   -0.000322   0.002247  -0.051699  -0.000589   0.000065
  154  O 20  X   -0.000020   0.000077   0.006299   0.001431  -0.000176
  155  O 20  Y   -0.000183   0.001013  -0.009120   0.000195   0.000087
  156  O 20  Z    0.000157   0.000350  -0.002942  -0.000247   0.000017
  157  H 21  S   -0.000003   0.000008  -0.000052  -0.000043  -0.000080
  158  H 21  S   -0.000009  -0.000010   0.000068   0.000056  -0.000158
  159  H 22  S    0.000006  -0.000001   0.000034   0.000021   0.001246
  160  H 22  S   -0.000034  -0.000013   0.000003   0.000012  -0.001565
  161  H 23  S    0.000060  -0.000052   0.000798   0.000528   0.000252
  162  H 23  S    0.000136  -0.000807   0.001405   0.001000  -0.000403
  163  H 24  S    0.000047   0.000240  -0.000638  -0.000642  -0.000003
  164  H 24  S   -0.000113   0.000237  -0.000354   0.000292   0.000692
  165  H 25  S   -0.000905  -0.000417   0.000011  -0.000196   0.000004
  166  H 25  S   -0.002649  -0.000465  -0.000160   0.000049  -0.000002
  167  H 26  S    0.003200   0.000086  -0.000001  -0.000033  -0.000001
  168  H 26  S    0.006328  -0.000227  -0.000052  -0.000077   0.000002
  169  H 27  S   -0.000615   0.003309  -0.000099  -0.000381  -0.000008
  170  H 27  S    0.003988   0.006592   0.000337  -0.000610   0.000001
  171  H 28  S    0.000019  -0.000530  -0.000148   0.003161   0.000003
  172  H 28  S   -0.000446   0.003667   0.000712   0.006466  -0.000037
  173  H 29  S   -0.000010  -0.000111   0.003198   0.000456  -0.000065
  174  H 29  S    0.000106   0.000312   0.006024  -0.000261   0.000095

                     11         12         13         14         15
                  -10.2468   -10.2006   -10.1904   -10.1857   -10.1804
                     A          A          A          A          A   
    1  P  1  S    0.000000   0.000001  -0.000001  -0.000007   0.000003
    2  P  1  S    0.000004  -0.000012  -0.000030  -0.000218  -0.000072
    3  P  1  X   -0.000005  -0.000010   0.000021   0.000107  -0.000008
    4  P  1  Y   -0.000002   0.000005   0.000003   0.000000   0.000031
    5  P  1  Z   -0.000001  -0.000000  -0.000008   0.000013   0.000004
    6  P  1  S    0.000062   0.000025  -0.000356  -0.002520  -0.000259
    7  P  1  X    0.000033   0.000065  -0.000174  -0.001106   0.000053
    8  P  1  Y    0.000014  -0.000037  -0.000045  -0.000284  -0.000209
    9  P  1  Z    0.000015   0.000009   0.000057  -0.000108  -0.000034
   10  P  1  S   -0.000132   0.000116   0.000783   0.005464   0.001281
   11  P  1  X   -0.000082   0.000070   0.000654   0.004856   0.000846
   12  P  1  Y   -0.000002   0.000052   0.000294   0.001866   0.000090
   13  P  1  Z   -0.000087  -0.000082  -0.000222   0.000609   0.000191
   14  O  2  S    0.000001   0.000002   0.000003  -0.000008   0.000003
   15  O  2  S    0.000007   0.000018   0.000037  -0.000047   0.000034
   16  O  2  X   -0.000002   0.000009   0.000038   0.000269   0.000052
   17  O  2  Y    0.000002   0.000004   0.000020   0.000101  -0.000002
   18  O  2  Z   -0.000001  -0.000001  -0.000014  -0.000099   0.000000
   19  O  2  S   -0.000026  -0.000054  -0.000107   0.000366  -0.000063
   20  O  2  X    0.000008  -0.000037  -0.000156  -0.000991  -0.000213
   21  O  2  Y   -0.000006  -0.000017  -0.000079  -0.000365   0.000005
   22  O  2  Z    0.000004   0.000002   0.000045   0.000376  -0.000014
   23  O  3  S   -0.000001   0.000001   0.000005   0.000086   0.000009
   24  O  3  S   -0.000004   0.000008   0.000040   0.000826   0.000080
   25  O  3  X    0.000002  -0.000004  -0.000032   0.000274   0.000013
   26  O  3  Y   -0.000000  -0.000005  -0.000011   0.000031  -0.000019
   27  O  3  Z   -0.000001  -0.000001   0.000001  -0.000072  -0.000009
   28  O  3  S    0.000026  -0.000036  -0.000223  -0.002730  -0.000318
   29  O  3  X    0.000001   0.000011   0.000087  -0.001304  -0.000095
   30  O  3  Y   -0.000007   0.000022   0.000084   0.000507   0.000142
   31  O  3  Z    0.000007   0.000008   0.000021   0.000414   0.000042
   32  O  4  S   -0.000002  -0.000001  -0.000001   0.000012   0.000007
   33  O  4  S   -0.000015  -0.000005  -0.000010   0.000141   0.000076
   34  O  4  X   -0.000007   0.000003   0.000021   0.000267   0.000061
   35  O  4  Y   -0.000003  -0.000002   0.000002   0.000075   0.000009
   36  O  4  Z    0.000001   0.000001   0.000013   0.000090  -0.000004
   37  O  4  S    0.000050   0.000022   0.000045  -0.000423  -0.000220
   38  O  4  X    0.000033  -0.000008  -0.000084  -0.001054  -0.000255
   39  O  4  Y    0.000016   0.000006  -0.000011  -0.000347  -0.000052
   40  O  4  Z   -0.000010  -0.000007  -0.000047  -0.000265   0.000047
   41  O  5  S    0.000010   0.000001  -0.000007  -0.000146  -0.000060
   42  O  5  S    0.000077  -0.000016  -0.000104  -0.000425  -0.000544
   43  O  5  X    0.000015  -0.000078  -0.000041   0.000339  -0.000405
   44  O  5  Y    0.000025   0.000022  -0.000029   0.000442  -0.000030
   45  O  5  Z   -0.000005  -0.000033   0.000047  -0.000083  -0.000124
   46  O  5  S   -0.000356  -0.000114   0.000296   0.008015   0.001998
   47  O  5  X   -0.000188   0.000198   0.000134   0.003844   0.002219
   48  O  5  Y   -0.000176  -0.000145   0.000115   0.001557   0.000430
   49  O  5  Z    0.000038   0.000123  -0.000264  -0.001194   0.000348
   50  C  6  S    0.000006  -0.002567  -0.022542   0.985103   0.031828
   51  C  6  S   -0.000093  -0.000667  -0.003835   0.112860   0.002699
   52  C  6  X    0.000152  -0.000052  -0.000405  -0.000067  -0.001085
   53  C  6  Y    0.000003   0.000009  -0.000207  -0.000204  -0.000209
   54  C  6  Z   -0.000003  -0.000022   0.000023   0.000061   0.000042
   55  C  6  S    0.001525   0.002367   0.007610  -0.092308  -0.004345
   56  C  6  X    0.000127   0.000746   0.004336  -0.007613   0.000202
   57  C  6  Y   -0.000395  -0.000415   0.000909   0.002720   0.001388
   58  C  6  Z    0.000766   0.000892   0.001488  -0.003162  -0.002364
   59  C  7  S    0.000026  -0.004107  -0.005976  -0.034408  -0.073685
   60  C  7  S    0.000047  -0.001715  -0.001188  -0.006525  -0.012450
   61  C  7  X   -0.000306  -0.000551  -0.001295   0.000350   0.000294
   62  C  7  Y    0.000055   0.000095   0.000097  -0.000054  -0.000242
   63  C  7  Z   -0.000082  -0.000164  -0.000135   0.000377  -0.000004
   64  C  7  S   -0.001903   0.005273  -0.003205   0.025068   0.038348
   65  C  7  X    0.001225   0.005500   0.003789  -0.014526   0.014248
   66  C  7  Y   -0.001733  -0.000224  -0.003543   0.004425   0.010359
   67  C  7  Z    0.000553   0.000081   0.000103  -0.006917  -0.003259
   68  H  8  S   -0.000029  -0.000611  -0.000058  -0.001326  -0.002175
   69  H  8  S    0.000249   0.000386   0.000905   0.000864  -0.001530
   70  C  9  S    0.001064  -0.007629  -0.043533  -0.035546   0.982946
   71  C  9  S    0.000887  -0.001967  -0.009101  -0.005608   0.116391
   72  C  9  X    0.000487  -0.001415   0.000200   0.001261   0.000039
   73  C  9  Y   -0.000068   0.000026  -0.000143  -0.000185  -0.000525
   74  C  9  Z   -0.000218   0.000055  -0.000120   0.000406   0.001012
   75  C  9  S   -0.002493   0.000547   0.036436   0.004599  -0.108695
   76  C  9  X   -0.004006   0.005361   0.017164  -0.004266   0.002832
   77  C  9  Y    0.000937   0.002386  -0.002297   0.001850   0.008086
   78  C  9  Z    0.002200  -0.000633   0.011787  -0.002732  -0.011062
   79  H 10  S    0.000701  -0.000302  -0.001417  -0.000242   0.000412
   80  H 10  S    0.001046  -0.000724   0.000445  -0.002782   0.016010
   81  C 11  S   -0.004640  -0.035680   0.985453   0.020360   0.042313
   82  C 11  S   -0.002692  -0.007616   0.117327   0.001293   0.001407
   83  C 11  X   -0.001340   0.000126  -0.000041   0.000473  -0.000743
   84  C 11  Y    0.000362   0.000026   0.001533   0.000199  -0.000158
   85  C 11  Z    0.001112  -0.000491  -0.000681   0.000036  -0.000054
   86  C 11  S    0.006166   0.031209  -0.110338   0.001999   0.024137
   87  C 11  X    0.005229   0.018419   0.003853  -0.004605  -0.013307
   88  C 11  Y   -0.000539   0.003248  -0.015441  -0.000702   0.005491
   89  C 11  Z   -0.005684  -0.004225   0.009545  -0.000563  -0.007965
   90  H 12  S   -0.001567  -0.001643  -0.000181  -0.000654  -0.001467
   91  H 12  S    0.001642  -0.002242   0.013189   0.000462   0.001713
   92  C 13  S   -0.008794   0.986491   0.034093   0.002780   0.008783
   93  C 13  S   -0.002330   0.117127   0.000630  -0.000100  -0.000033
   94  C 13  X   -0.000123  -0.000465  -0.000683  -0.000004   0.000966
   95  C 13  Y    0.000380  -0.001205  -0.000638   0.000063   0.000394
   96  C 13  Z    0.000709  -0.000094  -0.000052  -0.000028   0.000013
   97  C 13  S    0.012852  -0.111059   0.023057   0.002107   0.000507
   98  C 13  X    0.004922   0.004831  -0.017067  -0.000849  -0.000356
   99  C 13  Y   -0.004701   0.014533   0.001521  -0.000810  -0.003118
  100  C 13  Z   -0.011347   0.001844   0.009076   0.001079  -0.000831
  101  H 14  S   -0.001601   0.000476  -0.001925  -0.000086  -0.000451
  102  H 14  S    0.001345   0.015279  -0.002426   0.000419   0.002506
  103  C 15  S    0.985309   0.008271   0.004494   0.000123  -0.000607
  104  C 15  S    0.105506  -0.002315  -0.001728  -0.000005   0.000417
  105  C 15  X    0.000454  -0.000322   0.000914   0.000046  -0.000167
  106  C 15  Y   -0.000396  -0.000160  -0.000400  -0.000062   0.000071
  107  C 15  Z    0.000722  -0.000184  -0.000495  -0.000061   0.000044
  108  C 15  S   -0.059438   0.029486   0.007558  -0.000357  -0.001299
  109  C 15  X    0.012070  -0.006420  -0.001845  -0.000116   0.002176
  110  C 15  Y   -0.007807   0.011011   0.003165   0.000348  -0.001301
  111  C 15  Z   -0.001775   0.015698   0.003036   0.000030  -0.001138
  112  O 16  S    0.000316   0.000047   0.000009  -0.000006   0.000033
  113  O 16  S    0.000993   0.000067   0.000039  -0.000051   0.000302
[...]
   1939    5.03390    7.78592   -0.48243       -13.631780      13.624220      -0.007560
   1940    4.38740    7.80750    1.24504       -13.725953      13.722814      -0.003139
   1941    2.25213    6.06669   -4.98342       -13.967911      13.953409      -0.014502
   1942    3.97960    5.42019   -5.00500       -14.230643      14.222168      -0.008474
   1943    2.25213    4.35256   -5.66483       -14.795261      14.787928      -0.007333
   1944    4.38740    7.80750   -2.20990       -13.394629      13.382234      -0.012395
   1945    5.30703    6.33982   -3.53732       -14.066469      14.059457      -0.007012
   1946    3.31977    7.14766   -3.93736       -13.506331      13.491063      -0.015268
   1947    3.31977    8.46733   -0.48243       -13.233578      13.222534      -0.011044
   1948    1.18450    8.46733   -0.48243       -13.396370      13.382760      -0.013609
   1949   -0.52963    7.78592   -0.48243       -14.100720      14.086232      -0.014487
   1950    2.25213    8.22785    1.40560       -13.509318      13.503705      -0.005613
   1951    0.11687    7.80750    1.24504       -13.994742      13.986272      -0.008470
   1952    0.11687    7.80750   -2.20990       -13.790841      13.772937      -0.017904
   1953    2.25213    8.22785   -2.37046       -13.241406      13.224739      -0.016667
   1954    1.18450    7.14766   -3.93736       -13.720799      13.702694      -0.018105
   1955   -1.61060    6.73986   -1.55006       -15.106716      15.091072      -0.015644
   1956   -0.80276    6.33982   -3.53732       -14.764149      14.747217      -0.016932
   1957    0.52467    5.42019   -5.00500       -14.640078      14.626191      -0.013887
   1958   -0.80276    6.33982    2.57247       -15.137647      15.134795      -0.002852
   1959   -1.61060    6.73986    0.58520       -15.222606      15.212123      -0.010483
   1960   -1.20280    4.35256    3.38031       -16.791018      16.793074       0.002056
   1961    0.36091   -6.18100    3.95682       -14.649528      14.645484      -0.004044
   1962    2.08837   -5.53450    3.97840       -15.197727      15.189340      -0.008387
   1963    0.36091   -4.46687    4.63823       -15.739933      15.734198      -0.005735
   1964    3.14267   -7.90022   -0.54417       -13.844772      13.835889      -0.008883
   1965    2.49617   -7.92180    1.18330       -13.810161      13.802069      -0.008092
   1966    3.41580   -6.45413    2.51072       -14.877064      14.869800      -0.007264
   1967    1.42854   -7.26197    2.91076       -14.084126      14.077886      -0.006240
   1968    4.22364   -6.85417   -1.61181       -14.644646      14.638073      -0.006573
   1969    0.36091   -6.18100   -5.04516       -14.151845      14.144945      -0.006900
   1970    2.08837   -5.53450   -5.06674       -14.515824      14.509410      -0.006414
   1971    3.81584   -4.46687   -4.40691       -15.767107      15.770041       0.002934
   1972    1.42854   -7.26197   -3.99911       -13.728569      13.720653      -0.007916
   1973    3.41580   -6.45413   -3.59907       -14.436550      14.429622      -0.006928
   1974    2.49617   -7.92180   -2.27164       -13.636517      13.627782      -0.008735
   1975    0.36091   -4.46687   -5.72658       -14.974925      14.969793      -0.005132
   1976   -1.36656   -5.53450   -5.06674       -14.769814      14.765296      -0.004518
   1977   -0.70673   -7.26197   -3.99911       -13.858590      13.855323      -0.003267
   1978    0.36091   -8.34216   -2.43220       -13.386761      13.382886      -0.003875
   1979    1.42854   -8.58164   -0.54417       -13.365981      13.360062      -0.005919
   1980   -1.36656   -5.53450    3.97840       -15.240979      15.243159       0.002181
   1981   -0.70673   -7.26197    2.91076       -14.161501      14.163654       0.002153
   1982    0.36091   -8.34216    1.34386       -13.541273      13.539592      -0.001680
   1983   -8.21997    4.08227    5.87233       -12.579488      12.598015       0.018527
   1984   -6.73928    4.99739    5.30675       -13.057789      13.074190       0.016401
   1985   -8.21997    5.55153    5.28826       -12.100479      12.120566       0.020087
   1986   -5.60149    5.78564    4.04875       -13.771157      13.781899       0.010742
   1987   -7.30485    6.47807    4.39164       -12.366642      12.383528       0.016886
   1988   -9.13508    7.60922    1.43027       -11.795905      11.808319       0.012414
   1989  -10.60434    7.02515    1.43027       -11.447573      11.463681       0.016108
   1990   -8.21997    7.40395    3.04858       -11.904833      11.920559       0.015726
   1991  -10.05020    7.04365    2.91095       -11.347558      11.367059       0.019501
   1992   -9.13508    6.47807    4.39164       -11.583120      11.604052       0.020932
   1993  -11.53088    6.12853    0.51515       -11.642163      11.656764       0.014601
   1994   -9.70065    4.99739    5.30675       -11.720082      11.742151       0.022068
   1995  -10.83845    5.78564    4.04875       -11.287716      11.310592       0.022876
   1996  -11.53088    6.12853    2.34538       -11.266633      11.287198       0.020565
   1997  -11.18134    4.08227    4.74118       -11.679888      11.702088       0.022200
   1998  -12.09645    4.64785    3.26049       -11.450565      11.473119       0.022554
   1999  -12.07796    3.16716    3.81464       -11.993681      12.014504       0.020823
   2000  -12.45676    4.78547    1.43027       -11.663402      11.682628       0.019226
   2001   -9.83828    3.16716    5.66706       -12.384452      12.402518       0.018066
   2002   -9.56556   -5.29048    5.91538       -11.567837      11.588144       0.020307
   2003   -7.73533   -6.78259    3.53808       -12.751504      12.775066       0.023562
   2004   -8.65045   -6.21702    5.01876       -11.969814      11.992005       0.022191
   2005  -13.42356   -2.90610    4.44176       -10.915225      10.935676       0.020451
   2006  -14.00762   -2.90610    2.97250       -11.013377      11.034131       0.020754
   2007  -11.94993   -6.76410    2.05739       -10.969583      10.996773       0.027190
   2008  -12.87648   -5.86748    2.97250       -10.648525      10.675316       0.026791
   2009  -13.44205   -4.38679    3.88762       -10.628165      10.652546       0.024381
   2010  -12.87648   -5.86748    1.14227       -11.059766      11.084050       0.024284
   2011  -13.80235   -4.52441    2.05739       -10.849303      10.872797       0.023494
   2012  -11.39579   -6.78259    0.57670       -11.580580      11.604949       0.024369
   2013  -10.48068   -7.34816    2.05739       -11.440725      11.468242       0.027518
   2014   -8.65045   -7.34816    2.05739       -12.414264      12.440694       0.026430
   2015  -12.52694   -3.82122    5.36831       -10.822364      10.843937       0.021573
   2016  -12.18404   -5.52459    4.67587       -10.653995      10.679839       0.025844
   2017  -11.39579   -6.78259    3.53808       -10.868587      10.896369       0.027782
   2018  -11.04625   -4.73633    5.93388       -11.056080      11.077583       0.021503
   2019  -10.48068   -6.21702    5.01876       -11.086407      11.111666       0.025259
   2020   -9.56556   -7.14290    3.67570       -11.543926      11.570678       0.026752
   2021   -2.05015   -2.22240   -7.13596       -14.533617      14.533603      -0.000013
   2022   -0.56947   -1.66825   -7.15446       -14.688899      14.693048       0.004150
   2023   -1.13504   -3.14894   -6.23934       -15.293013      15.292458      -0.000555
   2024    0.56833   -2.45651   -5.89645       -16.068034      16.071112       0.003078
   2025   -2.05015    2.54634   -7.13596       -14.216372      14.217177       0.000805
   2026   -0.56947    1.99220   -7.15446       -14.474928      14.478826       0.003898
   2027   -2.05015    1.07709   -7.72003       -13.992030      13.993896       0.001866
   2028   -0.43184    0.16197   -7.51476       -14.396279      14.402077       0.005798
   2029   -2.05015   -0.75314   -7.72003       -14.104951      14.106424       0.001474
   2030    0.56833    2.78046   -5.89645       -15.735696      15.737354       0.001658
   2031   -1.13504    3.47289   -6.23934       -14.822891      14.822223      -0.000668
   2032   -2.96527    3.47289   -6.23934       -14.653807      14.651771      -0.002035
   2033   -3.53084    1.99220   -7.15446       -14.277015      14.274996      -0.002019
   2034   -3.66846    0.16197   -7.51476       -14.238896      14.235635      -0.003261
   2035   -3.53084   -1.66825   -7.15446       -14.571754      14.567220      -0.004534
   2036   -2.96527   -3.14894   -6.23934       -15.205447      15.201426      -0.004021
   2037   -2.63068    4.65575    3.18542       -16.277339      16.278522       0.001183
   2038   -1.71557    5.58229    2.28881       -16.057894      16.055128      -0.002765
   2039   -1.71557    5.58229   -3.63394       -15.451776      15.439435      -0.012341
   2040   -3.54579    6.71344   -0.67257       -14.943862      14.932569      -0.011293
   2041   -2.63068    6.50817    0.94574       -15.239236      15.232055      -0.007181
   2042   -2.63068    6.50817   -2.29088       -14.947625      14.935395      -0.012231
   2043   -3.54579    5.58229   -3.63394       -15.142225      15.131993      -0.010232
   2044    7.37239   -3.84641   -7.75553       -11.961568      11.973615       0.012047
   2045    8.85308   -3.29227   -7.77403       -11.658689      11.669422       0.010733
   2046    8.28751   -4.77296   -6.85891       -11.986175      11.995335       0.009160
   2047    7.37239    0.92233   -7.75553       -12.620360      12.637074       0.016714
   2048    8.85308    0.36819   -7.77403       -12.095875      12.111146       0.015271
   2049    7.37239   -0.54692   -8.33960       -12.136546      12.151941       0.015395
   2050    8.99070   -1.46204   -8.13433       -11.688201      11.701166       0.012965
   2051    7.37239   -2.37715   -8.33960       -11.904008      11.917752       0.013743
   2052    6.45728    1.84888   -6.85891       -13.689030      13.707118       0.018088
   2053    5.89171    0.36819   -7.77403       -13.136320      13.153397       0.017077
   2054    4.41102   -0.54692   -7.20846       -14.175957      14.193962       0.018005
   2055    4.41102   -2.37715   -7.20846       -13.788800      13.803995       0.015194
   2056    5.75408   -1.46204   -8.13433       -12.713797      12.729448       0.015651
   2057    5.89171   -3.29227   -7.77403       -12.549526      12.563134       0.013608
   2058    4.98802   -5.32003   -3.89754       -14.995072      15.001459       0.006387
   2059    4.06148   -4.42341   -4.81266       -15.311215      15.317757       0.006542
   2060    6.45728   -4.77296   -6.85891       -12.529257      12.540497       0.011240
   2061    5.54217   -5.33853   -5.37823       -13.617235      13.626583       0.009348
   2062    4.75391   -4.08052   -6.51602       -13.651029      13.662827       0.011798
   2063    7.37239   -5.69883   -5.51585       -12.720318      12.728832       0.008514
   2064   10.31627   -2.53740    5.37851       -12.853447      12.864978       0.011531
   2065   11.79695   -1.98326    5.39701       -11.911458      11.922438       0.010981
   2066   13.27764   -1.06815    4.83144       -11.272865      11.282906       0.010041
   2067   14.17426   -0.15303    3.90489       -11.043950      11.052596       0.008646
   2068   13.27764    0.76208    4.83144       -11.358208      11.364593       0.006384
   2069   14.19275   -1.63372    3.35075       -11.117053      11.125774       0.008721
   2070   12.14650   -4.02952    3.00121       -12.226136      12.233134       0.006999
   2071   12.93475   -2.77152    4.13900       -11.522487      11.532799       0.010312
   2072   11.23138   -3.46395    4.48189       -12.370750      12.382299       0.011549
   2073   14.19275    1.32765    3.35075       -11.171156      11.176891       0.005735
   2074   14.55306    1.46528    1.52052       -11.339256      11.344087       0.004831
   2075   14.75833   -0.15303    2.43564       -11.060059      11.067132       0.007073
   2076    8.48604   -4.02952    3.00121       -15.183880      15.199105       0.015225
   2077    9.40115   -3.46395    4.48189       -13.752030      13.764774       0.012745
   2078   10.31627   -4.38983    3.13883       -13.368289      13.378588       0.010299
   2079    7.66574   -0.65382    7.67044       -12.791235      12.797083       0.005848
   2080    9.14643    0.26129    7.10487       -12.696788      12.703043       0.006254
   2081    6.18506    0.26129    8.23601       -12.843286      12.845355       0.002069
   2082    7.80337    1.17641    8.03074       -12.382645      12.388250       0.005605
   2083    9.14643    2.09152    7.10487       -12.475753      12.479131       0.003378
   2084    6.18506    2.09152    8.23601       -12.629020      12.631948       0.002928
   2085    7.66574    3.00664    7.67044       -12.368442      12.372916       0.004474
   2086    6.18506    3.56078    7.65194       -12.718857      12.721916       0.003058
   2087    8.80354   -1.44207    6.41243       -13.358260      13.366897       0.008636
   2088    7.10017   -2.13451    6.75532       -13.632821      13.637598       0.004776
   2089    8.80354    3.79489    6.41243       -12.655501      12.655598       0.000096
   2090    8.01529    5.05290    5.27464       -13.222929      13.221292      -0.001637
   2091    7.10017    4.48733    6.75532       -12.749838      12.752812       0.002974
   2092    6.18506    5.41320    5.41226       -13.617618      13.619778       0.002160
   2093    2.75739    5.85498    5.20654       -14.049497      14.051368       0.001871
   2094    6.06830    6.43198    2.26367       -14.619875      14.621112       0.001237
   2095    5.14176    7.32860    1.34855       -14.087822      14.086399      -0.001423
   2096    5.37587    6.08909    3.96703       -14.350318      14.353516       0.003198
   2097    4.58762    7.34709    2.82924       -13.721570      13.723379       0.001809
   2098    3.67250    6.78152    4.30992       -13.705966      13.709204       0.003239
   2099    2.75739    7.70740    2.96686       -13.543030      13.543925       0.000895
   2100    0.92716    7.34709    2.82924       -14.038457      14.037454      -0.001003
   2101    1.84227    6.78152    4.30992       -13.811021      13.813717       0.002696
   2102    1.27670    5.30083    5.22504       -14.501360      14.502455       0.001095
   2103    0.13891    6.08909    3.96703       -14.642993      14.644670       0.001678
   2104   -0.20398    4.38572    4.65947       -15.667587      15.668974       0.001387
   2105   -1.35187   -6.54548    3.50758       -14.531913      14.535758       0.003845
   2106   -2.83255   -5.99134   -4.22690       -14.908071      14.907275      -0.000796
   2107   -3.73624   -8.01910   -0.35041       -13.742388      13.753859       0.011471
   2108   -2.26698   -7.47202   -3.31179       -13.902522      13.905253       0.002731
   2109   -3.18210   -8.03759   -1.83110       -13.651702      13.659603       0.007900
   2110   -3.97035   -6.77959   -2.96890       -14.603426      14.607252       0.003826
   2111   -2.26698   -8.60317   -0.35041       -13.308291      13.316622       0.008331
   2112   -1.35187   -8.39790   -1.96872       -13.439863      13.443329       0.003465
   2113   -3.97035   -6.77959    2.26807       -14.593348      14.606150       0.012802
   2114   -3.18210   -8.03759    1.13027       -13.655068      13.666712       0.011645
   2115   -2.83255   -5.99134    3.52607       -14.919034      14.926725       0.007691
   2116   -2.26698   -7.47202    2.61096       -13.922543      13.931144       0.008600
   2117   -1.35187   -8.39790    1.26790       -13.454869      13.460984       0.006116

 NET CHARGES:
 -------------------------------------
 ATOM                CHARGE    E.S.D.
 -------------------------------------
 P                   1.2151    0.1098
 O                  -0.5836    0.0097
 O                  -0.6890    0.0159
 O                  -0.7036    0.0100
 O                  -0.5387    0.0424
 C                   0.1805    0.3173
 C                   0.2389    0.2358
 H                   0.0751    0.0250
 C                  -0.1520    0.2888
 H                   0.1376    0.0299
 C                   0.1570    0.2201
 H                   0.0872    0.0246
 C                   0.2234    0.2164
 H                   0.0546    0.0201
 C                   0.3168    0.0754
 O                  -0.3782    0.0072
 O                  -0.6264    0.0199
 O                  -0.6092    0.0205
 O                  -0.5619    0.0190
 O                  -0.6490    0.0236
 H                   0.4843    0.0044
 H                   0.4752    0.0031
 H                   0.0802    0.0258
 H                   0.0688    0.0282
 H                   0.0278    0.0084
 H                   0.4055    0.0051
 H                   0.4251    0.0094
 H                   0.4146    0.0053
 H                   0.4239    0.0079
 -------------------------------------

 RMS DEVIATION IS            0.893 KCAL/MOLE
 RELATIVE RMS DEVIATION IS   8.027 %

 MULTIPOLE MOMENTS:
 ---------------------------------------------------------
 STATUS  ACTUAL VALUE       QUANTITY        FITTED VALUE 
 ---------------------------------------------------------
 FIXED       0.0000       TOTAL CHARGE         0.0000
             2.2396 D    DIPOLE MOMENT         2.2609 D
 FREE       -0.2886 D          DX             -0.2550 D
 FREE       -0.6162 D          DY             -0.5742 D
 FREE        2.1337 D          DZ              2.1719 D
 FREE        0.0000 BU         QXX             4.0946 BU
 FREE        0.0000 BU         QYY            -0.6238 BU
 FREE        0.0000 BU         QZZ            -3.4708 BU
 FREE        0.0000 BU         QXY             4.3160 BU
 FREE        0.0000 BU         QXZ           -25.4234 BU
 FREE        0.0000 BU         QYZ            -1.9349 BU
 ---------------------------------------------------------
 ...... END OF PROPERTY EVALUATION ......
 CPU     0: STEP CPU TIME=     1.27 TOTAL CPU TIME=         51.2 (      0.9 MIN)
 TOTAL WALL CLOCK TIME=        102.7 SECONDS, CPU UTILIZATION IS    49.80%
              1208517  WORDS OF DYNAMIC MEMORY USED
 EXECUTION OF GAMESS TERMINATED NORMALLY Thu May 21 17:19:18 2020
 DDI: 263640 bytes (0.3 MB / 0 MWords) used by master data server.
Note: The following floating-point exceptions are signalling: IEEE_UNDERFLOW_FLAGNote: The following floating-point exceptions are signalling:Note: The following floating-point exceptions are signalling:Note: The following floating-point exceptions are signalling: IEEE_UNDERFLOW_FLAGNote: The following floating-point exceptions are signalling: IEEE_UNDERFLOW_FLAG IEEE_DENORMAL
Note: The following floating-point exceptions are signalling: IEEE_UNDERFLOW_FLAG IEEE_UNDERFLOW_FLAG IEEE_DENORMAL
 ----------------------------------------
 CPU timing information for all processes
 ========================================
 0: 50.658 + 0.517 = 51.176
 1: 49.738 + 0.204 = 49.942
 2: 50.185 + 0.288 = 50.474
 3: 50.381 + 0.156 = 50.537
 4: 49.41 + 0.283 = 49.325
 5: 49.955 + 0.172 = 50.128
 6: 49.186 + 0.287 = 49.474
 7: 49.564 + 0.138 = 49.702
 ----------------------------------------
 IEEE_UNDERFLOW_FLAGNote: The following floating-point exceptions are signalling: IEEE_DENORMAL IEEE_DENORMAL
 IEEE_DENORMAL
Note: The following floating-point exceptions are signalling: IEEE_UNDERFLOW_FLAG IEEE_DENORMAL
 IEEE_UNDERFLOW_FLAG IEEE_DENORMAL

 IEEE_DENORMAL

 ddikick.x: exited gracefully.
unset echo
----- accounting info -----
Files used on the master node pietdev were:
-rwxr-xr-x 1 piet piet     1769 mei 21 17:17 /home/piet/scr/glucose-6-phosphate_charge_geodisk.F05*
-rw-r--r-- 1 piet piet 50790400 mei 21 17:19 /home/piet/scr/glucose-6-phosphate_charge_geodisk.F10
ls: No match.
ls: No match.
ls: No match.
do 21 mei 2020 17:19:21 CEST
0.124u 0.028s 1:45.91 0.1%	0+0k 0+8io 0pf+0w
