----- GAMESS execution script 'rungms' -----
This job is running on host pietdev
under operating system Linux at do 21 mei 2020 17:23:51 CEST
Available scratch disk space (Kbyte units) at beginning of the job is
Filesystem     1K-blocks     Used Available Use% Mounted on
/dev/sda2      244568380 30771624 201303700  14% /
GAMESS temporary binary files will be written to /home/piet/scr
GAMESS supplementary output files will be written to /home/piet/gamess/scr
Copying input file glucose-6-phosphate_fukui_neu.inp to your run's scratch directory...
cp glucose-6-phosphate_fukui_neu.inp /home/piet/scr/glucose-6-phosphate_fukui_neu.F05
unset echo
 
Assuming a single but multicore node.
 
/home/piet/gamess/ddikick.x /home/piet/gamess/gamess.03.x glucose-6-phosphate_fukui_neu -ddi 1 8 pietdev:cpus=8 -scr /home/piet/scr

 Distributed Data Interface kickoff program.
 Initiating 8 compute processes on 1 nodes to run the following command:
 /home/piet/gamess/gamess.03.x glucose-6-phosphate_fukui_neu 

          ******************************************************
          *         GAMESS VERSION = 30 SEP 2019 (R2)          *
          *             FROM IOWA STATE UNIVERSITY             *
          * M.W.SCHMIDT, K.K.BALDRIDGE, J.A.BOATZ, S.T.ELBERT, *
          *   M.S.GORDON, J.H.JENSEN, S.KOSEKI, N.MATSUNAGA,   *
          *          K.A.NGUYEN, S.J.SU, T.L.WINDUS,           *
          *       TOGETHER WITH M.DUPUIS, J.A.MONTGOMERY       *
          *         J.COMPUT.CHEM.  14, 1347-1363(1993)        *
          **************** 64 BIT LINUX VERSION ****************

  SINCE 1993, STUDENTS AND POSTDOCS WORKING AT IOWA STATE UNIVERSITY
  AND ALSO IN THEIR VARIOUS JOBS AFTER LEAVING ISU HAVE MADE IMPORTANT
  CONTRIBUTIONS TO THE CODE:
     IVANA ADAMOVIC, CHRISTINE AIKENS, YURI ALEXEEV, POOJA ARORA,
     ANDREY ASADCHEV, ROB BELL, PRADIPTA BANDYOPADHYAY, JONATHAN BENTZ,
     COLLEEN BERTONI, BRETT BODE, KURT BRORSEN, CALEB CARLIN, GALINA CHABAN,
     WEI CHEN, CHEOL HO CHOI, PAUL DAY, ALBERT DEFUSCO, NUWAN DESILVA,
     TIM DUDLEY, DMITRI FEDOROV, ALEX FINDLATER, GRAHAM FLETCHER, 
     MARK FREITAG, KURT GLAESEMANN, EMILIE B GUIDEZ, ANASTASIA GUNINA, 
     DAN KEMP, SAROM SOK LEANG, GRANT MERRILL,
     NORIYUKI MINEZAWA, JONATHAN MULLIN,
     TAKESHI NAGATA, SEAN NEDD, HEATHER NETZLOFF, BOSILJKA NJEGIC, RYAN OLSON,
     MIKE PAK, BUU PHAM, DAVID POOLE,
     SPENCER PRUITT, LUKE ROSKOP, TOSAPORN SATTASATHUCHANA,
     JIM SHOEMAKER, LYUDMILA SLIPCHENKO,
     TONY SMITH, JIE SONG, TETSUYA TAKETSUGU, SIMON WEBB,
     JORGE LUIS GALVEZ VALLEJO, PENG XU, SOOHAENG YOO,
     FEDERICO ZAHARIEV

  ADDITIONAL CODE HAS BEEN PROVIDED BY COLLABORATORS IN OTHER GROUPS:
     IOWA STATE UNIVERSITY:
          JOE IVANIC, AARON WEST, LAIMUTIS BYTAUTAS, KLAUS RUEDENBERG
     UNIVERSITY OF TOKYO: KIMIHIKO HIRAO, TAKAHITO NAKAJIMA,
          TAKAO TSUNEDA, MUNEAKI KAMIYA, SUSUMU YANAGISAWA,
          KIYOSHI YAGI, MAHITO CHIBA, SEIKEN TOKURA, NAOAKI KAWAKAMI
     UNIVERSITY OF AARHUS: FRANK JENSEN
     UNIVERSITY OF IOWA: VISVALDAS KAIRYS, HUI LI
     NATIONAL INST. OF STANDARDS AND TECHNOLOGY: WALT STEVENS, DAVID GARMER
     UNIVERSITY OF PISA: BENEDETTA MENNUCCI, JACOPO TOMASI
     UNIVERSITY OF MEMPHIS: HENRY KURTZ, PRAKASHAN KORAMBATH
     UNIVERSITY OF ALBERTA: TOBY ZENG, MARIUSZ KLOBUKOWSKI
     UNIVERSITY OF NEW ENGLAND: MARK SPACKMAN
     MIE UNIVERSITY: HIROAKI UMEDA
     NAT. INST. OF ADVANCED INDUSTRIAL SCIENCE AND TECHNOLOGY: KAZUO KITAURA
     MICHIGAN STATE UNIVERSITY:
          KAROL KOWALSKI, MARTA WLOCH, JEFFREY GOUR, JESSE LUTZ,
          WEI LI, JUN SHEN, J. EMILIANO DEUSTUA, PIOTR PIECUCH
     UNIVERSITY OF MINNESOTA:
          ANDREW SAND, PRACHI SHARMA, YINAN SHU
     UNIVERSITY OF SILESIA: MONIKA MUSIAL, STANISLAW KUCHARSKI
     FACULTES UNIVERSITAIRES NOTRE-DAME DE LA PAIX:
          OLIVIER QUINET, BENOIT CHAMPAGNE
     UNIVERSITY OF CALIFORNIA - SANTA BARBARA: BERNARD KIRTMAN
     INSTITUTE FOR MOLECULAR SCIENCE:
          KAZUYA ISHIMURA, MICHIO KATOUDA, AND SHIGERU NAGASE
     UNIVERSITY OF NOTRE DAME: ANNA POMOGAEVA, DAN CHIPMAN
     KYUSHU UNIVERSITY:
          HARUYUKI NAKANO,
          FENG LONG GU, JACEK KORCHOWIEC, MARCIN MAKOWSKI, AND YURIKO AOKI,
          HIROTOSHI MORI AND EISAKU MIYOSHI
     PENNSYLVANIA STATE UNIVERSITY:
          TZVETELIN IORDANOV, CHET SWALINA, JONATHAN SKONE,
          SHARON HAMMES-SCHIFFER
     WASEDA UNIVERSITY:
          MASATO KOBAYASHI, TOMOKO AKAMA, TSUGUKI TOUMA,
          TAKESHI YOSHIKAWA, YASUHIRO IKABATA, JUNJI SEINO,
          YUYA NAKAJIMA, HIROMI NAKAI
     NANJING UNIVERSITY: SHUHUA LI
     UNIVERSITY OF NEBRASKA:
          PEIFENG SU, DEJUN SI, NANDUN THELLAMUREGE, YALI WANG, HUI LI
     UNIVERSITY OF ZURICH: ROBERTO PEVERATI, KIM BALDRIDGE
     N. COPERNICUS UNIVERSITY AND JACKSON STATE UNIVERSITY:
          MARIA BARYSZ
     UNIVERSITY OF COPENHAGEN: Jimmy Kromann, CASPER STEINMANN
     TOKYO INSTITUTE OF TECHNOLOGY: HIROYA NAKATA
     NAGOYA UNIVERSITY: YOSHIO NISHIMOTO, STEPHAN IRLE
     MOSCOW STATE UNIVERSITY: VLADIMIR MIRONOV
     A.N.NESMEYANOV INSTITUTE OF ORGANOELEMENT COMPOUNDS OF RUSSIAN ACADEMY OF SCIENCES:
          IGOR S. GERASIMOV
     JOHANNES KEPLER UNIVERSITY LINZ:
          CHRISTIAN FRIEDL


 PARALLEL VERSION RUNNING ON        8 PROCESSORS IN        1 NODES.

 EXECUTION OF GAMESS BEGUN Thu May 21 17:23:51 2020

            ECHO OF THE FIRST FEW INPUT CARDS -
 INPUT CARD> $BASIS GBASIS=N21 NGAUSS=3 $END                                                
 INPUT CARD> $CONTRL SCFTYP=RHF MAXIT=60 MULT=1 ICHARG=0 $END                               
 INPUT CARD> $SYSTEM MEMDDI=1000 MWORDS=30 $END                                             
 INPUT CARD> $SCF DIRSCF=.TRUE. $END                                                        
 INPUT CARD> $DATA                                                                          
 INPUT CARD>                                                                                
 INPUT CARD>C1                                                                              
 INPUT CARD>P 15.0000000 -3.8843191121 -0.2071821315 -0.3395519812                          
 INPUT CARD>O 8.0000000 -4.6567007344 -0.6206711105 -1.6160212724                           
 INPUT CARD>O 8.0000000 -3.7416216026 1.4175199955 0.0122508866                             
 INPUT CARD>O 8.0000000 -4.5769279714 -0.6717879640 1.1119530030                            
 INPUT CARD>O 8.0000000 -2.3073711758 -0.7287487979 -0.2124046376                           
 INPUT CARD>C 6.0000000 -1.1971159443 0.1725926591 -0.6496612381                            
 INPUT CARD>C 6.0000000 0.0201214321 -0.3942639998 0.0566527134                             
 INPUT CARD>H 1.0000000 -0.0835449313 -0.2443488511 1.1393399271                            
 INPUT CARD>C 6.0000000 1.2937448572 0.2962091118 -0.4207064092                             
 INPUT CARD>H 1.0000000 1.4328463464 0.0699850931 -1.4823848266                             
 INPUT CARD>C 6.0000000 2.4923024969 -0.1777010449 0.4077278172                             
 INPUT CARD>H 1.0000000 2.5012343029 -1.2692020345 0.4912407929                             
 INPUT CARD>C 6.0000000 3.8210158870 0.4001208261 -0.1698651989                             
 INPUT CARD>H 1.0000000 3.5738580436 1.3619774649 -0.6338482954                             
 INPUT CARD>C 6.0000000 4.4565554885 -0.5649066342 -1.1375901666                            
 INPUT CARD>O 8.0000000 5.5343712601 -1.1074430231 -0.8629527284                            
 INPUT CARD>O 8.0000000 4.7339461737 0.6030079654 0.9485278095                              
 INPUT CARD>O 8.0000000 2.3190347740 0.4738413019 1.7074963820                              
 INPUT CARD>O 8.0000000 1.1917777180 1.7383080221 -0.2552904391                             
 INPUT CARD>O 8.0000000 0.1909838662 -1.7987965636 -0.2879637021                            
 INPUT CARD>H 1.0000000 -4.3498194275 1.6759883086 0.7568638075                             
 INPUT CARD>H 1.0000000 -5.0618783282 -1.5378444056 1.0887237949                            
 INPUT CARD>H 1.0000000 -1.0848949673 0.0857131341 -1.7346272734                            
 INPUT CARD>H 1.0000000 -1.3920960447 1.2019609671 -0.3559077561                            
 INPUT CARD>H 1.0000000 3.9013033494 -0.7736778495 -2.0624903417                            
 INPUT CARD>H 1.0000000 5.4591336247 -0.0809821070 0.8046252732                             
 INPUT CARD>H 1.0000000 3.2729907931 0.6225289943 2.0076726247                              
 INPUT CARD>H 1.0000000 1.4591475113 1.8365650677 0.7136225472                              
 INPUT CARD>H 1.0000000 -0.7153776856 -2.2019625945 -0.1854311119                           
 INPUT CARD> $END                                                                           
   30000000 WORDS OF MEMORY AVAILABLE

     BASIS OPTIONS
     -------------
     GBASIS=N21          IGAUSS=       3      POLAR=NONE    
     NDFUNC=       0     NFFUNC=       0     DIFFSP=       F
     NPFUNC=       0      DIFFS=       F     BASNAM=        


     RUN TITLE
     ---------
                                                                                 

 THE POINT GROUP OF THE MOLECULE IS C1      
 THE ORDER OF THE PRINCIPAL AXIS IS     0

 ATOM      ATOMIC                      COORDINATES (BOHR)
           CHARGE         X                   Y                   Z
 P          15.0    -7.3402987707       -0.3915174581       -0.6416602031
 O           8.0    -8.7998883948       -1.1728983273       -3.0538373952
 O           8.0    -7.0706395787        2.6787243736        0.0231508188
 O           8.0    -8.6491397315       -1.2694951738        2.1012864869
 O           8.0    -4.3602992742       -1.3771355419       -0.4013865636
 C           6.0    -2.2622211103        0.3261528332       -1.2276817249
 C           6.0     0.0380239931       -0.7450509264        0.1070581048
 H           1.0    -0.1578770278       -0.4617523740        2.1530402691
 C           6.0     2.4448232781        0.5597540564       -0.7950198347
 H           1.0     2.7076869772        0.1322526492       -2.8013011306
 C           6.0     4.7097687977       -0.3358062826        0.7704938521
 H           1.0     4.7266474636       -2.3984440683        0.9283104926
 C           6.0     7.2206730212        0.7561187233       -0.3209986808
 H           1.0     6.7536124214        2.5737642101       -1.1977995961
 C           6.0     8.4216687223       -1.0675187473       -2.1497337012
 O           8.0    10.4584451959       -2.0927638607       -1.6307441970
 O           8.0     8.9458611089        1.1395198230        1.7924576517
 O           8.0     4.3823402789        0.8954302223        3.2267002870
 O           8.0     2.2521333253        3.2849258440       -0.4824289772
 O           8.0     0.3609071752       -3.3992326129       -0.5441724914
 H           1.0    -8.2199668140        3.1671586619        1.4302652062
 H           1.0    -9.5655630235       -2.9061045383        2.0573896487
 H           1.0    -2.0501542137        0.1619743370       -3.2779702376
 H           1.0    -2.6306800731        2.2713768758       -0.6725681359
 H           1.0     7.3723943253       -1.4620391383       -3.8975415981
 H           1.0    10.3162666810       -0.1530339921        1.5205212891
 H           1.0     6.1850557593        1.1764092186        3.7939511337
 H           1.0     2.7573889720        3.4706047366        1.3485510729
 H           1.0    -1.3518678035       -4.1611059388       -0.3504139911

          INTERNUCLEAR DISTANCES (ANGS.)
          ------------------------------

                1 P          2 O          3 O          4 O          5 O     

   1 P       0.0000000    1.5481991 *  1.6684678 *  1.6740467 *  1.6658220 *
   2 O       1.5481991 *  0.0000000    2.7645728 *  2.7296191 *  2.7388264 *
   3 O       1.6684678 *  2.7645728 *  0.0000000    2.5044539 *  2.5911415 *
   4 O       1.6740467 *  2.7296191 *  2.5044539 *  0.0000000    2.6283180 *
   5 O       1.6658220 *  2.7388264 *  2.5911415 *  2.6283180 *  0.0000000  
   6 C       2.7315669 *  3.6785658    2.9090343 *  3.9037665    1.4954185 *
   7 C       3.9289482    4.9720986    4.1755531    4.7247795    2.3667475 *
   8 H       4.0785276    5.3523255    4.1729681    4.5137507    2.6471229 *
   9 C       5.2031082    6.1381797    5.1768432    6.1441731    3.7499287  
  10 H       5.4456530    6.1300447    5.5520181    6.5877313    4.0298949  
  11 C       6.4203270    7.4431196    6.4469327    7.1213815    4.8708403  
  12 H       6.5263616    7.4898051    6.8133073    7.1303975    4.8897744  
  13 C       7.7310929    8.6605463    7.6329387    8.5625643    6.2316358  
  14 H       7.6271409    8.5227728    7.3441658    8.5801711    6.2560058  
  15 C       8.3865977    9.1259764    8.5124766    9.3099781    6.8288737  
  16 O       9.4760829   10.2304451    9.6532618   10.3115673    7.8777882  
  17 O       8.7515744    9.8111443    8.5659380    9.3991590    7.2595792  
  18 O       6.5677850    7.8041408    6.3636422    7.0157993    5.1512984  
  19 O       5.4367997    6.4514395    4.9510516    6.3996783    4.2816179  
  20 O       4.3753848    5.1625345    5.0892246    5.0953801    2.7189133 *
  21 H       2.2282614 *  3.3165350    0.9955696 *  2.3853134 *  3.3005813  
  22 H       2.2797543 *  2.8846181 *  3.4111656    0.9928596 *  3.1519646  
  23 H       3.1414643    3.6429168    3.4472437    4.5684923    2.1154097 *
  24 H       2.8630626 *  3.9455694    2.3879441 *  3.9760162    2.1414859 *
  25 H       7.9940823    8.5710081    8.2170677    9.0536113    6.4786168  
  26 H       9.4140946   10.4154164    9.3556006   10.0581327    7.8595514  
  27 H       7.5779264    8.8066288    7.3361097    8.0061723    6.1559024  
  28 H       5.8171054    6.9906258    5.2645532    6.5486418    4.6502715  
  29 H       3.7476782    4.4811939    4.7220636    4.3515756    2.1692233 *

                6 C          7 C          8 H          9 C         10 H     

   1 P       2.7315669 *  3.9289482    4.0785276    5.2031082    5.4456530  
   2 O       3.6785658    4.9720986    5.3523255    6.1381797    6.1300447  
   3 O       2.9090343 *  4.1755531    4.1729681    5.1768432    5.5520181  
   4 O       3.9037665    4.7247795    4.5137507    6.1441731    6.5877313  
   5 O       1.4954185 *  2.3667475 *  2.6471229 *  3.7499287    4.0298949  
   6 C       0.0000000    1.5171924 *  2.1481168 *  2.5044139 *  2.7605540 *
   7 C       1.5171924 *  0.0000000    1.0979221 *  1.5253660 *  2.1400830 *
   8 H       2.1481168 *  1.0979221 *  0.0000000    2.1500871 *  3.0449448  
   9 C       2.5044139 *  1.5253660 *  2.1500871 *  0.0000000    1.0943891 *
  10 H       2.7605540 *  2.1400830 *  3.0449448    1.0943891 *  0.0000000  
  11 C       3.8539053    2.5063584 *  2.6785608 *  1.5321340 *  2.1808993 *
  12 H       4.1301603    2.6665154 *  2.8550727 *  2.1771979 *  2.6134408 *
  13 C       5.0461491    3.8896216    4.1683275    2.5418139 *  2.7450048 *
  14 H       4.9170193    4.0237072    4.3704779    2.5259073 *  2.6406798 *
  15 C       5.7224104    4.5975300    5.0891728    3.3554156    3.1088242  
  16 O       6.8554288    5.6357120    6.0262003    4.4887341    4.3119067  
  17 O       6.1576752    4.9000139    4.8951653    3.7153618    4.1340912  
  18 O       4.2438495    2.9603875 *  2.5711842 *  2.3689702 *  3.3352319  
  19 O       2.8833671 *  2.4531511 *  2.7390455 *  1.4551320 *  2.0849883 *
  20 O       2.4380364 *  1.4562507 *  2.1281140 *  2.3712341 *  2.5418909 *
  21 H       3.7653752    4.8859619    4.6941539    5.9279238    6.4056775  
  22 H       4.5698978    5.3103360    5.1438795    6.7849892    7.1677865  
  23 H       1.0942088 *  2.1587319 *  3.0612629    2.7255502 *  2.5303942 *
  24 H       1.0880751 *  2.1708290 *  2.4576175 *  2.8351943 *  3.2450916  
  25 H       5.3745133    4.4382762    5.1391558    3.2618206    2.6723715 *
  26 H       6.8179841    5.4991329    5.5551785    4.3582307    4.6329467  
  27 H       5.2197433    3.9270225    3.5737671    3.1497498    3.9839600  
  28 H       3.4180524    2.7347767 *  2.6251358 *  1.9200929 *  2.8185005 *
  29 H       2.4670010 *  1.9665548 *  2.4467289 *  3.2144657    3.3850704  

               11 C         12 H         13 C         14 H         15 C     

   1 P       6.4203270    6.5263616    7.7310929    7.6271409    8.3865977  
   2 O       7.4431196    7.4898051    8.6605463    8.5227728    9.1259764  
   3 O       6.4469327    6.8133073    7.6329387    7.3441658    8.5124766  
   4 O       7.1213815    7.1303975    8.5625643    8.5801711    9.3099781  
   5 O       4.8708403    4.8897744    6.2316358    6.2560058    6.8288737  
   6 C       3.8539053    4.1301603    5.0461491    4.9170193    5.7224104  
   7 C       2.5063584 *  2.6665154 *  3.8896216    4.0237072    4.5975300  
   8 H       2.6785608 *  2.8550727 *  4.1683275    4.3704779    5.0891728  
   9 C       1.5321340 *  2.1771979 *  2.5418139 *  2.5259073 *  3.3554156  
  10 H       2.1808993 *  2.6134408 *  2.7450048 *  2.6406798 *  3.1088242  
  11 C       0.0000000    1.0947276 *  1.5597984 *  2.1506402 *  2.5290760 *
  12 H       1.0947276 *  0.0000000    2.2283454 *  3.0560518    2.6405309 *
  13 C       1.5597984 *  2.2283454 *  0.0000000    1.0961458 *  1.5072094 *
  14 H       2.1506402 *  3.0560518    1.0961458 *  0.0000000    2.1784841 *
  15 C       2.5290760 *  2.6405309 *  1.5072094 *  2.1784841 *  0.0000000  
  16 O       3.4253805    3.3256467    2.3851008 *  3.1613507    1.2375210 *
  17 O       2.4345303 *  2.9494549 *  1.4578778 *  2.1037474 *  2.4068357 *
  18 O       1.4642156 *  2.1332310 *  2.4053832 *  2.8009395 *  3.7070891  
  19 O       2.4087442 *  3.3640901    2.9514294 *  2.4411549 *  4.0917019  
  20 O       2.8996560 *  2.4949724 *  4.2457411    4.6426249    4.5210011  
  21 H       7.0973722    7.4620131    8.3216113    8.0509222    9.2823922  
  22 H       7.7058026    7.5914312    9.1785383    9.2710390    9.8236278  
  23 H       4.1779677    4.4329005    5.1590012    4.9542451    5.6113664  
  24 H       4.1922737    4.6885316    5.2776979    4.9762995    6.1595108  
  25 H       2.9055894 *  2.9541971 *  2.2285151 *  2.5902243 *  1.0987860 *
  26 H       2.9948237 *  3.2030056    1.9658386 *  2.7758967 *  2.2386484 *
  27 H       1.9518365 *  2.5443702 *  2.2564281 *  2.7595177 *  3.5641979  
  28 H       2.2843487 *  3.2834719    2.9021276 *  2.5520407 *  4.2636263  
  29 H       3.8390994    3.4167996    5.2297177    5.5946662    5.5077629  

               16 O         17 O         18 O         19 O         20 O     

   1 P       9.4760829    8.7515744    6.5677850    5.4367997    4.3753848  
   2 O      10.2304451    9.8111443    7.8041408    6.4514395    5.1625345  
   3 O       9.6532618    8.5659380    6.3636422    4.9510516    5.0892246  
   4 O      10.3115673    9.3991590    7.0157993    6.3996783    5.0953801  
   5 O       7.8777882    7.2595792    5.1512984    4.2816179    2.7189133 *
   6 C       6.8554288    6.1576752    4.2438495    2.8833671 *  2.4380364 *
   7 C       5.6357120    4.9000139    2.9603875 *  2.4531511 *  1.4562507 *
   8 H       6.0262003    4.8951653    2.5711842 *  2.7390455 *  2.1281140 *
   9 C       4.4887341    3.7153618    2.3689702 *  1.4551320 *  2.3712341 *
  10 H       4.3119067    4.1340912    3.3352319    2.0849883 *  2.5418909 *
  11 C       3.4253805    2.4345303 *  1.4642156 *  2.4087442 *  2.8996560 *
  12 H       3.3256467    2.9494549 *  2.1332310 *  3.3640901    2.4949724 *
  13 C       2.3851008 *  1.4578778 *  2.4053832 *  2.9514294 *  4.2457411  
  14 H       3.1613507    2.1037474 *  2.8009395 *  2.4411549 *  4.6426249  
  15 C       1.2375210 *  2.4068357 *  3.7070891    4.0917019    4.5210011  
  16 O       0.0000000    2.6168272 *  4.4097684    5.2273962    5.4185211  
  17 O       2.6168272 *  0.0000000    2.5346626 *  3.9096089    5.2854596  
  18 O       4.4097684    2.5346626 *  0.0000000    2.5927045 *  3.6980190  
  19 O       5.2273962    3.9096089    2.5927045 *  0.0000000    3.6761073  
  20 O       5.4185211    5.2854596    3.6980190    3.6761073    0.0000000  
  21 H      10.3956010    9.1489245    6.8426951    5.6336169    5.8124598  
  22 H      10.7830790   10.0280148    7.6751311    7.1866378    5.4365362  
  23 H       6.7821916    6.4285167    4.8565004    3.1784817    2.6966793 *
  24 H       7.3189064    6.2919544    4.3081651    2.6408702 *  3.3934207  
  25 H       2.0535824 *  3.4139110    4.2746553    4.1130978    4.2386653  
  26 H       1.9596171 *  1.0071977 *  3.3140951    4.7585254    5.6478349  
  27 H       4.0431590    1.8045940 *  1.0110618 *  3.2706899    4.5421944  
  28 H       5.2687970    3.5072995    1.8932003 *  1.0099175 *  3.9783499  
  29 H       6.3809381    6.2328848    4.4666274    4.3781108    0.9972698 *

               21 H         22 H         23 H         24 H         25 H     

   1 P       2.2282614 *  2.2797543 *  3.1414643    2.8630626 *  7.9940823  
   2 O       3.3165350    2.8846181 *  3.6429168    3.9455694    8.5710081  
   3 O       0.9955696 *  3.4111656    3.4472437    2.3879441 *  8.2170677  
   4 O       2.3853134 *  0.9928596 *  4.5684923    3.9760162    9.0536113  
   5 O       3.3005813    3.1519646    2.1154097 *  2.1414859 *  6.4786168  
   6 C       3.7653752    4.5698978    1.0942088 *  1.0880751 *  5.3745133  
   7 C       4.8859619    5.3103360    2.1587319 *  2.1708290 *  4.4382762  
   8 H       4.6941539    5.1438795    3.0612629    2.4576175 *  5.1391558  
   9 C       5.9279238    6.7849892    2.7255502 *  2.8351943 *  3.2618206  
  10 H       6.4056775    7.1677865    2.5303942 *  3.2450916    2.6723715 *
  11 C       7.0973722    7.7058026    4.1779677    4.1922737    2.9055894 *
  12 H       7.4620131    7.5914312    4.4329005    4.6885316    2.9541971 *
  13 C       8.3216113    9.1785383    5.1590012    5.2776979    2.2285151 *
  14 H       8.0509222    9.2710390    4.9542451    4.9762995    2.5902243 *
  15 C       9.2823922    9.8236278    5.6113664    6.1595108    1.0987860 *
  16 O      10.3956010   10.7830790    6.7821916    7.3189064    2.0535824 *
  17 O       9.1489245   10.0280148    6.4285167    6.2919544    3.4139110  
  18 O       6.8426951    7.6751311    4.8565004    4.3081651    4.2746553  
  19 O       5.6336169    7.1866378    3.1784817    2.6408702 *  4.1130978  
  20 O       5.8124598    5.4365362    2.6966793 *  3.3934207    4.2386653  
  21 H       0.0000000    3.3084558    4.4041157    3.1954796    9.0570773  
  22 H       3.3084558    0.0000000    5.1403937    4.8021657    9.5316697  
  23 H       4.4041157    5.1403937    0.0000000    1.8003470 *  5.0703275  
  24 H       3.1954796    4.8021657    1.8003470 *  0.0000000    5.9021733  
  25 H       9.0570773    9.5316697    5.0703275    5.9021733    0.0000000  
  26 H       9.9651787   10.6251989    7.0213888    7.0662669    3.3357180  
  27 H       7.7962513    8.6591988    5.7692416    5.2616812    4.3486086  
  28 H       5.8113468    7.3519466    3.9410103    3.1106603    4.5259580  
  29 H       5.3977393    4.5778370    2.7874741 *  3.4747238    5.1843121  

               26 H         27 H         28 H         29 H     

   1 P       9.4140946    7.5779264    5.8171054    3.7476782  
   2 O      10.4154164    8.8066288    6.9906258    4.4811939  
   3 O       9.3556006    7.3361097    5.2645532    4.7220636  
   4 O      10.0581327    8.0061723    6.5486418    4.3515756  
   5 O       7.8595514    6.1559024    4.6502715    2.1692233 *
   6 C       6.8179841    5.2197433    3.4180524    2.4670010 *
   7 C       5.4991329    3.9270225    2.7347767 *  1.9665548 *
   8 H       5.5551785    3.5737671    2.6251358 *  2.4467289 *
   9 C       4.3582307    3.1497498    1.9200929 *  3.2144657  
  10 H       4.6329467    3.9839600    2.8185005 *  3.3850704  
  11 C       2.9948237 *  1.9518365 *  2.2843487 *  3.8390994  
  12 H       3.2030056    2.5443702 *  3.2834719    3.4167996  
  13 C       1.9658386 *  2.2564281 *  2.9021276 *  5.2297177  
  14 H       2.7758967 *  2.7595177 *  2.5520407 *  5.5946662  
  15 C       2.2386484 *  3.5641979    4.2636263    5.5077629  
  16 O       1.9596171 *  4.0431590    5.2687970    6.3809381  
  17 O       1.0071977 *  1.8045940 *  3.5072995    6.2328848  
  18 O       3.3140951    1.0110618 *  1.8932003 *  4.4666274  
  19 O       4.7585254    3.2706899    1.0099175 *  4.3781108  
  20 O       5.6478349    4.5421944    3.9783499    0.9972698 *
  21 H       9.9651787    7.7962513    5.8113468    5.3977393  
  22 H      10.6251989    8.6591988    7.3519466    4.5778370  
  23 H       7.0213888    5.7692416    3.9410103    2.7874741 *
  24 H       7.0662669    5.2616812    3.1106603    3.4747238  
  25 H       3.3357180    4.3486086    4.5259580    5.1843121  
  26 H       0.0000000    2.5925800 *  4.4367959    6.6032840  
  27 H       2.5925800 *  0.0000000    2.5374153 *  5.3567285  
  28 H       4.4367959    2.5374153 *  0.0000000    4.6740307  
  29 H       6.6032840    5.3567285    4.6740307    0.0000000  

  * ... LESS THAN  3.000


     ATOMIC BASIS SET
     ----------------
 THE CONTRACTED PRIMITIVE FUNCTIONS HAVE BEEN UNNORMALIZED
 THE CONTRACTED BASIS FUNCTIONS ARE NOW NORMALIZED TO UNITY

  SHELL TYPE  PRIMITIVE        EXPONENT          CONTRACTION COEFFICIENT(S)

 P         

      1   S       1          1054.9000000    0.065540713549
      1   S       2           159.1950000    0.384036079392
      1   S       3            34.5304000    0.674541139449

      2   L       4            44.2866000   -0.102130053458    0.110851002536
      2   L       5            10.1019000    0.081592242708    0.456495010442
      2   L       6             2.7399700    0.969788507613    0.606936013883

      3   L       7             1.2186500   -0.371496021877    0.091582310217
      3   L       8             0.3955460    1.270993496131    0.934924104303

      4   L       9             0.1228110    1.000000000000    1.000000000000

 O         

      5   S      10           322.0370000    0.059239393389
      5   S      11            48.4308000    0.351499960776
      5   S      12            10.4206000    0.707657921031

      6   L      13             7.4029400   -0.404453583190    0.244586106967
      6   L      14             1.5762000    1.221561761397    0.853955373466

      7   L      15             0.3736840    1.000000000000    1.000000000000

 O         

      8   S      16           322.0370000    0.059239393389
      8   S      17            48.4308000    0.351499960776
      8   S      18            10.4206000    0.707657921031

      9   L      19             7.4029400   -0.404453583190    0.244586106967
      9   L      20             1.5762000    1.221561761397    0.853955373466

     10   L      21             0.3736840    1.000000000000    1.000000000000

 O         

     11   S      22           322.0370000    0.059239393389
     11   S      23            48.4308000    0.351499960776
     11   S      24            10.4206000    0.707657921031

     12   L      25             7.4029400   -0.404453583190    0.244586106967
     12   L      26             1.5762000    1.221561761397    0.853955373466

     13   L      27             0.3736840    1.000000000000    1.000000000000

 O         

     14   S      28           322.0370000    0.059239393389
     14   S      29            48.4308000    0.351499960776
     14   S      30            10.4206000    0.707657921031

     15   L      31             7.4029400   -0.404453583190    0.244586106967
     15   L      32             1.5762000    1.221561761397    0.853955373466

     16   L      33             0.3736840    1.000000000000    1.000000000000

 C         

     17   S      34           172.2560000    0.061766907377
     17   S      35            25.9109000    0.358794042852
     17   S      36             5.5333500    0.700713083689

     18   L      37             3.6649800   -0.395895162119    0.236459946619
     18   L      38             0.7705450    1.215834355681    0.860618805716

     19   L      39             0.1958570    1.000000000000    1.000000000000

 C         

     20   S      40           172.2560000    0.061766907377
     20   S      41            25.9109000    0.358794042852
     20   S      42             5.5333500    0.700713083689

     21   L      43             3.6649800   -0.395895162119    0.236459946619
     21   L      44             0.7705450    1.215834355681    0.860618805716

     22   L      45             0.1958570    1.000000000000    1.000000000000

 H         

     23   S      46             5.4471780    0.156284978695
     23   S      47             0.8245472    0.904690876670

     24   S      48             0.1831916    1.000000000000

 C         

     25   S      49           172.2560000    0.061766907377
     25   S      50            25.9109000    0.358794042852
     25   S      51             5.5333500    0.700713083689

     26   L      52             3.6649800   -0.395895162119    0.236459946619
     26   L      53             0.7705450    1.215834355681    0.860618805716

     27   L      54             0.1958570    1.000000000000    1.000000000000

 H         

     28   S      55             5.4471780    0.156284978695
     28   S      56             0.8245472    0.904690876670

     29   S      57             0.1831916    1.000000000000

 C         

     30   S      58           172.2560000    0.061766907377
     30   S      59            25.9109000    0.358794042852
     30   S      60             5.5333500    0.700713083689

     31   L      61             3.6649800   -0.395895162119    0.236459946619
     31   L      62             0.7705450    1.215834355681    0.860618805716

     32   L      63             0.1958570    1.000000000000    1.000000000000

 H         

     33   S      64             5.4471780    0.156284978695
     33   S      65             0.8245472    0.904690876670

     34   S      66             0.1831916    1.000000000000

 C         

     35   S      67           172.2560000    0.061766907377
     35   S      68            25.9109000    0.358794042852
     35   S      69             5.5333500    0.700713083689

     36   L      70             3.6649800   -0.395895162119    0.236459946619
     36   L      71             0.7705450    1.215834355681    0.860618805716

     37   L      72             0.1958570    1.000000000000    1.000000000000

 H         

     38   S      73             5.4471780    0.156284978695
     38   S      74             0.8245472    0.904690876670

     39   S      75             0.1831916    1.000000000000

 C         

     40   S      76           172.2560000    0.061766907377
     40   S      77            25.9109000    0.358794042852
     40   S      78             5.5333500    0.700713083689

     41   L      79             3.6649800   -0.395895162119    0.236459946619
     41   L      80             0.7705450    1.215834355681    0.860618805716

     42   L      81             0.1958570    1.000000000000    1.000000000000

 O         

     43   S      82           322.0370000    0.059239393389
     43   S      83            48.4308000    0.351499960776
     43   S      84            10.4206000    0.707657921031

     44   L      85             7.4029400   -0.404453583190    0.244586106967
     44   L      86             1.5762000    1.221561761397    0.853955373466

     45   L      87             0.3736840    1.000000000000    1.000000000000

 O         

     46   S      88           322.0370000    0.059239393389
     46   S      89            48.4308000    0.351499960776
     46   S      90            10.4206000    0.707657921031

     47   L      91             7.4029400   -0.404453583190    0.244586106967
     47   L      92             1.5762000    1.221561761397    0.853955373466

     48   L      93             0.3736840    1.000000000000    1.000000000000

 O         

     49   S      94           322.0370000    0.059239393389
     49   S      95            48.4308000    0.351499960776
     49   S      96            10.4206000    0.707657921031

     50   L      97             7.4029400   -0.404453583190    0.244586106967
     50   L      98             1.5762000    1.221561761397    0.853955373466

     51   L      99             0.3736840    1.000000000000    1.000000000000

 O         

     52   S     100           322.0370000    0.059239393389
     52   S     101            48.4308000    0.351499960776
     52   S     102            10.4206000    0.707657921031

     53   L     103             7.4029400   -0.404453583190    0.244586106967
     53   L     104             1.5762000    1.221561761397    0.853955373466

     54   L     105             0.3736840    1.000000000000    1.000000000000

 O         

     55   S     106           322.0370000    0.059239393389
     55   S     107            48.4308000    0.351499960776
     55   S     108            10.4206000    0.707657921031

     56   L     109             7.4029400   -0.404453583190    0.244586106967
     56   L     110             1.5762000    1.221561761397    0.853955373466

     57   L     111             0.3736840    1.000000000000    1.000000000000

 H         

     58   S     112             5.4471780    0.156284978695
     58   S     113             0.8245472    0.904690876670

     59   S     114             0.1831916    1.000000000000

 H         

     60   S     115             5.4471780    0.156284978695
     60   S     116             0.8245472    0.904690876670

     61   S     117             0.1831916    1.000000000000

 H         

     62   S     118             5.4471780    0.156284978695
     62   S     119             0.8245472    0.904690876670

     63   S     120             0.1831916    1.000000000000

 H         

     64   S     121             5.4471780    0.156284978695
     64   S     122             0.8245472    0.904690876670

     65   S     123             0.1831916    1.000000000000

 H         

     66   S     124             5.4471780    0.156284978695
     66   S     125             0.8245472    0.904690876670

     67   S     126             0.1831916    1.000000000000

 H         

     68   S     127             5.4471780    0.156284978695
     68   S     128             0.8245472    0.904690876670

     69   S     129             0.1831916    1.000000000000

 H         

     70   S     130             5.4471780    0.156284978695
     70   S     131             0.8245472    0.904690876670

     71   S     132             0.1831916    1.000000000000

 H         

     72   S     133             5.4471780    0.156284978695
     72   S     134             0.8245472    0.904690876670

     73   S     135             0.1831916    1.000000000000

 H         

     74   S     136             5.4471780    0.156284978695
     74   S     137             0.8245472    0.904690876670

     75   S     138             0.1831916    1.000000000000

 TOTAL NUMBER OF BASIS SET SHELLS             =   75
 NUMBER OF CARTESIAN GAUSSIAN BASIS FUNCTIONS =  174
 NUMBER OF ELECTRONS                          =  136
 CHARGE OF MOLECULE                           =    0
 SPIN MULTIPLICITY                            =    1
 NUMBER OF OCCUPIED ORBITALS (ALPHA)          =   68
 NUMBER OF OCCUPIED ORBITALS (BETA )          =   68
 TOTAL NUMBER OF ATOMS                        =   29
 THE NUCLEAR REPULSION ENERGY IS     1341.7803760088

     $CONTRL OPTIONS
     ---------------
 SCFTYP=RHF          RUNTYP=ENERGY       EXETYP=RUN     
 MPLEVL=       0     CITYP =NONE         CCTYP =NONE         VBTYP =NONE    
 DFTTYP=NONE         TDDFT =NONE    
 MULT  =       1     ICHARG=       0     NZVAR =       0     COORD =UNIQUE  
 PP    =NONE         RELWFN=NONE         LOCAL =NONE         NUMGRD=       F
 ISPHER=      -1     NOSYM =       0     MAXIT =      60     UNITS =ANGS    
 PLTORB=       F     MOLPLT=       F     AIMPAC=       F     FRIEND=        
 NPRINT=       7     IREST =       0     GEOM  =INPUT   
 NORMF =       0     NORMP =       0     ITOL  =      20     ICUT  =       9
 INTTYP=BEST         GRDTYP=BEST         QMTTOL= 1.0E-06

     $SYSTEM OPTIONS
     ---------------
  REPLICATED MEMORY=    30000000 WORDS (ON EVERY NODE).
 DISTRIBUTED MEMDDI=        1000 MILLION WORDS IN AGGREGATE,
 MEMDDI DISTRIBUTED OVER   8 PROCESSORS IS   125000000 WORDS/PROCESSOR.
 TOTAL MEMORY REQUESTED ON EACH PROCESSOR=   155000000 WORDS.
 TIMLIM=      525600.00 MINUTES, OR     365.0 DAYS.
 PARALL= T  BALTYP=  DLB     KDIAG=    0  COREFL= F
 MXSEQ2=     300 MXSEQ3=     150  mem10=         0

          ----------------
          PROPERTIES INPUT
          ----------------

     MOMENTS            FIELD           POTENTIAL          DENSITY
 IEMOM =       1   IEFLD =       0   IEPOT =       0   IEDEN =       0
 WHERE =COMASS     WHERE =NUCLEI     WHERE =NUCLEI     WHERE =NUCLEI  
 OUTPUT=BOTH       OUTPUT=BOTH       OUTPUT=BOTH       OUTPUT=BOTH    
 IEMINT=       0   IEFINT=       0                     IEDINT=       0
                                                       MORB  =       0
          EXTRAPOLATION IN EFFECT
          SOSCF IN EFFECT
 ORBITAL PRINTING OPTION: NPREO=     1   174     2     1

     -------------------------------
     INTEGRAL TRANSFORMATION OPTIONS
     -------------------------------
     NWORD  =            0
     CUTOFF = 1.0E-09     MPTRAN =       0
     DIRTRF =       T     AOINTS =DUP     

          ----------------------
          INTEGRAL INPUT OPTIONS
          ----------------------
 NOPK  =       1 NORDER=       0 SCHWRZ=       T

     ------------------------------------------
     THE POINT GROUP IS C1 , NAXIS= 0, ORDER= 1
     ------------------------------------------

     DIMENSIONS OF THE SYMMETRY SUBSPACES ARE
 A   =  174

 ..... DONE SETTING UP THE RUN .....
 CPU     0: STEP CPU TIME=     0.02 TOTAL CPU TIME=          0.0 (      0.0 MIN)
 TOTAL WALL CLOCK TIME=          0.0 SECONDS, CPU UTILIZATION IS    50.00%

          ********************
          1 ELECTRON INTEGRALS
          ********************
 ...... END OF ONE-ELECTRON INTEGRALS ......
 CPU     0: STEP CPU TIME=     0.01 TOTAL CPU TIME=          0.0 (      0.0 MIN)
 TOTAL WALL CLOCK TIME=          0.1 SECONDS, CPU UTILIZATION IS    50.00%

          -------------
          GUESS OPTIONS
          -------------
          GUESS =HUCKEL            NORB  =       0          NORDER=       0
          MIX   =       F          PRTMO =       F          PUNMO =       F
          TOLZ  = 1.0E-08          TOLE  = 1.0E-05
          SYMDEN=       F          PURIFY=       F

 INITIAL GUESS ORBITALS GENERATED BY HUCKEL   ROUTINE.
 HUCKEL GUESS REQUIRES    278994 WORDS.

 SYMMETRIES FOR INITIAL GUESS ORBITALS FOLLOW.   BOTH SET(S).
    68 ORBITALS ARE OCCUPIED (   20 CORE ORBITALS).
    21=A       22=A       23=A       24=A       25=A       26=A       27=A   
    28=A       29=A       30=A       31=A       32=A       33=A       34=A   
    35=A       36=A       37=A       38=A       39=A       40=A       41=A   
    42=A       43=A       44=A       45=A       46=A       47=A       48=A   
    49=A       50=A       51=A       52=A       53=A       54=A       55=A   
    56=A       57=A       58=A       59=A       60=A       61=A       62=A   
    63=A       64=A       65=A       66=A       67=A       68=A       69=A   
    70=A       71=A       72=A       73=A       74=A       75=A       76=A   
    77=A       78=A   
 ...... END OF INITIAL ORBITAL SELECTION ......
 CPU     0: STEP CPU TIME=     0.04 TOTAL CPU TIME=          0.1 (      0.0 MIN)
 TOTAL WALL CLOCK TIME=          0.1 SECONDS, CPU UTILIZATION IS    46.67%

                    ----------------------
                    AO INTEGRAL TECHNOLOGY
                    ----------------------
     S,P,L SHELL ROTATED AXIS INTEGRALS, REPROGRAMMED BY
        KAZUYA ISHIMURA (IMS) AND JOSE SIERRA (SYNSTAR).
     S,P,D,L SHELL ROTATED AXIS INTEGRALS PROGRAMMED BY
        KAZUYA ISHIMURA (INSTITUTE FOR MOLECULAR SCIENCE).
     S,P,D,F,G SHELL TO TOTAL QUARTET ANGULAR MOMENTUM SUM 5,
        ERIC PROGRAM BY GRAHAM FLETCHER (ELORET AND NASA ADVANCED
        SUPERCOMPUTING DIVISION, AMES RESEARCH CENTER).
     S,P,D,F,G,L SHELL GENERAL RYS QUADRATURE PROGRAMMED BY
        MICHEL DUPUIS (PACIFIC NORTHWEST NATIONAL LABORATORY).

          --------------------
          2 ELECTRON INTEGRALS
          --------------------

 DIRECT SCF METHOD SKIPS INTEGRAL STORAGE ON DISK.
 DIRECT TRANSFORMATION SKIPS AO INTEGRAL STORAGE ON DISK.
  ...... END OF TWO-ELECTRON INTEGRALS .....
 CPU     0: STEP CPU TIME=     0.01 TOTAL CPU TIME=          0.1 (      0.0 MIN)
 TOTAL WALL CLOCK TIME=          0.2 SECONDS, CPU UTILIZATION IS    50.00%

          --------------------------
                 RHF SCF CALCULATION
          --------------------------

     NUCLEAR ENERGY =      1341.7803760088
     MAXIT =   60     NPUNCH=    2
     EXTRAP=T  DAMP=F  SHIFT=F  RSTRCT=F  DIIS=F  DEM=F  SOSCF=T
     DENSITY MATRIX CONV=  2.00E-05
     SOSCF WILL OPTIMIZE    7208 ORBITAL ROTATIONS, SOGTOL=   0.250
     MEMORY REQUIRED FOR RHF ITERS=    293256 WORDS.

 DIRECT SCF CALCULATION, SCHWRZ=T   FDIFF=T,  DIRTHR=  0.00E+00 NITDIR=10
 SCHWARZ INEQUALITY OVERHEAD:     11628 INTEGRALS, T=        0.00

                                                                                   NONZERO     BLOCKS
 ITER EX DEM     TOTAL ENERGY        E CHANGE  DENSITY CHANGE     ORB. GRAD      INTEGRALS    SKIPPED
   1  0  0    -1239.5150207793 -1239.5150207793   0.831398655   0.000000000       32770050    2937428
          ---------------START SECOND ORDER SCF---------------
   2  1  0    -1242.1587950082    -2.6437742289   0.236030295   0.114907002       32738993    2955736
   3  2  0    -1242.2554425303    -0.0966475220   0.123946056   0.112860759       32460406    3017138
   4  3  0    -1242.4747354698    -0.2192929396   0.057084134   0.025304165       32005154    3071024
   5  4  0    -1242.4823009764    -0.0075655066   0.018339406   0.013905876       31467138    3114296
   6  5  0    -1242.4841293097    -0.0018283333   0.007149454   0.003603451       30199080    3185006
   7  6  0    -1242.4843191538    -0.0001898441   0.002515483   0.000973320       29198399    3234998
   8  7  0    -1242.4843602457    -0.0000410919   0.000495899   0.000212140       28299007    3272677
   9  8  0    -1242.4843632902    -0.0000030445   0.000213380   0.000098381       26444765    3339520
  10  9  0    -1242.4843637387    -0.0000004485   0.000063243   0.000047387       24988048    3393815
  11 10  0    -1242.4843638028    -0.0000000641   0.000050725   0.000029353       22835961    3462838
  12 11  0    -1242.4843638210    -0.0000000182   0.000027878   0.000012037       21933993    3491181
  13 12  0    -1242.4843638258    -0.0000000048   0.000007881   0.000002841       19976657    3559896
  14 13  0    -1242.4843638248     0.0000000009   0.000002796   0.000000638       18942605    3588313

          -----------------
          DENSITY CONVERGED
          -----------------
     TIME TO FORM FOCK OPERATORS=       3.8 SECONDS (       0.3 SEC/ITER)
     FOCK TIME ON FIRST ITERATION=       0.4, LAST ITERATION=       0.2
     TIME TO SOLVE SCF EQUATIONS=       0.2 SECONDS (       0.0 SEC/ITER)

 FINAL RHF ENERGY IS    -1242.4843638248 AFTER  14 ITERATIONS

          ------------
          EIGENVECTORS
          ------------

                      1          2          3          4          5
                  -79.6396   -20.5194   -20.5149   -20.5147   -20.5133
                     A          A          A          A          A   
    1  P  1  S    0.986985   0.000102   0.000004   0.000094   0.000066
    2  P  1  S    0.049319  -0.001274  -0.000051  -0.001128  -0.000883
    3  P  1  X    0.000070   0.000143  -0.000016  -0.000437   0.000127
    4  P  1  Y    0.000032   0.000163  -0.000005  -0.000105  -0.000391
    5  P  1  Z    0.000082  -0.000348  -0.000003  -0.000067  -0.000237
    6  P  1  S   -0.015204  -0.002047  -0.000115  -0.001491  -0.001727
    7  P  1  X   -0.000210  -0.000930   0.000070   0.002314  -0.000874
    8  P  1  Y   -0.000053  -0.001044   0.000020   0.000427   0.002172
    9  P  1  Z    0.000007   0.001583   0.000006   0.000097   0.001033
   10  P  1  S    0.001030   0.014997   0.000626   0.012654   0.010822
   11  P  1  X    0.000086  -0.000875   0.000355   0.006568   0.002135
   12  P  1  Y   -0.000036   0.000512   0.000050   0.000282   0.007654
   13  P  1  Z   -0.001024   0.009222   0.000119   0.002989   0.002692
   14  O  2  S   -0.000139   0.001354   0.000048   0.001022   0.000698
   15  O  2  S   -0.001061   0.000556   0.000018   0.000387   0.000236
   16  O  2  X   -0.000112  -0.000237   0.000025   0.000482   0.000006
   17  O  2  Y   -0.000070  -0.000075   0.000002  -0.000012   0.000640
   18  O  2  Z   -0.000266   0.000583  -0.000001   0.000019   0.000047
   19  O  2  S    0.002267  -0.000604  -0.000018  -0.000370  -0.000057
   20  O  2  X    0.001141   0.000878  -0.000090  -0.001746   0.000045
   21  O  2  Y    0.000640   0.000281  -0.000006   0.000096  -0.002318
   22  O  2  Z    0.002174  -0.002183   0.000007   0.000010  -0.000059
   23  O  3  S   -0.000141   0.056011   0.007869   0.180257   0.965031
   24  O  3  S   -0.001319   0.006998   0.000826   0.018774   0.094791
   25  O  3  X    0.000040  -0.000116   0.000003   0.000122  -0.001731
   26  O  3  Y    0.000560  -0.000638  -0.000037  -0.000856  -0.002339
   27  O  3  Z    0.000108   0.000300   0.000007   0.000182   0.001248
   28  O  3  S    0.002589  -0.006735  -0.000477  -0.010265  -0.038986
   29  O  3  X   -0.000229   0.000388  -0.000048  -0.001206   0.002951
   30  O  3  Y   -0.002577   0.003021   0.000140   0.003094   0.004850
   31  O  3  Z   -0.000408  -0.001090   0.000000  -0.000110  -0.002059
   32  O  4  S   -0.000146   0.980477  -0.002683  -0.059582  -0.045427
   33  O  4  S   -0.001371   0.096647  -0.000211  -0.004651  -0.003238
   34  O  4  X   -0.000247   0.000222   0.000031   0.000649   0.000201
   35  O  4  Y   -0.000143  -0.001271   0.000012   0.000259   0.000565
   36  O  4  Z    0.000515  -0.002742   0.000004   0.000043   0.000083
   37  O  4  S    0.002805  -0.040593  -0.000040  -0.001062  -0.001788
   38  O  4  X    0.001145  -0.001325  -0.000130  -0.002734  -0.001134
   39  O  4  Y    0.000705   0.001420  -0.000050  -0.001068  -0.002542
   40  O  4  Z   -0.002321   0.005559   0.000020   0.000614   0.000520
   41  O  5  S   -0.000134   0.050422   0.045905   0.963876  -0.183097
   42  O  5  S   -0.001236   0.006030   0.004613   0.096168  -0.017230
   43  O  5  X    0.000677  -0.000626   0.000003  -0.000579  -0.000175
   44  O  5  Y   -0.000250   0.000152   0.000119   0.002692  -0.000102
   45  O  5  Z    0.000024   0.000505  -0.000041  -0.000937   0.000477
   46  O  5  S    0.002495  -0.004966  -0.002169  -0.043731   0.005370
   47  O  5  X   -0.002884   0.003033  -0.000150  -0.000274   0.001879
   48  O  5  Y    0.001120  -0.000397  -0.000266  -0.006306  -0.000458
   49  O  5  Z   -0.000089  -0.002093   0.000090   0.001885  -0.001561
   50  C  6  S    0.000015   0.000063  -0.000056  -0.000724   0.000249
   51  C  6  S    0.000086   0.000380  -0.000239  -0.002742   0.001444
   52  C  6  X   -0.000120   0.000016  -0.000050  -0.001295  -0.000247
   53  C  6  Y    0.000028   0.000013  -0.000021  -0.000527   0.000111
   54  C  6  Z    0.000049   0.000219   0.000060   0.000280  -0.000065
   55  C  6  S   -0.000065  -0.001843   0.001409   0.016374  -0.005177
   56  C  6  X    0.000831  -0.000178   0.000255  -0.001887   0.002964
   57  C  6  Y   -0.000643   0.001051  -0.000480  -0.006432   0.000776
   58  C  6  Z   -0.000235  -0.001081  -0.000043   0.003444  -0.000263
   59  C  7  S    0.000007  -0.000059   0.000087   0.000285  -0.000037
   60  C  7  S   -0.000036  -0.000353   0.000498   0.001268  -0.000109
   61  C  7  X    0.000241   0.000026   0.000018   0.000587  -0.000157
   62  C  7  Y    0.000043  -0.000061  -0.000013   0.000039   0.000018
   63  C  7  Z   -0.000038  -0.000071  -0.000081  -0.000168  -0.000018
   64  C  7  S   -0.000754   0.002031  -0.003145  -0.009697   0.000905
   65  C  7  X   -0.000952  -0.000806  -0.000950   0.001957   0.000066
   66  C  7  Y   -0.000403   0.000584  -0.000434  -0.001521  -0.000171
   67  C  7  Z    0.000630  -0.000000   0.000904   0.003724  -0.000086
   68  H  8  S   -0.000041  -0.000123   0.000100   0.000414  -0.000003
   69  H  8  S   -0.000292  -0.000363  -0.000142  -0.001050  -0.000150
   70  C  9  S   -0.000028   0.000020   0.000015  -0.000148   0.000028
   71  C  9  S   -0.000163   0.000106   0.000234  -0.000905   0.000198
   72  C  9  X   -0.000037  -0.000031   0.000391   0.000389  -0.000147
   73  C  9  Y   -0.000006   0.000021   0.000216  -0.000118   0.000046
   74  C  9  Z   -0.000040   0.000002  -0.000071   0.000120  -0.000041
   75  C  9  S    0.001200  -0.000447   0.001376   0.003681  -0.000426
   76  C  9  X   -0.000286   0.000403  -0.001729  -0.004032   0.001003
   77  C  9  Y   -0.000307  -0.000216  -0.001589  -0.000005  -0.000196
   78  C  9  Z    0.000395  -0.000147   0.001770  -0.000713   0.000320
   79  H 10  S   -0.000029   0.000023  -0.000106  -0.000428   0.000094
   80  H 10  S    0.000063  -0.000068   0.001302  -0.000195   0.000056
   81  C 11  S    0.000010  -0.000003  -0.000013  -0.000025   0.000019
   82  C 11  S    0.000044  -0.000021  -0.000040  -0.000175   0.000123
   83  C 11  X    0.000036   0.000039   0.000035  -0.000182   0.000014
   84  C 11  Y    0.000010   0.000003   0.000350  -0.000100   0.000007
   85  C 11  Z   -0.000002  -0.000014  -0.000037   0.000048  -0.000015
   86  C 11  S   -0.000420  -0.000058  -0.000190   0.001629  -0.000711
   87  C 11  X    0.000051  -0.000237   0.001381   0.000646   0.000174
   88  C 11  Y   -0.000145   0.000018  -0.003318   0.001058  -0.000172
   89  C 11  Z    0.000140   0.000160   0.001262  -0.000818   0.000239
   90  H 12  S    0.000011  -0.000012  -0.000050   0.000083   0.000026
   91  H 12  S   -0.000031   0.000036  -0.002483   0.000262  -0.000023
   92  C 13  S   -0.000006  -0.000004   0.000229   0.000011  -0.000002
   93  C 13  S   -0.000042  -0.000021   0.000826   0.000027   0.000002
   94  C 13  X    0.000013  -0.000019   0.000372   0.000153  -0.000034
   95  C 13  Y   -0.000007   0.000008  -0.000006  -0.000005  -0.000005
   96  C 13  Z    0.000008  -0.000006   0.000847   0.000002  -0.000003
   97  C 13  S    0.000182   0.000184  -0.004915  -0.000908   0.000146
   98  C 13  X   -0.000195   0.000025  -0.009470   0.000246   0.000027
   99  C 13  Y    0.000025  -0.000112   0.004132   0.000069   0.000010
  100  C 13  Z   -0.000021   0.000090  -0.006092  -0.000444   0.000080
  101  H 14  S   -0.000034   0.000009  -0.000877  -0.000033   0.000013
  102  H 14  S   -0.000015   0.000036  -0.001857   0.000168  -0.000055
  103  C 15  S   -0.000001  -0.000001  -0.000028   0.000007  -0.000002
  104  C 15  S   -0.000005  -0.000011   0.000172   0.000054  -0.000015
  105  C 15  X    0.000002   0.000006   0.001833  -0.000110   0.000006
  106  C 15  Y   -0.000002  -0.000002  -0.001270   0.000066  -0.000001
  107  C 15  Z   -0.000006  -0.000003  -0.000148  -0.000003   0.000003
  108  C 15  S    0.000031  -0.000016   0.020773  -0.001065   0.000057
  109  C 15  X    0.000057  -0.000042   0.018118  -0.000539  -0.000045
  110  C 15  Y   -0.000002  -0.000005  -0.005482   0.000216  -0.000003
  111  C 15  Z    0.000051  -0.000055   0.011258  -0.000185  -0.000039
  112  O 16  S    0.000001  -0.000114   0.982569  -0.046650   0.000708
  113  O 16  S    0.000010  -0.000015   0.099007  -0.004662   0.000066
  114  O 16  X   -0.000001  -0.000001  -0.003897   0.000191  -0.000004
  115  O 16  Y   -0.000001  -0.000000   0.002172  -0.000104   0.000001
  116  O 16  Z   -0.000000   0.000001  -0.000619   0.000030  -0.000001
  117  O 16  S   -0.000048   0.000032  -0.052793   0.002286  -0.000007
  118  O 16  X    0.000013  -0.000003   0.012677  -0.000569   0.000008
  119  O 16  Y   -0.000006   0.000007  -0.007198   0.000308   0.000003
  120  O 16  Z    0.000002   0.000001   0.001783  -0.000101   0.000004
  121  O 17  S   -0.000001   0.000096  -0.004791  -0.000698   0.000186
  122  O 17  S   -0.000007   0.000024  -0.001173  -0.000150   0.000039
  123  O 17  X   -0.000004  -0.000001   0.000405  -0.000009  -0.000004
  124  O 17  Y    0.000000  -0.000003  -0.000143   0.000017  -0.000003
  125  O 17  Z    0.000003  -0.000003   0.000104   0.000017  -0.000003
  126  O 17  S    0.000034  -0.000068   0.004340   0.000346  -0.000084
  127  O 17  X    0.000014   0.000019  -0.002675  -0.000033   0.000032
  128  O 17  Y   -0.000006   0.000020   0.000184  -0.000084   0.000014
  129  O 17  Z   -0.000019   0.000026  -0.001771  -0.000120   0.000027
  130  O 18  S   -0.000000   0.000055  -0.000871   0.000069  -0.000075
  131  O 18  S   -0.000001   0.000020  -0.000242   0.000022  -0.000023
  132  O 18  X    0.000001   0.000007  -0.000040   0.000016   0.000008
  133  O 18  Y    0.000000  -0.000003  -0.000067   0.000037  -0.000004
  134  O 18  Z   -0.000006  -0.000000   0.000111  -0.000025   0.000005
  135  O 18  S    0.000021  -0.000083   0.000482  -0.000063   0.000062
  136  O 18  X    0.000004  -0.000010   0.000066  -0.000118  -0.000026
  137  O 18  Y    0.000000   0.000027   0.000360  -0.000162   0.000009
  138  O 18  Z   -0.000002   0.000027  -0.000550   0.000123  -0.000048
  139  O 19  S    0.000003  -0.000166  -0.000584   0.000338   0.000001
  140  O 19  S    0.000017  -0.000065  -0.000216   0.000162  -0.000016
  141  O 19  X   -0.000006   0.000014  -0.000001   0.000017  -0.000031
  142  O 19  Y   -0.000001   0.000005   0.000034  -0.000032   0.000010
  143  O 19  Z    0.000010   0.000010   0.000028  -0.000053   0.000009
  144  O 19  S   -0.000076   0.000217   0.000686  -0.000755   0.000170
  145  O 19  X    0.000029  -0.000058   0.000233   0.000213   0.000017
  146  O 19  Y    0.000054  -0.000107  -0.000286   0.000487  -0.000125
  147  O 19  Z   -0.000050  -0.000039  -0.000217   0.000275  -0.000066
  148  O 20  S    0.000009  -0.000174  -0.000266   0.001085  -0.000312
  149  O 20  S    0.000091  -0.000056  -0.000112   0.000260  -0.000087
  150  O 20  X   -0.000041  -0.000006  -0.000032  -0.000158   0.000045
  151  O 20  Y   -0.000018   0.000008   0.000011  -0.000043   0.000040
  152  O 20  Z    0.000015   0.000008  -0.000022  -0.000009   0.000020
  153  O 20  S   -0.000234   0.000144   0.000433   0.000071   0.000109
  154  O 20  X    0.000258   0.000037   0.000109   0.000459  -0.000193
  155  O 20  Y    0.000087  -0.000058   0.000190   0.000769  -0.000249
  156  O 20  Z   -0.000081  -0.000030   0.000063  -0.000080  -0.000072
  157  H 21  S   -0.000277   0.000817   0.000021   0.000415   0.002579
  158  H 21  S    0.000221  -0.001581  -0.000009  -0.000094   0.004304
  159  H 22  S   -0.000230   0.002381  -0.000012  -0.000154  -0.000622
  160  H 22  S    0.000302   0.004341  -0.000053  -0.001445  -0.000103
  161  H 23  S    0.000023  -0.000078  -0.000089  -0.000990   0.000572
  162  H 23  S   -0.000309   0.000151  -0.000350  -0.001433   0.000218
  163  H 24  S    0.000180   0.000230  -0.000060  -0.000988  -0.000027
  164  H 24  S    0.000310  -0.000828   0.000024  -0.000744   0.001154
  165  H 25  S    0.000009  -0.000006   0.000515   0.000020  -0.000005
  166  H 25  S    0.000023  -0.000035   0.004564   0.000047  -0.000051
  167  H 26  S   -0.000005   0.000007  -0.000785  -0.000009   0.000009
  168  H 26  S    0.000002  -0.000009   0.002749  -0.000060  -0.000013
  169  H 27  S   -0.000001   0.000012  -0.000040   0.000019   0.000005
  170  H 27  S   -0.000004  -0.000012   0.000200   0.000029  -0.000008
  171  H 28  S    0.000006  -0.000006   0.000088  -0.000094   0.000021
  172  H 28  S    0.000004   0.000055  -0.000002   0.000004  -0.000002
  173  H 29  S    0.000004   0.000065  -0.000030  -0.000333   0.000129
  174  H 29  S    0.000259  -0.000210   0.000041   0.001207  -0.000596

                      6          7          8          9         10
                  -20.4899   -20.4701   -20.4581   -20.4576   -20.4312
                     A          A          A          A          A   
    1  P  1  S    0.000001  -0.000000  -0.000000  -0.000007   0.000063
    2  P  1  S   -0.000006   0.000000   0.000020   0.000070  -0.000802
    3  P  1  X   -0.000001  -0.000001  -0.000001   0.000043   0.000123
    4  P  1  Y    0.000003   0.000005  -0.000017  -0.000016   0.000059
    5  P  1  Z    0.000001   0.000004  -0.000014  -0.000014   0.000176
    6  P  1  S   -0.000002   0.000000   0.000123   0.000027  -0.000132
    7  P  1  X    0.000019   0.000005   0.000009  -0.000248  -0.001526
    8  P  1  Y   -0.000012  -0.000026   0.000115   0.000145  -0.000741
    9  P  1  Z   -0.000009  -0.000027   0.000089   0.000076  -0.002396
   10  P  1  S    0.000095  -0.000009  -0.000384  -0.000815   0.011949
   11  P  1  X    0.000039  -0.000033  -0.000204  -0.000509  -0.005124
   12  P  1  Y   -0.000051   0.000025  -0.000211  -0.000256  -0.003143
   13  P  1  Z    0.000081   0.000074  -0.000233  -0.000143  -0.008212
   14  O  2  S   -0.000011  -0.000058   0.000153  -0.000202   0.983337
   15  O  2  S   -0.000004  -0.000014   0.000031  -0.000038   0.095875
   16  O  2  X    0.000002  -0.000004  -0.000007  -0.000043   0.001886
   17  O  2  Y   -0.000005   0.000001  -0.000011  -0.000015   0.000964
   18  O  2  Z    0.000003   0.000002  -0.000001   0.000005   0.003144
   19  O  2  S    0.000013   0.000030  -0.000077   0.000020  -0.038746
   20  O  2  X   -0.000006   0.000014   0.000029   0.000156  -0.003897
   21  O  2  Y    0.000020  -0.000003   0.000037   0.000051  -0.001988
   22  O  2  Z   -0.000010  -0.000007   0.000009  -0.000014  -0.006471
   23  O  3  S   -0.000021   0.000062  -0.000051   0.000109  -0.000907
   24  O  3  S    0.000000  -0.000003  -0.000006  -0.000036   0.000198
   25  O  3  X    0.000004  -0.000011   0.000049   0.000050  -0.000385
   26  O  3  Y   -0.000003   0.000005  -0.000001   0.000006  -0.000085
   27  O  3  Z    0.000001   0.000001  -0.000008  -0.000006  -0.000631
   28  O  3  S   -0.000004   0.000006   0.000103   0.000249  -0.000331
   29  O  3  X   -0.000016   0.000031  -0.000128  -0.000108   0.001372
   30  O  3  Y    0.000015  -0.000015  -0.000031  -0.000096   0.000319
   31  O  3  Z   -0.000006  -0.000007   0.000029   0.000008   0.002296
   32  O  4  S   -0.000138  -0.000053   0.000174   0.000215  -0.001170
   33  O  4  S    0.000004   0.000005  -0.000027  -0.000030   0.000324
   34  O  4  X    0.000006   0.000003  -0.000026  -0.000057  -0.000383
   35  O  4  Y    0.000002   0.000004  -0.000015  -0.000012  -0.000204
   36  O  4  Z   -0.000003  -0.000001  -0.000002  -0.000004  -0.000597
   37  O  4  S   -0.000049  -0.000030   0.000123   0.000124  -0.000673
   38  O  4  X   -0.000030  -0.000009   0.000095   0.000196   0.001428
   39  O  4  Y   -0.000009  -0.000015   0.000065   0.000058   0.000851
   40  O  4  Z    0.000019   0.000006  -0.000006   0.000003   0.002280
   41  O  5  S    0.000908  -0.000038  -0.000278  -0.001087  -0.000890
   42  O  5  S   -0.000018   0.000004   0.000036   0.000087   0.000222
   43  O  5  X   -0.000053  -0.000005   0.000081   0.000382  -0.000347
   44  O  5  Y   -0.000006  -0.000018   0.000028  -0.000206  -0.000330
   45  O  5  Z   -0.000002  -0.000031   0.000097   0.000253  -0.000591
   46  O  5  S    0.000360  -0.000032  -0.000107   0.000296  -0.000512
   47  O  5  X    0.000328   0.000006  -0.000314  -0.001051   0.001297
   48  O  5  Y    0.000084   0.000083  -0.000149   0.000817   0.001208
   49  O  5  Z   -0.000026   0.000163  -0.000420  -0.001001   0.002119
   50  C  6  S    0.000040   0.000009   0.000047   0.000135  -0.000006
   51  C  6  S    0.000155   0.000069   0.000377   0.000239  -0.000037
   52  C  6  X   -0.000142   0.000036   0.000115  -0.000733  -0.000178
   53  C  6  Y   -0.000012   0.000041  -0.000157   0.000377   0.000086
   54  C  6  Z   -0.000034   0.000113  -0.000259  -0.000485  -0.000255
   55  C  6  S   -0.001710  -0.000535  -0.000849  -0.004581   0.000704
   56  C  6  X   -0.000473  -0.000323  -0.000477  -0.001575   0.001381
   57  C  6  Y    0.000613  -0.000573   0.001143   0.003731  -0.000533
   58  C  6  Z   -0.000336  -0.001261   0.002250   0.002180   0.000670
   59  C  7  S   -0.000107   0.000093   0.000142  -0.000981   0.000058
   60  C  7  S   -0.000605   0.000718   0.000287  -0.004404   0.000401
   61  C  7  X    0.000237   0.000365  -0.000489  -0.000071  -0.000137
   62  C  7  Y   -0.000044  -0.000108  -0.000192  -0.001425   0.000037
   63  C  7  Z    0.000127  -0.000096   0.000540   0.000350   0.000051
   64  C  7  S    0.004724  -0.001379  -0.004049   0.022209  -0.001853
   65  C  7  X    0.000509  -0.001676  -0.001234   0.002522   0.001141
   66  C  7  Y    0.001418   0.002581  -0.005109  -0.011133  -0.000353
   67  C  7  Z   -0.001677   0.001348  -0.003318  -0.008105   0.000087
   68  H  8  S   -0.000079  -0.000291   0.001002  -0.000858   0.000106
   69  H  8  S    0.000199  -0.000208   0.001164   0.000894   0.000360
   70  C  9  S   -0.000058   0.000196  -0.000957   0.000139   0.000002
   71  C  9  S   -0.000438   0.000596  -0.004192   0.000253   0.000042
   72  C  9  X   -0.000784  -0.000780  -0.000221   0.000483  -0.000037
   73  C  9  Y   -0.000175   0.000422   0.001340   0.000256   0.000002
   74  C  9  Z    0.000233  -0.000491  -0.000450  -0.000520  -0.000003
   75  C  9  S   -0.001020  -0.006220   0.021281  -0.004958  -0.000050
   76  C  9  X    0.004640  -0.001865  -0.000554   0.003198   0.000113
   77  C  9  Y    0.002202  -0.004402   0.013089   0.004657   0.000064
   78  C  9  Z   -0.001709  -0.004249   0.006987   0.003560   0.000110
   79  H 10  S   -0.000472  -0.000436  -0.000726   0.000833   0.000006
   80  H 10  S   -0.000373  -0.000226   0.000727   0.001740   0.000071
   81  C 11  S    0.000293  -0.001046   0.000188   0.000145   0.000009
   82  C 11  S    0.001209  -0.004706   0.000555   0.001009   0.000065
   83  C 11  X   -0.000272   0.000139   0.000834  -0.000276  -0.000048
   84  C 11  Y   -0.000349  -0.000082  -0.000253   0.000127  -0.000010
   85  C 11  Z    0.000099   0.001495   0.000774   0.000248   0.000007
   86  C 11  S   -0.007962   0.023670  -0.005879  -0.003186  -0.000141
   87  C 11  X   -0.005082  -0.000955   0.001216   0.001800   0.000328
   88  C 11  Y   -0.000400   0.011360  -0.005025  -0.001823   0.000025
   89  C 11  Z   -0.001427   0.008580  -0.002304  -0.001993  -0.000062
   90  H 12  S    0.000707  -0.000737  -0.000404  -0.000374   0.000031
   91  H 12  S    0.000688   0.001013  -0.000514   0.000490  -0.000006
   92  C 13  S   -0.001029   0.000298   0.000078   0.000008   0.000006
   93  C 13  S   -0.004451   0.001118   0.000759   0.000125   0.000037
   94  C 13  X    0.000385   0.000631  -0.000266  -0.000078   0.000002
   95  C 13  Y    0.000857   0.000197  -0.000168  -0.000109  -0.000008
   96  C 13  Z    0.000874  -0.000377  -0.000286  -0.000043   0.000003
   97  C 13  S    0.024713  -0.009056  -0.001413  -0.000166  -0.000201
   98  C 13  X    0.010477   0.002924  -0.000016   0.000378   0.000057
   99  C 13  Y   -0.004902  -0.000463   0.001223   0.000916   0.000094
  100  C 13  Z    0.011264  -0.003106   0.002899   0.000537  -0.000067
  101  H 14  S   -0.000507   0.000809  -0.000253   0.000049   0.000007
  102  H 14  S    0.000716   0.000294   0.000631  -0.000620  -0.000041
  103  C 15  S    0.000197  -0.000116  -0.000019   0.000020   0.000000
  104  C 15  S    0.000385  -0.000828  -0.000066   0.000173   0.000005
  105  C 15  X    0.000331   0.000381  -0.000097  -0.000110  -0.000005
  106  C 15  Y   -0.000456   0.000071   0.000002  -0.000006   0.000003
  107  C 15  Z   -0.000354  -0.000042   0.000134   0.000119   0.000005
  108  C 15  S   -0.007944   0.001640   0.001529   0.000000   0.000024
  109  C 15  X   -0.004873  -0.002374  -0.000822  -0.000035   0.000002
  110  C 15  Y   -0.000535  -0.000215   0.001260   0.000277  -0.000002
  111  C 15  Z   -0.007743   0.000590   0.000121  -0.000318   0.000019
  112  O 16  S    0.004557   0.000823   0.000558   0.000296   0.000000
  113  O 16  S   -0.000210  -0.000080  -0.000091  -0.000046   0.000000
  114  O 16  X    0.000109  -0.000047   0.000028   0.000027   0.000001
  115  O 16  Y    0.000056  -0.000068   0.000032   0.000012  -0.000000
  116  O 16  Z    0.000247   0.000068   0.000010  -0.000022  -0.000000
  117  O 16  S    0.004530   0.000698   0.000567   0.000255  -0.000007
  118  O 16  X   -0.001770   0.000174  -0.000211  -0.000162   0.000000
  119  O 16  Y    0.000645   0.000332  -0.000119  -0.000022  -0.000000
  120  O 16  Z   -0.000765  -0.000349  -0.000079   0.000087   0.000000
  121  O 17  S    0.983583  -0.003509  -0.000432  -0.000365   0.000011
  122  O 17  S    0.098781  -0.000117   0.000048   0.000031  -0.000004
  123  O 17  X   -0.000637  -0.000148   0.000019   0.000008  -0.000000
  124  O 17  Y   -0.002297  -0.000095   0.000070   0.000043   0.000001
  125  O 17  Z   -0.002724   0.000379  -0.000050  -0.000002   0.000001
  126  O 17  S   -0.048389   0.000454  -0.000692  -0.000338   0.000028
  127  O 17  X    0.003952   0.000250   0.000180   0.000076  -0.000010
  128  O 17  Y    0.005422   0.000235  -0.000244  -0.000167  -0.000009
  129  O 17  Z    0.008528  -0.001821   0.000325   0.000092  -0.000011
  130  O 18  S    0.003541   0.983525  -0.004907   0.006823   0.000057
  131  O 18  S    0.000613   0.098486  -0.000377   0.000245  -0.000008
  132  O 18  X    0.000137   0.002693  -0.000514   0.000012  -0.000005
  133  O 18  Y    0.000220  -0.000859   0.000349   0.000100   0.000001
  134  O 18  Z    0.000168  -0.002382  -0.000210   0.000043   0.000002
  135  O 18  S   -0.000584  -0.047146   0.001649   0.001644   0.000069
  136  O 18  X   -0.000646  -0.005975   0.002070  -0.000001  -0.000002
  137  O 18  Y   -0.001090   0.002984  -0.001639  -0.000672  -0.000022
  138  O 18  Z   -0.001190   0.008312  -0.000027  -0.000818  -0.000033
  139  O 19  S    0.000475   0.004939   0.983525  -0.006849  -0.000151
  140  O 19  S    0.000151   0.000611   0.098346  -0.000587   0.000000
  141  O 19  X    0.000050   0.000221   0.000918   0.000242  -0.000018
  142  O 19  Y   -0.000036   0.000151  -0.003238   0.000154   0.000001
  143  O 19  Z   -0.000122   0.000299   0.002042   0.000004  -0.000007
  144  O 19  S   -0.000627   0.000674  -0.047012  -0.000927  -0.000027
  145  O 19  X   -0.000521  -0.000730  -0.002166  -0.001045   0.000039
  146  O 19  Y    0.000381  -0.001642   0.010310  -0.000071   0.000005
  147  O 19  Z    0.000578  -0.001382  -0.003989  -0.000182   0.000019
  148  O 20  S    0.000362  -0.006900   0.006928   0.983484   0.000194
  149  O 20  S    0.000100  -0.001106   0.000800   0.098153  -0.000009
  150  O 20  X    0.000022  -0.000013  -0.000353  -0.002784   0.000027
  151  O 20  Y   -0.000000  -0.000095  -0.000136   0.002326  -0.000008
  152  O 20  Z   -0.000026  -0.000058   0.000082   0.001107  -0.000001
  153  O 20  S   -0.000291   0.002077  -0.001631  -0.046327   0.000075
  154  O 20  X   -0.000020   0.000063   0.001435   0.005839  -0.000161
  155  O 20  Y   -0.000166   0.000927  -0.000017  -0.008371   0.000083
  156  O 20  Z    0.000142   0.000318  -0.000280  -0.002716   0.000016
  157  H 21  S   -0.000002   0.000007  -0.000040  -0.000046  -0.000067
  158  H 21  S   -0.000008  -0.000009   0.000052   0.000059  -0.000155
  159  H 22  S    0.000005  -0.000001   0.000019   0.000031   0.001134
  160  H 22  S   -0.000030  -0.000011   0.000011   0.000002  -0.001425
  161  H 23  S    0.000055  -0.000048   0.000495   0.000706   0.000228
  162  H 23  S    0.000124  -0.000732   0.000940   0.001239  -0.000367
  163  H 24  S    0.000043   0.000217  -0.000596  -0.000558  -0.000001
  164  H 24  S   -0.000101   0.000219   0.000254  -0.000307   0.000625
  165  H 25  S   -0.000815  -0.000380  -0.000176   0.000014   0.000004
  166  H 25  S   -0.002393  -0.000420   0.000040  -0.000144  -0.000002
  167  H 26  S    0.003049   0.000080  -0.000031  -0.000000  -0.000001
  168  H 26  S    0.005743  -0.000197  -0.000070  -0.000045   0.000002
  169  H 27  S   -0.000560   0.003149  -0.000350  -0.000079  -0.000008
  170  H 27  S    0.003590   0.005982  -0.000550   0.000324   0.000000
  171  H 28  S    0.000015  -0.000481   0.003013  -0.000203   0.000003
  172  H 28  S   -0.000402   0.003338   0.005877   0.000505  -0.000032
  173  H 29  S   -0.000009  -0.000105   0.000480   0.003035  -0.000059
  174  H 29  S    0.000096   0.000279  -0.000107   0.005476   0.000083

                     11         12         13         14         15
                  -11.3235   -11.2692   -11.2581   -11.2559   -11.2482
                     A          A          A          A          A   
    1  P  1  S    0.000000   0.000001  -0.000001  -0.000007   0.000003
    2  P  1  S    0.000003  -0.000011  -0.000023  -0.000191  -0.000064
    3  P  1  X   -0.000005  -0.000009   0.000016   0.000100  -0.000010
    4  P  1  Y   -0.000002   0.000005   0.000003  -0.000000   0.000029
    5  P  1  Z   -0.000001  -0.000000  -0.000007   0.000012   0.000003
    6  P  1  S    0.000055   0.000016  -0.000271  -0.002273  -0.000202
    7  P  1  X    0.000030   0.000055  -0.000134  -0.001002   0.000073
    8  P  1  Y    0.000012  -0.000034  -0.000037  -0.000260  -0.000194
    9  P  1  Z    0.000013   0.000009   0.000052  -0.000090  -0.000023
   10  P  1  S   -0.000116   0.000117   0.000605   0.004915   0.001104
   11  P  1  X   -0.000073   0.000074   0.000496   0.004358   0.000717
   12  P  1  Y   -0.000002   0.000053   0.000224   0.001685   0.000086
   13  P  1  Z   -0.000076  -0.000079  -0.000206   0.000507   0.000112
   14  O  2  S    0.000001   0.000002   0.000003  -0.000007   0.000004
   15  O  2  S    0.000006   0.000017   0.000035  -0.000036   0.000040
   16  O  2  X   -0.000002   0.000009   0.000029   0.000243   0.000046
   17  O  2  Y    0.000001   0.000004   0.000016   0.000090  -0.000000
   18  O  2  Z   -0.000001  -0.000001  -0.000010  -0.000088   0.000001
   19  O  2  S   -0.000023  -0.000051  -0.000103   0.000306  -0.000086
   20  O  2  X    0.000007  -0.000036  -0.000122  -0.000892  -0.000191
   21  O  2  Y   -0.000006  -0.000017  -0.000062  -0.000334  -0.000002
   22  O  2  Z    0.000003   0.000003   0.000032   0.000337  -0.000014
   23  O  3  S   -0.000001   0.000001   0.000003   0.000079   0.000008
   24  O  3  S   -0.000004   0.000008   0.000019   0.000742   0.000066
   25  O  3  X    0.000002  -0.000004  -0.000034   0.000235   0.000007
   26  O  3  Y   -0.000000  -0.000005  -0.000011   0.000028  -0.000016
   27  O  3  Z   -0.000001  -0.000001   0.000002  -0.000063  -0.000008
   28  O  3  S    0.000023  -0.000037  -0.000146  -0.002454  -0.000268
   29  O  3  X    0.000000   0.000011   0.000104  -0.001152  -0.000069
   30  O  3  Y   -0.000006   0.000021   0.000067   0.000452   0.000117
   31  O  3  Z    0.000006   0.000008   0.000010   0.000370   0.000039
   32  O  4  S   -0.000001  -0.000001  -0.000001   0.000010   0.000006
   33  O  4  S   -0.000013  -0.000005  -0.000011   0.000124   0.000061
   34  O  4  X   -0.000006   0.000003   0.000014   0.000239   0.000051
   35  O  4  Y   -0.000003  -0.000001   0.000000   0.000066   0.000006
   36  O  4  Z    0.000001   0.000001   0.000010   0.000079  -0.000004
   37  O  4  S    0.000044   0.000022   0.000045  -0.000366  -0.000171
   38  O  4  X    0.000029  -0.000008  -0.000057  -0.000936  -0.000210
   39  O  4  Y    0.000014   0.000005  -0.000003  -0.000308  -0.000038
   40  O  4  Z   -0.000009  -0.000008  -0.000035  -0.000242   0.000038
   41  O  5  S    0.000008   0.000001  -0.000001  -0.000198  -0.000053
   42  O  5  S    0.000068  -0.000015  -0.000098  -0.000303  -0.000472
   43  O  5  X    0.000012  -0.000070  -0.000055   0.000429  -0.000373
   44  O  5  Y    0.000022   0.000019  -0.000043   0.000522  -0.000027
   45  O  5  Z   -0.000005  -0.000029   0.000047  -0.000140  -0.000119
   46  O  5  S   -0.000311  -0.000104   0.000133   0.007230   0.001621
   47  O  5  X   -0.000162   0.000176   0.000067   0.003514   0.001939
   48  O  5  Y   -0.000155  -0.000129   0.000082   0.001461   0.000357
   49  O  5  Z    0.000034   0.000108  -0.000210  -0.001087   0.000361
   50  C  6  S   -0.000004  -0.002749  -0.045817   0.986411   0.021618
   51  C  6  S   -0.000082  -0.000647  -0.005879   0.102015   0.001304
   52  C  6  X    0.000133  -0.000051  -0.000376  -0.000193  -0.000960
   53  C  6  Y    0.000002   0.000006  -0.000180  -0.000299  -0.000152
   54  C  6  Z   -0.000002  -0.000019   0.000017   0.000127   0.000033
   55  C  6  S    0.001334   0.002275   0.008635  -0.081273  -0.002153
   56  C  6  X    0.000107   0.000754   0.004033  -0.006399   0.000641
   57  C  6  Y   -0.000346  -0.000378   0.000808   0.002402   0.000871
   58  C  6  Z    0.000673   0.000823   0.001330  -0.002762  -0.001911
   59  C  7  S    0.000015  -0.003651  -0.006354  -0.010221  -0.028196
   60  C  7  S    0.000032  -0.001503  -0.001084  -0.003311  -0.006261
   61  C  7  X   -0.000267  -0.000516  -0.001137   0.000062   0.000528
   62  C  7  Y    0.000048   0.000086   0.000071   0.000054  -0.000075
   63  C  7  Z   -0.000072  -0.000153  -0.000107   0.000190  -0.000127
   64  C  7  S   -0.001625   0.004581  -0.002948   0.020798   0.030034
   65  C  7  X    0.001096   0.004993   0.003743  -0.012793   0.012705
   66  C  7  Y   -0.001511  -0.000268  -0.003086   0.003837   0.008981
   67  C  7  Z    0.000481   0.000131   0.000141  -0.006121  -0.002456
   68  H  8  S   -0.000028  -0.000551  -0.000036  -0.001232  -0.001949
   69  H  8  S    0.000219   0.000344   0.000774   0.001097  -0.000820
   70  C  9  S    0.000816  -0.007212  -0.016887  -0.022850   0.987503
   71  C  9  S    0.000764  -0.001787  -0.005243  -0.003815   0.105692
   72  C  9  X    0.000419  -0.001251   0.000406   0.001126   0.000032
   73  C  9  Y   -0.000060   0.000026  -0.000214  -0.000171  -0.000414
   74  C  9  Z   -0.000189   0.000040   0.000048   0.000358   0.000984
   75  C  9  S   -0.002228   0.000987   0.030390   0.003979  -0.096704
   76  C  9  X   -0.003496   0.004980   0.015318  -0.003571   0.001454
   77  C  9  Y    0.000833   0.002043  -0.001960   0.001540   0.006864
   78  C  9  Z    0.001903  -0.000380   0.010478  -0.002173  -0.010126
   79  H 10  S    0.000614  -0.000297  -0.001268  -0.000276   0.000709
   80  H 10  S    0.000904  -0.000610   0.000806  -0.002208   0.014302
   81  C 11  S   -0.003607  -0.011385   0.987161   0.045050   0.016507
   82  C 11  S   -0.002300  -0.004209   0.106270   0.003782  -0.001445
   83  C 11  X   -0.001188   0.000333  -0.000028   0.000446  -0.000840
   84  C 11  Y    0.000307   0.000140   0.001484   0.000220  -0.000090
   85  C 11  Z    0.000984  -0.000543  -0.000619   0.000016  -0.000174
   86  C 11  S    0.005384   0.025923  -0.098421  -0.000431   0.024524
   87  C 11  X    0.004580   0.016513   0.002801  -0.004299  -0.012102
   88  C 11  Y   -0.000388   0.002705  -0.013908  -0.000955   0.005432
   89  C 11  Z   -0.005032  -0.003567   0.008449  -0.000322  -0.007305
   90  H 12  S   -0.001386  -0.001492   0.000248  -0.000595  -0.001323
   91  H 12  S    0.001529  -0.001747   0.011741   0.000714   0.001224
   92  C 13  S   -0.002458   0.988231   0.009969   0.002920   0.007239
   93  C 13  S   -0.001396   0.106047  -0.001955  -0.000184  -0.000126
   94  C 13  X    0.000017  -0.000346  -0.000785  -0.000013   0.000898
   95  C 13  Y    0.000154  -0.001246  -0.000630   0.000044   0.000375
   96  C 13  Z    0.000438  -0.000109   0.000057  -0.000020   0.000018
   97  C 13  S    0.011532  -0.098462   0.023421   0.002632  -0.000035
   98  C 13  X    0.004572   0.003845  -0.015369  -0.001218   0.000065
   99  C 13  Y   -0.004349   0.013175   0.000918  -0.000776  -0.002907
  100  C 13  Z   -0.010051   0.001815   0.008064   0.001161  -0.001051
  101  H 14  S   -0.001440   0.000781  -0.001763  -0.000139  -0.000367
  102  H 14  S    0.001271   0.013479  -0.002492   0.000354   0.002341
  103  C 15  S    0.986732   0.001931   0.003225   0.000160  -0.000570
  104  C 15  S    0.095450  -0.002580  -0.001561  -0.000041   0.000440
  105  C 15  X    0.000326  -0.000383   0.000809   0.000060  -0.000169
  106  C 15  Y   -0.000281   0.000033  -0.000357  -0.000064   0.000074
  107  C 15  Z    0.000689   0.000010  -0.000438  -0.000066   0.000049
  108  C 15  S   -0.052983   0.027042   0.005983  -0.000198  -0.001430
  109  C 15  X    0.010554  -0.005779  -0.001382  -0.000085   0.002032
  110  C 15  Y   -0.006940   0.009955   0.002503   0.000344  -0.001274
  111  C 15  Z   -0.001779   0.014182   0.002263   0.000062  -0.001092
  112  O 16  S    0.000084   0.000047   0.000007  -0.000004   0.000030
  113  O 16  S    0.000915   0.000077   0.000044  -0.000037   0.000276
  114  O 16  X    0.000414   0.000257  -0.000087   0.000004   0.000003
  115  O 16  Y   -0.000197  -0.000038  -0.000042   0.000006   0.000022
  116  O 16  Z   -0.000056   0.000223   0.000127   0.000015  -0.000061
  117  O 16  S   -0.000703  -0.002096  -0.000217   0.000190  -0.001198
  118  O 16  X    0.003053   0.000621   0.000501  -0.000062   0.000162
  119  O 16  Y   -0.001419  -0.001350  -0.000100  -0.000023  -0.000142
  120  O 16  Z    0.001729  -0.002025  -0.000484  -0.000064   0.000369
  121  O 17  S   -0.000025  -0.000276   0.000058   0.000007  -0.000033
  122  O 17  S   -0.000434  -0.001055   0.000220   0.000032  -0.000302
  123  O 17  X    0.000252  -0.000223   0.000015   0.000023   0.000109
  124  O 17  Y    0.000154  -0.000047   0.000286   0.000026   0.000075
  125  O 17  Z    0.000373  -0.000428   0.000196   0.000003   0.000052
  126  O 17  S    0.000793   0.010688  -0.002069  -0.000322   0.001014
  127  O 17  X   -0.001432  -0.003443   0.001842   0.000103  -0.000643
  128  O 17  Y   -0.000161  -0.001369  -0.000802  -0.000018  -0.000145
  129  O 17  Z   -0.000828  -0.003390  -0.000250   0.000083  -0.000358
  130  O 18  S   -0.000055   0.000051  -0.000327  -0.000002   0.000039
  131  O 18  S   -0.000534   0.000103  -0.001420   0.000019  -0.000063
  132  O 18  X    0.000058  -0.000016   0.000231  -0.000028   0.000467
  133  O 18  Y    0.000026  -0.000099  -0.000234  -0.000063   0.000079
  134  O 18  Z    0.000222   0.000380  -0.000362  -0.000023   0.000605
  135  O 18  S    0.002014  -0.002030   0.012753   0.000085  -0.001726
  136  O 18  X   -0.000351  -0.001249  -0.000261   0.000305  -0.001331
  137  O 18  Y   -0.000419   0.000639  -0.001770   0.000275  -0.000084
  138  O 18  Z   -0.001249   0.000030  -0.005818   0.000002  -0.000603
  139  O 19  S    0.000001   0.000064   0.000060   0.000051  -0.000273
  140  O 19  S    0.000014   0.000623   0.000060   0.000351  -0.001077
  141  O 19  X   -0.000094   0.000353  -0.000324  -0.000040   0.000204
  142  O 19  Y    0.000022  -0.000097   0.000454  -0.000002  -0.000446
  143  O 19  Z    0.000039  -0.000113  -0.000185  -0.000032   0.000026
  144  O 19  S   -0.000204  -0.001747  -0.002946  -0.001640   0.010717
  145  O 19  X    0.000560  -0.001655   0.000029   0.000527  -0.000440
  146  O 19  Y   -0.000063   0.000781   0.000494   0.000783  -0.005006
  147  O 19  Z   -0.000253   0.000515   0.000154   0.000401  -0.000390
  148  O 20  S    0.000015   0.000029   0.000064   0.000017   0.000022
  149  O 20  S    0.000141   0.000204   0.000629  -0.000184  -0.000224
  150  O 20  X    0.000061  -0.000026   0.000266   0.000203  -0.000384
  151  O 20  Y    0.000017   0.000033   0.000157  -0.000374  -0.000625
  152  O 20  Z    0.000055   0.000011   0.000047   0.000120   0.000136
  153  O 20  S   -0.000553  -0.001136  -0.002019  -0.000922  -0.000898
  154  O 20  X   -0.000251  -0.000113  -0.001294   0.000323   0.000967
  155  O 20  Y   -0.000227  -0.000609  -0.001070   0.000152   0.000971
  156  O 20  Z   -0.000264  -0.000222  -0.000380  -0.000141  -0.000500
[...]
             47  O  5  X      0.82578     0.82223
             48  O  5  Y      0.98181     0.98330
             49  O  5  Z      1.03364     1.03597
             50  C  6  S      1.98876     1.97597
             51  C  6  S      0.36617     0.43071
             52  C  6  X      0.43800     0.43309
             53  C  6  Y      0.53251     0.50423
             54  C  6  Z      0.56870     0.53610
             55  C  6  S      1.03388     0.57719
             56  C  6  X      0.26873     0.43139
             57  C  6  Y      0.42741     0.51810
             58  C  6  Z      0.49569     0.56452
             59  C  7  S      1.99015     1.97563
             60  C  7  S      0.35515     0.42457
             61  C  7  X      0.56061     0.54906
             62  C  7  Y      0.43219     0.42351
             63  C  7  Z      0.56915     0.54076
             64  C  7  S      1.02188     0.55132
             65  C  7  X      0.30305     0.49796
             66  C  7  Y      0.21399     0.41040
             67  C  7  Z      0.51985     0.56590
             68  H  8  S      0.47288     0.48606
             69  H  8  S      0.27996     0.42304
             70  C  9  S      1.99000     1.97567
             71  C  9  S      0.35391     0.42513
             72  C  9  X      0.54998     0.54293
             73  C  9  Y      0.43688     0.42647
             74  C  9  Z      0.56856     0.54266
             75  C  9  S      1.00312     0.55145
             76  C  9  X      0.31158     0.50502
             77  C  9  Y      0.20075     0.40942
             78  C  9  Z      0.51802     0.55886
             79  H 10  S      0.47612     0.48783
             80  H 10  S      0.29224     0.42857
             81  C 11  S      1.99024     1.97578
             82  C 11  S      0.34990     0.42712
             83  C 11  X      0.54111     0.53310
             84  C 11  Y      0.55863     0.53498
             85  C 11  Z      0.43945     0.43317
             86  C 11  S      1.02778     0.56149
             87  C 11  X      0.28543     0.49306
             88  C 11  Y      0.52917     0.55277
             89  C 11  Z      0.25920     0.43698
             90  H 12  S      0.47181     0.48176
             91  H 12  S      0.26660     0.41928
             92  C 13  S      1.99009     1.97573
             93  C 13  S      0.34943     0.42754
             94  C 13  X      0.51147     0.50291
             95  C 13  Y      0.57623     0.55228
             96  C 13  Z      0.48210     0.46903
             97  C 13  S      1.05411     0.56331
             98  C 13  X      0.28697     0.47142
             99  C 13  Y      0.54003     0.56957
            100  C 13  Z      0.29477     0.47190
            101  H 14  S      0.46217     0.47294
            102  H 14  S      0.24742     0.40708
            103  C 15  S      1.98744     1.97723
            104  C 15  S      0.42487     0.44791
            105  C 15  X      0.53497     0.51737
            106  C 15  Y      0.43906     0.42340
            107  C 15  Z      0.54560     0.51436
            108  C 15  S      0.76032     0.56501
            109  C 15  X      0.20524     0.41720
            110  C 15  Y      0.33675     0.45065
            111  C 15  Z      0.43058     0.51242
            112  O 16  S      1.98705     1.98182
            113  O 16  S      0.43279     0.58997
            114  O 16  X      0.63095     0.62009
            115  O 16  Y      0.64566     0.64113
            116  O 16  Z      0.77253     0.77344
            117  O 16  S      1.55277     1.05718
            118  O 16  X      0.76184     0.80193
            119  O 16  Y      0.82299     0.83779
            120  O 16  Z      0.92546     0.94371
            121  O 17  S      1.98616     1.98027
            122  O 17  S      0.41231     0.57151
            123  O 17  X      0.63596     0.62704
            124  O 17  Y      0.76294     0.76493
            125  O 17  Z      0.68129     0.68124
            126  O 17  S      1.51989     1.03964
            127  O 17  X      0.81814     0.83157
            128  O 17  Y      0.97277     0.97113
            129  O 17  Z      0.90692     0.92858
            130  O 18  S      1.98613     1.98034
            131  O 18  S      0.41126     0.57235
            132  O 18  X      0.67259     0.66541
            133  O 18  Y      0.78130     0.78732
            134  O 18  Z      0.62424     0.61997
            135  O 18  S      1.52454     1.04834
            136  O 18  X      0.89288     0.88217
            137  O 18  Y      0.99121     1.00266
            138  O 18  Z      0.81562     0.85645
            139  O 19  S      1.98620     1.98055
            140  O 19  S      0.41354     0.57473
            141  O 19  X      0.83476     0.84561
            142  O 19  Y      0.58485     0.57804
            143  O 19  Z      0.65302     0.64100
            144  O 19  S      1.52774     1.05196
            145  O 19  X      1.05527     1.05120
            146  O 19  Y      0.79029     0.84081
            147  O 19  Z      0.84391     0.85283
            148  O 20  S      1.98607     1.98037
            149  O 20  S      0.41230     0.57235
            150  O 20  X      0.66557     0.65643
            151  O 20  Y      0.56968     0.55938
            152  O 20  Z      0.84402     0.85540
            153  O 20  S      1.52212     1.04882
            154  O 20  X      0.87962     0.87957
            155  O 20  Y      0.75644     0.80143
            156  O 20  Z      1.05344     1.05647
            157  H 21  S      0.38418     0.39889
            158  H 21  S      0.17466     0.29678
            159  H 22  S      0.38749     0.40069
            160  H 22  S      0.17222     0.29687
            161  H 23  S      0.47597     0.48050
            162  H 23  S      0.28419     0.42364
            163  H 24  S      0.47143     0.47318
            164  H 24  S      0.24646     0.40661
            165  H 25  S      0.47525     0.47352
            166  H 25  S      0.28219     0.43900
            167  H 26  S      0.38361     0.40186
            168  H 26  S      0.19588     0.32527
            169  H 27  S      0.37534     0.39437
            170  H 27  S      0.18883     0.32859
            171  H 28  S      0.38499     0.40300
            172  H 28  S      0.20684     0.33537
            173  H 29  S      0.39971     0.41718
            174  H 29  S      0.19588     0.31869

          ----- MULLIKEN ATOMIC OVERLAP POPULATIONS -----
          (OFF-DIAGONAL ELEMENTS NEED TO BE MULTIPLIED BY 2)

             1           2           3           4           5

    1   12.1522893
    2    0.4135790   8.4014484
    3    0.1710764  -0.0130525   8.4558408
    4    0.1695981  -0.0158461  -0.0200575   8.4678543
    5    0.1880567  -0.0150316  -0.0182441  -0.0158183   8.5818958
    6   -0.0441813  -0.0010332  -0.0021999   0.0000137   0.1788417
    7    0.0004972  -0.0000040   0.0000362  -0.0000120  -0.0384586
    8    0.0000664   0.0000000   0.0000086  -0.0000045   0.0012829
    9    0.0000008   0.0000000  -0.0000002   0.0000000   0.0016511
   10    0.0000001  -0.0000000   0.0000000  -0.0000000  -0.0000131
   11   -0.0000005  -0.0000000   0.0000000  -0.0000000  -0.0000132
   12   -0.0000000  -0.0000000   0.0000000   0.0000000  -0.0000002
   13   -0.0000000   0.0000000  -0.0000000   0.0000000   0.0000000
   14   -0.0000000   0.0000000   0.0000000   0.0000000   0.0000000
   15    0.0000000  -0.0000000   0.0000000  -0.0000000  -0.0000000
   16    0.0000000   0.0000000   0.0000000   0.0000000  -0.0000000
   17    0.0000000   0.0000000   0.0000000   0.0000000  -0.0000000
   18   -0.0000000   0.0000000   0.0000000   0.0000000   0.0000000
   19    0.0000077  -0.0000000  -0.0000000  -0.0000000   0.0000017
   20   -0.0000359  -0.0000000  -0.0000000  -0.0000000  -0.0024883
   21   -0.0275172  -0.0004112   0.2623002   0.0053533   0.0000483
   22   -0.0169335  -0.0008633   0.0004850   0.2610689   0.0001406
   23   -0.0016433   0.0001655  -0.0000214  -0.0000101  -0.0283646
   24   -0.0080971  -0.0000503   0.0107767   0.0000245  -0.0246097
   25    0.0000000   0.0000000  -0.0000000  -0.0000000   0.0000000
   26    0.0000000   0.0000000  -0.0000000   0.0000000   0.0000000
   27    0.0000000  -0.0000000   0.0000000  -0.0000000  -0.0000000
   28   -0.0000010   0.0000000  -0.0000000   0.0000000  -0.0000010
   29   -0.0000896  -0.0000024   0.0000015  -0.0000034   0.0154413

             6           7           8           9          10

    6    5.2722767
    7    0.2004864   5.4226715
    8   -0.0550393   0.3658710   0.5047478
    9   -0.0818074   0.1355093  -0.0456363   5.4418664
   10   -0.0035901  -0.0589134   0.0036532   0.3752339   0.5082983
   11    0.0052543  -0.0756110  -0.0082786   0.1513438  -0.0467644
   12    0.0001795  -0.0027937   0.0003948  -0.0456128   0.0023556
   13   -0.0000653   0.0041751   0.0001142  -0.0745595  -0.0021123
   14   -0.0000056   0.0004940  -0.0000094  -0.0023626  -0.0013046
   15    0.0000002  -0.0000617  -0.0000040   0.0038587   0.0004582
   16    0.0000000  -0.0000000   0.0000000   0.0000177  -0.0000036
   17    0.0000000  -0.0000149   0.0000003   0.0015890   0.0000094
   18    0.0000028  -0.0015297   0.0070837  -0.0547606   0.0013562
   19    0.0024665  -0.0499984   0.0014759   0.2278433  -0.0244933
   20   -0.0418659   0.2025161  -0.0286276  -0.0432122   0.0051515
   21    0.0001970  -0.0000009  -0.0000021  -0.0000001  -0.0000000
   22    0.0000052   0.0000005   0.0000002  -0.0000000   0.0000000
   23    0.3637337  -0.0523505   0.0032609   0.0009907   0.0027823
   24    0.3345109  -0.0358084   0.0009062   0.0002972   0.0004605
   25   -0.0000002   0.0000045   0.0000003   0.0004416   0.0009344
   26   -0.0000000   0.0000016  -0.0000000  -0.0000845  -0.0000001
   27    0.0000023  -0.0002397  -0.0001065   0.0070309  -0.0001003
   28   -0.0003616   0.0013761   0.0021044  -0.0727543   0.0051007
   29   -0.0079655  -0.0518231  -0.0004220   0.0059157  -0.0001443

            11          12          13          14          15

   11    5.5142588
   12    0.3607926   0.4738756
   13    0.1425457  -0.0457859   5.6694774
   14   -0.0531621   0.0024735   0.3527307   0.4420814
   15   -0.0706173   0.0029163   0.1168476  -0.0284021   4.8616977
   16    0.0000997   0.0002705  -0.0767409   0.0007273   0.4755430
   17   -0.0453856   0.0008531   0.2187117  -0.0253839  -0.0333644
   18    0.2171281  -0.0251297  -0.0404781   0.0009865   0.0013929
   19   -0.0414331   0.0013212  -0.0056216   0.0147710   0.0001085
   20   -0.0000538   0.0101431   0.0000090  -0.0000036  -0.0000019
   21   -0.0000000  -0.0000000  -0.0000000   0.0000000   0.0000000
   22    0.0000000  -0.0000000  -0.0000000  -0.0000000   0.0000000
   23   -0.0001321   0.0000038  -0.0000001   0.0000001  -0.0000001
   24   -0.0000016  -0.0000134   0.0000007  -0.0000023  -0.0000000
   25    0.0033545   0.0005367  -0.0859270   0.0020741   0.3415480
   26    0.0053918   0.0002111  -0.0739799   0.0033316  -0.0084080
   27   -0.0597175   0.0006146  -0.0157342   0.0003421   0.0013186
   28   -0.0178948   0.0010362   0.0015841   0.0002174   0.0000107
   29   -0.0001764  -0.0002267   0.0000024   0.0000002  -0.0000001

            16          17          18          19          20

   16    8.1490909
   17   -0.0074788   8.2997692
   18   -0.0000013  -0.0123692   8.3220697
   19   -0.0000000  -0.0000029  -0.0097119   8.3111008
   20    0.0000000   0.0000000   0.0000154   0.0002177   8.3207889
   21    0.0000000   0.0000000   0.0000000  -0.0000000   0.0000000
   22    0.0000000   0.0000000  -0.0000000   0.0000000   0.0000000
   23    0.0000000  -0.0000000  -0.0000004  -0.0000762   0.0012867
   24    0.0000000   0.0000000   0.0000004   0.0072839   0.0014354
   25   -0.0453815   0.0012639  -0.0000156  -0.0000045  -0.0000054
   26    0.0359026   0.2559329   0.0003026  -0.0000007  -0.0000000
   27   -0.0000116   0.0422636   0.2522154   0.0001244  -0.0000009
   28   -0.0000000  -0.0000167   0.0412274   0.2542426  -0.0000155
   29   -0.0000000  -0.0000000  -0.0000019  -0.0000258   0.2640009

            21          22          23          24          25

   21    0.3189815
   22   -0.0000398   0.3158444
   23   -0.0000101   0.0000003   0.4944859
   24   -0.0000565  -0.0000028  -0.0239073   0.4543517
   25    0.0000000  -0.0000000  -0.0000001   0.0000000   0.5370539
   26   -0.0000000  -0.0000000   0.0000000   0.0000000   0.0015959
   27   -0.0000000   0.0000000   0.0000000  -0.0000001  -0.0000328
   28    0.0000000  -0.0000000   0.0000039   0.0000414   0.0000011
   29   -0.0000001  -0.0000012  -0.0000360   0.0003524   0.0000003

            26          27          28          29

   26    0.3603884
   27   -0.0010901   0.3387659
   28   -0.0000011  -0.0014771   0.3773997
   29    0.0000000  -0.0000000   0.0000023   0.3707899

          TOTAL MULLIKEN AND LOWDIN ATOMIC POPULATIONS
       ATOM         MULL.POP.    CHARGE          LOW.POP.     CHARGE
    1 P            12.996672    2.003328        13.486267    1.513733
    2 O             8.768898   -0.768898         8.674329   -0.674329
    3 O             8.846950   -0.846950         8.576839   -0.576839
    4 O             8.852161   -0.852161         8.587341   -0.587341
    5 O             8.824317   -0.824317         8.544011   -0.544011
    6 C             6.119856   -0.119856         5.971298    0.028702
    7 C             5.966019    0.033981         5.939109    0.060891
    8 H             0.752841    0.247159         0.909106    0.090894
    9 C             5.932799    0.067201         5.937616    0.062384
   10 H             0.768355    0.231645         0.916402    0.083598
   11 C             5.980927    0.019073         5.948437    0.051563
   12 H             0.738416    0.261584         0.901046    0.098954
   13 C             6.085194   -0.085194         6.003681   -0.003681
   14 H             0.709594    0.290406         0.880018    0.119982
   15 C             5.664841    0.335159         5.825561    0.174439
   16 O             8.532034   -0.532034         8.247058   -0.247058
   17 O             8.696377   -0.696377         8.395914   -0.395914
   18 O             8.699783   -0.699783         8.415016   -0.415016
   19 O             8.689597   -0.689597         8.416726   -0.416726
   20 O             8.689254   -0.689254         8.410204   -0.410204
   21 H             0.558842    0.441158         0.695672    0.304328
   22 H             0.559704    0.440296         0.697562    0.302438
   23 H             0.760162    0.239838         0.904140    0.095860
   24 H             0.717892    0.282108         0.879791    0.120209
   25 H             0.757442    0.242558         0.912520    0.087480
   26 H             0.579494    0.420506         0.727137    0.272863
   27 H             0.564167    0.435833         0.722960    0.277040
   28 H             0.591825    0.408175         0.738370    0.261630
   29 H             0.595588    0.404412         0.735870    0.264130

          -------------------------------
          BOND ORDER AND VALENCE ANALYSIS     BOND ORDER THRESHOLD=0.050
          -------------------------------

                   BOND                       BOND                       BOND
  ATOM PAIR DIST  ORDER      ATOM PAIR DIST  ORDER      ATOM PAIR DIST  ORDER
    1   2  1.548  1.572        1   3  1.668  0.746        1   4  1.674  0.751
    1   5  1.666  0.763        2   3  2.765  0.053        2   4  2.730  0.066
    2   5  2.739  0.057        3  21  0.996  0.765        4  22  0.993  0.769
    5   6  1.495  0.736        6   7  1.517  0.888        6  23  1.094  0.895
    6  24  1.088  0.859        7   8  1.098  0.876        7   9  1.525  0.852
    7  20  1.456  0.860        9  10  1.094  0.896        9  11  1.532  0.859
    9  19  1.455  0.887       11  12  1.095  0.874       11  13  1.560  0.836
   11  18  1.464  0.875       13  14  1.096  0.858       13  15  1.507  0.850
   13  17  1.458  0.858       15  16  1.238  1.801       15  25  1.099  0.845
   16  26  1.960  0.068       17  26  1.007  0.735       17  27  1.805  0.083
   18  27  1.011  0.713       18  28  1.893  0.079       19  28  1.010  0.741
   20  29  0.997  0.781

                       TOTAL       BONDED        FREE
      ATOM            VALENCE     VALENCE     VALENCE
    1 P                 3.870       3.870       0.000
    2 O                 1.745       1.745      -0.000
    3 O                 1.648       1.648       0.000
    4 O                 1.647       1.647      -0.000
    5 O                 1.670       1.670      -0.000
    6 C                 3.376       3.376      -0.000
    7 C                 3.453       3.453      -0.000
    8 H                 0.897       0.897      -0.000
    9 C                 3.457       3.457       0.000
   10 H                 0.903       0.903      -0.000
   11 C                 3.429       3.429       0.000
   12 H                 0.899       0.899       0.000
   13 C                 3.400       3.400      -0.000
   14 H                 0.889       0.889       0.000
   15 C                 3.503       3.503      -0.000
   16 O                 1.953       1.953       0.000
   17 O                 1.762       1.762      -0.000
   18 O                 1.756       1.756       0.000
   19 O                 1.744       1.744       0.000
   20 O                 1.726       1.726       0.000
   21 H                 0.791       0.791       0.000
   22 H                 0.788       0.788      -0.000
   23 H                 0.898       0.898      -0.000
   24 H                 0.894       0.894      -0.000
   25 H                 0.887       0.887       0.000
   26 H                 0.817       0.817       0.000
   27 H                 0.806       0.806      -0.000
   28 H                 0.827       0.827       0.000
   29 H                 0.821       0.821      -0.000

          ---------------------
          ELECTROSTATIC MOMENTS
          ---------------------

 POINT   1           X           Y           Z (BOHR)    CHARGE
                -0.012233   -0.145295   -0.175870       -0.00 (A.U.)
         DX          DY          DZ         /D/  (DEBYE)
    -0.414127   -0.478039    2.028040    2.124375
 ...... END OF PROPERTY EVALUATION ......
 CPU     0: STEP CPU TIME=     0.05 TOTAL CPU TIME=          4.1 (      0.1 MIN)
 TOTAL WALL CLOCK TIME=          8.6 SECONDS, CPU UTILIZATION IS    47.97%
               580000  WORDS OF DYNAMIC MEMORY USED
 EXECUTION OF GAMESS TERMINATED NORMALLY Thu May 21 17:23:59 2020
 DDI: 263640 bytes (0.3 MB / 0 MWords) used by master data server.
Note: The following floating-point exceptions are signalling: IEEE_DENORMALNote: The following floating-point exceptions are signalling:Note: The following floating-point exceptions are signalling:Note: The following floating-point exceptions are signalling: IEEE_DENORMAL
Note: The following floating-point exceptions are signalling: IEEE_DENORMAL IEEE_DENORMAL
Note: The following floating-point exceptions are signalling: IEEE_DENORMAL
 ----------------------------------------
 CPU timing information for all processes
 ========================================
 0: 3.983 + 0.159 = 4.142
 1: 3.816 + 0.35 = 3.852
 2: 3.954 + 0.64 = 4.18
 3: 3.994 + 0.35 = 4.30
 4: 3.882 + 0.56 = 3.939
 5: 3.887 + 0.51 = 3.939
 6: 3.676 + 0.63 = 3.740
 7: 3.943 + 0.44 = 3.987
 ----------------------------------------
 IEEE_DENORMAL



Note: The following floating-point exceptions are signalling: IEEE_DENORMALNote: The following floating-point exceptions are signalling: IEEE_DENORMAL

 ddikick.x: exited gracefully.
unset echo
----- accounting info -----
Files used on the master node pietdev were:
-rwxr-xr-x 1 piet piet     1684 mei 21 17:23 /home/piet/scr/glucose-6-phosphate_fukui_neu.F05*
-rw-r--r-- 1 piet piet 49152000 mei 21 17:24 /home/piet/scr/glucose-6-phosphate_fukui_neu.F10
ls: No match.
ls: No match.
ls: No match.
do 21 mei 2020 17:24:02 CEST
0.122u 0.030s 0:11.78 1.2%	0+0k 0+8io 0pf+0w
