----- GAMESS execution script 'rungms' -----
This job is running on host pietdev
under operating system Linux at do 21 mei 2020 17:23:51 CEST
Available scratch disk space (Kbyte units) at beginning of the job is
Filesystem     1K-blocks     Used Available Use% Mounted on
/dev/sda2      244568380 30771628 201303696  14% /
GAMESS temporary binary files will be written to /home/piet/scr
GAMESS supplementary output files will be written to /home/piet/gamess/scr
Copying input file glucose-6-phosphate_fukui_acid.inp to your run's scratch directory...
cp glucose-6-phosphate_fukui_acid.inp /home/piet/scr/glucose-6-phosphate_fukui_acid.F05
unset echo
 
Assuming a single but multicore node.
 
/home/piet/gamess/ddikick.x /home/piet/gamess/gamess.03.x glucose-6-phosphate_fukui_acid -ddi 1 8 pietdev:cpus=8 -scr /home/piet/scr

 Distributed Data Interface kickoff program.
 Initiating 8 compute processes on 1 nodes to run the following command:
 /home/piet/gamess/gamess.03.x glucose-6-phosphate_fukui_acid 

          ******************************************************
          *         GAMESS VERSION = 30 SEP 2019 (R2)          *
          *             FROM IOWA STATE UNIVERSITY             *
          * M.W.SCHMIDT, K.K.BALDRIDGE, J.A.BOATZ, S.T.ELBERT, *
          *   M.S.GORDON, J.H.JENSEN, S.KOSEKI, N.MATSUNAGA,   *
          *          K.A.NGUYEN, S.J.SU, T.L.WINDUS,           *
          *       TOGETHER WITH M.DUPUIS, J.A.MONTGOMERY       *
          *         J.COMPUT.CHEM.  14, 1347-1363(1993)        *
          **************** 64 BIT LINUX VERSION ****************

  SINCE 1993, STUDENTS AND POSTDOCS WORKING AT IOWA STATE UNIVERSITY
  AND ALSO IN THEIR VARIOUS JOBS AFTER LEAVING ISU HAVE MADE IMPORTANT
  CONTRIBUTIONS TO THE CODE:
     IVANA ADAMOVIC, CHRISTINE AIKENS, YURI ALEXEEV, POOJA ARORA,
     ANDREY ASADCHEV, ROB BELL, PRADIPTA BANDYOPADHYAY, JONATHAN BENTZ,
     COLLEEN BERTONI, BRETT BODE, KURT BRORSEN, CALEB CARLIN, GALINA CHABAN,
     WEI CHEN, CHEOL HO CHOI, PAUL DAY, ALBERT DEFUSCO, NUWAN DESILVA,
     TIM DUDLEY, DMITRI FEDOROV, ALEX FINDLATER, GRAHAM FLETCHER, 
     MARK FREITAG, KURT GLAESEMANN, EMILIE B GUIDEZ, ANASTASIA GUNINA, 
     DAN KEMP, SAROM SOK LEANG, GRANT MERRILL,
     NORIYUKI MINEZAWA, JONATHAN MULLIN,
     TAKESHI NAGATA, SEAN NEDD, HEATHER NETZLOFF, BOSILJKA NJEGIC, RYAN OLSON,
     MIKE PAK, BUU PHAM, DAVID POOLE,
     SPENCER PRUITT, LUKE ROSKOP, TOSAPORN SATTASATHUCHANA,
     JIM SHOEMAKER, LYUDMILA SLIPCHENKO,
     TONY SMITH, JIE SONG, TETSUYA TAKETSUGU, SIMON WEBB,
     JORGE LUIS GALVEZ VALLEJO, PENG XU, SOOHAENG YOO,
     FEDERICO ZAHARIEV

  ADDITIONAL CODE HAS BEEN PROVIDED BY COLLABORATORS IN OTHER GROUPS:
     IOWA STATE UNIVERSITY:
          JOE IVANIC, AARON WEST, LAIMUTIS BYTAUTAS, KLAUS RUEDENBERG
     UNIVERSITY OF TOKYO: KIMIHIKO HIRAO, TAKAHITO NAKAJIMA,
          TAKAO TSUNEDA, MUNEAKI KAMIYA, SUSUMU YANAGISAWA,
          KIYOSHI YAGI, MAHITO CHIBA, SEIKEN TOKURA, NAOAKI KAWAKAMI
     UNIVERSITY OF AARHUS: FRANK JENSEN
     UNIVERSITY OF IOWA: VISVALDAS KAIRYS, HUI LI
     NATIONAL INST. OF STANDARDS AND TECHNOLOGY: WALT STEVENS, DAVID GARMER
     UNIVERSITY OF PISA: BENEDETTA MENNUCCI, JACOPO TOMASI
     UNIVERSITY OF MEMPHIS: HENRY KURTZ, PRAKASHAN KORAMBATH
     UNIVERSITY OF ALBERTA: TOBY ZENG, MARIUSZ KLOBUKOWSKI
     UNIVERSITY OF NEW ENGLAND: MARK SPACKMAN
     MIE UNIVERSITY: HIROAKI UMEDA
     NAT. INST. OF ADVANCED INDUSTRIAL SCIENCE AND TECHNOLOGY: KAZUO KITAURA
     MICHIGAN STATE UNIVERSITY:
          KAROL KOWALSKI, MARTA WLOCH, JEFFREY GOUR, JESSE LUTZ,
          WEI LI, JUN SHEN, J. EMILIANO DEUSTUA, PIOTR PIECUCH
     UNIVERSITY OF MINNESOTA:
          ANDREW SAND, PRACHI SHARMA, YINAN SHU
     UNIVERSITY OF SILESIA: MONIKA MUSIAL, STANISLAW KUCHARSKI
     FACULTES UNIVERSITAIRES NOTRE-DAME DE LA PAIX:
          OLIVIER QUINET, BENOIT CHAMPAGNE
     UNIVERSITY OF CALIFORNIA - SANTA BARBARA: BERNARD KIRTMAN
     INSTITUTE FOR MOLECULAR SCIENCE:
          KAZUYA ISHIMURA, MICHIO KATOUDA, AND SHIGERU NAGASE
     UNIVERSITY OF NOTRE DAME: ANNA POMOGAEVA, DAN CHIPMAN
     KYUSHU UNIVERSITY:
          HARUYUKI NAKANO,
          FENG LONG GU, JACEK KORCHOWIEC, MARCIN MAKOWSKI, AND YURIKO AOKI,
          HIROTOSHI MORI AND EISAKU MIYOSHI
     PENNSYLVANIA STATE UNIVERSITY:
          TZVETELIN IORDANOV, CHET SWALINA, JONATHAN SKONE,
          SHARON HAMMES-SCHIFFER
     WASEDA UNIVERSITY:
          MASATO KOBAYASHI, TOMOKO AKAMA, TSUGUKI TOUMA,
          TAKESHI YOSHIKAWA, YASUHIRO IKABATA, JUNJI SEINO,
          YUYA NAKAJIMA, HIROMI NAKAI
     NANJING UNIVERSITY: SHUHUA LI
     UNIVERSITY OF NEBRASKA:
          PEIFENG SU, DEJUN SI, NANDUN THELLAMUREGE, YALI WANG, HUI LI
     UNIVERSITY OF ZURICH: ROBERTO PEVERATI, KIM BALDRIDGE
     N. COPERNICUS UNIVERSITY AND JACKSON STATE UNIVERSITY:
          MARIA BARYSZ
     UNIVERSITY OF COPENHAGEN: Jimmy Kromann, CASPER STEINMANN
     TOKYO INSTITUTE OF TECHNOLOGY: HIROYA NAKATA
     NAGOYA UNIVERSITY: YOSHIO NISHIMOTO, STEPHAN IRLE
     MOSCOW STATE UNIVERSITY: VLADIMIR MIRONOV
     A.N.NESMEYANOV INSTITUTE OF ORGANOELEMENT COMPOUNDS OF RUSSIAN ACADEMY OF SCIENCES:
          IGOR S. GERASIMOV
     JOHANNES KEPLER UNIVERSITY LINZ:
          CHRISTIAN FRIEDL


 PARALLEL VERSION RUNNING ON        8 PROCESSORS IN        1 NODES.

 EXECUTION OF GAMESS BEGUN Thu May 21 17:23:51 2020

            ECHO OF THE FIRST FEW INPUT CARDS -
 INPUT CARD> $BASIS GBASIS=N21 NGAUSS=3 $END                                                
 INPUT CARD> $CONTRL SCFTYP=UHF MAXIT=60 MULT=2 ICHARG=-1 $END                              
 INPUT CARD> $SYSTEM MEMDDI=1000 MWORDS=30 $END                                             
 INPUT CARD> $SCF DIRSCF=.TRUE. $END                                                        
 INPUT CARD> $STATPT OPTTOL=0.0001 NSTEP=999 $END                                           
 INPUT CARD> $DATA                                                                          
 INPUT CARD>                                                                                
 INPUT CARD>C1                                                                              
 INPUT CARD>P 15.0000000 -3.8843191121 -0.2071821315 -0.3395519812                          
 INPUT CARD>O 8.0000000 -4.6567007344 -0.6206711105 -1.6160212724                           
 INPUT CARD>O 8.0000000 -3.7416216026 1.4175199955 0.0122508866                             
 INPUT CARD>O 8.0000000 -4.5769279714 -0.6717879640 1.1119530030                            
 INPUT CARD>O 8.0000000 -2.3073711758 -0.7287487979 -0.2124046376                           
 INPUT CARD>C 6.0000000 -1.1971159443 0.1725926591 -0.6496612381                            
 INPUT CARD>C 6.0000000 0.0201214321 -0.3942639998 0.0566527134                             
 INPUT CARD>H 1.0000000 -0.0835449313 -0.2443488511 1.1393399271                            
 INPUT CARD>C 6.0000000 1.2937448572 0.2962091118 -0.4207064092                             
 INPUT CARD>H 1.0000000 1.4328463464 0.0699850931 -1.4823848266                             
 INPUT CARD>C 6.0000000 2.4923024969 -0.1777010449 0.4077278172                             
 INPUT CARD>H 1.0000000 2.5012343029 -1.2692020345 0.4912407929                             
 INPUT CARD>C 6.0000000 3.8210158870 0.4001208261 -0.1698651989                             
 INPUT CARD>H 1.0000000 3.5738580436 1.3619774649 -0.6338482954                             
 INPUT CARD>C 6.0000000 4.4565554885 -0.5649066342 -1.1375901666                            
 INPUT CARD>O 8.0000000 5.5343712601 -1.1074430231 -0.8629527284                            
 INPUT CARD>O 8.0000000 4.7339461737 0.6030079654 0.9485278095                              
 INPUT CARD>O 8.0000000 2.3190347740 0.4738413019 1.7074963820                              
 INPUT CARD>O 8.0000000 1.1917777180 1.7383080221 -0.2552904391                             
 INPUT CARD>O 8.0000000 0.1909838662 -1.7987965636 -0.2879637021                            
 INPUT CARD>H 1.0000000 -4.3498194275 1.6759883086 0.7568638075                             
 INPUT CARD>H 1.0000000 -5.0618783282 -1.5378444056 1.0887237949                            
 INPUT CARD>H 1.0000000 -1.0848949673 0.0857131341 -1.7346272734                            
 INPUT CARD>H 1.0000000 -1.3920960447 1.2019609671 -0.3559077561                            
 INPUT CARD>H 1.0000000 3.9013033494 -0.7736778495 -2.0624903417                            
 INPUT CARD>H 1.0000000 5.4591336247 -0.0809821070 0.8046252732                             
 INPUT CARD>H 1.0000000 3.2729907931 0.6225289943 2.0076726247                              
 INPUT CARD>H 1.0000000 1.4591475113 1.8365650677 0.7136225472                              
 INPUT CARD>H 1.0000000 -0.7153776856 -2.2019625945 -0.1854311119                           
 INPUT CARD> $END                                                                           
   30000000 WORDS OF MEMORY AVAILABLE

     BASIS OPTIONS
     -------------
     GBASIS=N21          IGAUSS=       3      POLAR=NONE    
     NDFUNC=       0     NFFUNC=       0     DIFFSP=       F
     NPFUNC=       0      DIFFS=       F     BASNAM=        


     RUN TITLE
     ---------
                                                                                 

 THE POINT GROUP OF THE MOLECULE IS C1      
 THE ORDER OF THE PRINCIPAL AXIS IS     0

 ATOM      ATOMIC                      COORDINATES (BOHR)
           CHARGE         X                   Y                   Z
 P          15.0    -7.3402987707       -0.3915174581       -0.6416602031
 O           8.0    -8.7998883948       -1.1728983273       -3.0538373952
 O           8.0    -7.0706395787        2.6787243736        0.0231508188
 O           8.0    -8.6491397315       -1.2694951738        2.1012864869
 O           8.0    -4.3602992742       -1.3771355419       -0.4013865636
 C           6.0    -2.2622211103        0.3261528332       -1.2276817249
 C           6.0     0.0380239931       -0.7450509264        0.1070581048
 H           1.0    -0.1578770278       -0.4617523740        2.1530402691
 C           6.0     2.4448232781        0.5597540564       -0.7950198347
 H           1.0     2.7076869772        0.1322526492       -2.8013011306
 C           6.0     4.7097687977       -0.3358062826        0.7704938521
 H           1.0     4.7266474636       -2.3984440683        0.9283104926
 C           6.0     7.2206730212        0.7561187233       -0.3209986808
 H           1.0     6.7536124214        2.5737642101       -1.1977995961
 C           6.0     8.4216687223       -1.0675187473       -2.1497337012
 O           8.0    10.4584451959       -2.0927638607       -1.6307441970
 O           8.0     8.9458611089        1.1395198230        1.7924576517
 O           8.0     4.3823402789        0.8954302223        3.2267002870
 O           8.0     2.2521333253        3.2849258440       -0.4824289772
 O           8.0     0.3609071752       -3.3992326129       -0.5441724914
 H           1.0    -8.2199668140        3.1671586619        1.4302652062
 H           1.0    -9.5655630235       -2.9061045383        2.0573896487
 H           1.0    -2.0501542137        0.1619743370       -3.2779702376
 H           1.0    -2.6306800731        2.2713768758       -0.6725681359
 H           1.0     7.3723943253       -1.4620391383       -3.8975415981
 H           1.0    10.3162666810       -0.1530339921        1.5205212891
 H           1.0     6.1850557593        1.1764092186        3.7939511337
 H           1.0     2.7573889720        3.4706047366        1.3485510729
 H           1.0    -1.3518678035       -4.1611059388       -0.3504139911

          INTERNUCLEAR DISTANCES (ANGS.)
          ------------------------------

                1 P          2 O          3 O          4 O          5 O     

   1 P       0.0000000    1.5481991 *  1.6684678 *  1.6740467 *  1.6658220 *
   2 O       1.5481991 *  0.0000000    2.7645728 *  2.7296191 *  2.7388264 *
   3 O       1.6684678 *  2.7645728 *  0.0000000    2.5044539 *  2.5911415 *
   4 O       1.6740467 *  2.7296191 *  2.5044539 *  0.0000000    2.6283180 *
   5 O       1.6658220 *  2.7388264 *  2.5911415 *  2.6283180 *  0.0000000  
   6 C       2.7315669 *  3.6785658    2.9090343 *  3.9037665    1.4954185 *
   7 C       3.9289482    4.9720986    4.1755531    4.7247795    2.3667475 *
   8 H       4.0785276    5.3523255    4.1729681    4.5137507    2.6471229 *
   9 C       5.2031082    6.1381797    5.1768432    6.1441731    3.7499287  
  10 H       5.4456530    6.1300447    5.5520181    6.5877313    4.0298949  
  11 C       6.4203270    7.4431196    6.4469327    7.1213815    4.8708403  
  12 H       6.5263616    7.4898051    6.8133073    7.1303975    4.8897744  
  13 C       7.7310929    8.6605463    7.6329387    8.5625643    6.2316358  
  14 H       7.6271409    8.5227728    7.3441658    8.5801711    6.2560058  
  15 C       8.3865977    9.1259764    8.5124766    9.3099781    6.8288737  
  16 O       9.4760829   10.2304451    9.6532618   10.3115673    7.8777882  
  17 O       8.7515744    9.8111443    8.5659380    9.3991590    7.2595792  
  18 O       6.5677850    7.8041408    6.3636422    7.0157993    5.1512984  
  19 O       5.4367997    6.4514395    4.9510516    6.3996783    4.2816179  
  20 O       4.3753848    5.1625345    5.0892246    5.0953801    2.7189133 *
  21 H       2.2282614 *  3.3165350    0.9955696 *  2.3853134 *  3.3005813  
  22 H       2.2797543 *  2.8846181 *  3.4111656    0.9928596 *  3.1519646  
  23 H       3.1414643    3.6429168    3.4472437    4.5684923    2.1154097 *
  24 H       2.8630626 *  3.9455694    2.3879441 *  3.9760162    2.1414859 *
  25 H       7.9940823    8.5710081    8.2170677    9.0536113    6.4786168  
  26 H       9.4140946   10.4154164    9.3556006   10.0581327    7.8595514  
  27 H       7.5779264    8.8066288    7.3361097    8.0061723    6.1559024  
  28 H       5.8171054    6.9906258    5.2645532    6.5486418    4.6502715  
  29 H       3.7476782    4.4811939    4.7220636    4.3515756    2.1692233 *

                6 C          7 C          8 H          9 C         10 H     

   1 P       2.7315669 *  3.9289482    4.0785276    5.2031082    5.4456530  
   2 O       3.6785658    4.9720986    5.3523255    6.1381797    6.1300447  
   3 O       2.9090343 *  4.1755531    4.1729681    5.1768432    5.5520181  
   4 O       3.9037665    4.7247795    4.5137507    6.1441731    6.5877313  
   5 O       1.4954185 *  2.3667475 *  2.6471229 *  3.7499287    4.0298949  
   6 C       0.0000000    1.5171924 *  2.1481168 *  2.5044139 *  2.7605540 *
   7 C       1.5171924 *  0.0000000    1.0979221 *  1.5253660 *  2.1400830 *
   8 H       2.1481168 *  1.0979221 *  0.0000000    2.1500871 *  3.0449448  
   9 C       2.5044139 *  1.5253660 *  2.1500871 *  0.0000000    1.0943891 *
  10 H       2.7605540 *  2.1400830 *  3.0449448    1.0943891 *  0.0000000  
  11 C       3.8539053    2.5063584 *  2.6785608 *  1.5321340 *  2.1808993 *
  12 H       4.1301603    2.6665154 *  2.8550727 *  2.1771979 *  2.6134408 *
  13 C       5.0461491    3.8896216    4.1683275    2.5418139 *  2.7450048 *
  14 H       4.9170193    4.0237072    4.3704779    2.5259073 *  2.6406798 *
  15 C       5.7224104    4.5975300    5.0891728    3.3554156    3.1088242  
  16 O       6.8554288    5.6357120    6.0262003    4.4887341    4.3119067  
  17 O       6.1576752    4.9000139    4.8951653    3.7153618    4.1340912  
  18 O       4.2438495    2.9603875 *  2.5711842 *  2.3689702 *  3.3352319  
  19 O       2.8833671 *  2.4531511 *  2.7390455 *  1.4551320 *  2.0849883 *
  20 O       2.4380364 *  1.4562507 *  2.1281140 *  2.3712341 *  2.5418909 *
  21 H       3.7653752    4.8859619    4.6941539    5.9279238    6.4056775  
  22 H       4.5698978    5.3103360    5.1438795    6.7849892    7.1677865  
  23 H       1.0942088 *  2.1587319 *  3.0612629    2.7255502 *  2.5303942 *
  24 H       1.0880751 *  2.1708290 *  2.4576175 *  2.8351943 *  3.2450916  
  25 H       5.3745133    4.4382762    5.1391558    3.2618206    2.6723715 *
  26 H       6.8179841    5.4991329    5.5551785    4.3582307    4.6329467  
  27 H       5.2197433    3.9270225    3.5737671    3.1497498    3.9839600  
  28 H       3.4180524    2.7347767 *  2.6251358 *  1.9200929 *  2.8185005 *
  29 H       2.4670010 *  1.9665548 *  2.4467289 *  3.2144657    3.3850704  

               11 C         12 H         13 C         14 H         15 C     

   1 P       6.4203270    6.5263616    7.7310929    7.6271409    8.3865977  
   2 O       7.4431196    7.4898051    8.6605463    8.5227728    9.1259764  
   3 O       6.4469327    6.8133073    7.6329387    7.3441658    8.5124766  
   4 O       7.1213815    7.1303975    8.5625643    8.5801711    9.3099781  
   5 O       4.8708403    4.8897744    6.2316358    6.2560058    6.8288737  
   6 C       3.8539053    4.1301603    5.0461491    4.9170193    5.7224104  
   7 C       2.5063584 *  2.6665154 *  3.8896216    4.0237072    4.5975300  
   8 H       2.6785608 *  2.8550727 *  4.1683275    4.3704779    5.0891728  
   9 C       1.5321340 *  2.1771979 *  2.5418139 *  2.5259073 *  3.3554156  
  10 H       2.1808993 *  2.6134408 *  2.7450048 *  2.6406798 *  3.1088242  
  11 C       0.0000000    1.0947276 *  1.5597984 *  2.1506402 *  2.5290760 *
  12 H       1.0947276 *  0.0000000    2.2283454 *  3.0560518    2.6405309 *
  13 C       1.5597984 *  2.2283454 *  0.0000000    1.0961458 *  1.5072094 *
  14 H       2.1506402 *  3.0560518    1.0961458 *  0.0000000    2.1784841 *
  15 C       2.5290760 *  2.6405309 *  1.5072094 *  2.1784841 *  0.0000000  
  16 O       3.4253805    3.3256467    2.3851008 *  3.1613507    1.2375210 *
  17 O       2.4345303 *  2.9494549 *  1.4578778 *  2.1037474 *  2.4068357 *
  18 O       1.4642156 *  2.1332310 *  2.4053832 *  2.8009395 *  3.7070891  
  19 O       2.4087442 *  3.3640901    2.9514294 *  2.4411549 *  4.0917019  
  20 O       2.8996560 *  2.4949724 *  4.2457411    4.6426249    4.5210011  
  21 H       7.0973722    7.4620131    8.3216113    8.0509222    9.2823922  
  22 H       7.7058026    7.5914312    9.1785383    9.2710390    9.8236278  
  23 H       4.1779677    4.4329005    5.1590012    4.9542451    5.6113664  
  24 H       4.1922737    4.6885316    5.2776979    4.9762995    6.1595108  
  25 H       2.9055894 *  2.9541971 *  2.2285151 *  2.5902243 *  1.0987860 *
  26 H       2.9948237 *  3.2030056    1.9658386 *  2.7758967 *  2.2386484 *
  27 H       1.9518365 *  2.5443702 *  2.2564281 *  2.7595177 *  3.5641979  
  28 H       2.2843487 *  3.2834719    2.9021276 *  2.5520407 *  4.2636263  
  29 H       3.8390994    3.4167996    5.2297177    5.5946662    5.5077629  

               16 O         17 O         18 O         19 O         20 O     

   1 P       9.4760829    8.7515744    6.5677850    5.4367997    4.3753848  
   2 O      10.2304451    9.8111443    7.8041408    6.4514395    5.1625345  
   3 O       9.6532618    8.5659380    6.3636422    4.9510516    5.0892246  
   4 O      10.3115673    9.3991590    7.0157993    6.3996783    5.0953801  
   5 O       7.8777882    7.2595792    5.1512984    4.2816179    2.7189133 *
   6 C       6.8554288    6.1576752    4.2438495    2.8833671 *  2.4380364 *
   7 C       5.6357120    4.9000139    2.9603875 *  2.4531511 *  1.4562507 *
   8 H       6.0262003    4.8951653    2.5711842 *  2.7390455 *  2.1281140 *
   9 C       4.4887341    3.7153618    2.3689702 *  1.4551320 *  2.3712341 *
  10 H       4.3119067    4.1340912    3.3352319    2.0849883 *  2.5418909 *
  11 C       3.4253805    2.4345303 *  1.4642156 *  2.4087442 *  2.8996560 *
  12 H       3.3256467    2.9494549 *  2.1332310 *  3.3640901    2.4949724 *
  13 C       2.3851008 *  1.4578778 *  2.4053832 *  2.9514294 *  4.2457411  
  14 H       3.1613507    2.1037474 *  2.8009395 *  2.4411549 *  4.6426249  
  15 C       1.2375210 *  2.4068357 *  3.7070891    4.0917019    4.5210011  
  16 O       0.0000000    2.6168272 *  4.4097684    5.2273962    5.4185211  
  17 O       2.6168272 *  0.0000000    2.5346626 *  3.9096089    5.2854596  
  18 O       4.4097684    2.5346626 *  0.0000000    2.5927045 *  3.6980190  
  19 O       5.2273962    3.9096089    2.5927045 *  0.0000000    3.6761073  
  20 O       5.4185211    5.2854596    3.6980190    3.6761073    0.0000000  
  21 H      10.3956010    9.1489245    6.8426951    5.6336169    5.8124598  
  22 H      10.7830790   10.0280148    7.6751311    7.1866378    5.4365362  
  23 H       6.7821916    6.4285167    4.8565004    3.1784817    2.6966793 *
  24 H       7.3189064    6.2919544    4.3081651    2.6408702 *  3.3934207  
  25 H       2.0535824 *  3.4139110    4.2746553    4.1130978    4.2386653  
  26 H       1.9596171 *  1.0071977 *  3.3140951    4.7585254    5.6478349  
  27 H       4.0431590    1.8045940 *  1.0110618 *  3.2706899    4.5421944  
  28 H       5.2687970    3.5072995    1.8932003 *  1.0099175 *  3.9783499  
  29 H       6.3809381    6.2328848    4.4666274    4.3781108    0.9972698 *

               21 H         22 H         23 H         24 H         25 H     

   1 P       2.2282614 *  2.2797543 *  3.1414643    2.8630626 *  7.9940823  
   2 O       3.3165350    2.8846181 *  3.6429168    3.9455694    8.5710081  
   3 O       0.9955696 *  3.4111656    3.4472437    2.3879441 *  8.2170677  
   4 O       2.3853134 *  0.9928596 *  4.5684923    3.9760162    9.0536113  
   5 O       3.3005813    3.1519646    2.1154097 *  2.1414859 *  6.4786168  
   6 C       3.7653752    4.5698978    1.0942088 *  1.0880751 *  5.3745133  
   7 C       4.8859619    5.3103360    2.1587319 *  2.1708290 *  4.4382762  
   8 H       4.6941539    5.1438795    3.0612629    2.4576175 *  5.1391558  
   9 C       5.9279238    6.7849892    2.7255502 *  2.8351943 *  3.2618206  
  10 H       6.4056775    7.1677865    2.5303942 *  3.2450916    2.6723715 *
  11 C       7.0973722    7.7058026    4.1779677    4.1922737    2.9055894 *
  12 H       7.4620131    7.5914312    4.4329005    4.6885316    2.9541971 *
  13 C       8.3216113    9.1785383    5.1590012    5.2776979    2.2285151 *
  14 H       8.0509222    9.2710390    4.9542451    4.9762995    2.5902243 *
  15 C       9.2823922    9.8236278    5.6113664    6.1595108    1.0987860 *
  16 O      10.3956010   10.7830790    6.7821916    7.3189064    2.0535824 *
  17 O       9.1489245   10.0280148    6.4285167    6.2919544    3.4139110  
  18 O       6.8426951    7.6751311    4.8565004    4.3081651    4.2746553  
  19 O       5.6336169    7.1866378    3.1784817    2.6408702 *  4.1130978  
  20 O       5.8124598    5.4365362    2.6966793 *  3.3934207    4.2386653  
  21 H       0.0000000    3.3084558    4.4041157    3.1954796    9.0570773  
  22 H       3.3084558    0.0000000    5.1403937    4.8021657    9.5316697  
  23 H       4.4041157    5.1403937    0.0000000    1.8003470 *  5.0703275  
  24 H       3.1954796    4.8021657    1.8003470 *  0.0000000    5.9021733  
  25 H       9.0570773    9.5316697    5.0703275    5.9021733    0.0000000  
  26 H       9.9651787   10.6251989    7.0213888    7.0662669    3.3357180  
  27 H       7.7962513    8.6591988    5.7692416    5.2616812    4.3486086  
  28 H       5.8113468    7.3519466    3.9410103    3.1106603    4.5259580  
  29 H       5.3977393    4.5778370    2.7874741 *  3.4747238    5.1843121  

               26 H         27 H         28 H         29 H     

   1 P       9.4140946    7.5779264    5.8171054    3.7476782  
   2 O      10.4154164    8.8066288    6.9906258    4.4811939  
   3 O       9.3556006    7.3361097    5.2645532    4.7220636  
   4 O      10.0581327    8.0061723    6.5486418    4.3515756  
   5 O       7.8595514    6.1559024    4.6502715    2.1692233 *
   6 C       6.8179841    5.2197433    3.4180524    2.4670010 *
   7 C       5.4991329    3.9270225    2.7347767 *  1.9665548 *
   8 H       5.5551785    3.5737671    2.6251358 *  2.4467289 *
   9 C       4.3582307    3.1497498    1.9200929 *  3.2144657  
  10 H       4.6329467    3.9839600    2.8185005 *  3.3850704  
  11 C       2.9948237 *  1.9518365 *  2.2843487 *  3.8390994  
  12 H       3.2030056    2.5443702 *  3.2834719    3.4167996  
  13 C       1.9658386 *  2.2564281 *  2.9021276 *  5.2297177  
  14 H       2.7758967 *  2.7595177 *  2.5520407 *  5.5946662  
  15 C       2.2386484 *  3.5641979    4.2636263    5.5077629  
  16 O       1.9596171 *  4.0431590    5.2687970    6.3809381  
  17 O       1.0071977 *  1.8045940 *  3.5072995    6.2328848  
  18 O       3.3140951    1.0110618 *  1.8932003 *  4.4666274  
  19 O       4.7585254    3.2706899    1.0099175 *  4.3781108  
  20 O       5.6478349    4.5421944    3.9783499    0.9972698 *
  21 H       9.9651787    7.7962513    5.8113468    5.3977393  
  22 H      10.6251989    8.6591988    7.3519466    4.5778370  
  23 H       7.0213888    5.7692416    3.9410103    2.7874741 *
  24 H       7.0662669    5.2616812    3.1106603    3.4747238  
  25 H       3.3357180    4.3486086    4.5259580    5.1843121  
  26 H       0.0000000    2.5925800 *  4.4367959    6.6032840  
  27 H       2.5925800 *  0.0000000    2.5374153 *  5.3567285  
  28 H       4.4367959    2.5374153 *  0.0000000    4.6740307  
  29 H       6.6032840    5.3567285    4.6740307    0.0000000  

  * ... LESS THAN  3.000


     ATOMIC BASIS SET
     ----------------
 THE CONTRACTED PRIMITIVE FUNCTIONS HAVE BEEN UNNORMALIZED
 THE CONTRACTED BASIS FUNCTIONS ARE NOW NORMALIZED TO UNITY

  SHELL TYPE  PRIMITIVE        EXPONENT          CONTRACTION COEFFICIENT(S)

 P         

      1   S       1          1054.9000000    0.065540713549
      1   S       2           159.1950000    0.384036079392
      1   S       3            34.5304000    0.674541139449

      2   L       4            44.2866000   -0.102130053458    0.110851002536
      2   L       5            10.1019000    0.081592242708    0.456495010442
      2   L       6             2.7399700    0.969788507613    0.606936013883

      3   L       7             1.2186500   -0.371496021877    0.091582310217
      3   L       8             0.3955460    1.270993496131    0.934924104303

      4   L       9             0.1228110    1.000000000000    1.000000000000

 O         

      5   S      10           322.0370000    0.059239393389
      5   S      11            48.4308000    0.351499960776
      5   S      12            10.4206000    0.707657921031

      6   L      13             7.4029400   -0.404453583190    0.244586106967
      6   L      14             1.5762000    1.221561761397    0.853955373466

      7   L      15             0.3736840    1.000000000000    1.000000000000

 O         

      8   S      16           322.0370000    0.059239393389
      8   S      17            48.4308000    0.351499960776
      8   S      18            10.4206000    0.707657921031

      9   L      19             7.4029400   -0.404453583190    0.244586106967
      9   L      20             1.5762000    1.221561761397    0.853955373466

     10   L      21             0.3736840    1.000000000000    1.000000000000

 O         

     11   S      22           322.0370000    0.059239393389
     11   S      23            48.4308000    0.351499960776
     11   S      24            10.4206000    0.707657921031

     12   L      25             7.4029400   -0.404453583190    0.244586106967
     12   L      26             1.5762000    1.221561761397    0.853955373466

     13   L      27             0.3736840    1.000000000000    1.000000000000

 O         

     14   S      28           322.0370000    0.059239393389
     14   S      29            48.4308000    0.351499960776
     14   S      30            10.4206000    0.707657921031

     15   L      31             7.4029400   -0.404453583190    0.244586106967
     15   L      32             1.5762000    1.221561761397    0.853955373466

     16   L      33             0.3736840    1.000000000000    1.000000000000

 C         

     17   S      34           172.2560000    0.061766907377
     17   S      35            25.9109000    0.358794042852
     17   S      36             5.5333500    0.700713083689

     18   L      37             3.6649800   -0.395895162119    0.236459946619
     18   L      38             0.7705450    1.215834355681    0.860618805716

     19   L      39             0.1958570    1.000000000000    1.000000000000

 C         

     20   S      40           172.2560000    0.061766907377
     20   S      41            25.9109000    0.358794042852
     20   S      42             5.5333500    0.700713083689

     21   L      43             3.6649800   -0.395895162119    0.236459946619
     21   L      44             0.7705450    1.215834355681    0.860618805716

     22   L      45             0.1958570    1.000000000000    1.000000000000

 H         

     23   S      46             5.4471780    0.156284978695
     23   S      47             0.8245472    0.904690876670

     24   S      48             0.1831916    1.000000000000

 C         

     25   S      49           172.2560000    0.061766907377
     25   S      50            25.9109000    0.358794042852
     25   S      51             5.5333500    0.700713083689

     26   L      52             3.6649800   -0.395895162119    0.236459946619
     26   L      53             0.7705450    1.215834355681    0.860618805716

     27   L      54             0.1958570    1.000000000000    1.000000000000

 H         

     28   S      55             5.4471780    0.156284978695
     28   S      56             0.8245472    0.904690876670

     29   S      57             0.1831916    1.000000000000

 C         

     30   S      58           172.2560000    0.061766907377
     30   S      59            25.9109000    0.358794042852
     30   S      60             5.5333500    0.700713083689

     31   L      61             3.6649800   -0.395895162119    0.236459946619
     31   L      62             0.7705450    1.215834355681    0.860618805716

     32   L      63             0.1958570    1.000000000000    1.000000000000

 H         

     33   S      64             5.4471780    0.156284978695
     33   S      65             0.8245472    0.904690876670

     34   S      66             0.1831916    1.000000000000

 C         

     35   S      67           172.2560000    0.061766907377
     35   S      68            25.9109000    0.358794042852
     35   S      69             5.5333500    0.700713083689

     36   L      70             3.6649800   -0.395895162119    0.236459946619
     36   L      71             0.7705450    1.215834355681    0.860618805716

     37   L      72             0.1958570    1.000000000000    1.000000000000

 H         

     38   S      73             5.4471780    0.156284978695
     38   S      74             0.8245472    0.904690876670

     39   S      75             0.1831916    1.000000000000

 C         

     40   S      76           172.2560000    0.061766907377
     40   S      77            25.9109000    0.358794042852
     40   S      78             5.5333500    0.700713083689

     41   L      79             3.6649800   -0.395895162119    0.236459946619
     41   L      80             0.7705450    1.215834355681    0.860618805716

     42   L      81             0.1958570    1.000000000000    1.000000000000

 O         

     43   S      82           322.0370000    0.059239393389
     43   S      83            48.4308000    0.351499960776
     43   S      84            10.4206000    0.707657921031

     44   L      85             7.4029400   -0.404453583190    0.244586106967
     44   L      86             1.5762000    1.221561761397    0.853955373466

     45   L      87             0.3736840    1.000000000000    1.000000000000

 O         

     46   S      88           322.0370000    0.059239393389
     46   S      89            48.4308000    0.351499960776
     46   S      90            10.4206000    0.707657921031

     47   L      91             7.4029400   -0.404453583190    0.244586106967
     47   L      92             1.5762000    1.221561761397    0.853955373466

     48   L      93             0.3736840    1.000000000000    1.000000000000

 O         

     49   S      94           322.0370000    0.059239393389
     49   S      95            48.4308000    0.351499960776
     49   S      96            10.4206000    0.707657921031

     50   L      97             7.4029400   -0.404453583190    0.244586106967
     50   L      98             1.5762000    1.221561761397    0.853955373466

     51   L      99             0.3736840    1.000000000000    1.000000000000

 O         

     52   S     100           322.0370000    0.059239393389
     52   S     101            48.4308000    0.351499960776
     52   S     102            10.4206000    0.707657921031

     53   L     103             7.4029400   -0.404453583190    0.244586106967
     53   L     104             1.5762000    1.221561761397    0.853955373466

     54   L     105             0.3736840    1.000000000000    1.000000000000

 O         

     55   S     106           322.0370000    0.059239393389
     55   S     107            48.4308000    0.351499960776
     55   S     108            10.4206000    0.707657921031

     56   L     109             7.4029400   -0.404453583190    0.244586106967
     56   L     110             1.5762000    1.221561761397    0.853955373466

     57   L     111             0.3736840    1.000000000000    1.000000000000

 H         

     58   S     112             5.4471780    0.156284978695
     58   S     113             0.8245472    0.904690876670

     59   S     114             0.1831916    1.000000000000

 H         

     60   S     115             5.4471780    0.156284978695
     60   S     116             0.8245472    0.904690876670

     61   S     117             0.1831916    1.000000000000

 H         

     62   S     118             5.4471780    0.156284978695
     62   S     119             0.8245472    0.904690876670

     63   S     120             0.1831916    1.000000000000

 H         

     64   S     121             5.4471780    0.156284978695
     64   S     122             0.8245472    0.904690876670

     65   S     123             0.1831916    1.000000000000

 H         

     66   S     124             5.4471780    0.156284978695
     66   S     125             0.8245472    0.904690876670

     67   S     126             0.1831916    1.000000000000

 H         

     68   S     127             5.4471780    0.156284978695
     68   S     128             0.8245472    0.904690876670

     69   S     129             0.1831916    1.000000000000

 H         

     70   S     130             5.4471780    0.156284978695
     70   S     131             0.8245472    0.904690876670

     71   S     132             0.1831916    1.000000000000

 H         

     72   S     133             5.4471780    0.156284978695
     72   S     134             0.8245472    0.904690876670

     73   S     135             0.1831916    1.000000000000

 H         

     74   S     136             5.4471780    0.156284978695
     74   S     137             0.8245472    0.904690876670

     75   S     138             0.1831916    1.000000000000

 TOTAL NUMBER OF BASIS SET SHELLS             =   75
 NUMBER OF CARTESIAN GAUSSIAN BASIS FUNCTIONS =  174
 NUMBER OF ELECTRONS                          =  137
 CHARGE OF MOLECULE                           =   -1
 SPIN MULTIPLICITY                            =    2
 NUMBER OF OCCUPIED ORBITALS (ALPHA)          =   69
 NUMBER OF OCCUPIED ORBITALS (BETA )          =   68
 TOTAL NUMBER OF ATOMS                        =   29
 THE NUCLEAR REPULSION ENERGY IS     1341.7803760088

     $CONTRL OPTIONS
     ---------------
 SCFTYP=UHF          RUNTYP=ENERGY       EXETYP=RUN     
 MPLEVL=       0     CITYP =NONE         CCTYP =NONE         VBTYP =NONE    
 DFTTYP=NONE         TDDFT =NONE    
 MULT  =       2     ICHARG=      -1     NZVAR =       0     COORD =UNIQUE  
 PP    =NONE         RELWFN=NONE         LOCAL =NONE         NUMGRD=       F
 ISPHER=      -1     NOSYM =       0     MAXIT =      60     UNITS =ANGS    
 PLTORB=       F     MOLPLT=       F     AIMPAC=       F     FRIEND=        
 NPRINT=       7     IREST =       0     GEOM  =INPUT   
 NORMF =       0     NORMP =       0     ITOL  =      20     ICUT  =       9
 INTTYP=BEST         GRDTYP=BEST         QMTTOL= 1.0E-06

     $SYSTEM OPTIONS
     ---------------
  REPLICATED MEMORY=    30000000 WORDS (ON EVERY NODE).
 DISTRIBUTED MEMDDI=        1000 MILLION WORDS IN AGGREGATE,
 MEMDDI DISTRIBUTED OVER   8 PROCESSORS IS   125000000 WORDS/PROCESSOR.
 TOTAL MEMORY REQUESTED ON EACH PROCESSOR=   155000000 WORDS.
 TIMLIM=      525600.00 MINUTES, OR     365.0 DAYS.
 PARALL= T  BALTYP=  DLB     KDIAG=    0  COREFL= F
 MXSEQ2=     300 MXSEQ3=     150  mem10=         0

          ----------------
          PROPERTIES INPUT
          ----------------

     MOMENTS            FIELD           POTENTIAL          DENSITY
 IEMOM =       1   IEFLD =       0   IEPOT =       0   IEDEN =       0
 WHERE =COMASS     WHERE =NUCLEI     WHERE =NUCLEI     WHERE =NUCLEI  
 OUTPUT=BOTH       OUTPUT=BOTH       OUTPUT=BOTH       OUTPUT=BOTH    
 IEMINT=       0   IEFINT=       0                     IEDINT=       0
                                                       MORB  =       0
          EXTRAPOLATION IN EFFECT
          SOSCF IN EFFECT
          DIIS or SOSCF will be reset if energy rises
 ORBITAL PRINTING OPTION: NPREO=     1   174     2     1

     -------------------------------
     INTEGRAL TRANSFORMATION OPTIONS
     -------------------------------
     NWORD  =            0
     CUTOFF = 1.0E-09     MPTRAN =       0
     DIRTRF =       T     AOINTS =DUP     

          ----------------------
          INTEGRAL INPUT OPTIONS
          ----------------------
 NOPK  =       1 NORDER=       0 SCHWRZ=       T

     ------------------------------------------
     THE POINT GROUP IS C1 , NAXIS= 0, ORDER= 1
     ------------------------------------------

     DIMENSIONS OF THE SYMMETRY SUBSPACES ARE
 A   =  174

 ..... DONE SETTING UP THE RUN .....
 CPU     0: STEP CPU TIME=     0.02 TOTAL CPU TIME=          0.0 (      0.0 MIN)
 TOTAL WALL CLOCK TIME=          0.0 SECONDS, CPU UTILIZATION IS    66.67%

          ********************
          1 ELECTRON INTEGRALS
          ********************
 ...... END OF ONE-ELECTRON INTEGRALS ......
 CPU     0: STEP CPU TIME=     0.01 TOTAL CPU TIME=          0.0 (      0.0 MIN)
 TOTAL WALL CLOCK TIME=          0.1 SECONDS, CPU UTILIZATION IS    60.00%

          -------------
          GUESS OPTIONS
          -------------
          GUESS =HUCKEL            NORB  =       0          NORDER=       0
          MIX   =       F          PRTMO =       F          PUNMO =       F
          TOLZ  = 1.0E-08          TOLE  = 1.0E-05
          SYMDEN=       F          PURIFY=       F

 INITIAL GUESS ORBITALS GENERATED BY HUCKEL   ROUTINE.
 HUCKEL GUESS REQUIRES    278994 WORDS.

 SYMMETRIES FOR INITIAL GUESS ORBITALS FOLLOW.  ALPHA SET(S).
    69 ORBITALS ARE OCCUPIED (   20 CORE ORBITALS).
    21=A       22=A       23=A       24=A       25=A       26=A       27=A   
    28=A       29=A       30=A       31=A       32=A       33=A       34=A   
    35=A       36=A       37=A       38=A       39=A       40=A       41=A   
    42=A       43=A       44=A       45=A       46=A       47=A       48=A   
    49=A       50=A       51=A       52=A       53=A       54=A       55=A   
    56=A       57=A       58=A       59=A       60=A       61=A       62=A   
    63=A       64=A       65=A       66=A       67=A       68=A       69=A   
    70=A       71=A       72=A       73=A       74=A       75=A       76=A   
    77=A       78=A       79=A   

 SYMMETRIES FOR INITIAL GUESS ORBITALS FOLLOW.   BETA SET(S).
    68 ORBITALS ARE OCCUPIED (   20 CORE ORBITALS).
    21=A       22=A       23=A       24=A       25=A       26=A       27=A   
    28=A       29=A       30=A       31=A       32=A       33=A       34=A   
    35=A       36=A       37=A       38=A       39=A       40=A       41=A   
    42=A       43=A       44=A       45=A       46=A       47=A       48=A   
    49=A       50=A       51=A       52=A       53=A       54=A       55=A   
    56=A       57=A       58=A       59=A       60=A       61=A       62=A   
    63=A       64=A       65=A       66=A       67=A       68=A       69=A   
    70=A       71=A       72=A       73=A       74=A       75=A       76=A   
    77=A       78=A   
 ...... END OF INITIAL ORBITAL SELECTION ......
 CPU     0: STEP CPU TIME=     0.07 TOTAL CPU TIME=          0.1 (      0.0 MIN)
 TOTAL WALL CLOCK TIME=          0.1 SECONDS, CPU UTILIZATION IS    66.67%

                    ----------------------
                    AO INTEGRAL TECHNOLOGY
                    ----------------------
     S,P,L SHELL ROTATED AXIS INTEGRALS, REPROGRAMMED BY
        KAZUYA ISHIMURA (IMS) AND JOSE SIERRA (SYNSTAR).
     S,P,D,L SHELL ROTATED AXIS INTEGRALS PROGRAMMED BY
        KAZUYA ISHIMURA (INSTITUTE FOR MOLECULAR SCIENCE).
     S,P,D,F,G SHELL TO TOTAL QUARTET ANGULAR MOMENTUM SUM 5,
        ERIC PROGRAM BY GRAHAM FLETCHER (ELORET AND NASA ADVANCED
        SUPERCOMPUTING DIVISION, AMES RESEARCH CENTER).
     S,P,D,F,G,L SHELL GENERAL RYS QUADRATURE PROGRAMMED BY
        MICHEL DUPUIS (PACIFIC NORTHWEST NATIONAL LABORATORY).

          --------------------
          2 ELECTRON INTEGRALS
          --------------------

 DIRECT SCF METHOD SKIPS INTEGRAL STORAGE ON DISK.
 DIRECT TRANSFORMATION SKIPS AO INTEGRAL STORAGE ON DISK.
  ...... END OF TWO-ELECTRON INTEGRALS .....
 CPU     0: STEP CPU TIME=     0.01 TOTAL CPU TIME=          0.1 (      0.0 MIN)
 TOTAL WALL CLOCK TIME=          0.2 SECONDS, CPU UTILIZATION IS    68.75%

          ---------------------------
                  UHF SCF CALCULATION
          ---------------------------

     NUCLEAR ENERGY =      1341.7803760088
     MAXIT = 60     NPUNCH=  2     MULT=  2
     EXTRAP=T  DAMP=F  SHIFT=F  RSTRCT=F  DIIS=F  SOSCF=T
     DENSITY MATRIX CONV=  2.00E-05
     SOSCF WILL OPTIMIZE    7245 ALPHA AND    7208 BETA ROTATION ANGLES.
     SOGTOL= 2.500E-01
     MEMORY REQUIRED FOR UHF/ROHF ITERS=    456771 WORDS.

 DIRECT SCF CALCULATION, SCHWRZ=T   FDIFF=T
 SCHWARZ INEQUALITY OVERHEAD:     11628 INTEGRALS, T=        0.00

                                                                                NONZERO     BLOCKS
 ITER EX      TOTAL ENERGY        E CHANGE  DENSITY CHANGE    ORB. GRAD       INTEGRALS    SKIPPED
   1  0    -1239.4528607742 -1239.4528607742   0.833361389   0.000000000       32672713    2972030
          ---------------START SECOND ORDER SCF---------------
   2  1    -1242.1256668341    -2.6728060599   0.231862455   0.124826003       32616834    2989084
   3  2    -1242.2380079290    -0.1123410949   0.120208680   0.105184763       32209871    3049526
   4  3    -1242.4236062891    -0.1855983601   0.053533167   0.024941100       31634810    3102637
   5  4    -1242.4305740287    -0.0069677396   0.043368540   0.011972213       31158125    3136260
   6  5    -1242.4304257412     0.0001482875   0.031403847   0.020078136       30546608    3172046
   7  6    -1242.4321057448    -0.0016800037   0.007912880   0.004623475       30340636    3188259
   8  7    -1242.4323570700    -0.0002513252   0.002322708   0.001041722       28559033    3264695
   9  8    -1242.4323796187    -0.0000225486   0.001240188   0.000454645       26848534    3329151
  10  9    -1242.4323834072    -0.0000037885   0.000808725   0.000217644       25470864    3374511
  11 10    -1242.4323848959    -0.0000014887   0.000497786   0.000117729       24584241    3405119
  12 11    -1242.4323852101    -0.0000003142   0.000283393   0.000117645       23490001    3443949
  13 12    -1242.4323853411    -0.0000001310   0.000151364   0.000069613       22704235    3470850
  14 13    -1242.4323853972    -0.0000000561   0.000089038   0.000020306       21970500    3494319
  15 14    -1242.4323854072    -0.0000000100   0.000040945   0.000019173       20710404    3534489
  16 15    -1242.4323854090    -0.0000000018   0.000018607   0.000005665       19203757    3585160
  17 16    -1242.4323854110    -0.0000000020   0.000021465   0.000003583       18323317    3611075
  18 17    -1242.4323854113    -0.0000000003   0.000012758   0.000001737       17002442    3647638
  19 18    -1242.4323854103     0.0000000010   0.000001937   0.000000877       15765507    3683992

          -----------------
          DENSITY CONVERGED
          -----------------
     TIME TO FORM FOCK OPERATORS=       5.6 SECONDS (       0.3 SEC/ITER)
     FOCK TIME ON FIRST ITERATION=       0.3, LAST ITERATION=       0.2
     TIME TO SOLVE SCF EQUATIONS=       0.3 SECONDS (       0.0 SEC/ITER)

 FINAL UHF ENERGY IS    -1242.4323854103 AFTER  19 ITERATIONS

          --------------------
          SPIN SZ   =    0.500
          S-SQUARED =    0.761
          --------------------

  ----- ALPHA SET ----- 

          ------------
          EIGENVECTORS
          ------------

                      1          2          3          4          5
                  -79.5667   -20.4516   -20.4430   -20.4293   -20.3605
                     A          A          A          A          A   
    1  P  1  S    0.986985   0.000097   0.000086   0.000083   0.000063
    2  P  1  S    0.049319  -0.001214  -0.001119  -0.000978  -0.000802
    3  P  1  X    0.000064   0.000161   0.000039  -0.000449   0.000123
    4  P  1  Y    0.000033   0.000171  -0.000401  -0.000016   0.000059
    5  P  1  Z    0.000082  -0.000342  -0.000252  -0.000031   0.000176
    6  P  1  S   -0.015204  -0.001961  -0.002033  -0.001190  -0.000133
    7  P  1  X   -0.000207  -0.001020  -0.000403   0.002412  -0.001526
    8  P  1  Y   -0.000054  -0.001084   0.002192  -0.000071  -0.000741
    9  P  1  Z    0.000007   0.001564   0.001061  -0.000053  -0.002395
   10  P  1  S    0.001030   0.014308   0.013456   0.010809   0.011945
   11  P  1  X    0.000085  -0.001186   0.003406   0.005972  -0.005131
   12  P  1  Y   -0.000036   0.000418   0.007558  -0.001274  -0.003141
   13  P  1  Z   -0.001024   0.009048   0.003419   0.002750  -0.008207
   14  O  2  S   -0.000139   0.001266   0.000921   0.001110   0.983334
   15  O  2  S   -0.001061   0.000533   0.000322   0.000373   0.095884
   16  O  2  X   -0.000112  -0.000258   0.000099   0.000463   0.001857
   17  O  2  Y   -0.000070  -0.000082   0.000623  -0.000146   0.000966
   18  O  2  Z   -0.000266   0.000581   0.000061   0.000033   0.003145
   19  O  2  S    0.002267  -0.000587  -0.000146  -0.000386  -0.038742
   20  O  2  X    0.001141   0.000953  -0.000294  -0.001688  -0.003884
   21  O  2  Y    0.000640   0.000301  -0.002244   0.000581  -0.001989
   22  O  2  Z    0.002175  -0.002180  -0.000099  -0.000069  -0.006471
   23  O  3  S   -0.000141   0.037853   0.982449  -0.018410  -0.000905
   24  O  3  S   -0.001319   0.005166   0.096747  -0.000702   0.000198
   25  O  3  X    0.000040  -0.000104  -0.001707   0.000469  -0.000385
   26  O  3  Y    0.000560  -0.000574  -0.002463  -0.000386  -0.000085
   27  O  3  Z    0.000108   0.000278   0.001264  -0.000064  -0.000631
   28  O  3  S    0.002589  -0.005865  -0.040385  -0.002360  -0.000331
   29  O  3  X   -0.000229   0.000409   0.002666  -0.001770   0.001374
   30  O  3  Y   -0.002577   0.002831   0.005429   0.002163   0.000319
   31  O  3  Z   -0.000408  -0.001062  -0.002061   0.000268   0.002295
   32  O  4  S   -0.000146   0.982566  -0.037717  -0.009745  -0.001132
   33  O  4  S   -0.001371   0.096789  -0.002256  -0.000015   0.000328
   34  O  4  X   -0.000248   0.000161   0.000334   0.000604  -0.000383
   35  O  4  Y   -0.000143  -0.001287   0.000581   0.000088  -0.000204
   36  O  4  Z    0.000515  -0.002730   0.000037  -0.000085  -0.000598
   37  O  4  S    0.002806  -0.040485  -0.002748  -0.002309  -0.000676
   38  O  4  X    0.001145  -0.001180  -0.001692  -0.002503   0.001428
   39  O  4  Y    0.000705   0.001495  -0.002678  -0.000470   0.000850
   40  O  4  Z   -0.002321   0.005515   0.000742   0.000722   0.002280
   41  O  5  S   -0.000134   0.010658   0.018254   0.983254  -0.001086
   42  O  5  S   -0.001236   0.002049   0.002855   0.097924   0.000202
   43  O  5  X    0.000677  -0.000599  -0.000302  -0.000629  -0.000347
   44  O  5  Y   -0.000250   0.000037   0.000451   0.002649  -0.000330
   45  O  5  Z    0.000024   0.000540   0.000286  -0.000994  -0.000590
   46  O  5  S    0.002494  -0.003123  -0.003751  -0.044119  -0.000501
   47  O  5  X   -0.002883   0.003019   0.001839  -0.000488   0.001296
   48  O  5  Y    0.001120  -0.000119  -0.001740  -0.006087   0.001208
   49  O  5  Z   -0.000089  -0.002155  -0.001184   0.002079   0.002118
   50  C  6  S    0.000015   0.000092   0.000097  -0.000757  -0.000006
   51  C  6  S    0.000086   0.000482   0.000860  -0.002968  -0.000037
   52  C  6  X   -0.000120   0.000075  -0.000506  -0.001213  -0.000177
   53  C  6  Y    0.000028   0.000034   0.000001  -0.000536   0.000086
   54  C  6  Z    0.000049   0.000207  -0.000002   0.000297  -0.000255
   55  C  6  S   -0.000065  -0.002491  -0.001755   0.017020   0.000702
   56  C  6  X    0.000830  -0.000130   0.002516  -0.002440   0.001379
   57  C  6  Y   -0.000642   0.001319  -0.000532  -0.006408  -0.000533
   58  C  6  Z   -0.000234  -0.001223   0.000422   0.003365   0.000668
   59  C  7  S    0.000007  -0.000071   0.000021   0.000287   0.000059
   60  C  7  S   -0.000036  -0.000407   0.000149   0.001270   0.000402
   61  C  7  X    0.000240   0.000002  -0.000033   0.000604  -0.000137
   62  C  7  Y    0.000043  -0.000063   0.000024   0.000031   0.000038
   63  C  7  Z   -0.000038  -0.000063  -0.000054  -0.000166   0.000051
   64  C  7  S   -0.000753   0.002442  -0.001076  -0.009705  -0.001861
   65  C  7  X   -0.000951  -0.000887   0.000438   0.001832   0.001137
   66  C  7  Y   -0.000403   0.000649  -0.000469  -0.001432  -0.000347
   67  C  7  Z    0.000630  -0.000163   0.000683   0.003689   0.000089
   68  H  8  S   -0.000041  -0.000140   0.000080   0.000405   0.000106
   69  H  8  S   -0.000292  -0.000314  -0.000369  -0.001012   0.000360
   70  C  9  S   -0.000028   0.000026  -0.000002  -0.000149   0.000001
   71  C  9  S   -0.000163   0.000142   0.000014  -0.000905   0.000041
   72  C  9  X   -0.000037  -0.000047  -0.000062   0.000425  -0.000037
   73  C  9  Y   -0.000006   0.000025   0.000023  -0.000114   0.000002
   74  C  9  Z   -0.000040  -0.000003  -0.000017   0.000123  -0.000003
   75  C  9  S    0.001199  -0.000601   0.000335   0.003707  -0.000043
   76  C  9  X   -0.000285   0.000568   0.000153  -0.004191   0.000111
   77  C  9  Y   -0.000307  -0.000208  -0.000213  -0.000046   0.000065
   78  C  9  Z    0.000395  -0.000122   0.000181  -0.000693   0.000110
   79  H 10  S   -0.000029   0.000041   0.000004  -0.000441   0.000005
   80  H 10  S    0.000063  -0.000062   0.000025  -0.000146   0.000070
   81  C 11  S    0.000010  -0.000003   0.000013  -0.000029   0.000009
   82  C 11  S    0.000044  -0.000015   0.000084  -0.000198   0.000065
   83  C 11  X    0.000036   0.000047  -0.000022  -0.000177  -0.000047
   84  C 11  Y    0.000010   0.000007  -0.000011  -0.000083  -0.000010
   85  C 11  Z   -0.000002  -0.000015  -0.000005   0.000047   0.000007
   86  C 11  S   -0.000420  -0.000120  -0.000366   0.001719  -0.000143
   87  C 11  X    0.000051  -0.000268   0.000309   0.000643   0.000326
   88  C 11  Y   -0.000145  -0.000021   0.000019   0.000916   0.000024
   89  C 11  Z    0.000140   0.000189   0.000083  -0.000782  -0.000062
   90  H 12  S    0.000011  -0.000016   0.000041   0.000074   0.000031
   91  H 12  S   -0.000031   0.000029   0.000009   0.000147  -0.000007
   92  C 13  S   -0.000006  -0.000005   0.000002   0.000021   0.000006
   93  C 13  S   -0.000042  -0.000023   0.000014   0.000060   0.000037
   94  C 13  X    0.000013  -0.000026   0.000001   0.000172   0.000002
   95  C 13  Y   -0.000007   0.000008  -0.000006  -0.000003  -0.000008
   96  C 13  Z    0.000008  -0.000008   0.000005   0.000042   0.000003
   97  C 13  S    0.000182   0.000227  -0.000083  -0.001116  -0.000200
   98  C 13  X   -0.000195   0.000031  -0.000008  -0.000194   0.000056
   99  C 13  Y    0.000025  -0.000122   0.000059   0.000248   0.000093
  100  C 13  Z   -0.000021   0.000119  -0.000065  -0.000719  -0.000066
  101  H 14  S   -0.000034   0.000012  -0.000001  -0.000075   0.000007
  102  H 14  S   -0.000015   0.000032  -0.000036   0.000091  -0.000040
  103  C 15  S   -0.000001  -0.000001  -0.000001   0.000006   0.000000
  104  C 15  S   -0.000005  -0.000014  -0.000003   0.000064   0.000005
  105  C 15  X    0.000002   0.000007   0.000000  -0.000023  -0.000005
  106  C 15  Y   -0.000002  -0.000002   0.000002   0.000005   0.000003
  107  C 15  Z   -0.000006  -0.000002   0.000000  -0.000011   0.000005
  108  C 15  S    0.000031  -0.000010   0.000024  -0.000092   0.000025
  109  C 15  X    0.000057  -0.000052   0.000007   0.000319   0.000002
  110  C 15  Y   -0.000002  -0.000004  -0.000008  -0.000045  -0.000002
  111  C 15  Z    0.000051  -0.000067   0.000024   0.000341   0.000019
  112  O 16  S    0.000001  -0.000003   0.000002   0.000031   0.000000
  113  O 16  S    0.000010  -0.000005   0.000003   0.000042   0.000000
  114  O 16  X   -0.000001  -0.000002  -0.000000   0.000006   0.000001
  115  O 16  Y   -0.000001  -0.000000  -0.000001  -0.000001  -0.000000
  116  O 16  Z   -0.000000   0.000000  -0.000000   0.000001  -0.000000
  117  O 16  S   -0.000048   0.000035  -0.000014  -0.000217  -0.000007
  118  O 16  X    0.000013  -0.000002   0.000005   0.000031   0.000000
  119  O 16  Y   -0.000006   0.000007   0.000001  -0.000034  -0.000001
  120  O 16  Z    0.000002   0.000002  -0.000000  -0.000017   0.000000
  121  O 17  S   -0.000001   0.000024  -0.000002  -0.000170  -0.000010
  122  O 17  S   -0.000007   0.000021  -0.000003  -0.000131  -0.000006
  123  O 17  X   -0.000004  -0.000001  -0.000002   0.000011  -0.000000
  124  O 17  Y    0.000000  -0.000003  -0.000001   0.000008   0.000001
  125  O 17  Z    0.000003  -0.000003   0.000002   0.000019   0.000001
  126  O 17  S    0.000034  -0.000085   0.000025   0.000514   0.000029
  127  O 17  X    0.000014   0.000025   0.000001  -0.000159  -0.000010
  128  O 17  Y   -0.000006   0.000023  -0.000001  -0.000071  -0.000009
  129  O 17  Z   -0.000019   0.000034  -0.000014  -0.000197  -0.000011
  130  O 18  S   -0.000000   0.000019  -0.000021   0.000017  -0.000040
  131  O 18  S   -0.000001   0.000016  -0.000016   0.000014  -0.000018
  132  O 18  X    0.000001   0.000006   0.000011   0.000012  -0.000005
  133  O 18  Y    0.000000  -0.000005   0.000003   0.000034   0.000001
  134  O 18  Z   -0.000006   0.000001   0.000001  -0.000020   0.000002
  135  O 18  S    0.000021  -0.000079   0.000049  -0.000055   0.000073
  136  O 18  X    0.000004  -0.000004  -0.000049  -0.000107  -0.000001
  137  O 18  Y    0.000000   0.000033  -0.000021  -0.000143  -0.000022
  138  O 18  Z   -0.000002   0.000023  -0.000026   0.000104  -0.000033
  139  O 19  S    0.000003  -0.000085   0.000028   0.000159   0.000098
  140  O 19  S    0.000017  -0.000062   0.000011   0.000135   0.000025
  141  O 19  X   -0.000006   0.000013  -0.000027   0.000023  -0.000018
  142  O 19  Y   -0.000001   0.000006   0.000004  -0.000031   0.000000
  143  O 19  Z    0.000010   0.000012  -0.000001  -0.000052  -0.000007
  144  O 19  S   -0.000076   0.000241   0.000025  -0.000722  -0.000038
  145  O 19  X    0.000029  -0.000068   0.000061   0.000213   0.000039
  146  O 19  Y    0.000054  -0.000125  -0.000028   0.000480   0.000008
  147  O 19  Z   -0.000050  -0.000050  -0.000011   0.000271   0.000018
  148  O 20  S    0.000009  -0.000125  -0.000051   0.000750  -0.000351
  149  O 20  S    0.000091  -0.000056  -0.000030   0.000228  -0.000064
  150  O 20  X   -0.000041   0.000000   0.000011  -0.000164   0.000028
  151  O 20  Y   -0.000018   0.000009   0.000031  -0.000050  -0.000009
  152  O 20  Z    0.000015   0.000009   0.000018  -0.000014  -0.000002
  153  O 20  S   -0.000234   0.000133   0.000127   0.000094   0.000100
  154  O 20  X    0.000258   0.000020  -0.000094   0.000488  -0.000164
  155  O 20  Y    0.000087  -0.000090  -0.000086   0.000810   0.000087
  156  O 20  Z   -0.000081  -0.000026  -0.000087  -0.000059   0.000017
  157  H 21  S   -0.000277   0.000770   0.002625  -0.000087  -0.000067
  158  H 21  S    0.000221  -0.001620   0.004171  -0.001036  -0.000156
  159  H 22  S   -0.000230   0.002392  -0.000594   0.000073   0.001134
  160  H 22  S    0.000302   0.004407  -0.000313  -0.001223  -0.001425
  161  H 23  S    0.000023  -0.000041   0.000355  -0.001090   0.000228
  162  H 23  S   -0.000309   0.000212  -0.000078  -0.001454  -0.000367
  163  H 24  S    0.000180   0.000272  -0.000222  -0.000952  -0.000001
  164  H 24  S    0.000310  -0.000807   0.000958  -0.000998   0.000625
  165  H 25  S    0.000009  -0.000008   0.000004   0.000043   0.000004
  166  H 25  S    0.000023  -0.000045  -0.000000   0.000264  -0.000002
  167  H 26  S   -0.000005   0.000009   0.000000  -0.000045  -0.000001
  168  H 26  S    0.000002  -0.000012  -0.000001   0.000076   0.000002
  169  H 27  S   -0.000001   0.000011   0.000009   0.000016  -0.000008
  170  H 27  S   -0.000004  -0.000014  -0.000000   0.000041  -0.000001
  171  H 28  S    0.000006  -0.000002   0.000001  -0.000093   0.000004
  172  H 28  S    0.000004   0.000055  -0.000000   0.000005  -0.000031
  173  H 29  S    0.000004   0.000078   0.000060  -0.000352  -0.000061
  174  H 29  S    0.000259  -0.000254  -0.000341   0.001289   0.000080

                      6          7          8          9         10
                  -20.3454   -20.3180   -20.3016   -20.2825   -20.1525
                     A          A          A          A          A   
    1  P  1  S   -0.000007  -0.000000  -0.000000   0.000000  -0.000001
    2  P  1  S    0.000069   0.000019   0.000001  -0.000006   0.000002
    3  P  1  X    0.000043  -0.000001  -0.000000  -0.000001   0.000005
    4  P  1  Y   -0.000016  -0.000017   0.000005   0.000003  -0.000001
    5  P  1  Z   -0.000014  -0.000014   0.000004   0.000001  -0.000000
    6  P  1  S    0.000027   0.000122   0.000000  -0.000002  -0.000046
    7  P  1  X   -0.000249   0.000012   0.000003   0.000017  -0.000041
    8  P  1  Y    0.000145   0.000114  -0.000026  -0.000012   0.000002
    9  P  1  Z    0.000075   0.000088  -0.000028  -0.000009   0.000002
   10  P  1  S   -0.000810  -0.000381  -0.000011   0.000089   0.000031
   11  P  1  X   -0.000512  -0.000198  -0.000037   0.000034   0.000044
   12  P  1  Y   -0.000260  -0.000208   0.000023  -0.000051   0.000041
   13  P  1  Z   -0.000149  -0.000231   0.000074   0.000080  -0.000022
   14  O  2  S    0.000345  -0.000095   0.000038   0.000008   0.000000
   15  O  2  S    0.000016   0.000007  -0.000005  -0.000002  -0.000000
   16  O  2  X   -0.000041  -0.000007  -0.000004   0.000001   0.000002
   17  O  2  Y   -0.000015  -0.000011   0.000001  -0.000005   0.000003
   18  O  2  Z    0.000007  -0.000002   0.000002   0.000003  -0.000002
   19  O  2  S   -0.000003  -0.000067   0.000027   0.000013   0.000000
   20  O  2  X    0.000154   0.000028   0.000015  -0.000005  -0.000007
   21  O  2  Y    0.000051   0.000038  -0.000002   0.000020  -0.000012
   22  O  2  Z   -0.000017   0.000011  -0.000009  -0.000010   0.000007
   23  O  3  S    0.000058  -0.000024   0.000019  -0.000002  -0.000000
   24  O  3  S   -0.000040  -0.000003  -0.000007   0.000001   0.000002
   25  O  3  X    0.000050   0.000049  -0.000011   0.000004  -0.000004
   26  O  3  Y    0.000006  -0.000001   0.000005  -0.000003   0.000002
   27  O  3  Z   -0.000006  -0.000008   0.000001   0.000001  -0.000001
   28  O  3  S    0.000251   0.000100   0.000009  -0.000003  -0.000017
   29  O  3  X   -0.000109  -0.000128   0.000031  -0.000015   0.000011
   30  O  3  Y   -0.000096  -0.000030  -0.000015   0.000014  -0.000004
   31  O  3  Z    0.000010   0.000029  -0.000007  -0.000007   0.000004
   32  O  4  S    0.000123   0.000077  -0.000017  -0.000021   0.000003
   33  O  4  S   -0.000039  -0.000036   0.000009   0.000015  -0.000004
   34  O  4  X   -0.000057  -0.000025   0.000002   0.000006   0.000001
   35  O  4  Y   -0.000012  -0.000014   0.000003   0.000002   0.000000
   36  O  4  Z   -0.000004  -0.000001  -0.000001  -0.000003   0.000002
   37  O  4  S    0.000128   0.000126  -0.000032  -0.000052   0.000013
   38  O  4  X    0.000197   0.000093  -0.000008  -0.000028  -0.000001
   39  O  4  Y    0.000059   0.000064  -0.000014  -0.000008  -0.000002
   40  O  4  Z    0.000004  -0.000007   0.000007   0.000019  -0.000009
   41  O  5  S   -0.000736  -0.000133  -0.000015   0.000142  -0.000022
   42  O  5  S    0.000122   0.000048   0.000007  -0.000095   0.000031
   43  O  5  X    0.000384   0.000079  -0.000002  -0.000053   0.000031
   44  O  5  Y   -0.000205   0.000029  -0.000020  -0.000007  -0.000009
   45  O  5  Z    0.000253   0.000095  -0.000029  -0.000001   0.000004
   46  O  5  S    0.000280  -0.000114  -0.000027   0.000395  -0.000085
   47  O  5  X   -0.001055  -0.000307   0.000002   0.000331  -0.000136
   48  O  5  Y    0.000816  -0.000154   0.000092   0.000087   0.000034
   49  O  5  Z   -0.001004  -0.000412   0.000158  -0.000028  -0.000001
   50  C  6  S    0.000136   0.000046   0.000010   0.000041  -0.000021
   51  C  6  S    0.000241   0.000375   0.000070   0.000157  -0.000106
   52  C  6  X   -0.000734   0.000120   0.000028  -0.000141   0.000011
   53  C  6  Y    0.000376  -0.000160   0.000046  -0.000012   0.000004
   54  C  6  Z   -0.000488  -0.000254   0.000111  -0.000035   0.000046
   55  C  6  S   -0.004586  -0.000820  -0.000583  -0.001721   0.000616
   56  C  6  X   -0.001577  -0.000464  -0.000340  -0.000470   0.000344
   57  C  6  Y    0.003741   0.001107  -0.000544   0.000621  -0.000170
   58  C  6  Z    0.002202   0.002222  -0.001264  -0.000331  -0.000208
   59  C  7  S   -0.000980   0.000150   0.000082  -0.000108   0.000074
   60  C  7  S   -0.004406   0.000326   0.000671  -0.000611   0.000436
   61  C  7  X   -0.000076  -0.000486   0.000371   0.000234  -0.000009
   62  C  7  Y   -0.001425  -0.000184  -0.000120  -0.000042  -0.000016
   63  C  7  Z    0.000354   0.000536  -0.000095   0.000128  -0.000072
   64  C  7  S    0.022185  -0.004233  -0.001108   0.004744  -0.002669
   65  C  7  X    0.002513  -0.001271  -0.001635   0.000523  -0.001048
   66  C  7  Y   -0.011187  -0.005005   0.002536   0.001410  -0.000364
   67  C  7  Z   -0.008138  -0.003239   0.001283  -0.001690   0.000716
   68  H  8  S   -0.000848   0.001006  -0.000310  -0.000078   0.000080
   69  H  8  S    0.000902   0.001152  -0.000199   0.000201  -0.000090
   70  C  9  S    0.000130  -0.000956   0.000206  -0.000059   0.000021
   71  C  9  S    0.000218  -0.004190   0.000635  -0.000440   0.000273
   72  C  9  X    0.000487  -0.000231  -0.000779  -0.000779   0.000370
   73  C  9  Y    0.000259   0.001339   0.000411  -0.000180   0.000222
   74  C  9  Z   -0.000519  -0.000451  -0.000490   0.000237  -0.000078
   75  C  9  S   -0.004743   0.021253  -0.006475  -0.000990   0.001211
   76  C  9  X    0.003210  -0.000608  -0.001800   0.004663  -0.001524
   77  C  9  Y    0.004795   0.013005  -0.004445   0.002233  -0.001576
   78  C  9  Z    0.003648   0.006919  -0.004289  -0.001685   0.001805
   79  H 10  S    0.000832  -0.000735  -0.000424  -0.000467  -0.000088
   80  H 10  S    0.001747   0.000712  -0.000217  -0.000377   0.001314
   81  C 11  S    0.000155   0.000178  -0.001041   0.000302  -0.000012
   82  C 11  S    0.001053   0.000511  -0.004697   0.001248  -0.000029
   83  C 11  X   -0.000272   0.000834   0.000122  -0.000273   0.000042
   84  C 11  Y    0.000125  -0.000252  -0.000084  -0.000348   0.000354
   85  C 11  Z    0.000239   0.000784   0.001488   0.000088  -0.000036
   86  C 11  S   -0.003433  -0.005654   0.023604  -0.008151  -0.000298
   87  C 11  X    0.001812   0.001187  -0.001006  -0.005081   0.001326
   88  C 11  Y   -0.001962  -0.004917   0.011370  -0.000485  -0.003377
   89  C 11  Z   -0.002082  -0.002218   0.008544  -0.001497   0.001304
   90  H 12  S   -0.000367  -0.000407  -0.000731   0.000712  -0.000052
   91  H 12  S    0.000468  -0.000512   0.001028   0.000688  -0.002500
   92  C 13  S    0.000005   0.000078   0.000289  -0.001031   0.000222
   93  C 13  S    0.000118   0.000757   0.001078  -0.004462   0.000797
   94  C 13  X   -0.000086  -0.000260   0.000632   0.000373   0.000376
   95  C 13  Y   -0.000111  -0.000164   0.000205   0.000852  -0.000007
   96  C 13  Z   -0.000042  -0.000287  -0.000367   0.000867   0.000851
   97  C 13  S   -0.000081  -0.001440  -0.008834   0.024764  -0.004695
   98  C 13  X    0.000360   0.000022   0.003014   0.010463  -0.009437
   99  C 13  Y    0.000925   0.001206  -0.000523  -0.004891   0.004098
  100  C 13  Z    0.000592   0.002871  -0.003043   0.011319  -0.006038
  101  H 14  S    0.000040  -0.000246   0.000809  -0.000509  -0.000883
  102  H 14  S   -0.000617   0.000627   0.000295   0.000715  -0.001868
  103  C 15  S    0.000021  -0.000020  -0.000113   0.000197  -0.000030
  104  C 15  S    0.000179  -0.000072  -0.000819   0.000390   0.000127
  105  C 15  X   -0.000114  -0.000094   0.000379   0.000317   0.001757
  106  C 15  Y   -0.000006   0.000003   0.000067  -0.000446  -0.001233
  107  C 15  Z    0.000120   0.000132  -0.000045  -0.000345  -0.000170
  108  C 15  S   -0.000013   0.001509   0.001526  -0.008037   0.020606
  109  C 15  X   -0.000030  -0.000858  -0.002412  -0.004966   0.018119
  110  C 15  Y    0.000289   0.001255  -0.000229  -0.000497  -0.005494
  111  C 15  Z   -0.000328   0.000110   0.000512  -0.007807   0.011232
  112  O 16  S   -0.000099  -0.000217  -0.000276  -0.000996   0.983463
  113  O 16  S   -0.000085  -0.000170  -0.000194  -0.000769   0.099842
  114  O 16  X    0.000029   0.000030  -0.000041   0.000131  -0.003744
  115  O 16  Y    0.000012   0.000030  -0.000069   0.000045   0.002111
  116  O 16  Z   -0.000022   0.000011   0.000069   0.000250  -0.000536
  117  O 16  S    0.000274   0.000616   0.000784   0.004822  -0.052694
  118  O 16  X   -0.000170  -0.000220   0.000148  -0.001841   0.012594
  119  O 16  Y   -0.000023  -0.000109   0.000347   0.000683  -0.007164
  120  O 16  Z    0.000088  -0.000084  -0.000354  -0.000773   0.001741
  121  O 17  S    0.000194   0.000429   0.003688   0.983582   0.000798
  122  O 17  S    0.000086   0.000136   0.000607   0.098804  -0.000609
  123  O 17  X    0.000009   0.000017  -0.000153  -0.000647   0.000402
  124  O 17  Y    0.000043   0.000067  -0.000112  -0.002198  -0.000156
  125  O 17  Z   -0.000007  -0.000050   0.000360  -0.002559   0.000089
  126  O 17  S   -0.000374  -0.000732   0.000098  -0.048370   0.004054
  127  O 17  X    0.000078   0.000186   0.000281   0.003972  -0.002656
  128  O 17  Y   -0.000168  -0.000236   0.000276   0.005369   0.000220
  129  O 17  Z    0.000115   0.000318  -0.001760   0.008468  -0.001723
  130  O 18  S   -0.002017   0.003616   0.983538  -0.003653   0.000239
  131  O 18  S   -0.000639   0.000480   0.098522  -0.000105  -0.000131
  132  O 18  X   -0.000015  -0.000491   0.002610   0.000119  -0.000038
  133  O 18  Y    0.000110   0.000342  -0.000823   0.000226  -0.000068
  134  O 18  Z    0.000063  -0.000230  -0.002281   0.000186   0.000112
  135  O 18  S    0.002073   0.001228  -0.047110  -0.000250   0.000433
  136  O 18  X    0.000067   0.002019  -0.005956  -0.000614   0.000063
  137  O 18  Y   -0.000710  -0.001611   0.002965  -0.001115   0.000365
  138  O 18  Z   -0.000892   0.000048   0.008250  -0.001259  -0.000557
  139  O 19  S    0.000150   0.983550  -0.003631  -0.000385   0.000178
  140  O 19  S    0.000113   0.098359  -0.000243   0.000065  -0.000146
  141  O 19  X    0.000247   0.000827   0.000216   0.000048  -0.000001
  142  O 19  Y    0.000130  -0.003191   0.000180  -0.000035   0.000034
  143  O 19  Z    0.000015   0.002047   0.000281  -0.000127   0.000032
  144  O 19  S   -0.001274  -0.046982   0.001060  -0.000596   0.000684
  145  O 19  X   -0.001054  -0.002127  -0.000724  -0.000514   0.000221
  146  O 19  Y    0.000020   0.010272  -0.001730   0.000388  -0.000302
  147  O 19  Z   -0.000197  -0.004000  -0.001347   0.000594  -0.000233
  148  O 20  S    0.983535  -0.000098   0.001906  -0.000183   0.000078
  149  O 20  S    0.098152   0.000094  -0.000227   0.000049  -0.000085
  150  O 20  X   -0.002855  -0.000333  -0.000035   0.000024  -0.000025
  151  O 20  Y    0.002305  -0.000153  -0.000073  -0.000001   0.000013
  152  O 20  Z    0.001110   0.000074  -0.000049  -0.000026  -0.000021
  153  O 20  S   -0.046363  -0.001280   0.001670  -0.000280   0.000412
  154  O 20  X    0.005883   0.001393   0.000103  -0.000025   0.000091
  155  O 20  Y   -0.008364   0.000052   0.000850  -0.000170   0.000151
  156  O 20  Z   -0.002721  -0.000258   0.000297   0.000141   0.000067
  157  H 21  S   -0.000046  -0.000040   0.000007  -0.000002   0.000003
  158  H 21  S    0.000059   0.000052  -0.000010  -0.000007  -0.000001
  159  H 22  S    0.000031   0.000018  -0.000000   0.000006  -0.000005
  160  H 22  S    0.000000   0.000010  -0.000012  -0.000028   0.000015
  161  H 23  S    0.000709   0.000489  -0.000045   0.000055  -0.000041
  162  H 23  S    0.001249   0.000922  -0.000728   0.000131  -0.000282
  163  H 24  S   -0.000564  -0.000592   0.000218   0.000043  -0.000013
  164  H 24  S   -0.000304   0.000266   0.000212  -0.000103   0.000060
  165  H 25  S    0.000015  -0.000180  -0.000383  -0.000815   0.000526
  166  H 25  S   -0.000142   0.000032  -0.000444  -0.002425   0.004579
  167  H 26  S    0.000001  -0.000026   0.000103   0.003035  -0.000766
  168  H 26  S   -0.000041  -0.000068  -0.000159   0.005727   0.002797
  169  H 27  S   -0.000109  -0.000322   0.003133  -0.000584  -0.000042
  170  H 27  S    0.000268  -0.000497   0.006023   0.003578   0.000228
  171  H 28  S   -0.000177   0.003003  -0.000510   0.000017   0.000094
  172  H 28  S    0.000515   0.005909   0.003298  -0.000436   0.000005
  173  H 29  S    0.003042   0.000458  -0.000082  -0.000010  -0.000013
  174  H 29  S    0.005490  -0.000142   0.000330   0.000090  -0.000014

                     11         12         13         14         15
                  -11.1567   -11.1239   -11.1013   -11.0712   -11.0415
                     A          A          A          A          A   
    1  P  1  S   -0.000007   0.000004   0.000003  -0.000001   0.000001
    2  P  1  S   -0.000193  -0.000079  -0.000063  -0.000035  -0.000013
    3  P  1  X    0.000100  -0.000046  -0.000014   0.000020  -0.000009
    4  P  1  Y    0.000000   0.000033   0.000030   0.000004   0.000005
    5  P  1  Z    0.000012  -0.000016   0.000003  -0.000007  -0.000000
    6  P  1  S   -0.002280  -0.000288  -0.000172  -0.000383  -0.000000
    7  P  1  X   -0.001002   0.000122   0.000093  -0.000176   0.000051
    8  P  1  Y   -0.000265  -0.000280  -0.000199  -0.000057  -0.000040
    9  P  1  Z   -0.000090   0.000212  -0.000015   0.000050   0.000010
   10  P  1  S    0.004938   0.001102   0.001053   0.000870   0.000163
   11  P  1  X    0.004380   0.000961   0.000670   0.000726   0.000111
   12  P  1  Y    0.001701   0.000998   0.000090   0.000318   0.000068
   13  P  1  Z    0.000499  -0.001551   0.000053  -0.000201  -0.000085
   14  O  2  S   -0.000007   0.000021   0.000004   0.000003   0.000002
   15  O  2  S   -0.000034   0.000223   0.000048   0.000037   0.000019
   16  O  2  X    0.000245   0.000099   0.000045   0.000042   0.000011
   17  O  2  Y    0.000091   0.000087   0.000001   0.000021   0.000005
   18  O  2  Z   -0.000088  -0.000043   0.000001  -0.000015  -0.000002
   19  O  2  S    0.000303  -0.000705  -0.000115  -0.000100  -0.000056
   20  O  2  X   -0.000899  -0.000422  -0.000188  -0.000173  -0.000045
   21  O  2  Y   -0.000339  -0.000341  -0.000007  -0.000083  -0.000021
   22  O  2  Z    0.000339   0.000125  -0.000016   0.000049   0.000005
   23  O  3  S    0.000079   0.000012   0.000006   0.000007   0.000001
   24  O  3  S    0.000745   0.000103   0.000055   0.000057   0.000013
   25  O  3  X    0.000236  -0.000060   0.000001  -0.000024  -0.000004
   26  O  3  Y    0.000028   0.000031  -0.000015  -0.000009  -0.000005
   27  O  3  Z   -0.000064  -0.000023  -0.000008  -0.000002  -0.000001
   28  O  3  S   -0.002468  -0.000500  -0.000239  -0.000273  -0.000054
   29  O  3  X   -0.001155   0.000166  -0.000041   0.000050   0.000009
   30  O  3  Y    0.000453  -0.000020   0.000108   0.000090   0.000025
   31  O  3  Z    0.000375   0.000174   0.000037   0.000031   0.000011
   32  O  4  S    0.000010  -0.000018   0.000005  -0.000001  -0.000001
   33  O  4  S    0.000123  -0.000177   0.000053  -0.000006  -0.000005
   34  O  4  X    0.000240  -0.000006   0.000046   0.000026   0.000005
   35  O  4  Y    0.000066  -0.000023   0.000004   0.000003  -0.000001
   36  O  4  Z    0.000080   0.000043  -0.000004   0.000014   0.000002
   37  O  4  S   -0.000362   0.000623  -0.000144   0.000033   0.000021
   38  O  4  X   -0.000940   0.000078  -0.000191  -0.000104  -0.000015
   39  O  4  Y   -0.000309   0.000109  -0.000029  -0.000017   0.000004
   40  O  4  Z   -0.000245  -0.000232   0.000035  -0.000049  -0.000009
   41  O  5  S   -0.000197   0.000071  -0.000047  -0.000011  -0.000000
   42  O  5  S   -0.000294   0.000322  -0.000457  -0.000115  -0.000022
   43  O  5  X    0.000424  -0.000292  -0.000391  -0.000046  -0.000076
   44  O  5  Y    0.000524  -0.000036  -0.000040  -0.000019   0.000020
   45  O  5  Z   -0.000146  -0.000172  -0.000122   0.000034  -0.000031
   46  O  5  S    0.007217  -0.002395   0.001415   0.000460  -0.000065
   47  O  5  X    0.003524  -0.000629   0.001854   0.000260   0.000212
   48  O  5  Y    0.001453  -0.000261   0.000331   0.000147  -0.000118
   49  O  5  Z   -0.001063   0.000681   0.000405  -0.000239   0.000108
   50  C  6  S    0.987752   0.003520   0.003041   0.001015   0.000289
   51  C  6  S    0.102163  -0.002764  -0.000718  -0.001102  -0.000374
   52  C  6  X   -0.000352   0.000431  -0.000948  -0.000396  -0.000068
   53  C  6  Y   -0.000254   0.000262  -0.000135  -0.000194   0.000002
   54  C  6  Z    0.000089   0.000258   0.000041   0.000027  -0.000018
   55  C  6  S   -0.081466   0.027276   0.000240   0.005177   0.002205
   56  C  6  X   -0.006399   0.013726   0.001223   0.003918   0.000865
   57  C  6  Y    0.002301  -0.007784   0.000563   0.000810  -0.000382
   58  C  6  Z   -0.002812   0.005375  -0.001727   0.001242   0.000832
   59  C  7  S   -0.004428   0.988355   0.006529   0.002106   0.001005
   60  C  7  S   -0.002744   0.106246  -0.002443  -0.000367  -0.001054
   61  C  7  X    0.000128  -0.000111   0.000559  -0.001148  -0.000522
   62  C  7  Y    0.000052   0.000439  -0.000063   0.000079   0.000089
   63  C  7  Z    0.000185  -0.000908  -0.000153  -0.000124  -0.000158
   64  C  7  S    0.020890  -0.100648   0.026143  -0.002317   0.004465
   65  C  7  X   -0.012738  -0.002184   0.012750   0.003548   0.005123
   66  C  7  Y    0.004094  -0.009027   0.008701  -0.002839  -0.000214
   67  C  7  Z   -0.006102   0.010708  -0.001977   0.000022   0.000130
   68  H  8  S   -0.001261   0.000967  -0.001882  -0.000148  -0.000573
   69  H  8  S    0.001112   0.013732  -0.000368   0.000909   0.000419
   70  C  9  S   -0.003165  -0.007655   0.988252   0.004915   0.002448
   71  C  9  S   -0.001553  -0.004168   0.105754  -0.002937  -0.000830
   72  C  9  X    0.001101  -0.000265  -0.000338   0.000482  -0.001255
   73  C  9  Y   -0.000169  -0.000134  -0.000365  -0.000230   0.000018
   74  C  9  Z    0.000370  -0.000224   0.000952   0.000084   0.000056
   75  C  9  S    0.000851   0.029153  -0.096460   0.028472   0.000583
   76  C  9  X   -0.004323  -0.016401   0.000810   0.014869   0.005196
   77  C  9  Y    0.001697  -0.007724   0.006564  -0.001867   0.002023
   78  C  9  Z   -0.002810   0.004255  -0.010170   0.010178  -0.000408
   79  H 10  S   -0.000208  -0.001859   0.000681  -0.001265  -0.000327
   80  H 10  S   -0.001955   0.001021   0.014353   0.001076  -0.000510
   81  C 11  S   -0.001331  -0.002081  -0.006080   0.988385   0.003559
   82  C 11  S   -0.001261  -0.000728  -0.003876   0.106354  -0.002592
   83  C 11  X    0.000438   0.001011  -0.000812  -0.000620   0.000345
   84  C 11  Y    0.000149   0.000147  -0.000126   0.001452   0.000141
   85  C 11  Z    0.000043   0.000106  -0.000154  -0.000436  -0.000561
   86  C 11  S    0.004563  -0.002155   0.026404  -0.098094   0.024642
   87  C 11  X   -0.004711  -0.002597  -0.012348   0.002456   0.016283
   88  C 11  Y   -0.000216  -0.000219   0.005760  -0.013746   0.002716
   89  C 11  Z   -0.000824   0.001377  -0.007362   0.008222  -0.003431
   90  H 12  S   -0.000627  -0.000299  -0.001313   0.000205  -0.001468
   91  H 12  S    0.000185   0.000658   0.000991   0.011863  -0.001495
   92  C 13  S   -0.000374  -0.001303  -0.002553  -0.004724   0.988366
   93  C 13  S   -0.000417  -0.001201  -0.001115  -0.003630   0.105724
   94  C 13  X    0.000043   0.000453   0.000916  -0.000739  -0.000739
   95  C 13  Y    0.000084   0.000019   0.000403  -0.000610  -0.000787
   96  C 13  Z   -0.000021   0.000205   0.000017   0.000069   0.000432
   97  C 13  S    0.001846   0.004026   0.000455   0.025015  -0.098009
   98  C 13  X   -0.000526  -0.004122   0.000355  -0.015495   0.003872
   99  C 13  Y   -0.000915  -0.000961  -0.003109   0.000665   0.012742
  100  C 13  Z    0.000750  -0.001033  -0.001261   0.008003   0.001689
  101  H 14  S   -0.000069  -0.000773  -0.000340  -0.001808   0.000738
  102  H 14  S    0.000477   0.000801   0.002304  -0.002687   0.013631
  103  C 15  S    0.000014   0.000011   0.000423  -0.002030  -0.001959
  104  C 15  S    0.000050   0.000055   0.000599  -0.001961  -0.002987
  105  C 15  X    0.000020   0.000024  -0.000181   0.000802  -0.000371
  106  C 15  Y   -0.000046  -0.000058   0.000080  -0.000339   0.000038
  107  C 15  Z   -0.000045  -0.000151   0.000058  -0.000443   0.000001
  108  C 15  S   -0.000586  -0.000455  -0.001878   0.005623   0.027077
  109  C 15  X    0.000044   0.001722   0.002138  -0.001179  -0.005821
  110  C 15  Y    0.000169  -0.000347  -0.001447   0.002349   0.009932
  111  C 15  Z   -0.000104   0.000818  -0.001290   0.001966   0.014143
  112  O 16  S   -0.000004   0.000026   0.000029   0.000006   0.000047
  113  O 16  S   -0.000033   0.000220   0.000279   0.000040   0.000089
  114  O 16  X    0.000007  -0.000008   0.000002  -0.000092   0.000246
  115  O 16  Y    0.000009  -0.000008   0.000023  -0.000044  -0.000031
  116  O 16  Z    0.000007  -0.000011  -0.000066   0.000119   0.000235
  117  O 16  S    0.000177  -0.001118  -0.001187  -0.000205  -0.002104
  118  O 16  X   -0.000082   0.000244   0.000155   0.000450   0.000634
  119  O 16  Y   -0.000017  -0.000129  -0.000127  -0.000083  -0.001356
  120  O 16  Z   -0.000027   0.000069   0.000404  -0.000422  -0.002063
  121  O 17  S    0.000005  -0.000029  -0.000031   0.000063  -0.000274
  122  O 17  S    0.000018  -0.000265  -0.000298   0.000243  -0.001035
  123  O 17  X    0.000025  -0.000018   0.000111   0.000010  -0.000218
  124  O 17  Y    0.000014   0.000000   0.000068   0.000285  -0.000053
  125  O 17  Z   -0.000003   0.000055   0.000051   0.000203  -0.000431
  126  O 17  S   -0.000232   0.001166   0.000960  -0.002231   0.010648
  127  O 17  X    0.000015  -0.000009  -0.000651   0.001926  -0.003437
  128  O 17  Y    0.000021  -0.000021  -0.000104  -0.000775  -0.001315
  129  O 17  Z    0.000097  -0.000467  -0.000318  -0.000199  -0.003344
  130  O 18  S    0.000014   0.000043   0.000049  -0.000325   0.000048
  131  O 18  S    0.000087   0.000464  -0.000004  -0.001388   0.000076
  132  O 18  X   -0.000032  -0.000331   0.000449   0.000249  -0.000025
  133  O 18  Y   -0.000051  -0.000075   0.000083  -0.000235  -0.000104
  134  O 18  Z    0.000004  -0.000125   0.000600  -0.000369   0.000391
[...]
             90  H 12  S      0.47520     0.48555
             91  H 12  S      0.29301     0.42973
             92  C 13  S      1.99003     1.97569
             93  C 13  S      0.35084     0.42537
             94  C 13  X      0.48184     0.47398
             95  C 13  Y      0.57086     0.54486
             96  C 13  Z      0.48658     0.47428
             97  C 13  S      1.03071     0.56196
             98  C 13  X      0.26944     0.46144
             99  C 13  Y      0.53004     0.57167
            100  C 13  Z      0.29782     0.47606
            101  H 14  S      0.48163     0.49879
            102  H 14  S      0.33348     0.44865
            103  C 15  S      1.98619     1.97532
            104  C 15  S      0.37892     0.40683
            105  C 15  X      0.55481     0.54660
            106  C 15  Y      0.54386     0.54378
            107  C 15  Z      0.51977     0.49815
            108  C 15  S      0.69544     0.54855
            109  C 15  X      0.29472     0.50241
            110  C 15  Y      0.51632     0.62533
            111  C 15  Z      0.45130     0.57599
            112  O 16  S      1.98645     1.98095
            113  O 16  S      0.41195     0.56911
            114  O 16  X      0.64793     0.64529
            115  O 16  Y      0.70737     0.71484
            116  O 16  Z      0.74505     0.75089
            117  O 16  S      1.54076     1.05917
            118  O 16  X      0.82789     0.85786
            119  O 16  Y      0.91340     0.92498
            120  O 16  Z      0.96433     0.98951
            121  O 17  S      1.98599     1.98001
            122  O 17  S      0.40709     0.56543
            123  O 17  X      0.63652     0.62933
            124  O 17  Y      0.76190     0.76594
            125  O 17  Z      0.69141     0.69369
            126  O 17  S      1.51397     1.03943
            127  O 17  X      0.83750     0.84455
            128  O 17  Y      0.98875     0.98097
            129  O 17  Z      0.93464     0.94510
            130  O 18  S      1.98598     1.98011
            131  O 18  S      0.40628     0.56714
            132  O 18  X      0.67054     0.66489
            133  O 18  Y      0.77742     0.78509
            134  O 18  Z      0.63992     0.63906
            135  O 18  S      1.51953     1.04763
            136  O 18  X      0.89987     0.88745
            137  O 18  Y      1.00475     1.01233
            138  O 18  Z      0.85009     0.87756
            139  O 19  S      1.98614     1.98045
            140  O 19  S      0.41158     0.57250
            141  O 19  X      0.83573     0.84739
            142  O 19  Y      0.59028     0.58479
            143  O 19  Z      0.65058     0.63916
            144  O 19  S      1.52525     1.05173
            145  O 19  X      1.06003     1.05347
            146  O 19  Y      0.80557     0.84991
            147  O 19  Z      0.84658     0.85453
            148  O 20  S      1.98613     1.98048
            149  O 20  S      0.41395     0.57463
            150  O 20  X      0.65926     0.64882
            151  O 20  Y      0.57094     0.56050
            152  O 20  Z      0.84534     0.85665
            153  O 20  S      1.52320     1.05005
            154  O 20  X      0.86462     0.86995
            155  O 20  Y      0.75658     0.80163
            156  O 20  Z      1.05318     1.05587
            157  H 21  S      0.38739     0.40187
            158  H 21  S      0.18037     0.30041
            159  H 22  S      0.38987     0.40305
            160  H 22  S      0.17765     0.30029
            161  H 23  S      0.47617     0.48107
            162  H 23  S      0.28787     0.42551
            163  H 24  S      0.47299     0.47509
            164  H 24  S      0.25566     0.41095
            165  H 25  S      0.47676     0.48534
            166  H 25  S      0.47843     0.53239
            167  H 26  S      0.37487     0.39688
            168  H 26  S      0.22927     0.34645
            169  H 27  S      0.37379     0.39516
            170  H 27  S      0.20777     0.34036
            171  H 28  S      0.38460     0.40384
            172  H 28  S      0.21822     0.34244
            173  H 29  S      0.40842     0.42567
            174  H 29  S      0.21126     0.32817

          ----- MULLIKEN ATOMIC OVERLAP POPULATIONS -----
          (OFF-DIAGONAL ELEMENTS NEED TO BE MULTIPLIED BY 2)

             1           2           3           4           5

    1   12.1501018
    2    0.4113970   8.4183628
    3    0.1683215  -0.0130680   8.4563003
    4    0.1643946  -0.0158588  -0.0197999   8.4764311
    5    0.2038221  -0.0152156  -0.0183380  -0.0160162   8.5829153
    6   -0.0444552  -0.0010205  -0.0022317   0.0000062   0.1620394
    7    0.0006152  -0.0000043   0.0000314  -0.0000127  -0.0386436
    8    0.0000532   0.0000000   0.0000075  -0.0000041   0.0012491
    9   -0.0000022   0.0000000  -0.0000002   0.0000000   0.0015524
   10    0.0000008  -0.0000000   0.0000000  -0.0000000  -0.0000154
   11   -0.0000004  -0.0000000   0.0000000  -0.0000000  -0.0000132
   12   -0.0000000  -0.0000000   0.0000000   0.0000000  -0.0000002
   13   -0.0000000   0.0000000  -0.0000000   0.0000000   0.0000000
   14   -0.0000000  -0.0000000  -0.0000000  -0.0000000  -0.0000000
   15    0.0000000  -0.0000000   0.0000000  -0.0000000  -0.0000000
   16   -0.0000000   0.0000000   0.0000000   0.0000000   0.0000000
   17    0.0000000   0.0000000   0.0000000   0.0000000  -0.0000000
   18   -0.0000000   0.0000000   0.0000000   0.0000000   0.0000000
   19    0.0000081  -0.0000000  -0.0000000  -0.0000000   0.0000018
   20   -0.0000160  -0.0000000  -0.0000000   0.0000000  -0.0023328
   21   -0.0277141  -0.0004079   0.2618881   0.0053527   0.0000607
   22   -0.0170429  -0.0008215   0.0004980   0.2610374   0.0001440
   23   -0.0018505   0.0001600  -0.0000221  -0.0000099  -0.0283427
   24   -0.0083262  -0.0000517   0.0100116   0.0000229  -0.0251185
   25    0.0000000   0.0000000  -0.0000000   0.0000000   0.0000000
   26    0.0000000   0.0000000  -0.0000000   0.0000000   0.0000000
   27    0.0000000  -0.0000000   0.0000000  -0.0000000  -0.0000000
   28   -0.0000010   0.0000000  -0.0000000   0.0000000  -0.0000008
   29   -0.0001378  -0.0000024   0.0000014  -0.0000033   0.0145432

             6           7           8           9          10

    6    5.3212622
    7    0.1904954   5.4499315
    8   -0.0604897   0.3656885   0.5265301
    9   -0.0836093   0.1260012  -0.0447209   5.4417355
   10   -0.0038229  -0.0644528   0.0035830   0.3769650   0.4970570
   11    0.0052352  -0.0764455  -0.0078967   0.1594345  -0.0429119
   12    0.0001436  -0.0027962   0.0004354  -0.0523941   0.0024885
   13   -0.0000608   0.0037407   0.0001072  -0.0660150  -0.0027128
   14   -0.0000014   0.0003322  -0.0000126  -0.0000020   0.0003736
   15    0.0000010  -0.0001284  -0.0000064   0.0029816   0.0025991
   16   -0.0000000   0.0000001   0.0000000   0.0000141  -0.0000142
   17    0.0000000  -0.0000151   0.0000004   0.0015612   0.0000194
   18    0.0000104  -0.0020094   0.0080213  -0.0521824   0.0015165
   19    0.0027739  -0.0529177   0.0014332   0.2245114  -0.0240227
   20   -0.0428200   0.2032893  -0.0290584  -0.0398910   0.0048152
   21    0.0002087  -0.0000004  -0.0000019  -0.0000001  -0.0000000
   22    0.0000052   0.0000006   0.0000001  -0.0000000   0.0000000
   23    0.3614894  -0.0498215   0.0034204   0.0016779   0.0028875
   24    0.3337803  -0.0352150   0.0010672   0.0005420   0.0004746
   25   -0.0000000   0.0000315  -0.0000000  -0.0007496   0.0019271
   26   -0.0000000   0.0000019  -0.0000000  -0.0000948   0.0000031
   27    0.0000028  -0.0002674  -0.0001550   0.0078342  -0.0000952
   28   -0.0004688   0.0013898   0.0024668  -0.0771409   0.0049787
   29   -0.0090153  -0.0532617  -0.0005788   0.0057935  -0.0001950

            11          12          13          14          15

   11    5.6032416
   12    0.3619602   0.4958644
   13    0.1487069  -0.0369671   5.6088704
   14   -0.0936524   0.0032022   0.3663513   0.5806298
   15   -0.1044099   0.0084883   0.1313780  -0.0361559   5.2477785
   16    0.0009289   0.0002217  -0.0852178   0.0013890   0.3653991
   17   -0.0474466   0.0007204   0.2237730  -0.0290400  -0.0316851
   18    0.1749891  -0.0262312  -0.0371605   0.0023949   0.0018983
   19   -0.0386790   0.0013106  -0.0054668   0.0110897   0.0000889
   20   -0.0002860   0.0085653   0.0000080  -0.0000032  -0.0000027
   21   -0.0000000  -0.0000000  -0.0000000   0.0000000   0.0000000
   22    0.0000000  -0.0000000  -0.0000000   0.0000000   0.0000000
   23   -0.0001260   0.0000049  -0.0000006  -0.0000000  -0.0000002
   24    0.0000179  -0.0000128   0.0000008  -0.0000019  -0.0000000
   25    0.0041203   0.0010533  -0.1351085   0.0028741   0.3476998
   26    0.0058405   0.0003628  -0.0936876   0.0039924   0.0040799
   27   -0.0682330   0.0008183  -0.0143018   0.0010961   0.0013215
   28   -0.0161195   0.0011420   0.0019340   0.0002602  -0.0000003
   29   -0.0001588  -0.0001687   0.0000022   0.0000002  -0.0000001

            16          17          18          19          20

   16    8.4726571
   17   -0.0107375   8.3735159
   18   -0.0000024  -0.0134640   8.4106162
   19   -0.0000000  -0.0000004  -0.0103041   8.3412863
   20    0.0000000  -0.0000000   0.0000147   0.0002166   8.3067354
   21    0.0000000   0.0000000   0.0000000  -0.0000000   0.0000000
   22    0.0000000   0.0000000  -0.0000000   0.0000000   0.0000000
   23    0.0000000  -0.0000000  -0.0000004  -0.0000754   0.0013453
   24    0.0000000   0.0000000   0.0000002   0.0081428   0.0014904
   25   -0.0567956   0.0013167  -0.0000236   0.0000004  -0.0000073
   26    0.0573062   0.2385846   0.0002080  -0.0000009  -0.0000000
   27   -0.0000114   0.0506852   0.2508123   0.0001431  -0.0000011
   28    0.0000000  -0.0000211   0.0452864   0.2522263  -0.0000171
   29   -0.0000000  -0.0000000  -0.0000024  -0.0000273   0.2611563

            21          22          23          24          25

   21    0.3284536
   22   -0.0000397   0.3237409
   23   -0.0000105   0.0000003   0.4979521
   24   -0.0000300  -0.0000029  -0.0245827   0.4660839
   25   -0.0000000  -0.0000000  -0.0000005   0.0000000   0.7860080
   26   -0.0000000  -0.0000000   0.0000000   0.0000000   0.0028910
   27   -0.0000000   0.0000000   0.0000000  -0.0000001  -0.0000418
   28    0.0000000  -0.0000000   0.0000136   0.0000331  -0.0000003
   29   -0.0000001  -0.0000012  -0.0000661   0.0003299   0.0000005

            26          27          28          29

   26    0.3861504
   27   -0.0015035   0.3551838
   28   -0.0000001  -0.0017223   0.3885789
   29    0.0000000  -0.0000000   0.0000028   0.4014745

          TOTAL MULLIKEN AND LOWDIN ATOMIC POPULATIONS
       ATOM         MULL.POP.    CHARGE          LOW.POP.     CHARGE
    1 P            12.999168    2.000832        13.488989    1.511011
    2 O             8.783469   -0.783469         8.687118   -0.687118
    3 O             8.843600   -0.843600         8.575190   -0.575190
    4 O             8.855540   -0.855540         8.591374   -0.591374
    5 O             8.822291   -0.822291         8.541551   -0.541551
    6 C             6.129458   -0.129458         5.974247    0.025753
    7 C             5.965558    0.034442         5.940994    0.059006
    8 H             0.771139    0.228861         0.919061    0.080939
    9 C             5.933802    0.066198         5.934714    0.065286
   10 H             0.761446    0.238554         0.911355    0.088645
   11 C             5.968096    0.031904         5.958657    0.041343
   12 H             0.768212    0.231788         0.915278    0.084722
   13 C             6.008173   -0.008173         5.965318    0.034682
   14 H             0.815116    0.184884         0.947448    0.052552
   15 C             5.941325    0.058675         6.222985   -0.222985
   16 O             8.745137   -0.745137         8.492603   -0.492603
   17 O             8.757767   -0.757767         8.444443   -0.444443
   18 O             8.754388   -0.754388         8.461248   -0.461248
   19 O             8.711739   -0.711739         8.433927   -0.433927
   20 O             8.673201   -0.673201         8.398582   -0.398582
   21 H             0.567759    0.432241         0.702275    0.297725
   22 H             0.567518    0.432482         0.703342    0.296658
   23 H             0.764042    0.235958         0.906576    0.093424
   24 H             0.728656    0.271344         0.886037    0.113963
   25 H             0.955195    0.044805         1.017725   -0.017725
   26 H             0.604134    0.395866         0.743323    0.256677
   27 H             0.581565    0.418435         0.735520    0.264480
   28 H             0.602820    0.397180         0.746279    0.253721
   29 H             0.619685    0.380315         0.753844    0.246156

          -------------------------------
          BOND ORDER AND VALENCE ANALYSIS     BOND ORDER THRESHOLD=0.050
          -------------------------------

                   BOND                       BOND                       BOND
  ATOM PAIR DIST  ORDER      ATOM PAIR DIST  ORDER      ATOM PAIR DIST  ORDER
    1   2  1.548  1.559        1   3  1.668  0.740        1   4  1.674  0.738
    1   5  1.666  0.800        2   3  2.765  0.053        2   4  2.730  0.065
    2   5  2.739  0.059        3  21  0.996  0.772        4  22  0.993  0.775
    5   6  1.495  0.704        6   7  1.517  0.883        6  23  1.094  0.897
    6  24  1.088  0.865        7   8  1.098  0.882        7   9  1.525  0.845
    7  20  1.456  0.855        9  10  1.094  0.893        9  11  1.532  0.869
    9  19  1.455  0.868       11  12  1.095  0.888       11  13  1.560  0.831
   11  18  1.464  0.812       13  14  1.096  0.898       13  15  1.507  0.834
   13  17  1.458  0.821       15  16  1.238  1.443       15  25  1.099  0.881
   16  26  1.960  0.125       17  26  1.007  0.713       17  27  1.805  0.103
   18  27  1.011  0.716       18  28  1.893  0.090       19  28  1.010  0.743
   20  29  0.997  0.799

                       TOTAL       BONDED        FREE
      ATOM            VALENCE     VALENCE     VALENCE
    1 P                 3.876       3.876       0.000
    2 O                 1.731       1.731       0.000
    3 O                 1.648       1.648       0.000
    4 O                 1.639       1.639       0.000
    5 O                 1.674       1.674       0.000
    6 C                 3.350       3.350       0.000
    7 C                 3.442       3.442       0.000
    8 H                 0.906       0.906       0.000
    9 C                 3.435       3.435       0.000
   10 H                 0.903       0.903       0.000
   11 C                 3.388       3.385       0.002
   12 H                 0.917       0.917       0.000
   13 C                 3.383       3.376       0.007
   14 H                 0.924       0.923       0.001
   15 C                 3.527       3.174       0.353
   16 O                 1.814       1.647       0.167
   17 O                 1.724       1.724       0.000
   18 O                 1.709       1.709       0.000
   19 O                 1.723       1.723       0.000
   20 O                 1.736       1.736       0.000
   21 H                 0.798       0.798       0.000
   22 H                 0.795       0.795       0.000
   23 H                 0.901       0.901       0.000
   24 H                 0.900       0.900       0.000
   25 H                 0.936       0.928       0.008
   26 H                 0.854       0.854       0.000
   27 H                 0.826       0.826       0.000
   28 H                 0.839       0.839       0.000
   29 H                 0.837       0.837       0.000

          -----------------------------------------
          ATOMIC SPIN DENSITY AT THE NUCLEUS (A.U.)
          -----------------------------------------
                            SPIN DENS    ALPHA DENS     BETA DENS
    1  P           15.0     0.0001109     813.59664     813.59653
    2  O            8.0     0.0000043     116.96397     116.96397
    3  O            8.0     0.0000021     116.71559     116.71559
    4  O            8.0     0.0000130     116.70508     116.70506
    5  O            8.0     0.0002382     116.75115     116.75091
    6  C            6.0     0.0001226      47.02836      47.02824
    7  C            6.0     0.0004519      47.07324      47.07279
    8  H            1.0     0.0000213       0.18627       0.18625
    9  C            6.0    -0.0027984      47.06813      47.07093
   10  H            1.0     0.0000093       0.18619       0.18618
   11  C            6.0     0.0673875      47.13995      47.07257
   12  H            1.0    -0.0011012       0.18559       0.18669
   13  C            6.0    -0.0490146      47.04503      47.09404
   14  H            1.0     0.0122042       0.19582       0.18362
   15  C            6.0     0.1341150      46.97133      46.83721
   16  O            8.0     0.1682877     116.87563     116.70734
   17  O            8.0    -0.0043472     116.69588     116.70023
   18  O            8.0     0.0043974     116.71301     116.70861
   19  O            8.0     0.0000137     116.75444     116.75442
   20  O            8.0     0.0000506     116.76322     116.76317
   21  H            1.0     0.0000001       0.15644       0.15644
   22  H            1.0    -0.0000002       0.15717       0.15717
   23  H            1.0    -0.0000043       0.18613       0.18614
   24  H            1.0    -0.0000033       0.18489       0.18490
   25  H            1.0    -0.0194390       0.17684       0.19628
   26  H            1.0    -0.0001949       0.15152       0.15172
   27  H            1.0    -0.0000536       0.15100       0.15105
   28  H            1.0     0.0000106       0.15558       0.15557
   29  H            1.0    -0.0000051       0.16536       0.16537

          ---------------------
          ELECTROSTATIC MOMENTS
          ---------------------

 POINT   1           X           Y           Z (BOHR)    CHARGE
                -0.012233   -0.145295   -0.175870       -1.00 (A.U.)
         DX          DY          DZ         /D/  (DEBYE)
   -19.468021    1.156157    5.219515   20.188707
 ...... END OF PROPERTY EVALUATION ......
 CPU     0: STEP CPU TIME=     0.06 TOTAL CPU TIME=          6.2 (      0.1 MIN)
 TOTAL WALL CLOCK TIME=         10.2 SECONDS, CPU UTILIZATION IS    60.84%
               580000  WORDS OF DYNAMIC MEMORY USED
 EXECUTION OF GAMESS TERMINATED NORMALLY Thu May 21 17:24:01 2020
 DDI: 263640 bytes (0.3 MB / 0 MWords) used by master data server.
Note: The following floating-point exceptions are signalling: IEEE_DENORMALNote: The following floating-point exceptions are signalling: IEEE_DENORMALNote: The following floating-point exceptions are signalling: IEEE_DENORMAL
Note: The following floating-point exceptions are signalling:Note: The following floating-point exceptions are signalling: IEEE_DENORMALNote: The following floating-point exceptions are signalling:
 ----------------------------------------
 CPU timing information for all processes
 ========================================
 0: 5.942 + 0.300 = 6.243
 1: 5.790 + 0.103 = 5.893
 2: 5.698 + 0.124 = 5.822
 3: 5.710 + 0.88 = 5.798
 4: 5.732 + 0.139 = 5.872
 5: 5.658 + 0.72 = 5.731
 6: 5.558 + 0.116 = 5.674
 7: 5.653 + 0.112 = 5.765
 ----------------------------------------


 IEEE_DENORMAL

 IEEE_DENORMAL
Note: The following floating-point exceptions are signalling: IEEE_DENORMALNote: The following floating-point exceptions are signalling: IEEE_DENORMAL

 ddikick.x: exited gracefully.
unset echo
----- accounting info -----
Files used on the master node pietdev were:
-rwxr-xr-x 1 piet piet     1723 mei 21 17:23 /home/piet/scr/glucose-6-phosphate_fukui_acid.F05*
-rw-r--r-- 1 piet piet 68812800 mei 21 17:24 /home/piet/scr/glucose-6-phosphate_fukui_acid.F10
ls: No match.
ls: No match.
ls: No match.
do 21 mei 2020 17:24:04 CEST
0.117u 0.024s 0:13.39 0.9%	0+0k 0+8io 0pf+0w
