----- GAMESS execution script 'rungms' -----
This job is running on host pietdev
under operating system Linux at za 16 mei 2020 11:21:54 CEST
Available scratch disk space (Kbyte units) at beginning of the job is
Filesystem     1K-blocks     Used Available Use% Mounted on
/dev/sda2      244568380 29930228 202145096  13% /
GAMESS temporary binary files will be written to /home/piet/scr
GAMESS supplementary output files will be written to /home/piet/gamess/scr
Copying input file alanine_geoopt.inp to your run's scratch directory...
cp alanine_geoopt.inp /home/piet/scr/alanine_geoopt.F05
unset echo
 
Assuming a single but multicore node.
 
/home/piet/gamess/ddikick.x /home/piet/gamess/gamess.03.x alanine_geoopt -ddi 1 6 pietdev:cpus=6 -scr /home/piet/scr

 Distributed Data Interface kickoff program.
 Initiating 6 compute processes on 1 nodes to run the following command:
 /home/piet/gamess/gamess.03.x alanine_geoopt 

          ******************************************************
          *         GAMESS VERSION = 30 SEP 2019 (R2)          *
          *             FROM IOWA STATE UNIVERSITY             *
          * M.W.SCHMIDT, K.K.BALDRIDGE, J.A.BOATZ, S.T.ELBERT, *
          *   M.S.GORDON, J.H.JENSEN, S.KOSEKI, N.MATSUNAGA,   *
          *          K.A.NGUYEN, S.J.SU, T.L.WINDUS,           *
          *       TOGETHER WITH M.DUPUIS, J.A.MONTGOMERY       *
          *         J.COMPUT.CHEM.  14, 1347-1363(1993)        *
          **************** 64 BIT LINUX VERSION ****************

  SINCE 1993, STUDENTS AND POSTDOCS WORKING AT IOWA STATE UNIVERSITY
  AND ALSO IN THEIR VARIOUS JOBS AFTER LEAVING ISU HAVE MADE IMPORTANT
  CONTRIBUTIONS TO THE CODE:
     IVANA ADAMOVIC, CHRISTINE AIKENS, YURI ALEXEEV, POOJA ARORA,
     ANDREY ASADCHEV, ROB BELL, PRADIPTA BANDYOPADHYAY, JONATHAN BENTZ,
     COLLEEN BERTONI, BRETT BODE, KURT BRORSEN, CALEB CARLIN, GALINA CHABAN,
     WEI CHEN, CHEOL HO CHOI, PAUL DAY, ALBERT DEFUSCO, NUWAN DESILVA,
     TIM DUDLEY, DMITRI FEDOROV, ALEX FINDLATER, GRAHAM FLETCHER, 
     MARK FREITAG, KURT GLAESEMANN, EMILIE B GUIDEZ, ANASTASIA GUNINA, 
     DAN KEMP, SAROM SOK LEANG, GRANT MERRILL,
     NORIYUKI MINEZAWA, JONATHAN MULLIN,
     TAKESHI NAGATA, SEAN NEDD, HEATHER NETZLOFF, BOSILJKA NJEGIC, RYAN OLSON,
     MIKE PAK, BUU PHAM, DAVID POOLE,
     SPENCER PRUITT, LUKE ROSKOP, TOSAPORN SATTASATHUCHANA,
     JIM SHOEMAKER, LYUDMILA SLIPCHENKO,
     TONY SMITH, JIE SONG, TETSUYA TAKETSUGU, SIMON WEBB,
     JORGE LUIS GALVEZ VALLEJO, PENG XU, SOOHAENG YOO,
     FEDERICO ZAHARIEV

  ADDITIONAL CODE HAS BEEN PROVIDED BY COLLABORATORS IN OTHER GROUPS:
     IOWA STATE UNIVERSITY:
          JOE IVANIC, AARON WEST, LAIMUTIS BYTAUTAS, KLAUS RUEDENBERG
     UNIVERSITY OF TOKYO: KIMIHIKO HIRAO, TAKAHITO NAKAJIMA,
          TAKAO TSUNEDA, MUNEAKI KAMIYA, SUSUMU YANAGISAWA,
          KIYOSHI YAGI, MAHITO CHIBA, SEIKEN TOKURA, NAOAKI KAWAKAMI
     UNIVERSITY OF AARHUS: FRANK JENSEN
     UNIVERSITY OF IOWA: VISVALDAS KAIRYS, HUI LI
     NATIONAL INST. OF STANDARDS AND TECHNOLOGY: WALT STEVENS, DAVID GARMER
     UNIVERSITY OF PISA: BENEDETTA MENNUCCI, JACOPO TOMASI
     UNIVERSITY OF MEMPHIS: HENRY KURTZ, PRAKASHAN KORAMBATH
     UNIVERSITY OF ALBERTA: TOBY ZENG, MARIUSZ KLOBUKOWSKI
     UNIVERSITY OF NEW ENGLAND: MARK SPACKMAN
     MIE UNIVERSITY: HIROAKI UMEDA
     NAT. INST. OF ADVANCED INDUSTRIAL SCIENCE AND TECHNOLOGY: KAZUO KITAURA
     MICHIGAN STATE UNIVERSITY:
          KAROL KOWALSKI, MARTA WLOCH, JEFFREY GOUR, JESSE LUTZ,
          WEI LI, JUN SHEN, J. EMILIANO DEUSTUA, PIOTR PIECUCH
     UNIVERSITY OF MINNESOTA:
          ANDREW SAND, PRACHI SHARMA, YINAN SHU
     UNIVERSITY OF SILESIA: MONIKA MUSIAL, STANISLAW KUCHARSKI
     FACULTES UNIVERSITAIRES NOTRE-DAME DE LA PAIX:
          OLIVIER QUINET, BENOIT CHAMPAGNE
     UNIVERSITY OF CALIFORNIA - SANTA BARBARA: BERNARD KIRTMAN
     INSTITUTE FOR MOLECULAR SCIENCE:
          KAZUYA ISHIMURA, MICHIO KATOUDA, AND SHIGERU NAGASE
     UNIVERSITY OF NOTRE DAME: ANNA POMOGAEVA, DAN CHIPMAN
     KYUSHU UNIVERSITY:
          HARUYUKI NAKANO,
          FENG LONG GU, JACEK KORCHOWIEC, MARCIN MAKOWSKI, AND YURIKO AOKI,
          HIROTOSHI MORI AND EISAKU MIYOSHI
     PENNSYLVANIA STATE UNIVERSITY:
          TZVETELIN IORDANOV, CHET SWALINA, JONATHAN SKONE,
          SHARON HAMMES-SCHIFFER
     WASEDA UNIVERSITY:
          MASATO KOBAYASHI, TOMOKO AKAMA, TSUGUKI TOUMA,
          TAKESHI YOSHIKAWA, YASUHIRO IKABATA, JUNJI SEINO,
          YUYA NAKAJIMA, HIROMI NAKAI
     NANJING UNIVERSITY: SHUHUA LI
     UNIVERSITY OF NEBRASKA:
          PEIFENG SU, DEJUN SI, NANDUN THELLAMUREGE, YALI WANG, HUI LI
     UNIVERSITY OF ZURICH: ROBERTO PEVERATI, KIM BALDRIDGE
     N. COPERNICUS UNIVERSITY AND JACKSON STATE UNIVERSITY:
          MARIA BARYSZ
     UNIVERSITY OF COPENHAGEN: Jimmy Kromann, CASPER STEINMANN
     TOKYO INSTITUTE OF TECHNOLOGY: HIROYA NAKATA
     NAGOYA UNIVERSITY: YOSHIO NISHIMOTO, STEPHAN IRLE
     MOSCOW STATE UNIVERSITY: VLADIMIR MIRONOV
     A.N.NESMEYANOV INSTITUTE OF ORGANOELEMENT COMPOUNDS OF RUSSIAN ACADEMY OF SCIENCES:
          IGOR S. GERASIMOV
     JOHANNES KEPLER UNIVERSITY LINZ:
          CHRISTIAN FRIEDL


 PARALLEL VERSION RUNNING ON        6 PROCESSORS IN        1 NODES.

 EXECUTION OF GAMESS BEGUN Sat May 16 11:21:54 2020

            ECHO OF THE FIRST FEW INPUT CARDS -
 INPUT CARD> $BASIS GBASIS=N21 NGAUSS=3 $END                                                
 INPUT CARD> $CONTRL SCFTYP=RHF RUNTYP=OPTIMIZE DFTTYP=B3LYP MAXIT=60 MULT=1 ICHARG=0 $END  
 INPUT CARD> $SYSTEM MEMDDI=1000 MWORDS=30 $END                                             
 INPUT CARD> $STATPT NSTEP=999 $END                                                         
 INPUT CARD> $SCF DIRSCF=.TRUE. $END                                                        
 INPUT CARD> $DATA                                                                          
 INPUT CARD>                                                                                
 INPUT CARD>C1                                                                              
 INPUT CARD>N 7.0000000 -1.56617 1.06556 0.41142                                            
 INPUT CARD>C 6.0000000 -0.77232 -0.15995 0.40992                                           
 INPUT CARD>H 1.0000000 -0.73854 -0.56092 1.42951                                           
 INPUT CARD>C 6.0000000 -1.27783 -1.27543 -0.53666                                          
 INPUT CARD>C 6.0000000 0.65163 0.20235 0.01489                                             
 INPUT CARD>O 8.0000000 0.95784 1.10608 -0.73428                                            
 INPUT CARD>O 8.0000000 1.56335 -0.64180 0.55418                                            
 INPUT CARD>H 1.0000000 -1.37187 1.61297 -0.42388                                           
 INPUT CARD>H 1.0000000 -2.55961 0.85602 0.44055                                            
 INPUT CARD>H 1.0000000 -1.29197 -0.92317 -1.57396                                          
 INPUT CARD>H 1.0000000 -0.64958 -2.17073 -0.47475                                          
 INPUT CARD>H 1.0000000 -2.29822 -1.55708 -0.25474                                          
 INPUT CARD>H 1.0000000 2.43659 -0.37807 0.21585                                            
 INPUT CARD> $END                                                                           
   30000000 WORDS OF MEMORY AVAILABLE

     BASIS OPTIONS
     -------------
     GBASIS=N21          IGAUSS=       3      POLAR=NONE    
     NDFUNC=       0     NFFUNC=       0     DIFFSP=       F
     NPFUNC=       0      DIFFS=       F     BASNAM=        


     RUN TITLE
     ---------
                                                                                 

 THE POINT GROUP OF THE MOLECULE IS C1      
 THE ORDER OF THE PRINCIPAL AXIS IS     0

 ATOM      ATOMIC                      COORDINATES (BOHR)
           CHARGE         X                   Y                   Z
 N           7.0    -2.9596321502        2.0136164235        0.7774710659
 C           6.0    -1.4594731748       -0.3022616717        0.7746364769
 H           1.0    -1.3956382310       -1.0599851010        2.7013821967
 C           6.0    -2.4147485589       -2.4102132165       -1.0141403486
 C           6.0     1.2314021454        0.3823860536        0.0281380200
 O           8.0     1.8100551401        2.0901881205       -1.3875879983
 O           8.0     2.9543031229       -1.2128261389        1.0472483479
 H           1.0    -2.5924583908        3.0480713264       -0.8010170517
 H           1.0    -4.8369615354        1.6176432400        0.8325187839
 H           1.0    -2.4414692844       -1.7445383401       -2.9743531156
 H           1.0    -1.2275282071       -4.1020848933       -0.8971474127
 H           1.0    -4.3430060595       -2.9424545410       -0.4813887981
 H           1.0     4.6044874444       -0.7144487042        0.4078973544

          INTERNUCLEAR DISTANCES (ANGS.)
          ------------------------------

                1 N          2 C          3 H          4 C          5 C     

   1 N       0.0000000    1.4601626 *  2.0897167 *  2.5420916 *  2.4126758 *
   2 C       1.4601626 *  0.0000000    1.0961213 *  1.5478533 *  1.5214939 *
   3 H       2.0897167 *  1.0961213 *  0.0000000    2.1603663 *  2.1251596 *
   4 C       2.5420916 *  1.5478533 *  2.1603663 *  0.0000000    2.4921591 *
   5 C       2.4126758 *  1.5214939 *  2.1251596 *  2.4921591 *  0.0000000  
   6 O       2.7721646 *  2.4301192 *  3.2153664    3.2724401    1.2131563 *
   7 O       3.5678220    2.3892142 *  2.4640296 *  3.1086529    1.3544948 *
   8 H       1.0174165 *  2.0488846 *  2.9260826 *  2.8921303 *  2.5053782 *
   9 H       1.0157158 *  2.0560980 *  2.5103898 *  2.6722609 *  3.3046230  
  10 H       2.8234671 *  2.1882232 *  3.0754417    1.0955722 *  2.7511490 *
  11 H       3.4783628    2.2002142 *  2.4951169 *  1.0954876 *  2.7503461 *
  12 H       2.8031958 *  2.1730430 *  2.5023258 *  1.0954457 *  3.4452735  
  13 H       4.2596247    3.2221643    3.4040939    3.8946684    1.8876850 *

                6 O          7 O          8 H          9 H         10 H     

   1 N       2.7721646 *  3.5678220    1.0174165 *  1.0157158 *  2.8234671 *
   2 C       2.4301192 *  2.3892142 *  2.0488846 *  2.0560980 *  2.1882232 *
   3 H       3.2153664    2.4640296 *  2.9260826 *  2.5103898 *  3.0754417  
   4 C       3.2724401    3.1086529    2.8921303 *  2.6722609 *  1.0955722 *
   5 C       1.2131563 *  1.3544948 *  2.5053782 *  3.3046230    2.7511490 *
   6 O       0.0000000    2.2542972 *  2.4043366 *  3.7168818    3.1439725  
   7 O       2.2542972 *  0.0000000    3.8283293    4.3880720    3.5722544  
   8 H       2.4043366 *  3.8283293    0.0000000    1.6525552 *  2.7858704 *
   9 H       3.7168818    4.3880720    1.6525552 *  0.0000000    2.9716458 *
  10 H       3.1439725    3.5722544    2.7858704 *  2.9716458 *  0.0000000  
  11 H       3.6590489    2.8798234 *  3.8523598    3.6942123    1.7825076 *
  12 H       4.2337107    4.0501620    3.3069547    2.5248375 *  1.7761538 *
  13 H       2.3004673 *  0.9729177 *  4.3448662    5.1512603    4.1716560  

               11 H         12 H         13 H     

   1 N       3.4783628    2.8031958 *  4.2596247  
   2 C       2.2002142 *  2.1730430 *  3.2221643  
   3 H       2.4951169 *  2.5023258 *  3.4040939  
   4 C       1.0954876 *  1.0954457 *  3.8946684  
   5 C       2.7503461 *  3.4452735    1.8876850 *
   6 O       3.6590489    4.2337107    2.3004673 *
   7 O       2.8798234 *  4.0501620    0.9729177 *
   8 H       3.8523598    3.3069547    4.3448662  
   9 H       3.6942123    2.5248375 *  5.1512603  
  10 H       1.7825076 *  1.7761538 *  4.1716560  
  11 H       0.0000000    1.7728465 *  3.6352446  
  12 H       1.7728465 *  0.0000000    4.9020348  
  13 H       3.6352446    4.9020348    0.0000000  

  * ... LESS THAN  3.000


     ATOMIC BASIS SET
     ----------------
 THE CONTRACTED PRIMITIVE FUNCTIONS HAVE BEEN UNNORMALIZED
 THE CONTRACTED BASIS FUNCTIONS ARE NOW NORMALIZED TO UNITY

  SHELL TYPE  PRIMITIVE        EXPONENT          CONTRACTION COEFFICIENT(S)

 N         

      1   S       1           242.7660000    0.059865700508
      1   S       2            36.4851000    0.352955002994
      1   S       3             7.8144900    0.706513005993

      2   L       4             5.4252200   -0.413300077430    0.237972016222
      2   L       5             1.1491500    1.224417266851    0.858953058551

      3   L       6             0.2832050    1.000000000000    1.000000000000

 C         

      4   S       7           172.2560000    0.061766907377
      4   S       8            25.9109000    0.358794042852
      4   S       9             5.5333500    0.700713083689

      5   L      10             3.6649800   -0.395895162119    0.236459946619
      5   L      11             0.7705450    1.215834355681    0.860618805716

      6   L      12             0.1958570    1.000000000000    1.000000000000

 H         

      7   S      13             5.4471780    0.156284978695
      7   S      14             0.8245472    0.904690876670

      8   S      15             0.1831916    1.000000000000

 C         

      9   S      16           172.2560000    0.061766907377
      9   S      17            25.9109000    0.358794042852
      9   S      18             5.5333500    0.700713083689

     10   L      19             3.6649800   -0.395895162119    0.236459946619
     10   L      20             0.7705450    1.215834355681    0.860618805716

     11   L      21             0.1958570    1.000000000000    1.000000000000

 C         

     12   S      22           172.2560000    0.061766907377
     12   S      23            25.9109000    0.358794042852
     12   S      24             5.5333500    0.700713083689

     13   L      25             3.6649800   -0.395895162119    0.236459946619
     13   L      26             0.7705450    1.215834355681    0.860618805716

     14   L      27             0.1958570    1.000000000000    1.000000000000

 O         

     15   S      28           322.0370000    0.059239393389
     15   S      29            48.4308000    0.351499960776
     15   S      30            10.4206000    0.707657921031

     16   L      31             7.4029400   -0.404453583190    0.244586106967
     16   L      32             1.5762000    1.221561761397    0.853955373466

     17   L      33             0.3736840    1.000000000000    1.000000000000

 O         

     18   S      34           322.0370000    0.059239393389
     18   S      35            48.4308000    0.351499960776
     18   S      36            10.4206000    0.707657921031

     19   L      37             7.4029400   -0.404453583190    0.244586106967
     19   L      38             1.5762000    1.221561761397    0.853955373466

     20   L      39             0.3736840    1.000000000000    1.000000000000

 H         

     21   S      40             5.4471780    0.156284978695
     21   S      41             0.8245472    0.904690876670

     22   S      42             0.1831916    1.000000000000

 H         

     23   S      43             5.4471780    0.156284978695
     23   S      44             0.8245472    0.904690876670

     24   S      45             0.1831916    1.000000000000

 H         

     25   S      46             5.4471780    0.156284978695
     25   S      47             0.8245472    0.904690876670

     26   S      48             0.1831916    1.000000000000

 H         

     27   S      49             5.4471780    0.156284978695
     27   S      50             0.8245472    0.904690876670

     28   S      51             0.1831916    1.000000000000

 H         

     29   S      52             5.4471780    0.156284978695
     29   S      53             0.8245472    0.904690876670

     30   S      54             0.1831916    1.000000000000

 H         

     31   S      55             5.4471780    0.156284978695
     31   S      56             0.8245472    0.904690876670

     32   S      57             0.1831916    1.000000000000

 TOTAL NUMBER OF BASIS SET SHELLS             =   32
 NUMBER OF CARTESIAN GAUSSIAN BASIS FUNCTIONS =   68
 NUMBER OF ELECTRONS                          =   48
 CHARGE OF MOLECULE                           =    0
 SPIN MULTIPLICITY                            =    1
 NUMBER OF OCCUPIED ORBITALS (ALPHA)          =   24
 NUMBER OF OCCUPIED ORBITALS (BETA )          =   24
 TOTAL NUMBER OF ATOMS                        =   13
 THE NUCLEAR REPULSION ENERGY IS      248.6136328717

 SELECTED MURRAY-HANDY-LAMING RADIAL GRID

 LEGACY BECKE'S FUZZY CELL METHOD

 SELECTED ORIGINAL BECKE'S PARTITION FUNCTION

     LEBEDEV GRID-BASED DFT OPTIONS
     ------------------------------
     DFTTYP=B3LYP   
     NRAD  =      96     NLEB  =     302
     NRAD0 =      24     NLEB0 =     110
     SWOFF =    5.00E-03 (PURE SCF -> DFT)
     SWITCH=    3.00E-04 (COARSE -> TIGHT GRID)
     THRESH=    0.00E+00 GTHRE=    1.00E+00

 GRIMME'S EMPIRICAL DISPERSION CORRECTION= F

     $CONTRL OPTIONS
     ---------------
 SCFTYP=RHF          RUNTYP=OPTIMIZE     EXETYP=RUN     
 MPLEVL=       0     CITYP =NONE         CCTYP =NONE         VBTYP =NONE    
 DFTTYP=B3LYP        TDDFT =NONE    
 MULT  =       1     ICHARG=       0     NZVAR =       0     COORD =UNIQUE  
 PP    =NONE         RELWFN=NONE         LOCAL =NONE         NUMGRD=       F
 ISPHER=      -1     NOSYM =       0     MAXIT =      60     UNITS =ANGS    
 PLTORB=       F     MOLPLT=       F     AIMPAC=       F     FRIEND=        
 NPRINT=       7     IREST =       0     GEOM  =INPUT   
 NORMF =       0     NORMP =       0     ITOL  =      20     ICUT  =       9
 INTTYP=BEST         GRDTYP=BEST         QMTTOL= 1.0E-06

     $SYSTEM OPTIONS
     ---------------
  REPLICATED MEMORY=    30000000 WORDS (ON EVERY NODE).
 DISTRIBUTED MEMDDI=        1000 MILLION WORDS IN AGGREGATE,
 MEMDDI DISTRIBUTED OVER   6 PROCESSORS IS   166666666 WORDS/PROCESSOR.
 TOTAL MEMORY REQUESTED ON EACH PROCESSOR=   196666666 WORDS.
 TIMLIM=      525600.00 MINUTES, OR     365.0 DAYS.
 PARALL= T  BALTYP=  DLB     KDIAG=    0  COREFL= F
 MXSEQ2=     300 MXSEQ3=     150  mem10=         0

          ----------------
          PROPERTIES INPUT
          ----------------

     MOMENTS            FIELD           POTENTIAL          DENSITY
 IEMOM =       1   IEFLD =       0   IEPOT =       0   IEDEN =       0
 WHERE =COMASS     WHERE =NUCLEI     WHERE =NUCLEI     WHERE =NUCLEI  
 OUTPUT=BOTH       OUTPUT=BOTH       OUTPUT=BOTH       OUTPUT=BOTH    
 IEMINT=       0   IEFINT=       0                     IEDINT=       0
                                                       MORB  =       0
          EXTRAPOLATION IN EFFECT
          DIIS IN EFFECT
 ORBITAL PRINTING OPTION: NPREO=     1    68     2     1

     -------------------------------
     INTEGRAL TRANSFORMATION OPTIONS
     -------------------------------
     NWORD  =            0
     CUTOFF = 1.0E-09     MPTRAN =       0
     DIRTRF =       T     AOINTS =DUP     

          ----------------------
          INTEGRAL INPUT OPTIONS
          ----------------------
 NOPK  =       1 NORDER=       0 SCHWRZ=       T

     ------------------------------------------
     THE POINT GROUP IS C1 , NAXIS= 0, ORDER= 1
     ------------------------------------------

     DIMENSIONS OF THE SYMMETRY SUBSPACES ARE
 A   =   68

 ..... DONE SETTING UP THE RUN .....
 CPU     0: STEP CPU TIME=     0.02 TOTAL CPU TIME=          0.0 (      0.0 MIN)
 TOTAL WALL CLOCK TIME=          0.1 SECONDS, CPU UTILIZATION IS    33.33%


          -----------------------------
          STATIONARY POINT LOCATION RUN
          -----------------------------

 OBTAINING INITIAL HESSIAN, HESS=GUESS   
 CARTESIAN COORDINATE OPTIMIZATION USING BADGER'S RULE FORCE CONSTANT GUESS

          PARAMETERS CONTROLLING GEOMETRY SEARCH ARE
          METHOD =QA                  UPHESS =BFGS    
          NNEG   =         0          NFRZ   =         0
          NSTEP  =       999          IFOLOW =         1
          HESS   =GUESS               RESTAR =         F
          IHREP  =         0          HSSEND =         F
          NPRT   =         0          NPUN   =         0
          OPTTOL = 1.000E-04          RMIN   = 1.500E-03
          RMAX   = 1.000E-01          RLIM   = 7.000E-02
          DXMAX  = 3.000E-01          PURIFY =         F
          MOVIE  =         F          TRUPD  =         T
          TRMAX  = 5.000E-01          TRMIN  = 5.000E-02
          ITBMAT =         5          STPT   =         F
          STSTEP = 1.000E-02          PROJCT=          T

 BEGINNING GEOMETRY SEARCH POINT NSERCH=   0 ...

 COORDINATES OF ALL ATOMS ARE (ANGS)
   ATOM   CHARGE       X              Y              Z
 ------------------------------------------------------------
 N           7.0  -1.5661700000   1.0655600000   0.4114200000
 C           6.0  -0.7723200000  -0.1599500000   0.4099200000
 H           1.0  -0.7385400000  -0.5609200000   1.4295100000
 C           6.0  -1.2778300000  -1.2754300000  -0.5366600000
 C           6.0   0.6516300000   0.2023500000   0.0148900000
 O           8.0   0.9578400000   1.1060800000  -0.7342800000
 O           8.0   1.5633500000  -0.6418000000   0.5541800000
 H           1.0  -1.3718700000   1.6129700000  -0.4238800000
 H           1.0  -2.5596100000   0.8560200000   0.4405500000
 H           1.0  -1.2919700000  -0.9231700000  -1.5739600000
 H           1.0  -0.6495800000  -2.1707300000  -0.4747500000
 H           1.0  -2.2982200000  -1.5570800000  -0.2547400000
 H           1.0   2.4365900000  -0.3780700000   0.2158500000

          ********************
          1 ELECTRON INTEGRALS
          ********************
 ...... END OF ONE-ELECTRON INTEGRALS ......
 CPU     0: STEP CPU TIME=     0.01 TOTAL CPU TIME=          0.0 (      0.0 MIN)
 TOTAL WALL CLOCK TIME=          0.1 SECONDS, CPU UTILIZATION IS    42.86%

          -------------
          GUESS OPTIONS
          -------------
          GUESS =HUCKEL            NORB  =       0          NORDER=       0
          MIX   =       F          PRTMO =       F          PUNMO =       F
          TOLZ  = 1.0E-08          TOLE  = 1.0E-05
          SYMDEN=       F          PURIFY=       F

 INITIAL GUESS ORBITALS GENERATED BY HUCKEL   ROUTINE.
 HUCKEL GUESS REQUIRES     48616 WORDS.

 SYMMETRIES FOR INITIAL GUESS ORBITALS FOLLOW.   BOTH SET(S).
    24 ORBITALS ARE OCCUPIED (    6 CORE ORBITALS).
     7=A        8=A        9=A       10=A       11=A       12=A       13=A   
    14=A       15=A       16=A       17=A       18=A       19=A       20=A   
    21=A       22=A       23=A       24=A       25=A       26=A       27=A   
    28=A       29=A       30=A       31=A       32=A       33=A       34=A   
 ...... END OF INITIAL ORBITAL SELECTION ......
 CPU     0: STEP CPU TIME=     0.02 TOTAL CPU TIME=          0.0 (      0.0 MIN)
 TOTAL WALL CLOCK TIME=          0.1 SECONDS, CPU UTILIZATION IS    55.56%

                    ----------------------
                    AO INTEGRAL TECHNOLOGY
                    ----------------------
     S,P,L SHELL ROTATED AXIS INTEGRALS, REPROGRAMMED BY
        KAZUYA ISHIMURA (IMS) AND JOSE SIERRA (SYNSTAR).
     S,P,D,L SHELL ROTATED AXIS INTEGRALS PROGRAMMED BY
        KAZUYA ISHIMURA (INSTITUTE FOR MOLECULAR SCIENCE).
     S,P,D,F,G SHELL TO TOTAL QUARTET ANGULAR MOMENTUM SUM 5,
        ERIC PROGRAM BY GRAHAM FLETCHER (ELORET AND NASA ADVANCED
        SUPERCOMPUTING DIVISION, AMES RESEARCH CENTER).
     S,P,D,F,G,L SHELL GENERAL RYS QUADRATURE PROGRAMMED BY
        MICHEL DUPUIS (PACIFIC NORTHWEST NATIONAL LABORATORY).

          --------------------
          2 ELECTRON INTEGRALS
          --------------------

 DIRECT SCF METHOD SKIPS INTEGRAL STORAGE ON DISK.
 DIRECT TRANSFORMATION SKIPS AO INTEGRAL STORAGE ON DISK.
  ...... END OF TWO-ELECTRON INTEGRALS .....
 CPU     0: STEP CPU TIME=     0.01 TOTAL CPU TIME=          0.1 (      0.0 MIN)
 TOTAL WALL CLOCK TIME=          0.1 SECONDS, CPU UTILIZATION IS    60.00%

          --------------------------
             R-B3LYP SCF CALCULATION
          --------------------------

     NUCLEAR ENERGY =       248.6136328717
     MAXIT =   60     NPUNCH=    2
     EXTRAP=T  DAMP=F  SHIFT=F  RSTRCT=F  DIIS=T  DEM=F  SOSCF=F
         DENSITY MATRIX CONVERGENCE THRESHOLD=  2.00E-05
     COARSE -> FINE DFT GRID SWITCH THRESHOLD=  3.00E-04 (SWITCH IN $DFT)
                   HF -> DFT SWITCH THRESHOLD=  5.00E-03 (SWOFF IN $DFT)
     MEMORY REQUIRED FOR RHF ITERS=    520379 WORDS.

 DIRECT SCF CALCULATION, SCHWRZ=T   FDIFF=T,  DIRTHR=  0.00E+00 NITDIR=10
 SCHWARZ INEQUALITY OVERHEAD:      2312 INTEGRALS, T=        0.00

 DFT CODE IS SWITCHING FROM THE FINE GRID NRAD= 96,  NLEB=  302
                      TO THE COARSE GRID NRAD0= 24, NLEB0=  110

     EXCHANGE FUNCTIONAL   =B88&HFX   
     CORRELATION FUNCTIONAL=LYP88&VWN5
     DFT THRESHOLD         =.106E-07
     GRID CHANGE THRESHOLD =.300E-03
 FOR AN EULER-MACLAURIN QUADRATURE USING  96 RADIAL POINTS:
 SMALLEST GAUSSIAN PRIMITIVE EXPONENT=        0.1831915800 OF TYPE -S-
 ON ATOM NUMBER   3 HAS RADIAL NORMALIZATION=  1.000000
  LARGEST GAUSSIAN PRIMITIVE EXPONENT=      322.0370000000 OF TYPE -S-
 ON ATOM NUMBER   6 HAS RADIAL NORMALIZATION=  1.000000
 DFT IS SWITCHED OFF, PERFORMING PURE SCF UNTIL SWOFF THRESHOLD IS REACHED.

                                                                                   NONZERO     BLOCKS
 ITER EX DEM     TOTAL ENERGY        E CHANGE  DENSITY CHANGE    DIIS ERROR      INTEGRALS    SKIPPED
   1  0  0     -319.1701295986  -319.1701295986   0.777403803   0.776172902        2280894      37092
          * * *   INITIATING DIIS PROCEDURE   * * *
   2  1  0     -319.9617553157    -0.7916257171   0.156487931   0.171754468        2277080      38724
   3  2  0     -320.0174905520    -0.0557352362   0.089327253   0.138349740        2266010      41073
   4  3  0     -320.0639590206    -0.0464684686   0.034989470   0.012750532        2247433      43749
   5  4  0     -320.0652202282    -0.0012612076   0.007164197   0.004196962        2216953      46376
   6  5  0     -320.0653159681    -0.0000957399   0.002680590   0.001238006        2162146      50267
 CONVERGED TO SWOFF, SO DFT CALCULATION IS NOW SWITCHED ON.
          * * *   INITIATING DIIS PROCEDURE   * * *
   7  6  0     -321.7354148230    -1.6700988549   0.087598759   0.080287023        2281606      36731
   8  7  0     -321.7572344458    -0.0218196228   0.109752562   0.051257370        2266196      41234
   9  8  0     -321.7565512487     0.0006831971   0.050298686   0.065563608        2251662      42796
  10  9  0     -321.7653509397    -0.0087996910   0.009058015   0.019626645        2236172      44888
  11 10  0     -321.7660685629    -0.0007176232   0.002399540   0.004879115        2200812      47925
  12 11  0     -321.7661156564    -0.0000470935   0.000322957   0.000494409        2118978      53754
  13 12  0     -321.7661163969    -0.0000007406   0.000160153   0.000124263        2041085      57997
 DFT CODE IS SWITCHING BACK TO THE FINE GRID
          * * *   INITIATING DIIS PROCEDURE   * * *
  14 13  0     -321.7677341510    -0.0016177541   0.001477204   0.001274172        2281953      36522
  15 14  0     -321.7677519771    -0.0000178261   0.001381983   0.000972638        2139340      52034
  16 15  0     -321.7677518223     0.0000001549   0.000506685   0.001052054        2083601      55981
  17 16  0     -321.7677542938    -0.0000024715   0.000219149   0.000270022        2039145      59135
  18 17  0     -321.7677544537    -0.0000001599   0.000031830   0.000063079        1964740      64011
  19 18  0     -321.7677544621    -0.0000000084   0.000008342   0.000015440        1842575      70481
  20 19  0     -321.7677544628    -0.0000000008   0.000002232   0.000004111        1744550      75511

          -----------------
          DENSITY CONVERGED
          -----------------
     TIME TO FORM FOCK OPERATORS=       4.4 SECONDS (       0.2 SEC/ITER)
     FOCK TIME ON FIRST ITERATION=       0.0, LAST ITERATION=       0.5
     TIME TO SOLVE SCF EQUATIONS=       0.1 SECONDS (       0.0 SEC/ITER)

 FINAL R-B3LYP ENERGY IS     -321.7677544628 AFTER  20 ITERATIONS
 DFT EXCHANGE + CORRELATION ENERGY =       -34.5308538044
 TOTAL ELECTRON NUMBER             =        47.9998727900

          ------------
          EIGENVECTORS
          ------------

                      1          2          3          4          5
                  -19.0813   -19.0283   -14.2161   -10.2546   -10.1617
                     A          A          A          A          A   
    1  N  1  S    0.000070  -0.000113   0.984892  -0.000044  -0.000233
    2  N  1  S    0.000277  -0.000505   0.109611  -0.000850  -0.002103
    3  N  1  X   -0.000736   0.000643  -0.000397  -0.000921  -0.000039
    4  N  1  Y   -0.000010   0.000280  -0.002608   0.000291   0.000334
    5  N  1  Z   -0.000023  -0.000033  -0.002566   0.000178  -0.000041
    6  N  1  S   -0.003606   0.004978  -0.068408   0.000588   0.017519
    7  N  1  X    0.002189  -0.001626  -0.002440   0.002198   0.005205
    8  N  1  Y    0.001689  -0.003395   0.010955  -0.001091  -0.008474
    9  N  1  Z    0.000821  -0.000279   0.006180  -0.000933  -0.000955
   10  C  2  S   -0.000069  -0.000039  -0.000795  -0.004405   0.987267
   11  C  2  S   -0.000818  -0.000364  -0.003839  -0.002454   0.117915
   12  C  2  X   -0.000117  -0.000597  -0.000725  -0.000324   0.000737
   13  C  2  Y   -0.000321   0.000494   0.000795  -0.000294  -0.000384
   14  C  2  Z    0.000722  -0.000534   0.000562  -0.000120  -0.000795
   15  C  2  S    0.002812   0.006208   0.025085   0.019205  -0.116378
   16  C  2  X   -0.003694   0.009629  -0.008260   0.015627  -0.007160
   17  C  2  Y    0.004704  -0.008161   0.013946   0.003891  -0.000703
   18  C  2  Z   -0.007490   0.005863  -0.004540   0.000653   0.010011
   19  H  3  S    0.000860  -0.001671  -0.001071  -0.001747   0.001087
   20  H  3  S    0.002994  -0.002387   0.000931   0.001070   0.016650
   21  C  4  S    0.000167   0.000010   0.000054  -0.002295  -0.007992
   22  C  4  S    0.001126   0.000162  -0.000240  -0.002753  -0.004153
   23  C  4  X    0.000346   0.000340   0.000028  -0.001650   0.000620
   24  C  4  Y    0.000226  -0.000087  -0.000852  -0.000937   0.000340
   25  C  4  Z   -0.000257   0.000129  -0.000534   0.000011   0.000445
   26  C  4  S   -0.003967  -0.000143  -0.002437   0.005199   0.028147
   27  C  4  X   -0.001208  -0.002881   0.000599   0.006004   0.004098
   28  C  4  Y   -0.003677   0.002921  -0.002938   0.004743   0.013159
   29  C  4  Z    0.001596  -0.002375   0.000874  -0.000119   0.007781
   30  C  5  S   -0.000442   0.000277   0.000033   0.985265   0.003845
   31  C  5  S   -0.000894   0.001510  -0.000400   0.105263  -0.002754
   32  C  5  X    0.001570   0.000757   0.000798  -0.000257  -0.000088
   33  C  5  Y   -0.000635   0.001442  -0.000092   0.000107  -0.000057
   34  C  5  Z    0.000571  -0.001178  -0.000346  -0.000707  -0.000255
   35  C  5  S    0.016620   0.019038  -0.003984  -0.051923   0.030496
   36  C  5  X    0.014624   0.008765   0.002768   0.019882  -0.021997
   37  C  5  Y   -0.014684   0.024015  -0.003092   0.009892  -0.001977
   38  C  5  Z    0.009314  -0.020100   0.002027  -0.008297   0.003074
   39  O  6  S   -0.002125   0.982839  -0.000032   0.000402   0.000027
   40  O  6  S   -0.000590   0.108089  -0.000243   0.001623  -0.000085
   41  O  6  X    0.000814  -0.001089  -0.000117   0.000941  -0.000198
   42  O  6  Y   -0.000166  -0.003577   0.000030   0.000742   0.000301
   43  O  6  Z   -0.000021   0.002936  -0.000104  -0.000530  -0.000138
   44  O  6  S    0.002814  -0.065997   0.002184  -0.006036  -0.001273
   45  O  6  X   -0.005016   0.004246  -0.000007  -0.002326   0.003229
   46  O  6  Y    0.001541   0.013533  -0.000604   0.005390  -0.000257
   47  O  6  Z   -0.000375  -0.011169   0.000672  -0.004701  -0.000275
   48  O  7  S    0.982662   0.002059   0.000019   0.000226  -0.000032
   49  O  7  S    0.106802  -0.000177   0.000078   0.001349  -0.000621
   50  O  7  X   -0.000446   0.000791   0.000236   0.000628   0.000692
   51  O  7  Y    0.003191   0.000415   0.000133   0.000671  -0.000255
   52  O  7  Z   -0.002494  -0.000483  -0.000015  -0.000542   0.000162
   53  O  7  S   -0.057567   0.003591  -0.001116   0.001385   0.001075
   54  O  7  X    0.005072  -0.004953  -0.000637  -0.002975  -0.001205
   55  O  7  Y   -0.010216  -0.002469  -0.000642  -0.004348   0.001171
   56  O  7  Z    0.007417   0.002776   0.000245   0.003383  -0.000864
   57  H  8  S   -0.000253  -0.000245   0.002285  -0.000928  -0.001313
   58  H  8  S    0.000833   0.000932   0.008717   0.001265   0.002907
   59  H  9  S    0.000929  -0.001039   0.002427   0.000396  -0.001019
   60  H  9  S    0.000637  -0.000298   0.008777   0.001570   0.001530
   61  H 10  S    0.000568   0.000052   0.000527  -0.001210  -0.001978
   62  H 10  S    0.001999  -0.002413   0.000303  -0.000670  -0.000302
   63  H 11  S    0.000160   0.000368  -0.000538  -0.001003  -0.001279
   64  H 11  S   -0.000978   0.002465   0.000449   0.000342   0.001376
   65  H 12  S    0.000089  -0.000151   0.000482   0.000090  -0.001552
   66  H 12  S   -0.000989  -0.000313  -0.001258   0.004133  -0.000414
   67  H 13  S    0.003587   0.001498   0.000348   0.001602   0.000094
   68  H 13  S    0.003999  -0.000561  -0.000111   0.001418   0.002776

                      6          7          8          9         10
                  -10.1182    -1.1165    -1.0263    -0.8883    -0.7499
                     A          A          A          A          A   
    1  N  1  S   -0.000027  -0.006288  -0.009684  -0.182202  -0.109162
    2  N  1  S   -0.000746   0.006542   0.011445   0.165583   0.095755
    3  N  1  X   -0.000175   0.004587   0.002168   0.000256  -0.050384
    4  N  1  Y    0.000412  -0.003344  -0.004223  -0.064684   0.019641
    5  N  1  Z    0.000271  -0.002416  -0.004530  -0.057755  -0.044119
    6  N  1  S    0.000976   0.013867   0.002420   0.530687   0.374347
    7  N  1  X    0.001092  -0.001612   0.008740  -0.005491  -0.019956
    8  N  1  Y    0.000203  -0.000024   0.009173  -0.061838  -0.018382
    9  N  1  Z   -0.000191  -0.001296  -0.000474  -0.058435  -0.047071
   10  C  2  S    0.007323  -0.018983  -0.008409  -0.123111   0.105803
   11  C  2  S   -0.000683   0.016604   0.007136   0.120235  -0.097544
   12  C  2  X   -0.000100   0.018551   0.001734  -0.037394  -0.062148
   13  C  2  Y   -0.000221   0.005613   0.010624   0.060639   0.091867
   14  C  2  Z    0.000176  -0.005293  -0.006260  -0.015094   0.032208
   15  C  2  S    0.013496   0.016439   0.005656   0.277021  -0.316540
   16  C  2  X   -0.007735  -0.008820  -0.036208   0.021796  -0.020269
   17  C  2  Y   -0.009672  -0.005822   0.033432  -0.015528   0.018165
   18  C  2  Z   -0.007458  -0.001417  -0.031761  -0.003215   0.028967
   19  H  3  S   -0.000988   0.005969   0.005462   0.042755  -0.059954
   20  H  3  S    0.001748  -0.004229   0.006318  -0.014610  -0.001251
   21  C  4  S    0.986249  -0.003354  -0.001071  -0.045293   0.138088
   22  C  4  S    0.112195   0.005543   0.003740   0.047095  -0.136966
   23  C  4  X    0.000228   0.003053   0.000757   0.005961  -0.024194
   24  C  4  Y    0.000114   0.002886   0.003453   0.029934  -0.019128
   25  C  4  Z    0.000021   0.001465  -0.000663   0.018214  -0.021910
   26  C  4  S   -0.089651  -0.003803  -0.005320   0.082250  -0.352909
   27  C  4  X   -0.001848  -0.002933   0.002380  -0.010821  -0.006993
   28  C  4  Y   -0.003648  -0.004053  -0.019184   0.003591   0.017427
   29  C  4  Z   -0.002826  -0.002139   0.008686  -0.006355  -0.002431
   30  C  5  S    0.001686  -0.127246  -0.050519  -0.014771   0.053081
   31  C  5  S   -0.002461   0.143251   0.054382   0.021160  -0.067439
   32  C  5  X    0.001148   0.082231  -0.020998  -0.065386   0.080793
   33  C  5  Y    0.000824   0.019330   0.162191  -0.028617   0.063847
   34  C  5  Z    0.000075  -0.027754  -0.124186   0.031314  -0.033889
   35  C  5  S    0.008510   0.117453   0.057777   0.009997  -0.089503
   36  C  5  X   -0.004127  -0.044864  -0.005284  -0.002985   0.013141
   37  C  5  Y   -0.003337  -0.017232  -0.051692   0.015947   0.036588
   38  C  5  Z    0.001403   0.017061   0.039006  -0.007113  -0.018522
   39  O  6  S    0.000015  -0.120010  -0.172823   0.031588  -0.022252
   40  O  6  S    0.000168   0.111543   0.163199  -0.030293   0.023621
   41  O  6  X   -0.000238  -0.017355  -0.038437  -0.008011   0.013103
   42  O  6  Y   -0.000155  -0.075124  -0.088306   0.015752   0.000773
   43  O  6  Z   -0.000096   0.060358   0.073348  -0.010471   0.005069
   44  O  6  S   -0.000038   0.363888   0.550292  -0.109077   0.065974
   45  O  6  X    0.001111  -0.004547  -0.039722  -0.008633   0.011435
   46  O  6  Y    0.000778  -0.076316  -0.083469   0.016378   0.003676
   47  O  6  Z    0.000251   0.059857   0.069769  -0.011297   0.001719
   48  O  7  S    0.000075  -0.166419   0.149996   0.006982  -0.022206
   49  O  7  S    0.000697   0.153399  -0.140641  -0.007508   0.020717
   50  O  7  X   -0.000367  -0.004472  -0.012938  -0.017341   0.083428
   51  O  7  Y   -0.000135   0.072925  -0.046033  -0.004812   0.001980
   52  O  7  Z   -0.000013  -0.058399   0.039392   0.006010  -0.006477
   53  O  7  S   -0.002495   0.508294  -0.493814  -0.017464   0.087703
   54  O  7  X    0.002232  -0.005325   0.009321  -0.013198   0.062335
   55  O  7  Y    0.000225   0.089144  -0.050273  -0.004679   0.006542
   56  O  7  Z    0.000305  -0.070838   0.040412   0.005003  -0.008007
   57  H  8  S   -0.000431   0.004956   0.005900   0.091678   0.074222
   58  H  8  S   -0.000280  -0.001336   0.006200   0.005830   0.028731
   59  H  9  S   -0.000216   0.001306   0.006706   0.092122   0.079663
   60  H  9  S    0.000303  -0.002478   0.000595   0.012850   0.030396
   61  H 10  S   -0.000146   0.001878   0.001810   0.019152  -0.071182
   62  H 10  S    0.016034   0.000897   0.012368  -0.002974  -0.003551
   63  H 11  S   -0.000152   0.001848   0.000656   0.017305  -0.075287
   64  H 11  S    0.015905   0.001342  -0.014110  -0.002908   0.000254
   65  H 12  S   -0.000125   0.000987   0.000716   0.018246  -0.068014
   66  H 12  S    0.015305  -0.002041  -0.003251   0.000434   0.000074
   67  H 13  S   -0.000256   0.072749  -0.077759  -0.012000   0.052875
   68  H 13  S   -0.000149   0.015065  -0.013249  -0.007193   0.030435

                     11         12         13         14         15
                   -0.6697    -0.5833    -0.5234    -0.4655    -0.4620
                     A          A          A          A          A   
    1  N  1  S   -0.017300   0.037678   0.000708  -0.003274  -0.009995
    2  N  1  S    0.013620  -0.031250  -0.000246  -0.000025   0.008341
    3  N  1  X   -0.056919   0.106924  -0.121641  -0.079380   0.164182
    4  N  1  Y    0.009840  -0.091543  -0.126619   0.113807   0.038450
    5  N  1  Z   -0.018731   0.053616   0.138505  -0.040579  -0.020665
    6  N  1  S    0.070249  -0.163179  -0.009674   0.028961   0.042885
    7  N  1  X   -0.030468   0.074701  -0.092164  -0.051839   0.139763
    8  N  1  Y   -0.007200  -0.046385  -0.094588   0.065637   0.025371
    9  N  1  Z   -0.017111   0.049961   0.106041  -0.027061  -0.013386
   10  C  2  S    0.057376  -0.109341  -0.035279   0.004997   0.018964
   11  C  2  S   -0.054572   0.098723   0.030374  -0.001225  -0.016854
   12  C  2  X   -0.127356  -0.018284  -0.146358   0.078904   0.007473
   13  C  2  Y   -0.062374   0.033044  -0.089223  -0.123657   0.115944
   14  C  2  Z   -0.046366   0.051852   0.179229   0.032897   0.128797
   15  C  2  S   -0.195568   0.413050   0.163725  -0.051934  -0.077033
   16  C  2  X   -0.033565  -0.006064  -0.084907   0.080164   0.026741
   17  C  2  Y   -0.006341   0.012649  -0.073084  -0.117670   0.062811
   18  C  2  Z   -0.004334  -0.008891   0.132760   0.040221   0.075617
   19  H  3  S   -0.044048   0.088426   0.130623   0.044420   0.032512
   20  H  3  S   -0.006693   0.036399   0.067437   0.047710   0.045374
   21  C  4  S   -0.142071   0.049983   0.012198   0.006287  -0.021624
   22  C  4  S    0.130580  -0.041242  -0.012080  -0.005777   0.019062
   23  C  4  X   -0.035065   0.017750  -0.052206   0.082017  -0.106827
   24  C  4  Y   -0.026718   0.056507  -0.007492  -0.044655  -0.126432
   25  C  4  Z   -0.021773   0.056341   0.100877   0.054072  -0.045156
   26  C  4  S    0.457549  -0.210204  -0.052780  -0.034793   0.093936
   27  C  4  X   -0.006512   0.000852  -0.033748   0.053836  -0.081645
   28  C  4  Y    0.013042  -0.001485  -0.002435  -0.013304  -0.088402
   29  C  4  Z   -0.000234   0.021802   0.056970   0.037301  -0.022064
   30  C  5  S    0.095655   0.056588   0.034752   0.069035   0.019788
   31  C  5  S   -0.113032  -0.066127  -0.041452  -0.101059  -0.026303
   32  C  5  X    0.073512  -0.159297   0.188790  -0.128207   0.020503
   33  C  5  Y    0.081672   0.112639  -0.017718  -0.123334   0.122208
   34  C  5  Z   -0.094507  -0.046328   0.045998   0.046246   0.217029
   35  C  5  S   -0.235558  -0.186834  -0.109071  -0.154932  -0.052979
   36  C  5  X    0.061560  -0.033825   0.142586  -0.093065   0.014331
   37  C  5  Y    0.044782   0.050959   0.004444  -0.046270   0.137184
   38  C  5  Z   -0.052822  -0.013470   0.024626  -0.005979   0.172641
   39  O  6  S   -0.037929  -0.016454  -0.035513  -0.098599  -0.023593
   40  O  6  S    0.038818   0.015244   0.033633   0.084318   0.020088
   41  O  6  X    0.022192  -0.043527   0.114975  -0.006770   0.016918
   42  O  6  Y    0.001943   0.030235   0.017127   0.178770   0.160880
   43  O  6  Z   -0.011589  -0.009475  -0.000512  -0.184291   0.095355
   44  O  6  S    0.127179   0.068717   0.139489   0.422934   0.098956
   45  O  6  X    0.013532  -0.037595   0.095788  -0.011026   0.010253
   46  O  6  Y    0.003518   0.023100   0.011423   0.154215   0.144923
   47  O  6  Z   -0.012124  -0.008089   0.000074  -0.160812   0.086319
   48  O  7  S   -0.024039  -0.016741   0.008941  -0.055387  -0.018788
   49  O  7  S    0.023292   0.017180  -0.005293   0.051845   0.016569
   50  O  7  X    0.191283   0.294458  -0.088096  -0.064661  -0.028393
   51  O  7  Y   -0.027950  -0.081266   0.065509  -0.186808   0.084735
   52  O  7  Z   -0.012730   0.031798  -0.005465   0.100007   0.177502
   53  O  7  S    0.094580   0.059028  -0.044488   0.233644   0.086054
   54  O  7  X    0.148037   0.252213  -0.078085  -0.071835  -0.031225
   55  O  7  Y   -0.025189  -0.074379   0.054279  -0.190112   0.083869
   56  O  7  Z   -0.010145   0.031886   0.000086   0.102331   0.174862
   57  H  8  S    0.012876  -0.063903  -0.133465   0.058323   0.058662
   58  H  8  S    0.015909  -0.036998  -0.092017   0.091289   0.057936
   59  H  9  S    0.038470  -0.074096   0.098005   0.037640  -0.108552
   60  H  9  S    0.024170  -0.050305   0.072706   0.032950  -0.086269
   61  H 10  S    0.088343  -0.049133  -0.065386  -0.046063   0.017748
   62  H 10  S    0.019592  -0.019005  -0.049657  -0.031471   0.009478
   63  H 11  S    0.083067  -0.049671  -0.018680   0.049550   0.040105
   64  H 11  S    0.020198  -0.029655  -0.009584   0.063951   0.024212
   65  H 12  S    0.098486  -0.041332   0.035148  -0.037125   0.090574
   66  H 12  S    0.032256  -0.020360   0.035477  -0.026797   0.062193
   67  H 13  S    0.114664   0.166659  -0.046861  -0.054014  -0.032727
   68  H 13  S    0.069740   0.119337  -0.039835  -0.012022  -0.020794

                     16         17         18         19         20
                   -0.4372    -0.4252    -0.4007    -0.3980    -0.3650
                     A          A          A          A          A   
    1  N  1  S    0.008917  -0.005169   0.031992   0.017231  -0.005482
    2  N  1  S   -0.009396   0.004664  -0.028648  -0.013960  -0.001254
    3  N  1  X    0.154921   0.183465  -0.086651  -0.102260   0.066885
    4  N  1  Y   -0.132979   0.131362   0.096505   0.054735  -0.126215
    5  N  1  Z   -0.023244  -0.150361  -0.119348  -0.049271  -0.030165
    6  N  1  S   -0.029576   0.020360  -0.128568  -0.075098   0.056149
    7  N  1  X    0.123690   0.136639  -0.068357  -0.101879   0.075953
    8  N  1  Y   -0.123897   0.111946   0.083254   0.048679  -0.122792
    9  N  1  Z   -0.017552  -0.125631  -0.106369  -0.036297  -0.026501
   10  C  2  S   -0.019233  -0.029295  -0.004246  -0.027050  -0.003670
   11  C  2  S    0.016043   0.015852   0.007097   0.016361   0.006823
   12  C  2  X   -0.157247  -0.058011  -0.010544   0.034584  -0.189318
   13  C  2  Y    0.108485  -0.099474  -0.164437  -0.136229   0.007170
   14  C  2  Z   -0.108893   0.033692  -0.107676  -0.082403  -0.159936
   15  C  2  S    0.088670   0.217211  -0.028086   0.189701  -0.037671
   16  C  2  X   -0.067552   0.035153  -0.043468   0.068976  -0.145114
   17  C  2  Y    0.061238  -0.044954  -0.120281  -0.089630  -0.020041
   18  C  2  Z   -0.096842   0.018869  -0.099706  -0.085071  -0.170351
   19  H  3  S   -0.077594   0.063439  -0.017540   0.003579  -0.105557
   20  H  3  S   -0.052340   0.028990  -0.002941  -0.009332  -0.064983
   21  C  4  S    0.002714   0.000869  -0.000083  -0.006611  -0.010783
   22  C  4  S   -0.001494  -0.002415   0.002942   0.005472   0.012133
   23  C  4  X   -0.097948   0.045730  -0.194439   0.171273   0.206387
   24  C  4  Y    0.184804  -0.028106   0.158895   0.184042  -0.018989
   25  C  4  Z   -0.075032   0.151085   0.198576  -0.070620   0.151498
   26  C  4  S   -0.027268  -0.002703  -0.024020   0.017603   0.021304
   27  C  4  X   -0.078356   0.033394  -0.166114   0.123846   0.162189
   28  C  4  Y    0.141937  -0.034802   0.114325   0.129665  -0.024668
   29  C  4  Z   -0.061783   0.120214   0.148096  -0.070819   0.112333
   30  C  5  S    0.051969   0.023322  -0.016645   0.010740   0.021634
   31  C  5  S   -0.067165  -0.019396   0.022917  -0.009087  -0.019689
   32  C  5  X    0.059104   0.149542  -0.030636   0.030961   0.100559
   33  C  5  Y   -0.131715  -0.089799   0.076508   0.018790   0.120767
   34  C  5  Z    0.018915  -0.034023  -0.000081   0.163367  -0.038910
   35  C  5  S   -0.150835  -0.137390   0.047807  -0.071777  -0.090707
   36  C  5  X    0.075370   0.194127  -0.071434   0.118360   0.046849
   37  C  5  Y   -0.026950   0.009865   0.018570   0.116671   0.024154
   38  C  5  Z   -0.050797  -0.108069   0.071208   0.094238   0.071150
   39  O  6  S   -0.057085  -0.004251   0.018551  -0.019675   0.014403
   40  O  6  S    0.050842   0.007599  -0.018903   0.019183  -0.013702
   41  O  6  X    0.074108   0.123710  -0.079024   0.107429  -0.002083
   42  O  6  Y    0.097733  -0.025738  -0.017954   0.145832  -0.047225
   43  O  6  Z   -0.151268  -0.056406   0.087345   0.050314   0.137416
   44  O  6  S    0.226949  -0.019103  -0.053477   0.058340  -0.032057
   45  O  6  X    0.058692   0.108111  -0.075744   0.101892  -0.015228
   46  O  6  Y    0.092612  -0.010569  -0.024887   0.142113  -0.051386
   47  O  6  Z   -0.144204  -0.058922   0.087747   0.040191   0.140074
   48  O  7  S   -0.026466   0.042675  -0.017924   0.035003  -0.045908
   49  O  7  S    0.025127  -0.038429   0.015253  -0.029874   0.041201
   50  O  7  X   -0.129542   0.010472  -0.000901   0.077160  -0.085659
   51  O  7  Y   -0.025821   0.103161  -0.009584   0.221587  -0.065980
   52  O  7  Z   -0.019368  -0.175987   0.113097   0.072252   0.171956
   53  O  7  S    0.122241  -0.175584   0.078905  -0.156640   0.200759
   54  O  7  X   -0.132004  -0.004631   0.007355   0.066700  -0.072992
   55  O  7  Y   -0.028464   0.097219  -0.001897   0.224793  -0.073585
   56  O  7  Z   -0.016940  -0.173927   0.113866   0.083498   0.176330
   57  H  8  S   -0.026675   0.169463   0.072401   0.022466  -0.029243
   58  H  8  S   -0.008072   0.134726   0.068884   0.028172  -0.047926
   59  H  9  S   -0.102245  -0.159992   0.022995   0.047845  -0.040241
   60  H  9  S   -0.095028  -0.147648   0.033893   0.042140  -0.055915
   61  H 10  S    0.084249  -0.102150  -0.093078   0.094526  -0.107052
   62  H 10  S    0.071118  -0.081014  -0.084999   0.076851  -0.120741
   63  H 11  S   -0.139083   0.038365  -0.163044  -0.035808   0.123308
   64  H 11  S   -0.102910   0.022990  -0.151227  -0.060187   0.127634
   65  H 12  S    0.011520  -0.003065   0.140345  -0.156723  -0.105912
   66  H 12  S    0.009693  -0.011683   0.125931  -0.149275  -0.116256
   67  H 13  S   -0.070192   0.040705  -0.020640   0.057758  -0.092456
   68  H 13  S   -0.058860   0.017389  -0.016478   0.044152  -0.084746

                     21         22         23         24         25
                   -0.3551    -0.3042    -0.2662    -0.2104     0.0182
                     A          A          A          A          A   
    1  N  1  S    0.001511  -0.003692  -0.010777  -0.069349   0.019677
    2  N  1  S   -0.000033   0.006860   0.009646   0.065311  -0.012117
    3  N  1  X   -0.045737   0.018069   0.000866   0.113582  -0.024984
    4  N  1  Y   -0.104591  -0.004875   0.024910   0.236245   0.029172
    5  N  1  Z    0.043735  -0.002075   0.003029   0.367386  -0.015474
    6  N  1  S   -0.007298   0.002089   0.058020   0.287838  -0.149856
    7  N  1  X   -0.038242  -0.008871  -0.024115   0.125870  -0.047614
    8  N  1  Y   -0.096761  -0.000570   0.045628   0.309362   0.068657
    9  N  1  Z    0.041567   0.000082  -0.007800   0.446505  -0.050191
   10  C  2  S    0.000038   0.001372  -0.021138   0.014160  -0.000585
   11  C  2  S    0.001192  -0.003619   0.010769  -0.015525   0.002003
   12  C  2  X    0.074544  -0.000529   0.153730  -0.010340  -0.019413
   13  C  2  Y    0.108418   0.015682   0.062568  -0.080190   0.008942
   14  C  2  Z   -0.179760   0.015248  -0.077165  -0.084569   0.003512
   15  C  2  S    0.020990   0.002151   0.205402  -0.054985  -0.004625
   16  C  2  X    0.049567   0.000451   0.194458  -0.013723   0.045639
   17  C  2  Y    0.061145   0.047389   0.080811   0.013548   0.158885
   18  C  2  Z   -0.132236  -0.019258  -0.069762   0.021315   0.150234
   19  H  3  S   -0.161744   0.008558  -0.059854  -0.084409  -0.052561
   20  H  3  S   -0.188491   0.052867  -0.083911  -0.124178  -0.196463
   21  C  4  S   -0.001509   0.003489   0.002598  -0.036060  -0.044787
   22  C  4  S    0.002418  -0.001527  -0.002321   0.027071   0.028794
   23  C  4  X   -0.029017  -0.001155  -0.049532   0.021558   0.037077
   24  C  4  Y   -0.113357  -0.039336  -0.017568   0.126464   0.071219
   25  C  4  Z    0.158958   0.002444   0.006258   0.085694   0.056957
   26  C  4  S    0.005094  -0.012322  -0.004597   0.258495   0.430916
   27  C  4  X   -0.026240  -0.004763  -0.054567   0.095567  -0.056507
   28  C  4  Y   -0.097663  -0.052741  -0.015490   0.099402   0.160983
   29  C  4  Z    0.113919   0.011835  -0.002365   0.094943   0.169026
   30  C  5  S   -0.021482   0.001012  -0.016529   0.006263  -0.003132
   31  C  5  S    0.019219  -0.001477   0.020490  -0.011722   0.006314
   32  C  5  X   -0.125271  -0.007255  -0.075627   0.021613   0.039217
   33  C  5  Y   -0.112693  -0.063566  -0.019263  -0.006425   0.289832
   34  C  5  Z    0.129688  -0.083239   0.020720  -0.022119   0.374827
   35  C  5  S    0.115375  -0.012494   0.034356  -0.002985  -0.010525
   36  C  5  X   -0.065160   0.004534   0.134971  -0.007691   0.066074
   37  C  5  Y    0.042421  -0.057854  -0.080513   0.027261   0.310216
   38  C  5  Z    0.008389  -0.064642   0.045000  -0.027670   0.414481
   39  O  6  S   -0.027515   0.000725   0.000496   0.000033   0.000095
   40  O  6  S    0.026201  -0.001403  -0.003252   0.002927  -0.001181
   41  O  6  X   -0.001166  -0.037377   0.446983  -0.025983  -0.030346
   42  O  6  Y    0.187811  -0.218309  -0.113803   0.009743  -0.200733
   43  O  6  Z   -0.105191  -0.277992   0.031445   0.002115  -0.259166
   44  O  6  S    0.077086   0.000803   0.014172  -0.018757   0.006195
   45  O  6  X    0.015440  -0.043885   0.475545  -0.024735  -0.045045
   46  O  6  Y    0.193647  -0.242783  -0.123310   0.019803  -0.277003
   47  O  6  Z   -0.110222  -0.308693   0.037541   0.001669  -0.352808
   48  O  7  S    0.036321  -0.001130   0.013522  -0.007155  -0.000821
   49  O  7  S   -0.034346   0.001817   0.001815   0.004670   0.001218
   50  O  7  X    0.055279   0.041963   0.056762  -0.009762  -0.022611
   51  O  7  Y    0.165372   0.242382  -0.160245   0.016639  -0.131798
   52  O  7  Z   -0.098874   0.306782   0.121800   0.017196  -0.162313
   53  O  7  S   -0.144464   0.001168  -0.168710   0.050998   0.001005
   54  O  7  X    0.039707   0.050734   0.085845  -0.014355  -0.027713
   55  O  7  Y    0.181005   0.282970  -0.208344   0.021277  -0.174086
   56  O  7  Z   -0.107228   0.361148   0.156921   0.015487  -0.214443
   57  H  8  S   -0.086927   0.006998  -0.006834  -0.049074  -0.004835
   58  H  8  S   -0.083382  -0.002227  -0.099100  -0.051574  -0.017632
   59  H  9  S    0.059414  -0.012389   0.008197  -0.046972   0.022008
   60  H  9  S    0.062114  -0.022651   0.022676  -0.050308   0.064992
   61  H 10  S   -0.147907  -0.014011  -0.020058  -0.003935   0.010193
   62  H 10  S   -0.167826   0.016019  -0.047572  -0.058509  -0.024641
   63  H 11  S    0.067364   0.021701  -0.016388  -0.053363   0.024354
   64  H 11  S    0.051842  -0.014927  -0.013269  -0.135602   0.040347
   65  H 12  S    0.081130   0.007337   0.049998   0.009829  -0.049021
   66  H 12  S    0.091998   0.005533   0.065514  -0.009595  -0.273249
   67  H 13  S    0.072444  -0.001463   0.004047  -0.010814  -0.001120
   68  H 13  S    0.062517  -0.004330   0.077592  -0.021547  -0.007297

                     26         27         28         29         30
                    0.0983     0.1139     0.1611     0.1688     0.1779
                     A          A          A          A          A   
    1  N  1  S   -0.005699  -0.106063  -0.042160   0.092652   0.019430
    2  N  1  S   -0.003157   0.051329   0.018552  -0.043942  -0.014630
    3  N  1  X    0.028423  -0.124406   0.031717   0.053699  -0.121751
    4  N  1  Y   -0.033016  -0.037943   0.079396   0.002010   0.078463
    5  N  1  Z    0.029818  -0.088776  -0.104454   0.051740   0.078504
    6  N  1  S    0.077323   1.032922   0.421388  -0.910984  -0.155879
    7  N  1  X    0.077893  -0.305937   0.082146   0.106861  -0.328974
    8  N  1  Y   -0.122605  -0.057008   0.177752   0.039143   0.146205
    9  N  1  Z    0.056216  -0.198319  -0.211687   0.131134   0.180080
   10  C  2  S    0.048254  -0.025406   0.059723  -0.032600  -0.007495
   11  C  2  S   -0.024575   0.004610  -0.032508   0.028454   0.000562
   12  C  2  X   -0.090432   0.033236   0.062856  -0.041224  -0.097758
   13  C  2  Y   -0.017879  -0.112973   0.087961   0.082077   0.055643
   14  C  2  Z    0.004505   0.058688  -0.183928   0.065222  -0.091290
   15  C  2  S   -0.558624   0.426853  -0.782205   0.329837   0.055584
   16  C  2  X   -0.142645   0.123964   0.216702  -0.057738  -0.175379
   17  C  2  Y   -0.139755  -0.304450   0.385444   0.168942   0.203753
   18  C  2  Z    0.077376   0.139291  -0.593259   0.284106  -0.344017
   19  H  3  S   -0.034932  -0.007982   0.101363   0.011764   0.030385
   20  H  3  S    0.078305  -0.449032   1.278993  -0.305835   0.437063
   21  C  4  S    0.022048  -0.073496  -0.035086  -0.120645   0.019418
   22  C  4  S   -0.015304   0.039610   0.013685   0.053290  -0.010954
   23  C  4  X   -0.009159  -0.085592   0.042830  -0.035006  -0.306906
   24  C  4  Y    0.042103  -0.087303   0.125927  -0.044535   0.084161
   25  C  4  Z    0.025426  -0.046132  -0.145164  -0.152633   0.009295
   26  C  4  S   -0.291972   0.920146   0.436565   1.657797  -0.201346
   27  C  4  X    0.017066  -0.299973   0.131913  -0.103586  -1.062054
   28  C  4  Y    0.208705  -0.375191   0.374322  -0.011229   0.248655
   29  C  4  Z    0.083485  -0.213151  -0.357064  -0.575782   0.070120
   30  C  5  S   -0.031518   0.001815   0.036174   0.009113  -0.025418
   31  C  5  S    0.003254   0.030392  -0.032275   0.004713   0.032752
   32  C  5  X    0.031714  -0.000409   0.032205   0.005781  -0.101999
   33  C  5  Y   -0.057751  -0.042047   0.061974  -0.062838  -0.028029
   34  C  5  Z    0.061312   0.006110  -0.022056  -0.086678  -0.040462
   35  C  5  S    0.315029  -0.212481  -0.374986  -0.101856   0.149626
   36  C  5  X   -0.179612  -0.050122   0.112327   0.000580  -0.047077
   37  C  5  Y   -0.045563  -0.089157   0.054135  -0.066896  -0.068941
   38  C  5  Z    0.078626   0.070767   0.063944  -0.113409  -0.017675
   39  O  6  S    0.013029  -0.021470  -0.011029   0.004000   0.008104
   40  O  6  S   -0.020303   0.014695   0.010667  -0.006745  -0.009289
   41  O  6  X   -0.073361  -0.078956  -0.039392   0.010347   0.056047
   42  O  6  Y    0.015501  -0.006527   0.000085   0.004182   0.026257
   43  O  6  Z   -0.010336   0.020452  -0.018146   0.028703   0.007673
   44  O  6  S   -0.048258   0.192589   0.090625  -0.006587  -0.040803
   45  O  6  X   -0.060154  -0.090584  -0.059826   0.014107   0.074507
   46  O  6  Y    0.019448  -0.052320  -0.026179   0.018178   0.039178
   47  O  6  Z   -0.020769   0.064842  -0.010816   0.052923   0.007409
   48  O  7  S    0.096646   0.014228  -0.001581   0.003101  -0.003331
   49  O  7  S   -0.065662  -0.008946  -0.000631   0.002852   0.001291
   50  O  7  X   -0.211727  -0.030099  -0.049331  -0.061672   0.022057
   51  O  7  Y   -0.091507  -0.015326   0.023528  -0.003605   0.027183
   52  O  7  Z    0.107227   0.012165  -0.043821   0.038959  -0.001825
   53  O  7  S   -0.804024  -0.116202   0.009313  -0.057587   0.024018
   54  O  7  X   -0.418246  -0.060236  -0.099929  -0.096598   0.044755
   55  O  7  Y   -0.158902  -0.003362   0.024266   0.011480   0.026836
   56  O  7  Z    0.184719   0.014057  -0.050095   0.052088   0.001467
   57  H  8  S    0.008802  -0.037669  -0.076878   0.068507   0.002301
   58  H  8  S    0.135785  -0.461519  -0.748905   0.521871   0.219842
   59  H  9  S   -0.022136  -0.054424   0.012233   0.050561  -0.041051
   60  H  9  S   -0.013795  -0.863182   0.090063   0.559069  -0.397684
   61  H 10  S    0.006362   0.017210  -0.052928  -0.077459  -0.020400
   62  H 10  S    0.149724  -0.376155  -0.907673  -1.294078  -0.019170
   63  H 11  S    0.002367  -0.052648   0.010711   0.023501   0.094140
   64  H 11  S    0.287727  -0.550480   0.178715  -0.497019   1.221060
   65  H 12  S   -0.001624  -0.002159   0.032414  -0.023005  -0.076548
   66  H 12  S    0.116882  -0.696880   0.308450  -0.600425  -1.136256
   67  H 13  S    0.153599   0.038522   0.016175   0.006953  -0.008092
   68  H 13  S    1.233102   0.205051   0.083579   0.190883  -0.088798

                     31         32         33         34         35
                    0.1966     0.2082     0.2387     0.2531     0.2944
                     A          A          A          A          A   
    1  N  1  S    0.013963  -0.001788   0.031541   0.025308   0.041914
    2  N  1  S   -0.000800   0.008862  -0.011495  -0.003095  -0.016866
    3  N  1  X   -0.022768  -0.211662  -0.099804   0.001924  -0.201086
    4  N  1  Y   -0.061727  -0.098189   0.039680   0.235044   0.151779
    5  N  1  Z    0.032382   0.099701   0.113281  -0.122341  -0.067235
    6  N  1  S   -0.188056  -0.035133  -0.321183  -0.277338  -0.423743
    7  N  1  X   -0.074969  -0.556754  -0.250218   0.049526  -0.608544
    8  N  1  Y   -0.098310  -0.184961   0.109002   0.705000   0.471124
    9  N  1  Z    0.150195   0.289548   0.318880  -0.276263  -0.216510
   10  C  2  S    0.077549   0.054159  -0.136235  -0.029365  -0.039922
   11  C  2  S   -0.040868  -0.023183   0.044905   0.020354   0.036327
   12  C  2  X   -0.001433  -0.100524  -0.015642  -0.341474  -0.000030
   13  C  2  Y    0.102566   0.015726  -0.056913  -0.031850   0.322987
   14  C  2  Z   -0.143660  -0.003292  -0.253393  -0.029110   0.195946
   15  C  2  S   -1.001556  -0.672079   1.740584   0.359224   0.334078
   16  C  2  X   -0.016557  -0.528772  -0.005664  -1.432892  -0.004494
   17  C  2  Y    0.480786   0.266229  -0.364849  -0.112535   1.194503
   18  C  2  Z   -0.593751   0.080205  -0.951685   0.012825   0.710750
   19  H  3  S    0.031501   0.005345   0.024904   0.016329   0.031883
   20  H  3  S    1.162261   0.311502   0.212430  -0.130495  -0.445719
   21  C  4  S   -0.068758  -0.010588   0.085832   0.034571  -0.032043
   22  C  4  S    0.026791  -0.005633  -0.005805  -0.014492   0.011199
   23  C  4  X    0.001716   0.115215   0.058001   0.015211   0.094713
   24  C  4  Y   -0.198203   0.054491  -0.117498  -0.117073   0.075426
   25  C  4  Z    0.166533  -0.095108  -0.122612  -0.069354   0.129938
   26  C  4  S    0.921177   0.183369  -1.237246  -0.394582   0.512198
   27  C  4  X    0.082191   0.667180  -0.103875   0.260305   0.509417
   28  C  4  Y   -0.709343   0.229760  -0.878954  -0.634749   0.480637
   29  C  4  Z    0.802282  -0.327326  -0.618995  -0.395120   0.590302
   30  C  5  S   -0.014059  -0.078317   0.103029  -0.106470   0.073595
   31  C  5  S    0.001673   0.025419  -0.031514   0.055287  -0.053329
   32  C  5  X   -0.060793  -0.005337  -0.039482  -0.121703  -0.156129
   33  C  5  Y    0.015048   0.004809   0.160536  -0.018677   0.099220
   34  C  5  Z   -0.030828   0.091929   0.022747   0.036841  -0.129044
   35  C  5  S    0.159831   1.003415  -1.254576   1.448535  -0.736283
   36  C  5  X   -0.040365  -0.042661   0.105570  -0.518673  -0.203278
   37  C  5  Y    0.111165  -0.147067   0.359107   0.052422   0.041145
   38  C  5  Z   -0.072802   0.148064   0.041042   0.034621  -0.377217
   39  O  6  S    0.021865   0.027882  -0.018039   0.032271  -0.009491
   40  O  6  S   -0.017772  -0.024773   0.010364  -0.017211   0.012597
   41  O  6  X    0.069283   0.041462   0.019895   0.047622   0.044615
   42  O  6  Y    0.028362   0.033863  -0.107398   0.091443  -0.001600
   43  O  6  Z   -0.011528  -0.059233   0.017443  -0.078552   0.067482
   44  O  6  S   -0.185960  -0.208501   0.183215  -0.345545   0.066443
   45  O  6  X    0.100927   0.062699   0.003291   0.151981   0.089388
   46  O  6  Y    0.063822   0.095643  -0.201279   0.173846  -0.018025
   47  O  6  Z   -0.053332  -0.122047   0.039582  -0.155723   0.114184
   48  O  7  S   -0.004955   0.020547  -0.037131   0.008981  -0.046287
   49  O  7  S    0.005057  -0.010495   0.028174  -0.004805   0.043652
   50  O  7  X   -0.038625   0.108488  -0.180592   0.018690  -0.194183
   51  O  7  Y   -0.015164  -0.070873   0.055342  -0.060738   0.105411
   52  O  7  Z   -0.022624   0.013968  -0.082155   0.033670  -0.014137
   53  O  7  S    0.029395  -0.207958   0.307524  -0.090796   0.338750
   54  O  7  X   -0.069130   0.248067  -0.370889   0.077962  -0.358850
   55  O  7  Y   -0.003067  -0.142094   0.142027  -0.074726   0.218564
   56  O  7  Z   -0.011500   0.051208  -0.141609   0.040866  -0.047127
   57  H  8  S   -0.000246   0.087935   0.011826  -0.011797  -0.016962
   58  H  8  S    0.204562   0.732586   0.390873  -0.776024  -0.231536
   59  H  9  S    0.029376  -0.091179  -0.013783  -0.011259  -0.003716
   60  H  9  S   -0.019009  -0.994810  -0.217344   0.230226  -0.438806
   61  H 10  S    0.048524  -0.055629  -0.028899  -0.001933   0.012184
   62  H 10  S    0.762877  -0.577294   0.031280  -0.000107   0.265702
   63  H 11  S   -0.054614  -0.012613  -0.020915  -0.000666   0.058196
   64  H 11  S   -1.152697  -0.214095  -0.215725  -0.420487  -0.051621
   65  H 12  S   -0.027142   0.075193  -0.009118  -0.057106   0.051731
   66  H 12  S   -0.729716   0.814233   0.424266   0.159682   0.299263
   67  H 13  S   -0.002034  -0.032149   0.030316  -0.032640   0.011132
   68  H 13  S    0.060066  -0.205772   0.262243   0.052761   0.279926

                     36         37         38         39         40
                    0.3520     0.4394     0.6713     0.7212     0.7373
                     A          A          A          A          A   
    1  N  1  S    0.031676  -0.040616   0.002038  -0.031173   0.004228
    2  N  1  S   -0.012007   0.004586  -0.010392   0.021045   0.024867
    3  N  1  X   -0.083082  -0.011973  -0.070539   0.021395   0.086247
    4  N  1  Y    0.095437  -0.101779  -0.025142   0.047775  -0.079933
    5  N  1  Z   -0.011083   0.009216  -0.019598   0.086221  -0.028065
    6  N  1  S   -0.372250   0.637358   0.097225   0.141821  -0.103048
    7  N  1  X   -0.317943   0.251742   0.006426  -0.050977  -0.078536
    8  N  1  Y    0.301254  -0.382653  -0.045505  -0.078507   0.036811
    9  N  1  Z   -0.019291  -0.036528   0.067725  -0.084357   0.047942
   10  C  2  S   -0.120744   0.032640  -0.001905   0.031458   0.027311
   11  C  2  S    0.058511  -0.065131  -0.042175  -0.075695  -0.154241
   12  C  2  X    0.052125   0.087827   0.001035   0.135586  -0.510119
   13  C  2  Y    0.144280  -0.222343   0.077314  -0.403430  -0.043584
   14  C  2  Z   -0.069234   0.136208   0.036332   0.082821   0.120661
   15  C  2  S    1.778462   0.082542   0.446938  -0.342724   0.989709
   16  C  2  X    0.802514   0.677187   0.302179   0.040596   0.755872
   17  C  2  Y    0.707504  -0.817411  -0.259304   0.270008   0.164128
   18  C  2  Z   -0.380321   0.294548  -0.333265   0.003926  -0.418810
   19  H  3  S    0.052202   0.104601  -0.116855   0.272022   0.118309
   20  H  3  S   -0.036490  -0.375449   0.095233  -0.037949   0.127071
   21  C  4  S    0.012681  -0.007308  -0.005573   0.006130  -0.024698
   22  C  4  S   -0.012138   0.003504   0.062020  -0.017252   0.067610
   23  C  4  X   -0.029067  -0.068413   0.431257   0.295936   0.132512
   24  C  4  Y   -0.044818   0.050949   0.273076  -0.451069   0.376766
   25  C  4  Z    0.071584  -0.046664  -0.100817   0.247346   0.652178
   26  C  4  S   -0.104057  -0.027357  -0.263857   0.098655   0.090871
   27  C  4  X   -0.073140  -0.149525  -0.651435  -0.492284  -0.181285
   28  C  4  Y   -0.198374   0.287826  -0.345018   0.917238  -0.536385
   29  C  4  Z    0.128553  -0.244429   0.220044  -0.382072  -0.932737
   30  C  5  S    0.000095  -0.011821  -0.014219  -0.002459  -0.006432
   31  C  5  S   -0.019029  -0.089639   0.115854   0.070599  -0.020733
   32  C  5  X    0.500937  -0.143946  -0.138265   0.105535  -0.353651
   33  C  5  Y   -0.028762   0.323327  -0.493700  -0.302505   0.021068
   34  C  5  Z   -0.056853  -0.192002  -0.579970   0.072005  -0.046073
   35  C  5  S   -0.238023   0.517609  -0.226483  -0.210905  -0.517440
   36  C  5  X    1.645577   0.137800   0.376440  -0.312205   0.867369
   37  C  5  Y    0.220836   1.588795   0.707357   0.197505  -0.158148
   38  C  5  Z   -0.403895  -1.185036   0.474090   0.021363   0.095474
   39  O  6  S    0.053989   0.116908   0.012718  -0.011647  -0.005681
   40  O  6  S   -0.030043  -0.055551  -0.015210   0.001770  -0.002843
   41  O  6  X   -0.160981   0.103507  -0.016696   0.035036   0.009130
   42  O  6  Y    0.134320   0.094495  -0.008017  -0.031324  -0.001115
   43  O  6  Z   -0.064808  -0.111534  -0.047267   0.033738   0.010552
   44  O  6  S   -0.608998  -1.514575  -0.151734   0.094325   0.095528
   45  O  6  X   -0.304988   0.270333  -0.025671   0.020867  -0.137967
   46  O  6  Y    0.326578   0.460640  -0.026618  -0.114987  -0.021086
   47  O  6  Z   -0.206394  -0.421334  -0.116307   0.062250   0.021852
   48  O  7  S    0.043488  -0.055437  -0.000035  -0.005233   0.011088
   49  O  7  S   -0.031650   0.027592  -0.006420   0.006099  -0.005994
   50  O  7  X    0.073852  -0.125244   0.003459  -0.014991   0.015331
   51  O  7  Y   -0.162964   0.026961  -0.066711  -0.072013   0.011778
   52  O  7  Z    0.110435   0.008890  -0.033172  -0.001264  -0.035656
   53  O  7  S   -0.434281   0.640650   0.037662   0.140949  -0.203782
   54  O  7  X    0.156760  -0.406373  -0.035594  -0.010041   0.006707
   55  O  7  Y   -0.336493   0.093141  -0.072955   0.037230  -0.063643
   56  O  7  Z    0.243290  -0.027587  -0.069330  -0.025279   0.048719
   57  H  8  S   -0.079125  -0.042702  -0.005981  -0.179807  -0.008333
   58  H  8  S   -0.081094  -0.040569   0.071044  -0.023085   0.053730
   59  H  9  S    0.034707   0.117209   0.033918  -0.106461   0.065452
   60  H  9  S   -0.046877  -0.037207  -0.089942  -0.099929   0.104807
   61  H 10  S   -0.058893  -0.017619   0.256692  -0.350750  -0.331895
   62  H 10  S    0.260671  -0.323645  -0.006091  -0.030478  -0.090663
   63  H 11  S   -0.006001  -0.033910   0.103822   0.510954  -0.155082
   64  H 11  S   -0.059455   0.339698   0.019107   0.126270  -0.089584
   65  H 12  S    0.039977   0.034096  -0.330407  -0.031946   0.094925
   66  H 12  S   -0.046334  -0.012589   0.052070   0.003200  -0.090577
   67  H 13  S   -0.107953  -0.074317  -0.016835  -0.026062   0.128899
   68  H 13  S   -0.172058   0.091860  -0.023770   0.106797  -0.242626

                     41         42         43         44         45
                    0.7494     0.7664     0.7942     0.8365     0.9212
                     A          A          A          A          A   
    1  N  1  S   -0.010393  -0.006278  -0.028462   0.014911   0.019179
    2  N  1  S   -0.016409  -0.055341   0.043282   0.023416   0.017184
    3  N  1  X    0.051790  -0.055467   0.099348   0.021809   0.137968
    4  N  1  Y    0.069614   0.111314   0.057144  -0.112677  -0.081918
    5  N  1  Z    0.044638   0.108241   0.115315  -0.140383  -0.048391
    6  N  1  S    0.106469   0.610486   0.242937  -0.454760  -0.533788
    7  N  1  X   -0.159726   0.220482  -0.077736  -0.168214  -0.423271
    8  N  1  Y   -0.122057  -0.233210  -0.110208   0.208405   0.161233
    9  N  1  Z   -0.035922  -0.079915   0.026264   0.025776   0.050644
   10  C  2  S   -0.025574   0.004212   0.009758  -0.013078  -0.017146
   11  C  2  S    0.069523   0.026335  -0.077031  -0.008871  -0.002837
   12  C  2  X   -0.426045  -0.623872   0.194126   0.007735  -0.270058
   13  C  2  Y   -0.119692   0.330215   0.399286  -0.411193  -0.600816
   14  C  2  Z   -0.064493   0.243592   0.219200  -0.230558  -0.017907
   15  C  2  S    0.067370  -0.208637   0.864750   0.705436   0.333007
   16  C  2  X    1.065304   1.189133   0.454469   0.242329   0.826432
   17  C  2  Y    0.474662  -0.808731  -0.507447   1.076941   1.800364
   18  C  2  Z    0.043464  -0.339431  -0.542482   0.327875  -0.110404
   19  H  3  S   -0.113731   0.202683   0.050918  -0.058237  -0.047049
   20  H  3  S    0.026294  -0.082964   0.118062   0.021867   0.320428
   21  C  4  S    0.022990   0.006275  -0.027415   0.017490   0.013224
   22  C  4  S   -0.080303   0.009581   0.074312  -0.011356  -0.049291
   23  C  4  X   -0.035172   0.031468   0.368366  -0.257336   0.385480
   24  C  4  Y   -0.534283  -0.126696   0.008594   0.086566   0.307214
   25  C  4  Z   -0.245132  -0.303565  -0.078790  -0.102558  -0.354639
   26  C  4  S    0.188277  -0.273954  -0.265031   0.273472   0.703638
   27  C  4  X    0.017482  -0.263919  -0.862336   0.667680  -0.701509
   28  C  4  Y    0.891293   0.305948  -0.118137  -0.007080  -0.398643
   29  C  4  Z    0.523073   0.392719   0.058961   0.392381   1.214266
   30  C  5  S    0.010614   0.000549   0.003084   0.063201  -0.031471
   31  C  5  S   -0.179073   0.043518   0.070875  -0.337790   0.398035
   32  C  5  X   -0.464033   0.111394  -0.478408  -0.504143   0.132146
   33  C  5  Y    0.325419  -0.395157   0.154393  -0.561413   0.319076
   34  C  5  Z   -0.409457   0.333718   0.487768   0.410921   0.217426
   35  C  5  S   -0.216767  -0.692358  -0.353204  -0.343694  -1.120971
   36  C  5  X    1.333943  -0.182288   1.204847   1.125098   0.328898
   37  C  5  Y   -0.377155   0.835762   0.000113   0.404674  -0.796871
   38  C  5  Z    0.373016  -0.459989  -0.719049  -0.515996  -0.485143
   39  O  6  S    0.012106  -0.004797   0.006843  -0.026263   0.000043
   40  O  6  S   -0.018341   0.001869  -0.001654   0.040795  -0.025586
   41  O  6  X   -0.036708   0.068620  -0.133530  -0.150405   0.079553
   42  O  6  Y    0.055274  -0.119770   0.017024  -0.175696   0.186923
   43  O  6  Z   -0.049658   0.058805   0.070402   0.161515   0.025403
   44  O  6  S    0.021974  -0.187793  -0.275281  -0.185952   0.286393
   45  O  6  X   -0.180445   0.029157  -0.136382  -0.169552  -0.063282
   46  O  6  Y    0.108056  -0.118604   0.065060  -0.127113  -0.002049
   47  O  6  Z   -0.099763   0.062626   0.028955   0.133268   0.105957
   48  O  7  S    0.013491   0.002801  -0.003565  -0.015095   0.010420
   49  O  7  S    0.006364  -0.047523   0.012881   0.042840  -0.023161
   50  O  7  X   -0.017181   0.117221   0.024792   0.032076  -0.041109
   51  O  7  Y    0.067489  -0.036293  -0.003378  -0.005082  -0.041169
   52  O  7  Z   -0.080941   0.030811   0.044217  -0.001611   0.134514
   53  O  7  S   -0.453126   0.410311  -0.106798  -0.023172  -0.033635
   54  O  7  X    0.058109  -0.186499  -0.014795  -0.024222  -0.008821
   55  O  7  Y   -0.129008   0.043291  -0.042530  -0.083825   0.074048
   56  O  7  Z    0.064799  -0.034081   0.105816   0.068747   0.047057
   57  H  8  S   -0.069559  -0.331073   0.022967   0.076515   0.069407
   58  H  8  S    0.108986   0.199741   0.006344  -0.101547  -0.034597
   59  H  9  S   -0.228018   0.247345  -0.319962   0.086473   0.136757
   60  H  9  S    0.130946  -0.049172   0.178507  -0.044884  -0.165792
   61  H 10  S    0.079688   0.087622  -0.014067   0.165608   0.145916
   62  H 10  S    0.112415   0.048609  -0.004578   0.087111   0.491045
   63  H 11  S    0.137425  -0.014710   0.076369   0.059299   0.144627
   64  H 11  S    0.170562   0.244177   0.067468  -0.182576  -0.160810
   65  H 12  S    0.113124   0.156684  -0.324991   0.131118  -0.054734
   66  H 12  S    0.056019  -0.114847  -0.182563   0.230314  -0.513468
   67  H 13  S    0.106495   0.167211  -0.109695  -0.246488   0.220541
   68  H 13  S   -0.342239  -0.041852  -0.149564  -0.028886  -0.162712

                     46         47         48         49         50
                    0.9487     0.9697     0.9891     1.0117     1.0566
                     A          A          A          A          A   
    1  N  1  S    0.010630  -0.010400   0.012211  -0.043338  -0.006270
    2  N  1  S   -0.028349   0.004346  -0.088523   0.075345   0.035092
    3  N  1  X   -0.003343  -0.135668  -0.224988  -0.094963   0.149574
    4  N  1  Y    0.002046  -0.008343   0.231669  -0.327101   0.062126
    5  N  1  Z    0.154551  -0.138235   0.005805  -0.355161   0.066666
    6  N  1  S    0.382659   0.028262   0.372347  -0.056773  -0.065493
    7  N  1  X    0.195079   0.024894   0.289510  -0.104042  -0.007058
    8  N  1  Y   -0.266599  -0.004918  -0.449950   0.416101   0.078434
    9  N  1  Z   -0.150198   0.030992  -0.109573  -0.031617  -0.264132
   10  C  2  S    0.016367  -0.013181  -0.007704   0.026809   0.020501
   11  C  2  S    0.035241  -0.056569  -0.000208  -0.129110  -0.096781
   12  C  2  X   -0.080165   0.106353  -0.214835  -0.061290  -0.052951
   13  C  2  Y    0.286147  -0.011669  -0.100110   0.027167   0.000844
   14  C  2  Z   -0.715754  -0.033441  -0.226452  -0.377580  -0.211306
   15  C  2  S    0.065808   0.403151  -0.505260   0.280996  -0.004443
   16  C  2  X    0.385400   0.202309   0.761543   0.091250  -0.081513
   17  C  2  Y   -0.829593  -0.048288  -0.206473  -0.053438   0.275184
   18  C  2  Z    1.370349   0.268121   1.101727   0.881400   0.528099
   19  H  3  S    0.387999  -0.274630  -0.507287   0.203680   0.224617
   20  H  3  S   -1.044511   0.030316  -0.068054  -0.697092  -0.466091
   21  C  4  S    0.036077  -0.022775  -0.047168  -0.004915  -0.031785
   22  C  4  S   -0.022109   0.014203  -0.023516   0.010923   0.049765
   23  C  4  X    0.119774  -0.140814   0.352208   0.164633  -0.450196
   24  C  4  Y   -0.120325  -0.056242  -0.377757  -0.074600   0.060900
   25  C  4  Z    0.320397   0.020235   0.161475   0.110242   0.043882
   26  C  4  S    0.125711   0.074195   0.611937   0.260190   0.190631
   27  C  4  X   -0.227341   0.153873  -0.778357  -0.210997   0.583463
   28  C  4  Y    0.693153   0.134329   0.897632   0.246408   0.008869
   29  C  4  Z   -0.502625  -0.155138  -0.309747  -0.107140   0.063296
   30  C  5  S   -0.021608   0.012355   0.022793  -0.005863   0.004087
   31  C  5  S    0.222489  -0.256604  -0.276680   0.114902  -0.116400
   32  C  5  X   -0.015767  -0.019258   0.141799   0.079340  -0.056580
   33  C  5  Y    0.022715  -0.140638  -0.014894   0.052673   0.178324
   34  C  5  Z    0.068609   0.100656   0.160107   0.036800  -0.026171
   35  C  5  S    0.033855   0.325739   0.171098  -0.092755   0.219434
   36  C  5  X   -0.186669   0.558980  -0.408672  -0.325685   0.120536
   37  C  5  Y    0.453369   0.512492   0.318034  -0.015652  -0.557668
   38  C  5  Z   -0.591466  -0.490892  -0.719208  -0.254580   0.166722
   39  O  6  S    0.015845   0.017071   0.012113   0.008218  -0.006600
   40  O  6  S    0.005961  -0.009760  -0.011192  -0.021080   0.003388
   41  O  6  X   -0.069751  -0.008870   0.013819   0.058683   0.037044
   42  O  6  Y    0.024272  -0.064351  -0.033170  -0.016049   0.000636
   43  O  6  Z   -0.014675   0.055730   0.104251   0.004526   0.028083
   44  O  6  S   -0.357103  -0.472762  -0.320429  -0.025907   0.189191
   45  O  6  X    0.108608  -0.029012   0.085751   0.036089  -0.073976
   46  O  6  Y    0.103301   0.104799   0.073780   0.041774   0.011975
   47  O  6  Z   -0.047298  -0.078890  -0.021456   0.015799   0.016754
   48  O  7  S   -0.005884   0.026358  -0.012464  -0.009001   0.009139
   49  O  7  S   -0.008017  -0.046847   0.004132   0.008434  -0.005096
   50  O  7  X   -0.036084  -0.197330   0.132619   0.049797   0.021316
   51  O  7  Y   -0.059254  -0.191536   0.157775   0.078400   0.062672
   52  O  7  Z    0.112179   0.190336  -0.013603   0.040560  -0.001990
   53  O  7  S    0.287024   0.107320   0.230920   0.117979  -0.244475
   54  O  7  X   -0.136685  -0.213597  -0.096219  -0.026334   0.097239
   55  O  7  Y    0.079017  -0.047175   0.011806   0.026893  -0.054935
   56  O  7  Z   -0.036321   0.062100  -0.001198  -0.044002   0.029531
   57  H  8  S    0.433268  -0.073581   0.193725  -0.796286  -0.496473
   58  H  8  S   -0.204351  -0.006119  -0.114498   0.510894   0.454113
   59  H  9  S    0.185965  -0.248472   0.190770  -0.573671   0.522441
   60  H  9  S   -0.025996   0.165271  -0.096489   0.341631  -0.559396
   61  H 10  S    0.459040  -0.136250  -0.097312   0.268638  -0.018797
   62  H 10  S   -0.637776  -0.067288  -0.457926  -0.387886  -0.034822
   63  H 11  S    0.272944  -0.070084  -0.542749  -0.290935   0.305591
   64  H 11  S    0.256745   0.026152   0.964936   0.444074  -0.622283
   65  H 12  S    0.138035  -0.278230  -0.413891   0.010412  -0.920402
   66  H 12  S    0.033218   0.301732  -0.041695  -0.125822   1.155999
   67  H 13  S    0.248992   1.144517  -0.239297  -0.163424  -0.060891
   68  H 13  S   -0.149300  -0.981280   0.252111   0.199489  -0.002537

                     51         52         53         54         55
                    1.0699     1.0847     1.1326     1.2671     1.3354
                     A          A          A          A          A   
    1  N  1  S    0.004457  -0.018666   0.010450  -0.047477   0.034739
    2  N  1  S   -0.003452   0.018023   0.013680   0.140757  -0.142151
    3  N  1  X    0.165078  -0.338119  -0.001604  -0.177767  -0.402753
    4  N  1  Y    0.102102  -0.143902  -0.200994   0.442688  -0.683527
    5  N  1  Z   -0.013210  -0.002095   0.403016   0.632599   0.244102
    6  N  1  S   -0.065838   0.408961  -0.409469  -0.102254  -0.102806
    7  N  1  X    0.009616   0.219140  -0.354443   0.156030   0.770020
    8  N  1  Y    0.034332  -0.229063   0.359739  -0.439845   1.196231
    9  N  1  Z   -0.174597  -0.019503  -0.279187  -0.955225  -0.390679
   10  C  2  S    0.029489   0.009757   0.022120   0.018676   0.005755
   11  C  2  S   -0.146084  -0.039895  -0.158922  -0.098215  -0.035466
   12  C  2  X    0.210896  -0.340238  -0.043297   0.063016   0.089783
[...]
   27  C  4  X   -0.442465  -0.709649  -0.123384   0.371816
   28  C  4  Y   -0.292005   0.443614  -0.916050  -0.606978
   29  C  4  Z    0.864509  -0.448760  -0.365271  -0.295668
   30  C  5  S    0.056654   0.068049   0.112172  -0.061210
   31  C  5  S   -0.030243  -0.014212  -0.045413   0.033465
   32  C  5  X   -0.041326   0.004819  -0.076822  -0.139842
   33  C  5  Y    0.030799   0.006116   0.159295   0.057231
   34  C  5  Z   -0.095765  -0.041012   0.063902   0.040074
   35  C  5  S   -0.686472  -0.867128  -1.313050   0.909507
   36  C  5  X   -0.013313   0.054116   0.061068  -0.506240
   37  C  5  Y    0.201277   0.020510   0.310862   0.158863
   38  C  5  Z   -0.188203  -0.059103   0.150200   0.072858
   39  O  6  S   -0.012027  -0.036957  -0.023831   0.016090
   40  O  6  S    0.014164   0.031106   0.013992  -0.003267
   41  O  6  X   -0.000345  -0.063110   0.031843   0.031606
   42  O  6  Y   -0.012682  -0.056174  -0.140129   0.076725
   43  O  6  Z    0.042071   0.048060   0.010588  -0.060620
   44  O  6  S    0.057913   0.295855   0.241545  -0.207738
   45  O  6  X    0.000714  -0.103957   0.014546   0.122562
   46  O  6  Y   -0.036816  -0.142315  -0.257098   0.125661
   47  O  6  Z    0.067956   0.107943   0.020525  -0.106159
   48  O  7  S   -0.021068  -0.012456  -0.042229  -0.009427
   49  O  7  S    0.014397   0.002165   0.034665   0.011282
   50  O  7  X   -0.118430  -0.032662  -0.176509  -0.069179
   51  O  7  Y    0.061042   0.099988   0.101563  -0.020630
   52  O  7  Z   -0.004245   0.005085  -0.084678   0.008302
   53  O  7  S    0.184690   0.151154   0.340201   0.049263
   54  O  7  X   -0.247595  -0.096347  -0.348423  -0.091988
   55  O  7  Y    0.139967   0.156951   0.222552   0.011317
   56  O  7  Z   -0.001950  -0.015043  -0.118042  -0.004857
   57  H  8  S   -0.079729  -0.043965   0.017527  -0.029368
   58  H  8  S   -0.516070  -0.489890   0.513040  -0.948657
   59  H  9  S    0.087228   0.001608  -0.008192  -0.004483
   60  H  9  S    0.734234   0.257509  -0.078611   0.216012
   61  H 10  S    0.068259  -0.016877  -0.004240  -0.006268
   62  H 10  S    0.840274  -0.214758   0.190002   0.060784
   63  H 11  S   -0.013500   0.073068  -0.039891   0.003830
   64  H 11  S   -0.352872   1.425388  -0.301870  -0.458825
   65  H 12  S   -0.064417  -0.022478  -0.022672  -0.051347
   66  H 12  S   -1.121590  -0.005862   0.163203   0.279680
   67  H 13  S    0.026307   0.025515   0.039452  -0.016037
   68  H 13  S    0.219828   0.037267   0.217978   0.175605

     ---------------------------------------------------------------------
     PROPERTIES FOR THE B3LYP    DFT FUNCTIONAL (RHF  TYPE) DENSITY MATRIX
     ---------------------------------------------------------------------

          -----------------
          ENERGY COMPONENTS
          -----------------

         WAVEFUNCTION NORMALIZATION =       1.0000000000

                ONE ELECTRON ENERGY =    -929.9936766375
                TWO ELECTRON ENERGY =     360.1669742405
           NUCLEAR REPULSION ENERGY =     248.0558580117
                                      ------------------
                       TOTAL ENERGY =    -321.7708443853

 ELECTRON-ELECTRON POTENTIAL ENERGY =     360.1669742405
  NUCLEUS-ELECTRON POTENTIAL ENERGY =   -1249.3103132124
   NUCLEUS-NUCLEUS POTENTIAL ENERGY =     248.0558580117
                                      ------------------
             TOTAL POTENTIAL ENERGY =    -641.0874809602
               TOTAL KINETIC ENERGY =     319.3166365749
                 VIRIAL RATIO (V/T) =       2.0076858125

          ---------------------------------------
          MULLIKEN AND LOWDIN POPULATION ANALYSES
          ---------------------------------------

     ATOMIC MULLIKEN POPULATION IN EACH MOLECULAR ORBITAL

                      1          2          3          4          5

                  2.000000   2.000000   2.000000   2.000000   2.000000

    1            -0.000000  -0.000001   1.991528   0.000024   0.003315
    2            -0.000089   0.000007   0.005320   0.005299   1.979264
    3             0.000008  -0.000001   0.000034   0.000041   0.003250
    4            -0.000009   0.000001  -0.000060   0.000268   0.005968
    5             0.005134   0.008671  -0.000147   1.996830   0.008079
    6             0.000001   1.991301   0.000000  -0.002523  -0.000010
    7             1.994197   0.000009  -0.000000  -0.000021   0.000009
    8            -0.000000   0.000017   0.001694   0.000024   0.000071
    9            -0.000000  -0.000000   0.001633   0.000000   0.000037
   10             0.000000  -0.000001   0.000002  -0.000003  -0.000007
   11             0.000001   0.000000   0.000000  -0.000000   0.000025
   12            -0.000000   0.000000  -0.000003  -0.000001  -0.000004
   13             0.000758  -0.000004  -0.000000   0.000061   0.000002

                      6          7          8          9         10

                  2.000000   2.000000   2.000000   2.000000   2.000000

    1            -0.000001   0.002361   0.002168   1.133425   0.425316
    2             0.004331   0.008236   0.017448   0.547810   0.456358
    3             0.000039  -0.000432  -0.000203   0.002073   0.025092
    4             1.985937  -0.001431  -0.000832   0.084422   0.606020
    5             0.000244   0.358102   0.145125   0.046116   0.155420
    6             0.000000   0.664975   0.965032   0.035015   0.010649
    7            -0.000002   0.914219   0.811591   0.006832   0.079564
    8            -0.000001   0.000047   0.002119   0.062983   0.057091
    9             0.000005  -0.000062   0.000199   0.073340   0.061944
   10             0.003235   0.000158   0.000205   0.001741   0.034485
   11             0.003207   0.000274   0.000762   0.001305   0.034729
   12             0.003005  -0.000088  -0.000016   0.002779   0.027716
   13            -0.000000   0.053639   0.056403   0.002160   0.025615

                     11         12         13         14         15

                  2.000000   2.000000   2.000000   2.000000   2.000000

    1             0.043015   0.218668   0.395826   0.143657   0.189157
    2             0.230942   0.338701   0.497172   0.190442   0.225954
    3             0.014352   0.074878   0.140137   0.044078   0.021255
    4             0.698870   0.101011   0.120706   0.103009   0.285468
    5             0.383548   0.238266   0.298107   0.201093   0.484140
    6             0.048227   0.032581   0.145288   0.737778   0.325282
    7             0.249005   0.663082   0.097154   0.379809   0.271491
    8             0.001523   0.027331   0.141459   0.099612   0.025464
    9             0.018686   0.055366   0.083397   0.001553   0.065652
   10             0.069882   0.019666   0.045938   0.020146   0.000510
   11             0.061287   0.020075   0.006805   0.059171   0.008435
   12             0.097997   0.010591   0.009748   0.000004   0.096750
   13             0.082664   0.199786   0.018261   0.019647   0.000443

                     16         17         18         19         20

                  2.000000   2.000000   2.000000   2.000000   2.000000

    1             0.428918   0.375797   0.052956   0.324098   0.113567
    2             0.286434   0.079665   0.101150   0.289582   0.402966
    3             0.040668   0.026957   0.002289   0.001573   0.080720
    4             0.298102   0.177666   0.479021   0.719480   0.436243
    5             0.118001   0.315944   0.155240   0.021125   0.137998
    6             0.348423   0.180643   0.291134   0.020210   0.204208
    7             0.117622   0.438044   0.486645   0.074380   0.290888
    8             0.000430   0.138908   0.006269   0.076378   0.001197
    9             0.145250   0.164717   0.002394   0.004222   0.028803
   10             0.064261   0.076492   0.112452   0.033778   0.114655
   11             0.106435   0.016934   0.002457   0.315077   0.068092
   12             0.009331   0.000340   0.264724   0.118076   0.086919
   13             0.036125   0.007893   0.043268   0.002021   0.033745

                     21         22         23         24

                  2.000000   2.000000   2.000000   2.000000

    1             0.102518   0.001126   0.011992   1.716568
    2             0.247979   0.000924   0.185174   0.035870
    3             0.196331   0.003573   0.015625   0.077296
    4             0.300568   0.016560   0.028122   0.107501
    5             0.152729   0.046469   0.060594   0.003342
    6             0.268615   0.839724   1.372953   0.001248
    7             0.324023   1.087256   0.261770   0.005651
    8             0.048241  -0.000008   0.017358   0.007958
    9             0.015599   0.000383   0.000133   0.008410
   10             0.199632   0.000118   0.003178   0.006961
   11             0.055532   0.003534   0.001148   0.029183
   12             0.053210   0.000335   0.024804   0.000014
   13             0.035022   0.000005   0.017149  -0.000001

               ----- POPULATIONS IN EACH AO -----
                             MULLIKEN      LOWDIN
              1  N  1  S      1.98594     1.97651
              2  N  1  S      0.37418     0.48084
              3  N  1  X      0.55431     0.51731
              4  N  1  Y      0.58770     0.56676
              5  N  1  Z      0.74820     0.74952
              6  N  1  S      1.30697     0.78490
              7  N  1  X      0.54534     0.62750
              8  N  1  Y      0.63538     0.71448
              9  N  1  Z      0.93798     0.95184
             10  C  2  S      1.98855     1.97359
             11  C  2  S      0.36212     0.42171
             12  C  2  X      0.53353     0.51531
             13  C  2  Y      0.54006     0.51123
             14  C  2  Z      0.58075     0.54474
             15  C  2  S      1.05084     0.55203
             16  C  2  X      0.28506     0.48851
             17  C  2  Y      0.29869     0.48419
             18  C  2  Z      0.49734     0.55718
             19  H  3  S      0.47339     0.48357
             20  H  3  S      0.29624     0.41976
             21  C  4  S      1.98659     1.97448
             22  C  4  S      0.36844     0.43122
             23  C  4  X      0.56631     0.52968
             24  C  4  Y      0.55412     0.52440
             25  C  4  Z      0.55515     0.52026
             26  C  4  S      1.10597     0.58728
             27  C  4  X      0.52286     0.58627
             28  C  4  Y      0.42788     0.55173
             29  C  4  Z      0.46529     0.57004
             30  C  5  S      1.98498     1.97387
             31  C  5  S      0.43721     0.44599
             32  C  5  X      0.58211     0.55918
             33  C  5  Y      0.55295     0.52112
             34  C  5  Z      0.44891     0.42548
             35  C  5  S      0.55126     0.51619
             36  C  5  X      0.30098     0.45118
             37  C  5  Y      0.09556     0.41503
             38  C  5  Z      0.38620     0.47262
             39  O  6  S      1.98605     1.98043
             40  O  6  S      0.43579     0.59377
             41  O  6  X      0.80591     0.79830
             42  O  6  Y      0.67777     0.66366
             43  O  6  Z      0.63163     0.61967
             44  O  6  S      1.55510     1.04995
             45  O  6  X      0.88800     0.94294
             46  O  6  Y      0.74911     0.80457
             47  O  6  Z      0.75140     0.77908
             48  O  7  S      1.98517     1.97920
             49  O  7  S      0.42623     0.58612
             50  O  7  X      0.60224     0.57262
             51  O  7  Y      0.73977     0.73489
             52  O  7  Z      0.79547     0.79565
             53  O  7  S      1.51492     1.02317
             54  O  7  X      0.65445     0.70755
             55  O  7  Y      0.88304     0.91153
             56  O  7  Z      0.95194     0.95456
             57  H  8  S      0.44813     0.45131
             58  H  8  S      0.26804     0.37721
             59  H  9  S      0.45817     0.46018
             60  H  9  S      0.27349     0.37602
             61  H 10  S      0.46951     0.46939
             62  H 10  S      0.33798     0.44010
             63  H 11  S      0.46885     0.46613
             64  H 11  S      0.32562     0.43359
             65  H 12  S      0.47059     0.46966
             66  H 12  S      0.33565     0.43914
             67  H 13  S      0.41419     0.42066
             68  H 13  S      0.22047     0.32144

          ----- MULLIKEN ATOMIC OVERLAP POPULATIONS -----
          (OFF-DIAGONAL ELEMENTS NEED TO BE MULTIPLIED BY 2)

             1           2           3           4           5

    1    6.8857275
    2    0.2957024   5.5557182
    3   -0.0410984   0.3498248   0.5482098
    4   -0.0599852   0.2173736  -0.0600297   5.4749604
    5   -0.0500659   0.1045183  -0.0404073  -0.0657860   4.7181626
    6   -0.0049747  -0.0816651   0.0012693  -0.0005953   0.5001176
    7    0.0005955  -0.0890989   0.0037294   0.0004248   0.2008614
    8    0.3171197  -0.0652716   0.0042349   0.0031526  -0.0049560
    9    0.3284573  -0.0481308   0.0006421  -0.0028594   0.0054512
   10    0.0027566  -0.0421564   0.0041537   0.3522558  -0.0022876
   11    0.0030012  -0.0305660   0.0035867   0.3238930  -0.0033980
   12   -0.0011629  -0.0378778  -0.0041610   0.3700834   0.0035753
   13   -0.0000740   0.0085690  -0.0003197  -0.0002787  -0.0256149

             6           7           8           9          10

    6    8.0931972
    7   -0.0560170   8.2468575
    8    0.0239300   0.0003372   0.4666493
    9    0.0000790  -0.0000192  -0.0300541   0.4751710
   10    0.0007190  -0.0000834   0.0013655   0.0003836   0.5393854
   11    0.0000236   0.0086197  -0.0000685   0.0001021  -0.0205214
   12   -0.0000240   0.0000437  -0.0002347   0.0024334  -0.0284495
   13    0.0046937   0.2369666  -0.0000366   0.0000025  -0.0000339

            11          12          13

   11    0.5337272
   12   -0.0237239   0.5257235
   13   -0.0002067   0.0000066   0.4109869

          TOTAL MULLIKEN AND LOWDIN ATOMIC POPULATIONS
       ATOM         MULL.POP.    CHARGE          LOW.POP.     CHARGE
    1 N             7.675999   -0.675999         7.369670   -0.369670
    2 C             6.136940   -0.136940         6.048479   -0.048479
    3 H             0.769635    0.230365         0.903333    0.096667
    4 C             6.552609   -0.552609         6.275365   -0.275365
    5 C             5.340171    0.659829         5.780661    0.219339
    6 O             8.480753   -0.480753         8.232372   -0.232372
    7 O             8.553217   -0.553217         8.265282   -0.265282
    8 H             0.716168    0.283832         0.828521    0.171479
    9 H             0.731659    0.268341         0.836202    0.163798
   10 H             0.807488    0.192512         0.909484    0.090516
   11 H             0.794469    0.205531         0.899727    0.100273
   12 H             0.806232    0.193768         0.908807    0.091193
   13 H             0.634661    0.365339         0.742096    0.257904

          -------------------------------
          BOND ORDER AND VALENCE ANALYSIS     BOND ORDER THRESHOLD=0.050
          -------------------------------

                   BOND                       BOND                       BOND
  ATOM PAIR DIST  ORDER      ATOM PAIR DIST  ORDER      ATOM PAIR DIST  ORDER
    1   2  1.465  0.961        1   8  1.022  0.835        1   9  1.019  0.873
    2   3  1.097  0.862        2   4  1.557  0.886        2   5  1.518  0.842
    4  10  1.096  0.920        4  11  1.093  0.901        4  12  1.096  0.924
    5   6  1.226  1.814        5   7  1.379  0.980        6   7  2.293  0.141
    7  13  0.998  0.800

                       TOTAL       BONDED        FREE
      ATOM            VALENCE     VALENCE     VALENCE
    1 N                 2.741       2.741      -0.000
    2 C                 3.582       3.582      -0.000
    3 H                 0.895       0.895       0.000
    4 C                 3.655       3.655       0.000
    5 C                 3.648       3.648      -0.000
    6 O                 2.090       2.090      -0.000
    7 O                 1.961       1.961      -0.000
    8 H                 0.902       0.902      -0.000
    9 H                 0.894       0.894      -0.000
   10 H                 0.922       0.922      -0.000
   11 H                 0.924       0.924      -0.000
   12 H                 0.921       0.921      -0.000
   13 H                 0.856       0.856      -0.000

          ---------------------
          ELECTROSTATIC MOMENTS
          ---------------------

 POINT   1           X           Y           Z (BOHR)    CHARGE
                -0.159721    0.115490    0.034704       -0.00 (A.U.)
         DX          DY          DZ         /D/  (DEBYE)
    -0.042066   -1.719070   -0.874959    1.929384
 ...... END OF PROPERTY EVALUATION ......
 CPU     0: STEP CPU TIME=     0.02 TOTAL CPU TIME=        159.1 (      2.7 MIN)
 TOTAL WALL CLOCK TIME=        161.3 SECONDS, CPU UTILIZATION IS    98.62%
  $VIB   
          IVIB=   0 IATOM=   0 ICOORD=   0 E=     -321.7708443853
  2.429188539E-06-6.939858656E-06 2.285590035E-05-1.701762159E-05 3.303292361E-05
  3.261923779E-05 6.113070405E-06 2.978251368E-06 1.231352461E-05 2.339805353E-05
 -2.164643682E-05-3.291377057E-05 2.757713323E-05-1.631059689E-05 1.371240134E-05
 -1.151793986E-05-1.258419864E-05 5.189062927E-06-8.612391670E-06 2.863505955E-05
 -1.923041478E-05 2.706994521E-05 2.505697781E-05-3.285635446E-05-1.064111620E-05
 -1.639428019E-05 3.641783948E-06-7.846209568E-06-1.608415042E-06-2.463248271E-06
 -3.094017029E-06-1.551981001E-05-4.594396685E-06-1.356189002E-05 1.106509707E-06
 -1.409135401E-06-1.429620497E-05 1.938742020E-07 3.135409185E-06
 -4.206630982E-02-1.719069582E+00-8.749587739E-01
 ......END OF GEOMETRY SEARCH......
 CPU     0: STEP CPU TIME=     0.01 TOTAL CPU TIME=        159.1 (      2.7 MIN)
 TOTAL WALL CLOCK TIME=        161.3 SECONDS, CPU UTILIZATION IS    98.62%
               580000  WORDS OF DYNAMIC MEMORY USED
 EXECUTION OF GAMESS TERMINATED NORMALLY Sat May 16 11:24:36 2020
 DDI: 263640 bytes (0.3 MB / 0 MWords) used by master data server.
Note: The following floating-point exceptions are signalling: IEEE_UNDERFLOW_FLAGNote: The following floating-point exceptions are signalling: IEEE_UNDERFLOW_FLAGNote: The following floating-point exceptions are signalling:Note: The following floating-point exceptions are signalling: IEEE_UNDERFLOW_FLAG
 ----------------------------------------
 CPU timing information for all processes
 ========================================
 0: 155.991 + 3.95 = 159.87
 1: 156.594 + 1.127 = 157.722
 2: 156.698 + 0.723 = 157.421
 3: 156.988 + 0.752 = 157.740
 4: 156.468 + 0.847 = 157.316
 5: 156.713 + 0.608 = 157.321
 ----------------------------------------
 IEEE_DENORMAL
 IEEE_DENORMAL
 IEEE_UNDERFLOW_FLAG IEEE_DENORMAL IEEE_DENORMAL
Note: The following floating-point exceptions are signalling: IEEE_UNDERFLOW_FLAGNote: The following floating-point exceptions are signalling:
 IEEE_DENORMAL
 IEEE_UNDERFLOW_FLAG IEEE_DENORMAL
 ddikick.x: exited gracefully.
unset echo
----- accounting info -----
Files used on the master node pietdev were:
-rwxr-xr-x 1 piet piet      706 mei 16 11:21 /home/piet/scr/alanine_geoopt.F05*
-rw-r--r-- 1 piet piet 57344000 mei 16 11:24 /home/piet/scr/alanine_geoopt.F10
-rw-r--r-- 1 piet piet  3497696 mei 16 11:24 /home/piet/scr/alanine_geoopt.F22
-rw-r--r-- 1 piet piet  3497696 mei 16 11:24 /home/piet/scr/alanine_geoopt.F22.001
-rw-r--r-- 1 piet piet  3497696 mei 16 11:24 /home/piet/scr/alanine_geoopt.F22.002
-rw-r--r-- 1 piet piet  3497696 mei 16 11:24 /home/piet/scr/alanine_geoopt.F22.003
-rw-r--r-- 1 piet piet  3497696 mei 16 11:24 /home/piet/scr/alanine_geoopt.F22.004
-rw-r--r-- 1 piet piet  3497696 mei 16 11:24 /home/piet/scr/alanine_geoopt.F22.005
ls: No match.
ls: No match.
ls: No match.
za 16 mei 2020 11:24:39 CEST
0.107u 0.023s 2:44.46 0.0%	0+0k 424+8io 3pf+0w
