----- GAMESS execution script 'rungms' -----
This job is running on host pietdev
under operating system Linux at vr 22 mei 2020 14:20:56 CEST
Available scratch disk space (Kbyte units) at beginning of the job is
Filesystem     1K-blocks     Used Available Use% Mounted on
/dev/sda2      244568380 31372704 200702620  14% /
GAMESS temporary binary files will be written to /home/piet/scr
GAMESS supplementary output files will be written to /home/piet/gamess/scr
Copying input file beta-d-fructofuranose_geoopt.inp to your run's scratch directory...
cp beta-d-fructofuranose_geoopt.inp /home/piet/scr/beta-d-fructofuranose_geoopt.F05
unset echo
 
Assuming a single but multicore node.
 
/home/piet/gamess/ddikick.x /home/piet/gamess/gamess.03.x beta-d-fructofuranose_geoopt -ddi 1 8 pietdev:cpus=8 -scr /home/piet/scr

 Distributed Data Interface kickoff program.
 Initiating 8 compute processes on 1 nodes to run the following command:
 /home/piet/gamess/gamess.03.x beta-d-fructofuranose_geoopt 

          ******************************************************
          *         GAMESS VERSION = 30 SEP 2019 (R2)          *
          *             FROM IOWA STATE UNIVERSITY             *
          * M.W.SCHMIDT, K.K.BALDRIDGE, J.A.BOATZ, S.T.ELBERT, *
          *   M.S.GORDON, J.H.JENSEN, S.KOSEKI, N.MATSUNAGA,   *
          *          K.A.NGUYEN, S.J.SU, T.L.WINDUS,           *
          *       TOGETHER WITH M.DUPUIS, J.A.MONTGOMERY       *
          *         J.COMPUT.CHEM.  14, 1347-1363(1993)        *
          **************** 64 BIT LINUX VERSION ****************

  SINCE 1993, STUDENTS AND POSTDOCS WORKING AT IOWA STATE UNIVERSITY
  AND ALSO IN THEIR VARIOUS JOBS AFTER LEAVING ISU HAVE MADE IMPORTANT
  CONTRIBUTIONS TO THE CODE:
     IVANA ADAMOVIC, CHRISTINE AIKENS, YURI ALEXEEV, POOJA ARORA,
     ANDREY ASADCHEV, ROB BELL, PRADIPTA BANDYOPADHYAY, JONATHAN BENTZ,
     COLLEEN BERTONI, BRETT BODE, KURT BRORSEN, CALEB CARLIN, GALINA CHABAN,
     WEI CHEN, CHEOL HO CHOI, PAUL DAY, ALBERT DEFUSCO, NUWAN DESILVA,
     TIM DUDLEY, DMITRI FEDOROV, ALEX FINDLATER, GRAHAM FLETCHER, 
     MARK FREITAG, KURT GLAESEMANN, EMILIE B GUIDEZ, ANASTASIA GUNINA, 
     DAN KEMP, SAROM SOK LEANG, GRANT MERRILL,
     NORIYUKI MINEZAWA, JONATHAN MULLIN,
     TAKESHI NAGATA, SEAN NEDD, HEATHER NETZLOFF, BOSILJKA NJEGIC, RYAN OLSON,
     MIKE PAK, BUU PHAM, DAVID POOLE,
     SPENCER PRUITT, LUKE ROSKOP, TOSAPORN SATTASATHUCHANA,
     JIM SHOEMAKER, LYUDMILA SLIPCHENKO,
     TONY SMITH, JIE SONG, TETSUYA TAKETSUGU, SIMON WEBB,
     JORGE LUIS GALVEZ VALLEJO, PENG XU, SOOHAENG YOO,
     FEDERICO ZAHARIEV

  ADDITIONAL CODE HAS BEEN PROVIDED BY COLLABORATORS IN OTHER GROUPS:
     IOWA STATE UNIVERSITY:
          JOE IVANIC, AARON WEST, LAIMUTIS BYTAUTAS, KLAUS RUEDENBERG
     UNIVERSITY OF TOKYO: KIMIHIKO HIRAO, TAKAHITO NAKAJIMA,
          TAKAO TSUNEDA, MUNEAKI KAMIYA, SUSUMU YANAGISAWA,
          KIYOSHI YAGI, MAHITO CHIBA, SEIKEN TOKURA, NAOAKI KAWAKAMI
     UNIVERSITY OF AARHUS: FRANK JENSEN
     UNIVERSITY OF IOWA: VISVALDAS KAIRYS, HUI LI
     NATIONAL INST. OF STANDARDS AND TECHNOLOGY: WALT STEVENS, DAVID GARMER
     UNIVERSITY OF PISA: BENEDETTA MENNUCCI, JACOPO TOMASI
     UNIVERSITY OF MEMPHIS: HENRY KURTZ, PRAKASHAN KORAMBATH
     UNIVERSITY OF ALBERTA: TOBY ZENG, MARIUSZ KLOBUKOWSKI
     UNIVERSITY OF NEW ENGLAND: MARK SPACKMAN
     MIE UNIVERSITY: HIROAKI UMEDA
     NAT. INST. OF ADVANCED INDUSTRIAL SCIENCE AND TECHNOLOGY: KAZUO KITAURA
     MICHIGAN STATE UNIVERSITY:
          KAROL KOWALSKI, MARTA WLOCH, JEFFREY GOUR, JESSE LUTZ,
          WEI LI, JUN SHEN, J. EMILIANO DEUSTUA, PIOTR PIECUCH
     UNIVERSITY OF MINNESOTA:
          ANDREW SAND, PRACHI SHARMA, YINAN SHU
     UNIVERSITY OF SILESIA: MONIKA MUSIAL, STANISLAW KUCHARSKI
     FACULTES UNIVERSITAIRES NOTRE-DAME DE LA PAIX:
          OLIVIER QUINET, BENOIT CHAMPAGNE
     UNIVERSITY OF CALIFORNIA - SANTA BARBARA: BERNARD KIRTMAN
     INSTITUTE FOR MOLECULAR SCIENCE:
          KAZUYA ISHIMURA, MICHIO KATOUDA, AND SHIGERU NAGASE
     UNIVERSITY OF NOTRE DAME: ANNA POMOGAEVA, DAN CHIPMAN
     KYUSHU UNIVERSITY:
          HARUYUKI NAKANO,
          FENG LONG GU, JACEK KORCHOWIEC, MARCIN MAKOWSKI, AND YURIKO AOKI,
          HIROTOSHI MORI AND EISAKU MIYOSHI
     PENNSYLVANIA STATE UNIVERSITY:
          TZVETELIN IORDANOV, CHET SWALINA, JONATHAN SKONE,
          SHARON HAMMES-SCHIFFER
     WASEDA UNIVERSITY:
          MASATO KOBAYASHI, TOMOKO AKAMA, TSUGUKI TOUMA,
          TAKESHI YOSHIKAWA, YASUHIRO IKABATA, JUNJI SEINO,
          YUYA NAKAJIMA, HIROMI NAKAI
     NANJING UNIVERSITY: SHUHUA LI
     UNIVERSITY OF NEBRASKA:
          PEIFENG SU, DEJUN SI, NANDUN THELLAMUREGE, YALI WANG, HUI LI
     UNIVERSITY OF ZURICH: ROBERTO PEVERATI, KIM BALDRIDGE
     N. COPERNICUS UNIVERSITY AND JACKSON STATE UNIVERSITY:
          MARIA BARYSZ
     UNIVERSITY OF COPENHAGEN: Jimmy Kromann, CASPER STEINMANN
     TOKYO INSTITUTE OF TECHNOLOGY: HIROYA NAKATA
     NAGOYA UNIVERSITY: YOSHIO NISHIMOTO, STEPHAN IRLE
     MOSCOW STATE UNIVERSITY: VLADIMIR MIRONOV
     A.N.NESMEYANOV INSTITUTE OF ORGANOELEMENT COMPOUNDS OF RUSSIAN ACADEMY OF SCIENCES:
          IGOR S. GERASIMOV
     JOHANNES KEPLER UNIVERSITY LINZ:
          CHRISTIAN FRIEDL


 PARALLEL VERSION RUNNING ON        8 PROCESSORS IN        1 NODES.

 EXECUTION OF GAMESS BEGUN Fri May 22 14:20:56 2020

            ECHO OF THE FIRST FEW INPUT CARDS -
 INPUT CARD> $BASIS GBASIS=N21 NGAUSS=3 $END                                                
 INPUT CARD> $CONTRL SCFTYP=RHF RUNTYP=OPTIMIZE DFTTYP=B3LYP MAXIT=60 MULT=1 ICHARG=0 $END  
 INPUT CARD> $SYSTEM MEMDDI=1000 MWORDS=30 $END                                             
 INPUT CARD> $STATPT NSTEP=999 $END                                                         
 INPUT CARD> $SCF DIRSCF=.TRUE. $END                                                        
 INPUT CARD> $DATA                                                                          
 INPUT CARD>                                                                                
 INPUT CARD>C1                                                                              
 INPUT CARD>O 8.0000000 1.13234190 0.61030750 0.74266890                                    
 INPUT CARD>C 6.0000000 0.78075680 0.10270980 -0.53962520                                   
 INPUT CARD>C 6.0000000 1.82057490 0.45257120 -1.60903430                                   
 INPUT CARD>C 6.0000000 0.42999970 -1.38982930 -0.42660040                                  
 INPUT CARD>H 1.0000000 0.34089770 -1.83061230 -1.42896780                                  
 INPUT CARD>O 8.0000000 1.41852790 -2.06412560 0.33836530                                   
 INPUT CARD>C 6.0000000 -0.96116780 -1.33881460 0.21106600                                  
 INPUT CARD>H 1.0000000 -0.84549210 -1.28951400 1.30194440                                  
 INPUT CARD>O 8.0000000 -1.68041240 -2.51470150 -0.15687600                                 
 INPUT CARD>C 6.0000000 -1.55149690 -0.01827130 -0.33893890                                 
 INPUT CARD>H 1.0000000 -2.25621020 -0.23236430 -1.15063350                                 
 INPUT CARD>O 8.0000000 -0.43714090 0.70029750 -0.92378510                                  
 INPUT CARD>C 6.0000000 -2.24659980 0.82389950 0.71987750                                   
 INPUT CARD>O 8.0000000 -2.98106700 1.85867760 0.07208450                                   
 INPUT CARD>H 1.0000000 1.18967770 -3.00146330 0.39476950                                   
 INPUT CARD>H 1.0000000 -2.47980040 -2.59048810 0.38024260                                  
 INPUT CARD>H 1.0000000 -2.93227370 0.17690540 1.29470710                                   
 INPUT CARD>H 1.0000000 -1.48779380 1.22570020 1.40142180                                   
 INPUT CARD>H 1.0000000 -3.07018900 2.61208270 0.66780680                                   
 INPUT CARD>H 1.0000000 1.51314140 -0.02198770 -2.55379180                                  
 INPUT CARD>H 1.0000000 2.79316140 0.04441690 -1.31757680                                   
 INPUT CARD>O 8.0000000 1.98920470 1.84813100 -1.76866780                                   
 INPUT CARD>H 1.0000000 1.78595190 0.00763470 1.13138630                                    
 INPUT CARD>H 1.0000000 1.10911810 2.24472800 -1.84548290                                   
 INPUT CARD> $END                                                                           
   30000000 WORDS OF MEMORY AVAILABLE

     BASIS OPTIONS
     -------------
     GBASIS=N21          IGAUSS=       3      POLAR=NONE    
     NDFUNC=       0     NFFUNC=       0     DIFFSP=       F
     NPFUNC=       0      DIFFS=       F     BASNAM=        


     RUN TITLE
     ---------
                                                                                 

 THE POINT GROUP OF THE MOLECULE IS C1      
 THE ORDER OF THE PRINCIPAL AXIS IS     0

 ATOM      ATOMIC                      COORDINATES (BOHR)
           CHARGE         X                   Y                   Z
 O           8.0     2.1398159154        1.1533139433        1.4034407206
 C           6.0     1.4754164151        0.1940933783       -1.0197437641
 C           6.0     3.4403877011        0.8552355579       -3.0406339318
 C           6.0     0.8125816078       -2.6263965467       -0.8061578623
 H           1.0     0.6442032428       -3.4593556368       -2.7003575873
 O           8.0     2.6806290369       -3.9006317882        0.6394177008
 C           6.0    -1.8163437702       -2.5299927424        0.3988569053
 H           1.0    -1.5977483938       -2.4368281173        2.4603181672
 O           8.0    -3.1755189824       -4.7520967759       -0.2964526540
 C           6.0    -2.9319040118       -0.0345277504       -0.6405016476
 H           1.0    -4.2636190487       -0.4391048563       -2.1743820273
 O           8.0    -0.8260765190        1.3233703849       -1.7457007105
 C           6.0    -4.2454580261        1.5569442964        1.3603712197
 O           8.0    -5.6333997810        3.5123913635        0.1362199530
 H           1.0     2.2481648667       -5.6719431992        0.7460061833
 H           1.0    -4.6861432602       -4.8953126835        0.7185543229
 H           1.0    -5.5411938140        0.3343027317        2.4466416534
 H           1.0    -2.8115226082        2.3162375211        2.6483031952
 H           1.0    -5.8018159405        4.9361205603        1.2619718647
 H           1.0     2.8594226267       -0.0415507281       -4.8259667317
 H           1.0     5.2783096855        0.0839357702       -2.4898591198
 O           8.0     3.7590518165        3.4924611794       -3.3422975053
 H           1.0     3.3749597183        0.0144274910        2.1380100933
 H           1.0     2.0959292970        4.2419208370       -3.4874569960

          INTERNUCLEAR DISTANCES (ANGS.)
          ------------------------------

                1 O          2 C          3 C          4 C          5 H     

   1 O       0.0000000    1.4232167 *  2.4554131 *  2.4209549 *  3.3616186  
   2 C       1.4232167 *  0.0000000    1.5320772 *  1.5373608 *  2.1730487 *
   3 C       2.4554131 *  1.5320772 *  0.0000000    2.5935090 *  2.7266821 *
   4 C       2.4209549 *  1.5373608 *  2.5935090 *  0.0000000    1.0986215 *
   5 H       3.3616186    2.1730487 *  2.7266821 *  1.0986215 *  0.0000000  
   6 O       2.7199184 *  2.4233850 *  3.2074553    1.4202239 *  2.0830942 *
   7 C       2.9093748 *  2.3824003 *  3.7762310    1.5311982 *  2.1510347 *
   8 H       2.7989173 *  2.8238894 *  4.3146925    2.1505371 *  3.0262501  
   9 O       4.2995871    3.6131278    4.8135624    2.4066425 *  2.4843289 *
  10 C       2.9610771 *  2.3439963 *  3.6339652    2.4114694 *  2.8379394 *
  11 H       3.9720241    3.1158906    4.1592601    3.0132495    3.0621620  
  12 O       2.2909481 *  1.4099520 *  2.3723860 *  2.3168417 *  2.6955627 *
  13 C       3.3857625    3.3572831    4.7014492    3.6577577    4.2847535  
  14 O       4.3506602    4.1962996    5.2781683    4.7367562    5.1864697  
  15 H       3.6289406    3.2674455    4.0427237    1.9619183 *  2.3275174 *
  16 H       4.8398365    4.3278984    5.6312219    3.2495406    3.4361303  
  17 H       4.1247647    4.1420859    5.5764931    4.0893080    4.7076728  
  18 H       2.7708798 *  3.1898421    4.5393698    3.7229816    4.5493147  
  19 H       4.6555316    4.7523287    5.8109437    5.4281072    5.9807621  
  20 H       3.3780851    2.1468125 *  1.1010396 *  2.7512052 *  2.4311535 *
  21 H       2.7061349 *  2.1583278 *  1.0942860 *  2.9043819 *  3.0889707  
  22 O       2.9280083 *  2.4530363 *  1.4147459 *  3.8362289    4.0454251  
  23 H       0.9703204 *  1.9523667 *  2.7765216 *  2.4937591 *  3.4673833  
  24 H       3.0611108    2.5300845 *  1.9426540 *  3.9603581    4.1679786  

                6 O          7 C          8 H          9 O         10 C     

   1 O       2.7199184 *  2.9093748 *  2.7989173 *  4.2995871    2.9610771 *
   2 C       2.4233850 *  2.3824003 *  2.8238894 *  3.6131278    2.3439963 *
   3 C       3.2074553    3.7762310    4.3146925    4.8135624    3.6339652  
   4 C       1.4202239 *  1.5311982 *  2.1505371 *  2.4066425 *  2.4114694 *
   5 H       2.0830942 *  2.1510347 *  3.0262501    2.4843289 *  2.8379394 *
   6 O       0.0000000    2.4910305 *  2.5795919 *  3.1704437    3.6695106  
   7 C       2.4910305 *  0.0000000    1.0981016 *  1.4266759 *  1.5475233 *
   8 H       2.5795919 *  1.0981016 *  0.0000000    2.0799840 *  2.1924869 *
   9 O       3.1704437    1.4266759 *  2.0799840 *  0.0000000    2.5063778 *
  10 C       3.6695106    1.5475233 *  2.1924869 *  2.5063778 *  0.0000000  
  11 H       4.3676272    2.1807321 *  3.0204022    2.5550265 *  1.0960405 *
  12 O       3.5606973    2.3917503 *  3.0132992    3.5313018    1.4491982 *
  13 C       4.6818161    2.5668184 *  2.6016190 *  3.4979310    1.5210233 *
  14 O       5.9004852    3.7846090    3.9980428    4.5684319    2.3949004 *
  15 H       0.9665174 *  2.7247539 *  2.8099204 *  2.9628815 *  4.1172565  
  16 H       3.9339261    1.9752347 *  2.2832064 *  0.9660544 *  2.8275906 *
  17 H       4.9866105    2.7123686 *  2.5505089 *  3.3043907    2.1478915 *
  18 H       4.5166081    2.8759378 *  2.5978356 *  4.0565994    2.1401819 *
  19 H       6.4903032    4.5017965    4.5358421    5.3754532    3.1998007  
  20 H       3.5417300    3.9370900    4.6943026    4.7071874    3.7812161  
  21 H       3.0129243    4.2831140    4.6777198    5.2829136    4.4539553  
  22 O       4.4800683    4.7729096    5.2257996    5.9243793    4.2501941  
  23 H       2.2485714 *  3.1947741    2.9387382 *  4.4763245    3.6470662  
  24 H       4.8405730    4.6213910    5.1203190    5.7693191    3.8039076  

               11 H         12 O         13 C         14 O         15 H     

   1 O       3.9720241    2.2909481 *  3.3857625    4.3506602    3.6289406  
   2 C       3.1158906    1.4099520 *  3.3572831    4.1962996    3.2674455  
   3 C       4.1592601    2.3723860 *  4.7014492    5.2781683    4.0427237  
   4 C       3.0132495    2.3168417 *  3.6577577    4.7367562    1.9619183 *
   5 H       3.0621620    2.6955627 *  4.2847535    5.1864697    2.3275174 *
   6 O       4.3676272    3.5606973    4.6818161    5.9004852    0.9665174 *
   7 C       2.1807321 *  2.3917503 *  2.5668184 *  3.7846090    2.7247539 *
   8 H       3.0204022    3.0132992    2.6016190 *  3.9980428    2.8099204 *
   9 O       2.5550265 *  3.5313018    3.4979310    4.5684319    2.9628815 *
  10 C       1.0960405 *  1.4491982 *  1.5210233 *  2.3949004 *  4.1172565  
  11 H       0.0000000    2.0567769 *  2.1481613 *  2.5284210 *  4.6829823  
  12 O       2.0567769 *  0.0000000    2.4476613 *  2.9673491 *  4.2530175  
  13 C       2.1481613 *  2.4476613 *  0.0000000    1.4247258 *  5.1523877  
  14 O       2.5284210 *  2.9673491 *  1.4247258 *  0.0000000    6.4125039  
  15 H       4.6829823    4.2530175    5.1523877    6.4125039    0.0000000  
  16 H       2.8203408 *  4.0868345    3.4391535    4.4879065    3.6924492  
  17 H       2.5698744 *  3.3795465    1.1041644 *  2.0797944 *  5.2822721  
  18 H       3.0379931    2.6050924 *  1.0962358 *  2.0970605 *  5.1040292  
  19 H       3.4727749    3.6222962    1.9694186 *  0.9645968 *  7.0521566  
  20 H       4.0275455    2.6423888 *  5.0564899    5.5344410    4.2042737  
  21 H       5.0597067    3.3196542    5.4916306    6.2100253    3.8445645  
  22 O       4.7680158    2.8139832 *  5.0183611    5.3001963    5.3701275  
  23 H       4.6480413    3.1057451    4.1348641    5.2223509    3.1548087  
  24 H       4.2360638    2.3718578 *  4.4565312    4.5338410    5.7050630  

               16 H         17 H         18 H         19 H         20 H     

   1 O       4.8398365    4.1247647    2.7708798 *  4.6555316    3.3780851  
   2 C       4.3278984    4.1420859    3.1898421    4.7523287    2.1468125 *
   3 C       5.6312219    5.5764931    4.5393698    5.8109437    1.1010396 *
   4 C       3.2495406    4.0893080    3.7229816    5.4281072    2.7512052 *
   5 H       3.4361303    4.7076728    4.5493147    5.9807621    2.4311535 *
   6 O       3.9339261    4.9866105    4.5166081    6.4903032    3.5417300  
   7 C       1.9752347 *  2.7123686 *  2.8759378 *  4.5017965    3.9370900  
   8 H       2.2832064 *  2.5505089 *  2.5978356 *  4.5358421    4.6943026  
   9 O       0.9660544 *  3.3043907    4.0565994    5.3754532    4.7071874  
  10 C       2.8275906 *  2.1478915 *  2.1401819 *  3.1998007    3.7812161  
  11 H       2.8203408 *  2.5698744 *  3.0379931    3.4727749    4.0275455  
  12 O       4.0868345    3.3795465    2.6050924 *  3.6222962    2.6423888 *
  13 C       3.4391535    1.1041644 *  1.0962358 *  1.9694186 *  5.0564899  
  14 O       4.4879065    2.0797944 *  2.0970605 *  0.9645968 *  5.5344410  
  15 H       3.6924492    5.2822721    5.1040292    7.0521566    4.2042737  
  16 H       0.0000000    2.9494820 *  4.0731041    5.2438530    5.5811591  
  17 H       2.9494820 *  0.0000000    1.7882619 *  2.5183552 *  5.8832149  
  18 H       4.0731041    1.7882619 *  0.0000000    2.2280534 *  5.1191847  
  19 H       5.2438530    2.5183552 *  2.2280534 *  0.0000000    6.1906334  
  20 H       5.5811591    5.8832149    5.1191847    6.1906334    0.0000000  
  21 H       6.1342841    6.2946158    5.2072028    6.7017560    1.7807550 *
  22 O       6.6551606    6.0330929    4.7461992    5.6672299    2.0833626 *
  23 H       5.0508516    4.7240850    3.5034288    5.5299331    3.6953810  
  24 H       6.4197745    5.5199213    4.2807428    4.8906219    2.4089285 *

               21 H         22 O         23 H         24 H     

   1 O       2.7061349 *  2.9280083 *  0.9703204 *  3.0611108  
   2 C       2.1583278 *  2.4530363 *  1.9523667 *  2.5300845 *
   3 C       1.0942860 *  1.4147459 *  2.7765216 *  1.9426540 *
   4 C       2.9043819 *  3.8362289    2.4937591 *  3.9603581  
   5 H       3.0889707    4.0454251    3.4673833    4.1679786  
   6 O       3.0129243    4.4800683    2.2485714 *  4.8405730  
   7 C       4.2831140    4.7729096    3.1947741    4.6213910  
   8 H       4.6777198    5.2257996    2.9387382 *  5.1203190  
   9 O       5.2829136    5.9243793    4.4763245    5.7693191  
  10 C       4.4539553    4.2501941    3.6470662    3.8039076  
  11 H       5.0597067    4.7680158    4.6480413    4.2360638  
  12 O       3.3196542    2.8139832 *  3.1057451    2.3718578 *
  13 C       5.4916306    5.0183611    4.1348641    4.4565312  
  14 O       6.2100253    5.3001963    5.2223509    4.5338410  
  15 H       3.8445645    5.3701275    3.1548087    5.7050630  
  16 H       6.1342841    6.6551606    5.0508516    6.4197745  
  17 H       6.2946158    6.0330929    4.7240850    5.5199213  
  18 H       5.2072028    4.7461992    3.5034288    4.2807428  
  19 H       6.7017560    5.6672299    5.5299331    4.8906219  
  20 H       1.7807550 *  2.0833626 *  3.6953810    2.4089285 *
  21 H       0.0000000    2.0256392 *  2.6482530 *  2.8206481 *
  22 O       2.0256392 *  0.0000000    3.4407924    0.9683709 *
  23 H       2.6482530 *  3.4407924    0.0000000    3.7847643  
  24 H       2.8206481 *  0.9683709 *  3.7847643    0.0000000  

  * ... LESS THAN  3.000


     ATOMIC BASIS SET
     ----------------
 THE CONTRACTED PRIMITIVE FUNCTIONS HAVE BEEN UNNORMALIZED
 THE CONTRACTED BASIS FUNCTIONS ARE NOW NORMALIZED TO UNITY

  SHELL TYPE  PRIMITIVE        EXPONENT          CONTRACTION COEFFICIENT(S)

 O         

      1   S       1           322.0370000    0.059239393389
      1   S       2            48.4308000    0.351499960776
      1   S       3            10.4206000    0.707657921031

      2   L       4             7.4029400   -0.404453583190    0.244586106967
      2   L       5             1.5762000    1.221561761397    0.853955373466

      3   L       6             0.3736840    1.000000000000    1.000000000000

 C         

      4   S       7           172.2560000    0.061766907377
      4   S       8            25.9109000    0.358794042852
      4   S       9             5.5333500    0.700713083689

      5   L      10             3.6649800   -0.395895162119    0.236459946619
      5   L      11             0.7705450    1.215834355681    0.860618805716

      6   L      12             0.1958570    1.000000000000    1.000000000000

 C         

      7   S      13           172.2560000    0.061766907377
      7   S      14            25.9109000    0.358794042852
      7   S      15             5.5333500    0.700713083689

      8   L      16             3.6649800   -0.395895162119    0.236459946619
      8   L      17             0.7705450    1.215834355681    0.860618805716

      9   L      18             0.1958570    1.000000000000    1.000000000000

 C         

     10   S      19           172.2560000    0.061766907377
     10   S      20            25.9109000    0.358794042852
     10   S      21             5.5333500    0.700713083689

     11   L      22             3.6649800   -0.395895162119    0.236459946619
     11   L      23             0.7705450    1.215834355681    0.860618805716

     12   L      24             0.1958570    1.000000000000    1.000000000000

 H         

     13   S      25             5.4471780    0.156284978695
     13   S      26             0.8245472    0.904690876670

     14   S      27             0.1831916    1.000000000000

 O         

     15   S      28           322.0370000    0.059239393389
     15   S      29            48.4308000    0.351499960776
     15   S      30            10.4206000    0.707657921031

     16   L      31             7.4029400   -0.404453583190    0.244586106967
     16   L      32             1.5762000    1.221561761397    0.853955373466

     17   L      33             0.3736840    1.000000000000    1.000000000000

 C         

     18   S      34           172.2560000    0.061766907377
     18   S      35            25.9109000    0.358794042852
     18   S      36             5.5333500    0.700713083689

     19   L      37             3.6649800   -0.395895162119    0.236459946619
     19   L      38             0.7705450    1.215834355681    0.860618805716

     20   L      39             0.1958570    1.000000000000    1.000000000000

 H         

     21   S      40             5.4471780    0.156284978695
     21   S      41             0.8245472    0.904690876670

     22   S      42             0.1831916    1.000000000000

 O         

     23   S      43           322.0370000    0.059239393389
     23   S      44            48.4308000    0.351499960776
     23   S      45            10.4206000    0.707657921031

     24   L      46             7.4029400   -0.404453583190    0.244586106967
     24   L      47             1.5762000    1.221561761397    0.853955373466

     25   L      48             0.3736840    1.000000000000    1.000000000000

 C         

     26   S      49           172.2560000    0.061766907377
     26   S      50            25.9109000    0.358794042852
     26   S      51             5.5333500    0.700713083689

     27   L      52             3.6649800   -0.395895162119    0.236459946619
     27   L      53             0.7705450    1.215834355681    0.860618805716

     28   L      54             0.1958570    1.000000000000    1.000000000000

 H         

     29   S      55             5.4471780    0.156284978695
     29   S      56             0.8245472    0.904690876670

     30   S      57             0.1831916    1.000000000000

 O         

     31   S      58           322.0370000    0.059239393389
     31   S      59            48.4308000    0.351499960776
     31   S      60            10.4206000    0.707657921031

     32   L      61             7.4029400   -0.404453583190    0.244586106967
     32   L      62             1.5762000    1.221561761397    0.853955373466

     33   L      63             0.3736840    1.000000000000    1.000000000000

 C         

     34   S      64           172.2560000    0.061766907377
     34   S      65            25.9109000    0.358794042852
     34   S      66             5.5333500    0.700713083689

     35   L      67             3.6649800   -0.395895162119    0.236459946619
     35   L      68             0.7705450    1.215834355681    0.860618805716

     36   L      69             0.1958570    1.000000000000    1.000000000000

 O         

     37   S      70           322.0370000    0.059239393389
     37   S      71            48.4308000    0.351499960776
     37   S      72            10.4206000    0.707657921031

     38   L      73             7.4029400   -0.404453583190    0.244586106967
     38   L      74             1.5762000    1.221561761397    0.853955373466

     39   L      75             0.3736840    1.000000000000    1.000000000000

 H         

     40   S      76             5.4471780    0.156284978695
     40   S      77             0.8245472    0.904690876670

     41   S      78             0.1831916    1.000000000000

 H         

     42   S      79             5.4471780    0.156284978695
     42   S      80             0.8245472    0.904690876670

     43   S      81             0.1831916    1.000000000000

 H         

     44   S      82             5.4471780    0.156284978695
     44   S      83             0.8245472    0.904690876670

     45   S      84             0.1831916    1.000000000000

 H         

     46   S      85             5.4471780    0.156284978695
     46   S      86             0.8245472    0.904690876670

     47   S      87             0.1831916    1.000000000000

 H         

     48   S      88             5.4471780    0.156284978695
     48   S      89             0.8245472    0.904690876670

     49   S      90             0.1831916    1.000000000000

 H         

     50   S      91             5.4471780    0.156284978695
     50   S      92             0.8245472    0.904690876670

     51   S      93             0.1831916    1.000000000000

 H         

     52   S      94             5.4471780    0.156284978695
     52   S      95             0.8245472    0.904690876670

     53   S      96             0.1831916    1.000000000000

 O         

     54   S      97           322.0370000    0.059239393389
     54   S      98            48.4308000    0.351499960776
     54   S      99            10.4206000    0.707657921031

     55   L     100             7.4029400   -0.404453583190    0.244586106967
     55   L     101             1.5762000    1.221561761397    0.853955373466

     56   L     102             0.3736840    1.000000000000    1.000000000000

 H         

     57   S     103             5.4471780    0.156284978695
     57   S     104             0.8245472    0.904690876670

     58   S     105             0.1831916    1.000000000000

 H         

     59   S     106             5.4471780    0.156284978695
     59   S     107             0.8245472    0.904690876670

     60   S     108             0.1831916    1.000000000000

 TOTAL NUMBER OF BASIS SET SHELLS             =   60
 NUMBER OF CARTESIAN GAUSSIAN BASIS FUNCTIONS =  132
 NUMBER OF ELECTRONS                          =   96
 CHARGE OF MOLECULE                           =    0
 SPIN MULTIPLICITY                            =    1
 NUMBER OF OCCUPIED ORBITALS (ALPHA)          =   48
 NUMBER OF OCCUPIED ORBITALS (BETA )          =   48
 TOTAL NUMBER OF ATOMS                        =   24
 THE NUCLEAR REPULSION ENERGY IS      828.0251445177

 SELECTED MURRAY-HANDY-LAMING RADIAL GRID

 LEGACY BECKE'S FUZZY CELL METHOD

 SELECTED ORIGINAL BECKE'S PARTITION FUNCTION

     LEBEDEV GRID-BASED DFT OPTIONS
     ------------------------------
     DFTTYP=B3LYP   
     NRAD  =      96     NLEB  =     302
     NRAD0 =      24     NLEB0 =     110
     SWOFF =    5.00E-03 (PURE SCF -> DFT)
     SWITCH=    3.00E-04 (COARSE -> TIGHT GRID)
     THRESH=    0.00E+00 GTHRE=    1.00E+00

 GRIMME'S EMPIRICAL DISPERSION CORRECTION= F

     $CONTRL OPTIONS
     ---------------
 SCFTYP=RHF          RUNTYP=OPTIMIZE     EXETYP=RUN     
 MPLEVL=       0     CITYP =NONE         CCTYP =NONE         VBTYP =NONE    
 DFTTYP=B3LYP        TDDFT =NONE    
 MULT  =       1     ICHARG=       0     NZVAR =       0     COORD =UNIQUE  
 PP    =NONE         RELWFN=NONE         LOCAL =NONE         NUMGRD=       F
 ISPHER=      -1     NOSYM =       0     MAXIT =      60     UNITS =ANGS    
 PLTORB=       F     MOLPLT=       F     AIMPAC=       F     FRIEND=        
 NPRINT=       7     IREST =       0     GEOM  =INPUT   
 NORMF =       0     NORMP =       0     ITOL  =      20     ICUT  =       9
 INTTYP=BEST         GRDTYP=BEST         QMTTOL= 1.0E-06

     $SYSTEM OPTIONS
     ---------------
  REPLICATED MEMORY=    30000000 WORDS (ON EVERY NODE).
 DISTRIBUTED MEMDDI=        1000 MILLION WORDS IN AGGREGATE,
 MEMDDI DISTRIBUTED OVER   8 PROCESSORS IS   125000000 WORDS/PROCESSOR.
 TOTAL MEMORY REQUESTED ON EACH PROCESSOR=   155000000 WORDS.
 TIMLIM=      525600.00 MINUTES, OR     365.0 DAYS.
 PARALL= T  BALTYP=  DLB     KDIAG=    0  COREFL= F
 MXSEQ2=     300 MXSEQ3=     150  mem10=         0

          ----------------
          PROPERTIES INPUT
          ----------------

     MOMENTS            FIELD           POTENTIAL          DENSITY
 IEMOM =       1   IEFLD =       0   IEPOT =       0   IEDEN =       0
 WHERE =COMASS     WHERE =NUCLEI     WHERE =NUCLEI     WHERE =NUCLEI  
 OUTPUT=BOTH       OUTPUT=BOTH       OUTPUT=BOTH       OUTPUT=BOTH    
 IEMINT=       0   IEFINT=       0                     IEDINT=       0
                                                       MORB  =       0
          EXTRAPOLATION IN EFFECT
          DIIS IN EFFECT
 ORBITAL PRINTING OPTION: NPREO=     1   132     2     1

     -------------------------------
     INTEGRAL TRANSFORMATION OPTIONS
     -------------------------------
     NWORD  =            0
     CUTOFF = 1.0E-09     MPTRAN =       0
     DIRTRF =       T     AOINTS =DUP     

          ----------------------
          INTEGRAL INPUT OPTIONS
          ----------------------
 NOPK  =       1 NORDER=       0 SCHWRZ=       T

     ------------------------------------------
     THE POINT GROUP IS C1 , NAXIS= 0, ORDER= 1
     ------------------------------------------

     DIMENSIONS OF THE SYMMETRY SUBSPACES ARE
 A   =  132

 ..... DONE SETTING UP THE RUN .....
 CPU     0: STEP CPU TIME=     0.02 TOTAL CPU TIME=          0.0 (      0.0 MIN)
 TOTAL WALL CLOCK TIME=          0.0 SECONDS, CPU UTILIZATION IS    66.67%


          -----------------------------
          STATIONARY POINT LOCATION RUN
          -----------------------------

 OBTAINING INITIAL HESSIAN, HESS=GUESS   
 CARTESIAN COORDINATE OPTIMIZATION USING BADGER'S RULE FORCE CONSTANT GUESS

          PARAMETERS CONTROLLING GEOMETRY SEARCH ARE
          METHOD =QA                  UPHESS =BFGS    
          NNEG   =         0          NFRZ   =         0
          NSTEP  =       999          IFOLOW =         1
          HESS   =GUESS               RESTAR =         F
          IHREP  =         0          HSSEND =         F
          NPRT   =         0          NPUN   =         0
          OPTTOL = 1.000E-04          RMIN   = 1.500E-03
          RMAX   = 1.000E-01          RLIM   = 7.000E-02
          DXMAX  = 3.000E-01          PURIFY =         F
          MOVIE  =         F          TRUPD  =         T
          TRMAX  = 5.000E-01          TRMIN  = 5.000E-02
          ITBMAT =         5          STPT   =         F
          STSTEP = 1.000E-02          PROJCT=          T

 BEGINNING GEOMETRY SEARCH POINT NSERCH=   0 ...

 COORDINATES OF ALL ATOMS ARE (ANGS)
   ATOM   CHARGE       X              Y              Z
 ------------------------------------------------------------
 O           8.0   1.1323419000   0.6103075000   0.7426689000
 C           6.0   0.7807568000   0.1027098000  -0.5396252000
 C           6.0   1.8205749000   0.4525712000  -1.6090343000
 C           6.0   0.4299997000  -1.3898293000  -0.4266004000
 H           1.0   0.3408977000  -1.8306123000  -1.4289678000
 O           8.0   1.4185279000  -2.0641256000   0.3383653000
 C           6.0  -0.9611678000  -1.3388146000   0.2110660000
 H           1.0  -0.8454921000  -1.2895140000   1.3019444000
 O           8.0  -1.6804124000  -2.5147015000  -0.1568760000
 C           6.0  -1.5514969000  -0.0182713000  -0.3389389000
 H           1.0  -2.2562102000  -0.2323643000  -1.1506335000
 O           8.0  -0.4371409000   0.7002975000  -0.9237851000
 C           6.0  -2.2465998000   0.8238995000   0.7198775000
 O           8.0  -2.9810670000   1.8586776000   0.0720845000
 H           1.0   1.1896777000  -3.0014633000   0.3947695000
 H           1.0  -2.4798004000  -2.5904881000   0.3802426000
 H           1.0  -2.9322737000   0.1769054000   1.2947071000
 H           1.0  -1.4877938000   1.2257002000   1.4014218000
 H           1.0  -3.0701890000   2.6120827000   0.6678068000
 H           1.0   1.5131414000  -0.0219877000  -2.5537918000
 H           1.0   2.7931614000   0.0444169000  -1.3175768000
 O           8.0   1.9892047000   1.8481310000  -1.7686678000
 H           1.0   1.7859519000   0.0076347000   1.1313863000
 H           1.0   1.1091181000   2.2447280000  -1.8454829000

          ********************
          1 ELECTRON INTEGRALS
          ********************
 ...... END OF ONE-ELECTRON INTEGRALS ......
 CPU     0: STEP CPU TIME=     0.01 TOTAL CPU TIME=          0.0 (      0.0 MIN)
 TOTAL WALL CLOCK TIME=          0.0 SECONDS, CPU UTILIZATION IS    60.00%

          -------------
          GUESS OPTIONS
          -------------
          GUESS =HUCKEL            NORB  =       0          NORDER=       0
          MIX   =       F          PRTMO =       F          PUNMO =       F
          TOLZ  = 1.0E-08          TOLE  = 1.0E-05
          SYMDEN=       F          PURIFY=       F

 INITIAL GUESS ORBITALS GENERATED BY HUCKEL   ROUTINE.
 HUCKEL GUESS REQUIRES    164928 WORDS.

 SYMMETRIES FOR INITIAL GUESS ORBITALS FOLLOW.   BOTH SET(S).
    48 ORBITALS ARE OCCUPIED (   12 CORE ORBITALS).
    13=A       14=A       15=A       16=A       17=A       18=A       19=A   
    20=A       21=A       22=A       23=A       24=A       25=A       26=A   
    27=A       28=A       29=A       30=A       31=A       32=A       33=A   
    34=A       35=A       36=A       37=A       38=A       39=A       40=A   
    41=A       42=A       43=A       44=A       45=A       46=A       47=A   
    48=A       49=A       50=A       51=A       52=A       53=A       54=A   
    55=A       56=A       57=A       58=A   
 ...... END OF INITIAL ORBITAL SELECTION ......
 CPU     0: STEP CPU TIME=     0.03 TOTAL CPU TIME=          0.1 (      0.0 MIN)
 TOTAL WALL CLOCK TIME=          0.1 SECONDS, CPU UTILIZATION IS    75.00%

                    ----------------------
                    AO INTEGRAL TECHNOLOGY
                    ----------------------
     S,P,L SHELL ROTATED AXIS INTEGRALS, REPROGRAMMED BY
        KAZUYA ISHIMURA (IMS) AND JOSE SIERRA (SYNSTAR).
     S,P,D,L SHELL ROTATED AXIS INTEGRALS PROGRAMMED BY
        KAZUYA ISHIMURA (INSTITUTE FOR MOLECULAR SCIENCE).
     S,P,D,F,G SHELL TO TOTAL QUARTET ANGULAR MOMENTUM SUM 5,
        ERIC PROGRAM BY GRAHAM FLETCHER (ELORET AND NASA ADVANCED
        SUPERCOMPUTING DIVISION, AMES RESEARCH CENTER).
     S,P,D,F,G,L SHELL GENERAL RYS QUADRATURE PROGRAMMED BY
        MICHEL DUPUIS (PACIFIC NORTHWEST NATIONAL LABORATORY).

          --------------------
          2 ELECTRON INTEGRALS
          --------------------

 DIRECT SCF METHOD SKIPS INTEGRAL STORAGE ON DISK.
 DIRECT TRANSFORMATION SKIPS AO INTEGRAL STORAGE ON DISK.
  ...... END OF TWO-ELECTRON INTEGRALS .....
 CPU     0: STEP CPU TIME=     0.01 TOTAL CPU TIME=          0.1 (      0.0 MIN)
 TOTAL WALL CLOCK TIME=          0.1 SECONDS, CPU UTILIZATION IS    77.78%

          --------------------------
             R-B3LYP SCF CALCULATION
          --------------------------

     NUCLEAR ENERGY =       828.0251445177
     MAXIT =   60     NPUNCH=    2
     EXTRAP=T  DAMP=F  SHIFT=F  RSTRCT=F  DIIS=T  DEM=F  SOSCF=F
         DENSITY MATRIX CONVERGENCE THRESHOLD=  2.00E-05
     COARSE -> FINE DFT GRID SWITCH THRESHOLD=  3.00E-04 (SWITCH IN $DFT)
                   HF -> DFT SWITCH THRESHOLD=  5.00E-03 (SWOFF IN $DFT)
     MEMORY REQUIRED FOR RHF ITERS=    955735 WORDS.

 DIRECT SCF CALCULATION, SCHWRZ=T   FDIFF=T,  DIRTHR=  0.00E+00 NITDIR=10
 SCHWARZ INEQUALITY OVERHEAD:      8081 INTEGRALS, T=        0.00

 DFT CODE IS SWITCHING FROM THE FINE GRID NRAD= 96,  NLEB=  302
                      TO THE COARSE GRID NRAD0= 24, NLEB0=  110

     EXCHANGE FUNCTIONAL   =B88&HFX   
     CORRELATION FUNCTIONAL=LYP88&VWN5
     DFT THRESHOLD         =.575E-08
     GRID CHANGE THRESHOLD =.300E-03
 FOR AN EULER-MACLAURIN QUADRATURE USING  96 RADIAL POINTS:
 SMALLEST GAUSSIAN PRIMITIVE EXPONENT=        0.1831915800 OF TYPE -S-
 ON ATOM NUMBER   5 HAS RADIAL NORMALIZATION=  1.000000
  LARGEST GAUSSIAN PRIMITIVE EXPONENT=      322.0370000000 OF TYPE -S-
 ON ATOM NUMBER   1 HAS RADIAL NORMALIZATION=  1.000000
 DFT IS SWITCHED OFF, PERFORMING PURE SCF UNTIL SWOFF THRESHOLD IS REACHED.

                                                                                   NONZERO     BLOCKS
 ITER EX DEM     TOTAL ENERGY        E CHANGE  DENSITY CHANGE    DIIS ERROR      INTEGRALS    SKIPPED
   1  0  0     -677.6726880777  -677.6726880777   0.755648181   0.610832778       21361922     887418
          * * *   INITIATING DIIS PROCEDURE   * * *
   2  1  0     -679.4254749976    -1.7527869199   0.138896735   0.089764123       21326369     900963
   3  2  0     -679.5128060599    -0.0873310624   0.080176002   0.030639247       20963922     949464
   4  3  0     -679.5244254663    -0.0116194064   0.018356912   0.016798832       20605730     984076
   5  4  0     -679.5267524057    -0.0023269394   0.004380904   0.002739703       19953586    1020577
 CONVERGED TO SWOFF, SO DFT CALCULATION IS NOW SWITCHED ON.
          * * *   INITIATING DIIS PROCEDURE   * * *
   6  5  0     -682.9062033681    -3.3794509624   0.131599804   0.064992463       21401117     875626
   7  6  0     -682.9545076504    -0.0483042823   0.121473661   0.028137431       21142611     934064
   8  7  0     -682.9565483274    -0.0020406771   0.058289597   0.029343084       20797998     966620
   9  8  0     -682.9646584104    -0.0081100830   0.004265039   0.006498914       20438288     995281
  10  9  0     -682.9649279314    -0.0002695210   0.001283898   0.000806232       19188700    1057211
  11 10  0     -682.9649333110    -0.0000053796   0.000170045   0.000207257       17979857    1115080
 DFT CODE IS SWITCHING BACK TO THE FINE GRID
          * * *   INITIATING DIIS PROCEDURE   * * *
  12 11  0     -682.9793508357    -0.0144175248   0.003491943   0.001283978       21410947     871075
  13 12  0     -682.9794019902    -0.0000511545   0.003827073   0.000727646       19151626    1064984
  14 13  0     -682.9794029332    -0.0000009429   0.001397031   0.000853602       18211899    1109766
  15 14  0     -682.9794085386    -0.0000056054   0.000134852   0.000052188       17357939    1148212
  16 15  0     -682.9794085744    -0.0000000358   0.000043448   0.000021665       15445291    1224883
  17 16  0     -682.9794085810    -0.0000000066   0.000011464   0.000007123       14239681    1271809
  18 17  0     -682.9794085817    -0.0000000007   0.000002550   0.000003031       12617720    1329440

          -----------------
          DENSITY CONVERGED
          -----------------
     TIME TO FORM FOCK OPERATORS=      19.1 SECONDS (       1.1 SEC/ITER)
     FOCK TIME ON FIRST ITERATION=       0.1, LAST ITERATION=       2.3
     TIME TO SOLVE SCF EQUATIONS=       0.3 SECONDS (       0.0 SEC/ITER)

 FINAL R-B3LYP ENERGY IS     -682.9794085817 AFTER  18 ITERATIONS
 DFT EXCHANGE + CORRELATION ENERGY =       -71.2581316415
 TOTAL ELECTRON NUMBER             =        96.0005758686

          ------------
          EIGENVECTORS
          ------------

                      1          2          3          4          5
                  -19.0450   -19.0424   -19.0390   -19.0201   -19.0162
                     A          A          A          A          A   
    1  O  1  S   -0.002119   0.009334   0.002353   0.982596   0.001143
    2  O  1  S   -0.000683   0.002144   0.000488   0.106492   0.000126
    3  O  1  X    0.000050  -0.000465  -0.000140   0.000623   0.000074
    4  O  1  Y   -0.000180   0.000117   0.000017  -0.002930  -0.000033
    5  O  1  Z    0.000233  -0.000061  -0.000045  -0.002358  -0.000019
    6  O  1  S    0.003557  -0.004669  -0.001187  -0.056564  -0.000217
    7  O  1  X   -0.000735   0.003507   0.001127   0.000867  -0.000263
    8  O  1  Y   -0.000262  -0.000318   0.000263   0.007965   0.000133
    9  O  1  Z   -0.002265   0.002167   0.000374   0.010255   0.000150
   10  C  2  S    0.000321  -0.001133  -0.000175  -0.001126  -0.000011
   11  C  2  S    0.001365  -0.004941  -0.001109  -0.004978  -0.000043
   12  C  2  X    0.000076  -0.001336   0.000793   0.000556  -0.000122
   13  C  2  Y    0.000597   0.001098   0.000236   0.000744  -0.000106
   14  C  2  Z    0.000460  -0.000063  -0.000437   0.000633   0.000018
   15  C  2  S   -0.008038   0.027643   0.002531   0.025135   0.000947
   16  C  2  X   -0.001403  -0.015381  -0.006228   0.000868   0.000910
   17  C  2  Y    0.003603   0.004181  -0.001619   0.005629  -0.000172
   18  C  2  Z   -0.008451  -0.003735   0.002928   0.019668   0.000101
   19  C  3  S    0.000068   0.000186  -0.000071   0.000087   0.000014
   20  C  3  S    0.000619   0.000567  -0.000369   0.000044   0.000059
   21  C  3  X   -0.000191   0.000571  -0.000171   0.000561   0.000034
   22  C  3  Y   -0.000254   0.000186  -0.000123   0.000079   0.000035
   23  C  3  Z   -0.000078  -0.000592   0.000011  -0.000480  -0.000009
   24  C  3  S   -0.002569  -0.004286   0.003875   0.000172  -0.000618
   25  C  3  X    0.002709   0.003964  -0.000242  -0.003740  -0.000049
   26  C  3  Y    0.000901  -0.001765   0.000345  -0.001876  -0.000146
   27  C  3  Z    0.001310   0.001769   0.002001  -0.003040  -0.000370
   28  C  4  S   -0.001029   0.000137   0.000380   0.000179   0.000007
   29  C  4  S   -0.004387   0.000179   0.001739   0.000375   0.000110
   30  C  4  X    0.000832  -0.000623   0.000341  -0.000070  -0.000032
   31  C  4  Y   -0.001250  -0.001086  -0.000070  -0.001235   0.000219
   32  C  4  Z    0.000150   0.000046  -0.000469   0.000233   0.000040
   33  C  4  S    0.027046  -0.003123  -0.012098  -0.004780   0.000948
   34  C  4  X    0.010093   0.002133   0.007129  -0.002290  -0.000673
   35  C  4  Y   -0.003170  -0.003811   0.001244  -0.000104  -0.001741
   36  C  4  Z    0.014487   0.003652   0.001454  -0.006782   0.000038
   37  H  5  S   -0.000690   0.000862   0.001017  -0.000802  -0.000081
   38  H  5  S    0.001136   0.000077   0.002150  -0.000753  -0.000427
   39  O  6  S    0.982523  -0.008181  -0.006254   0.002056  -0.000561
   40  O  6  S    0.105914  -0.000689  -0.000578  -0.000184   0.000017
   41  O  6  X   -0.003268  -0.000106   0.000016   0.000302  -0.000001
   42  O  6  Y   -0.000659  -0.000235   0.000170   0.000405  -0.000031
   43  O  6  Z   -0.001746   0.000023  -0.000025   0.000004  -0.000044
   44  O  6  S   -0.054234  -0.001114  -0.000012   0.002937  -0.000316
   45  O  6  X    0.010379   0.000881  -0.000518  -0.001971   0.000144
   46  O  6  Y   -0.001643   0.000670  -0.000827  -0.000838   0.000165
   47  O  6  Z    0.005932   0.000199   0.000125  -0.000493   0.000223
   48  C  7  S    0.000271   0.000329  -0.001066   0.000109  -0.000096
   49  C  7  S    0.001119   0.001822  -0.004516   0.001003  -0.000653
   50  C  7  X   -0.000293   0.000915  -0.000777   0.000026   0.000321
   51  C  7  Y   -0.000182  -0.000356  -0.000970   0.000416  -0.000507
   52  C  7  Z    0.000631   0.000462   0.000426  -0.000343  -0.000252
   53  C  7  S   -0.007908  -0.007602   0.028646  -0.000782   0.001079
   54  C  7  X   -0.006437  -0.004691  -0.006068   0.001219  -0.002116
   55  C  7  Y    0.000977  -0.006845  -0.012070  -0.002760   0.003068
   56  C  7  Z   -0.004368  -0.000521  -0.010738   0.001864   0.001514
   57  H  8  S    0.001113   0.001043  -0.000935  -0.000273  -0.000823
   58  H  8  S    0.002715   0.000951   0.000752  -0.000151   0.000530
   59  O  9  S    0.006513   0.030222   0.982087  -0.002569   0.000655
   60  O  9  S    0.000796   0.003730   0.105798  -0.000076  -0.000001
   61  O  9  X    0.000088   0.000089  -0.000293   0.000127  -0.000111
   62  O  9  Y    0.000097   0.000074   0.002941  -0.000001   0.000041
   63  O  9  Z   -0.000100   0.000230   0.002433   0.000061   0.000060
   64  O  9  S   -0.000543  -0.003966  -0.053997  -0.000485   0.000505
   65  O  9  X    0.000217  -0.000610  -0.002335  -0.000619   0.000695
   66  O  9  Y   -0.000500  -0.000707  -0.010363  -0.000007  -0.000125
   67  O  9  Z    0.000600  -0.000939  -0.005586  -0.000370  -0.000237
   68  C 10  S   -0.000114  -0.000834   0.000330   0.000128   0.000278
   69  C 10  S   -0.000918  -0.003147   0.001581   0.001084   0.001195
   70  C 10  X   -0.000881   0.001474  -0.000255   0.000686   0.000148
   71  C 10  Y    0.000035   0.000819   0.000207  -0.000006  -0.000447
   72  C 10  Z    0.000085  -0.000909  -0.000516   0.000218  -0.000212
   73  C 10  S    0.000074   0.019604  -0.007771  -0.000752  -0.009134
   74  C 10  X    0.005180   0.011221   0.001003  -0.002570   0.003188
   75  C 10  Y    0.000826   0.003460   0.006743  -0.002095  -0.002173
   76  C 10  Z   -0.000152  -0.001673   0.003783  -0.000337  -0.001926
   77  H 11  S    0.000344  -0.000973   0.001113  -0.000089   0.000600
   78  H 11  S    0.001019  -0.000358   0.002924  -0.000979   0.000882
   79  O 12  S    0.008078   0.982304  -0.030176  -0.008937  -0.001741
   80  O 12  S    0.001098   0.108176  -0.002788   0.000091  -0.000111
   81  O 12  X    0.000007   0.000645   0.000030   0.000263  -0.000129
   82  O 12  Y    0.000214  -0.003163   0.000318   0.000240   0.000096
   83  O 12  Z   -0.000136   0.002398   0.000194   0.000555   0.000147
   84  O 12  S   -0.002739  -0.062719  -0.001040  -0.003030   0.000455
   85  O 12  X    0.000321  -0.003509  -0.000887  -0.003221   0.000067
   86  O 12  Y   -0.000357   0.010425  -0.000845  -0.000692  -0.000320
   87  O 12  Z    0.000566  -0.008021  -0.001425  -0.003804  -0.000168
   88  C 13  S   -0.000030   0.000088  -0.000019  -0.000035  -0.000887
   89  C 13  S   -0.000216   0.000083  -0.000108  -0.000179  -0.003570
   90  C 13  X    0.000182  -0.000274   0.000114  -0.000097  -0.001017
   91  C 13  Y    0.000143   0.000422   0.000096  -0.000060   0.001486
   92  C 13  Z    0.000077   0.000618  -0.000160   0.000049  -0.000495
   93  C 13  S    0.001307  -0.002559  -0.000698   0.000676   0.022803
   94  C 13  X   -0.001912  -0.003651  -0.001786   0.001415  -0.004413
   95  C 13  Y   -0.001352  -0.001618  -0.001579   0.000437   0.006716
   96  C 13  Z   -0.001099  -0.000257   0.001595  -0.000378  -0.007610
   97  O 14  S    0.000595   0.001704  -0.000735  -0.001151   0.982463
   98  O 14  S    0.000152   0.000305  -0.000164  -0.000133   0.105002
   99  O 14  X   -0.000071  -0.000012  -0.000043   0.000039   0.001629
  100  O 14  Y   -0.000035  -0.000201  -0.000033   0.000036  -0.000536
  101  O 14  Z    0.000024  -0.000085  -0.000045  -0.000003   0.003435
  102  O 14  S   -0.000493  -0.000197   0.000510   0.000062  -0.050163
  103  O 14  X    0.000254   0.000339   0.000348  -0.000227  -0.005237
  104  O 14  Y    0.000344   0.000705   0.000086  -0.000139   0.003827
  105  O 14  Z   -0.000115   0.000300   0.000195   0.000027  -0.008295
  106  H 15  S    0.003188   0.000494  -0.000174  -0.000691   0.000055
  107  H 15  S    0.005143  -0.000693  -0.000420   0.000040  -0.000060
  108  H 16  S   -0.000080   0.000200   0.003145   0.000071   0.000189
  109  H 16  S   -0.000232  -0.000181   0.005233  -0.000383  -0.000022
  110  H 17  S   -0.000206  -0.000434   0.000099   0.000101  -0.001444
  111  H 17  S   -0.000922  -0.000282  -0.002287   0.000481  -0.001073
  112  H 18  S    0.000169   0.000530  -0.000038  -0.000381  -0.001275
  113  H 18  S    0.001061   0.001457   0.000636  -0.000150  -0.001626
  114  H 19  S   -0.000007  -0.000228  -0.000121   0.000031   0.003196
  115  H 19  S    0.000059   0.000014   0.000084  -0.000022   0.005740
  116  H 20  S    0.000433   0.000621   0.000053  -0.000825  -0.000039
  117  H 20  S    0.001333   0.001063   0.000322  -0.000448  -0.000018
  118  H 21  S   -0.000141  -0.000543  -0.000195   0.000784   0.000061
  119  H 21  S   -0.000778  -0.000234  -0.000545   0.000800   0.000060
  120  O 22  S    0.000495   0.000373   0.000581   0.002662  -0.000642
  121  O 22  S    0.000122  -0.000028   0.000174   0.000383  -0.000108
  122  O 22  X    0.000073  -0.000046   0.000045  -0.000400  -0.000009
  123  O 22  Y   -0.000062   0.000023  -0.000027  -0.000072   0.000015
  124  O 22  Z    0.000107   0.000279   0.000032   0.000065  -0.000015
  125  O 22  S   -0.000197   0.001032  -0.000635   0.000499   0.000199
  126  O 22  X   -0.000426  -0.000257  -0.000141   0.001511   0.000034
  127  O 22  Y    0.000235  -0.000710   0.000360  -0.000275  -0.000114
  128  O 22  Z   -0.000471  -0.000846  -0.000242   0.000123   0.000080
  129  H 23  S   -0.000474  -0.000478  -0.000244   0.002887   0.000108
  130  H 23  S    0.001887   0.000408   0.000038   0.005650  -0.000081
  131  H 24  S   -0.000094  -0.000360  -0.000054   0.000842   0.000009
  132  H 24  S   -0.000264   0.000669  -0.000063  -0.000590   0.000041

                      6          7          8          9         10
                  -19.0028   -10.2197   -10.1828   -10.1800   -10.1737
                     A          A          A          A          A   
    1  O  1  S   -0.002668  -0.000175   0.000100   0.000040   0.000144
    2  O  1  S   -0.000208  -0.001194   0.000904  -0.000112   0.001093
    3  O  1  X    0.000178   0.000307  -0.000162   0.000070  -0.000281
    4  O  1  Y   -0.000020  -0.000241  -0.000196   0.000441  -0.000101
    5  O  1  Z   -0.000131   0.000014  -0.000201   0.000268  -0.000052
    6  O  1  S    0.000645   0.011058  -0.003324  -0.002155  -0.005108
    7  O  1  X   -0.000633  -0.002733   0.001337   0.000750   0.002816
    8  O  1  Y    0.000101  -0.001353   0.001253   0.000215   0.001481
    9  O  1  Z   -0.000244  -0.004728   0.001292   0.000400   0.001632
   10  C  2  S    0.000276   0.987336   0.001082   0.012456   0.007477
   11  C  2  S    0.001159   0.117836  -0.000432  -0.003318  -0.003864
   12  C  2  X   -0.000434  -0.001066   0.000638  -0.000086   0.001908
   13  C  2  Y   -0.000193  -0.001114   0.001343  -0.000324   0.000601
   14  C  2  Z    0.000271  -0.000378  -0.001197  -0.000153  -0.001035
   15  C  2  S   -0.007995  -0.112986  -0.006750   0.033160   0.015375
   16  C  2  X   -0.001373   0.002913  -0.003073  -0.007573  -0.015240
   17  C  2  Y   -0.002516   0.013049   0.000840  -0.017542  -0.005741
   18  C  2  Z    0.002360   0.007421   0.008265   0.003498   0.009627
   19  C  3  S   -0.000860  -0.007403  -0.003310  -0.008135  -0.004268
   20  C  3  S   -0.003408  -0.004999  -0.001681  -0.001986  -0.001373
   21  C  3  X    0.000151   0.000101  -0.000157   0.000464  -0.000249
   22  C  3  Y    0.001875  -0.000324   0.000179   0.000614   0.000032
   23  C  3  Z   -0.000403   0.000063   0.000109  -0.000372  -0.000109
   24  C  3  S    0.022176   0.029068   0.008400   0.002339   0.008517
   25  C  3  X   -0.000751  -0.013348  -0.003463  -0.000191  -0.001181
   26  C  3  Y    0.011498  -0.004250  -0.002575  -0.000411  -0.000749
   27  C  3  Z    0.000808   0.010268   0.002197   0.000437   0.004419
   28  C  4  S   -0.000082  -0.013892  -0.153683   0.974861   0.018944
   29  C  4  S   -0.000597  -0.007139  -0.022086   0.115227   0.002626
   30  C  4  X   -0.000452   0.000050  -0.000380  -0.000920   0.000555
   31  C  4  Y   -0.000288   0.000347  -0.000282   0.000981  -0.000653
   32  C  4  Z    0.000399  -0.000089  -0.000035   0.000346   0.000290
   33  C  4  S    0.000256   0.041676   0.049279  -0.105571  -0.013725
   34  C  4  X    0.003007   0.002358  -0.019550   0.009072   0.000363
   35  C  4  Y    0.001350   0.020929   0.002437  -0.015837  -0.006604
   36  C  4  Z   -0.002522  -0.002292   0.007708  -0.003266  -0.005586
   37  H  5  S   -0.000594  -0.002433  -0.002260   0.000419  -0.000204
   38  H  5  S   -0.000060   0.000002  -0.001130   0.015756  -0.002119
   39  O  6  S   -0.000476   0.000086   0.000072  -0.000112  -0.000085
   40  O  6  S    0.000049   0.000363   0.000323  -0.000747  -0.000750
   41  O  6  X    0.000053   0.000097  -0.000001  -0.000133   0.000214
   42  O  6  Y    0.000029  -0.000560  -0.000010  -0.000344  -0.000272
   43  O  6  Z   -0.000105   0.000249   0.000208  -0.000437  -0.000097
   44  O  6  S   -0.000338  -0.002941  -0.002934   0.009306   0.002838
   45  O  6  X   -0.000330   0.000504   0.002409  -0.002479  -0.001551
   46  O  6  Y   -0.000312   0.000146  -0.000882   0.004055   0.001879
   47  O  6  Z    0.000592  -0.000017  -0.000527  -0.000145   0.000136
   48  C  7  S   -0.000076  -0.003340   0.974645   0.151498   0.040804
   49  C  7  S   -0.000396  -0.000371   0.117183   0.014165   0.000786
   50  C  7  X   -0.000028  -0.000722   0.000700   0.000399   0.000143
   51  C  7  Y    0.000173  -0.000628   0.000900   0.000363   0.000966
   52  C  7  Z   -0.000067   0.000153  -0.000718  -0.000338  -0.000308
   53  C  7  S    0.003241  -0.011316  -0.118606   0.015162   0.031648
   54  C  7  X    0.001291  -0.000398  -0.012938   0.016640  -0.005239
   55  C  7  Y   -0.000720  -0.003474  -0.014371  -0.002050   0.012347
   56  C  7  Z   -0.000245   0.004611   0.012594  -0.004604  -0.003664
   57  H  8  S   -0.000164   0.000157   0.001254  -0.002126  -0.001976
   58  H  8  S   -0.000290  -0.001391   0.015757   0.003266  -0.000938
   59  O  9  S   -0.000558  -0.000068  -0.000145   0.000054   0.000089
   60  O  9  S    0.000052  -0.000633  -0.000869   0.000268   0.000515
   61  O  9  X   -0.000015  -0.000247   0.000046  -0.000269   0.000038
   62  O  9  Y    0.000008  -0.000151   0.000138  -0.000190  -0.000074
   63  O  9  Z    0.000030   0.000135   0.000634   0.000143  -0.000019
   64  O  9  S   -0.000517   0.002002   0.010091  -0.000940  -0.002615
   65  O  9  X   -0.000117   0.001336   0.002845  -0.000218  -0.000414
   66  O  9  Y   -0.000177   0.001275   0.003831   0.000466  -0.001854
   67  O  9  Z   -0.000170  -0.000709  -0.002058  -0.000422   0.000038
   68  C 10  S    0.000060  -0.008435  -0.039676  -0.025582   0.983330
   69  C 10  S    0.000207  -0.005154  -0.008673  -0.004057   0.117541
   70  C 10  X   -0.000117  -0.001386   0.000593  -0.000236   0.001438
   71  C 10  Y   -0.000156  -0.000128  -0.000236   0.001151   0.000050
   72  C 10  Z    0.000160  -0.000793  -0.000175   0.000701   0.001060
   73  C 10  S   -0.001420   0.015691   0.037882   0.003767  -0.111096
   74  C 10  X   -0.001006   0.010134   0.009637  -0.000049  -0.002968
   75  C 10  Y   -0.000223  -0.000488  -0.016100  -0.006842   0.000174
   76  C 10  Z   -0.000231   0.005341   0.006222  -0.004715  -0.014910
   77  H 11  S   -0.000005   0.000055  -0.002155  -0.000671   0.000334
   78  H 11  S   -0.000101   0.002916   0.000954  -0.003398   0.014342
   79  O 12  S   -0.000395  -0.000137   0.000135   0.000040  -0.000068
   80  O 12  S   -0.000146  -0.000965   0.000950  -0.000156  -0.000071
   81  O 12  X    0.000350  -0.000045   0.000063  -0.000083  -0.000117
   82  O 12  Y    0.000237  -0.000338  -0.000166   0.000377  -0.000596
   83  O 12  Z   -0.000350   0.000377   0.000056  -0.000106   0.000429
   84  O 12  S    0.001703   0.011536  -0.004643  -0.002441   0.006783
   85  O 12  X   -0.000554   0.006997   0.001268  -0.001190  -0.006357
   86  O 12  Y   -0.001086  -0.001028   0.002528   0.000824   0.000543
   87  O 12  Z    0.001310  -0.001151  -0.002014  -0.000149   0.000512
   88  C 13  S   -0.000020   0.000935  -0.009892  -0.005620  -0.075522
   89  C 13  S   -0.000112   0.001034  -0.001774  -0.001626  -0.013126
   90  C 13  X   -0.000026   0.000032  -0.000598   0.000083  -0.000203
   91  C 13  Y    0.000005   0.000223   0.000602   0.000064  -0.000282
   92  C 13  Z   -0.000049   0.000422   0.000277   0.000064   0.000072
   93  C 13  S    0.000486  -0.005739  -0.000463   0.005814   0.039337
   94  C 13  X    0.000580  -0.004602   0.000000   0.001986   0.012041
   95  C 13  Y   -0.000152   0.000641   0.001356  -0.001087  -0.009988
   96  C 13  Z    0.000100  -0.000786   0.000506  -0.002079  -0.012074
   97  O 14  S    0.000636   0.000003  -0.000029   0.000013   0.000071
   98  O 14  S    0.000032   0.000017  -0.000354   0.000083   0.000295
   99  O 14  X    0.000007  -0.000136  -0.000175  -0.000015  -0.000120
  100  O 14  Y    0.000014  -0.000022   0.000266   0.000005   0.000313
  101  O 14  Z   -0.000006   0.000096   0.000221   0.000019  -0.000044
  102  O 14  S    0.000116  -0.000315   0.000680  -0.000525  -0.002838
  103  O 14  X   -0.000028   0.000645   0.000685  -0.000169  -0.001089
  104  O 14  Y   -0.000078   0.000161  -0.001204   0.000173   0.000455
  105  O 14  Z    0.000047  -0.000414  -0.000928  -0.000076   0.000293
  106  H 15  S   -0.000057   0.000500  -0.000037   0.000141  -0.000211
  107  H 15  S    0.000061   0.001774  -0.000537   0.002194   0.000921
  108  H 16  S    0.000086   0.000106   0.000130   0.000248  -0.000091
  109  H 16  S   -0.000027   0.000520   0.001880   0.001683  -0.000125
  110  H 17  S   -0.000029   0.000069   0.000154  -0.000496  -0.001608
  111  H 17  S    0.000082  -0.000018  -0.000308   0.000980   0.000147
  112  H 18  S   -0.000087   0.000498   0.000117  -0.000097  -0.002432
  113  H 18  S   -0.000217   0.002666  -0.001349  -0.000977  -0.001538
  114  H 19  S   -0.000012   0.000123   0.000327  -0.000007   0.000129
  115  H 19  S    0.000054  -0.000191   0.000336   0.000198   0.000956
  116  H 20  S   -0.001369  -0.002148  -0.000586   0.000022  -0.000099
  117  H 20  S   -0.001040   0.000315  -0.000652  -0.001170   0.000734
  118  H 21  S   -0.001483  -0.001637  -0.000592  -0.000242  -0.000657
  119  H 21  S   -0.001207   0.001766   0.000350  -0.000311  -0.000524
  120  O 22  S    0.982487   0.000063  -0.000001  -0.000030   0.000003
  121  O 22  S    0.105234   0.000246  -0.000043  -0.000356  -0.000026
  122  O 22  X   -0.002891  -0.000099  -0.000086   0.000130   0.000096
  123  O 22  Y   -0.002612   0.000192   0.000016   0.000191   0.000014
  124  O 22  Z    0.000149  -0.000103   0.000059  -0.000221   0.000070
  125  O 22  S   -0.050930  -0.002080   0.000235   0.000548  -0.000274
  126  O 22  X    0.006355   0.001550   0.000495  -0.000518  -0.000323
  127  O 22  Y    0.008942   0.000679   0.000021  -0.000678   0.000249
  128  O 22  Z   -0.000919  -0.000637  -0.000290   0.000774  -0.000453
  129  H 23  S    0.000314  -0.000159   0.000435  -0.000859   0.000037
  130  H 23  S   -0.000169   0.003734  -0.001331   0.001454  -0.000174
  131  H 24  S    0.003035  -0.000044   0.000211  -0.000530  -0.000112
  132  H 24  S    0.006045   0.000733  -0.000164   0.001200  -0.000035

                     11         12         13         14         15
                  -10.1670   -10.1553    -1.0814    -1.0395    -1.0301
                     A          A          A          A          A   
    1  O  1  S   -0.000015   0.000010  -0.096755   0.024005   0.040093
    2  O  1  S   -0.000049  -0.000275   0.089034  -0.020956  -0.038982
    3  O  1  X   -0.000186  -0.000114   0.004528   0.000985  -0.008026
    4  O  1  Y    0.000114   0.000087  -0.039609   0.005834   0.018620
    5  O  1  Z    0.000116   0.000291  -0.034206   0.010022   0.008238
    6  O  1  S    0.000748  -0.000695   0.289009  -0.080390  -0.114522
    7  O  1  X    0.000388  -0.000229  -0.002345  -0.000547  -0.009826
    8  O  1  Y   -0.000544  -0.000533  -0.038705   0.005891   0.018190
    9  O  1  Z   -0.000582   0.000814  -0.035499   0.012388   0.008622
   10  C  2  S   -0.000011   0.006603  -0.097703   0.026332   0.012740
   11  C  2  S    0.000092  -0.002155   0.106133  -0.029755  -0.009084
   12  C  2  X   -0.000098  -0.000577  -0.050581   0.023667  -0.020812
   13  C  2  Y    0.000004  -0.000399   0.025116  -0.031090   0.005496
   14  C  2  Z    0.000333   0.000201   0.020725   0.003450  -0.018092
   15  C  2  S    0.000147   0.022820   0.146629  -0.041447  -0.023356
   16  C  2  X    0.000971   0.012551   0.028673   0.016883   0.009774
   17  C  2  Y   -0.000094   0.007131  -0.021037   0.002882   0.007144
   18  C  2  Z   -0.002244  -0.010811  -0.015803   0.014141  -0.015070
   19  C  3  S    0.001237   0.986321  -0.024882   0.012456   0.005684
   20  C  3  S    0.000358   0.112064   0.027210  -0.011737  -0.005025
   21  C  3  X    0.000002  -0.000263  -0.014556   0.005959   0.000676
   22  C  3  Y    0.000017  -0.000553   0.006496  -0.008912  -0.001476
   23  C  3  Z   -0.000043   0.000251   0.013038  -0.002416  -0.003388
   24  C  3  S   -0.001785  -0.089838   0.019153  -0.024835  -0.018679
   25  C  3  X    0.000811   0.005725  -0.002035  -0.001747   0.001775
   26  C  3  Y    0.000176   0.006012   0.011102  -0.004980   0.002377
   27  C  3  Z   -0.000279  -0.006796  -0.011302  -0.005747  -0.006248
   28  C  4  S    0.005213   0.007379  -0.049081  -0.060444   0.031631
   29  C  4  S   -0.000105  -0.000509   0.051483   0.060113  -0.035941
   30  C  4  X    0.000249  -0.000819   0.007969   0.035532  -0.049430
   31  C  4  Y    0.000090  -0.000626   0.018124  -0.046829   0.021706
   32  C  4  Z    0.000224   0.000769   0.013529   0.040694  -0.024619
   33  C  4  S    0.002464   0.002208   0.066245   0.110238  -0.044429
   34  C  4  X   -0.002508   0.004308  -0.025030  -0.019002  -0.004906
   35  C  4  Y   -0.000035   0.001996   0.003175  -0.000064  -0.010932
   36  C  4  Z   -0.000415  -0.001906  -0.000950  -0.019820  -0.001237
   37  H  5  S   -0.000474  -0.000422   0.013883   0.015353  -0.009027
   38  H  5  S   -0.000166  -0.000877  -0.005202  -0.011277   0.002531
   39  O  6  S   -0.000018   0.000048  -0.058091  -0.164405   0.121964
   40  O  6  S   -0.000192   0.000498   0.053215   0.153655  -0.113711
   41  O  6  X    0.000036   0.000112  -0.024775  -0.065051   0.044345
   42  O  6  Y   -0.000119   0.000283  -0.003264  -0.031490   0.021860
   43  O  6  Z    0.000023  -0.000209  -0.012550  -0.032087   0.023208
   44  O  6  S    0.000683  -0.001527   0.178094   0.505604  -0.376821
   45  O  6  X   -0.000131  -0.000336  -0.025809  -0.072069   0.050984
   46  O  6  Y    0.000570  -0.001376  -0.001190  -0.020184   0.016942
   47  O  6  Z   -0.000176   0.001138  -0.016185  -0.038336   0.027849
   48  C  7  S    0.013705   0.004274  -0.035892  -0.047646  -0.060381
   49  C  7  S    0.000115  -0.000676   0.033450   0.049278   0.063723
   50  C  7  X    0.000533  -0.000139   0.003433  -0.012754  -0.048725
   51  C  7  Y   -0.001137  -0.000195   0.004964  -0.046901  -0.050572
   52  C  7  Z   -0.000210   0.000053  -0.013620  -0.009646  -0.016744
   53  C  7  S    0.001207   0.003843   0.061765   0.072037   0.099926
   54  C  7  X   -0.002846   0.002931   0.014703   0.005905   0.004515
   55  C  7  Y    0.003232   0.000404   0.026570  -0.002793   0.023813
   56  C  7  Z   -0.000356  -0.001199   0.002956   0.021743   0.002629
   57  H  8  S   -0.000806  -0.000344   0.009258   0.013994   0.016972
   58  H  8  S    0.001562   0.000264  -0.006098  -0.009460  -0.007196
   59  O  9  S   -0.000004  -0.000007  -0.034105  -0.117040  -0.175394
   60  O  9  S   -0.000039  -0.000108   0.030549   0.109761   0.163412
   61  O  9  X   -0.000064  -0.000042  -0.000790  -0.011143  -0.024679
   62  O  9  Y    0.000170  -0.000069   0.013716   0.037259   0.054755
   63  O  9  Z    0.000045   0.000009   0.009924   0.039707   0.058943
   64  O  9  S    0.000569   0.000216   0.108572   0.356233   0.541985
   65  O  9  X    0.000389   0.000020   0.000566  -0.007720  -0.013138
   66  O  9  Y   -0.000636   0.000238   0.016265   0.043953   0.066167
   67  O  9  Z   -0.000114   0.000031   0.014386   0.038560   0.063007
   68  C 10  S    0.073937   0.003499  -0.053652   0.015723  -0.025651
   69  C 10  S    0.005380  -0.000488   0.057458  -0.017013   0.023714
   70  C 10  X   -0.000109  -0.000072   0.047688  -0.017584   0.007547
   71  C 10  Y   -0.000361   0.000050   0.015602  -0.022450  -0.006191
   72  C 10  Z   -0.000330  -0.000539  -0.013764   0.010002   0.001068
   73  C 10  S    0.016575   0.002776   0.077359  -0.020921   0.039737
   74  C 10  X   -0.006055   0.001310  -0.020329  -0.008443  -0.008168
   75  C 10  Y    0.010981   0.001427   0.002488  -0.007382  -0.009699
   76  C 10  Z    0.010273   0.002546  -0.000307   0.000097  -0.009205
   77  H 11  S   -0.001546   0.000120   0.012954  -0.004255   0.007828
   78  H 11  S    0.003684   0.001112  -0.008616   0.000066  -0.005783
   79  O 12  S    0.000015   0.000031  -0.153983   0.073572  -0.028262
   80  O 12  S   -0.000192  -0.000082   0.138704  -0.068420   0.025179
   81  O 12  X    0.000235  -0.000552   0.022551  -0.009364  -0.005100
   82  O 12  Y   -0.000163   0.000090  -0.060878   0.024154  -0.011588
   83  O 12  Z   -0.000295   0.000371   0.044406  -0.019423   0.006609
   84  O 12  S   -0.000328  -0.001324   0.477971  -0.218962   0.092648
   85  O 12  X    0.000269   0.000638   0.024803  -0.008354  -0.002328
   86  O 12  Y    0.000173  -0.000325  -0.071018   0.031581  -0.015366
   87  O 12  Z    0.000130  -0.001058   0.059134  -0.023556   0.011617
   88  C 13  S    0.983442  -0.001501  -0.013898   0.008299  -0.013568
   89  C 13  S    0.111314   0.000233   0.015589  -0.007080   0.014919
   90  C 13  X    0.000237  -0.000082   0.005460  -0.000751  -0.001361
   91  C 13  Y   -0.000503   0.000061  -0.001367  -0.004522   0.002420
   92  C 13  Z    0.000164   0.000156  -0.009957   0.005584  -0.007024
   93  C 13  S   -0.087065  -0.002772   0.012229  -0.018271   0.023570
   94  C 13  X   -0.005733  -0.001094   0.008012   0.000364   0.004120
   95  C 13  Y    0.007140   0.000557   0.009351   0.003275   0.003926
   96  C 13  Z    0.003096   0.000267   0.003952   0.000639  -0.002150
   97  O 14  S   -0.000063  -0.000003  -0.013473   0.014150  -0.023381
   98  O 14  S   -0.000343  -0.000012   0.012713  -0.013344   0.022323
   99  O 14  X    0.000143  -0.000015   0.004423  -0.003346   0.005056
  100  O 14  Y   -0.000087  -0.000022  -0.002067   0.000803  -0.001043
  101  O 14  Z    0.000408   0.000001   0.005305  -0.006045   0.010242
  102  O 14  S    0.007777   0.000069   0.039083  -0.041900   0.068516
  103  O 14  X    0.001435   0.000125   0.002444  -0.003854   0.004160
  104  O 14  Y   -0.002480   0.000028  -0.002078   0.000782  -0.000957
  105  O 14  Z   -0.000356   0.000003   0.005652  -0.006111   0.010548
  106  H 15  S    0.000010  -0.000245   0.026425   0.086057  -0.063371
  107  H 15  S    0.000355  -0.000190   0.004626   0.018790  -0.009997
  108  H 16  S    0.000477  -0.000078   0.014972   0.060372   0.092933
  109  H 16  S   -0.001098   0.000430   0.003428   0.010778   0.020807
  110  H 17  S   -0.000120   0.000067   0.005073  -0.001547   0.004472
  111  H 17  S    0.016552   0.000279   0.001010   0.005334   0.004369
  112  H 18  S   -0.000228   0.000161   0.003966  -0.002432   0.004365
  113  H 18  S    0.016909   0.000561  -0.000959  -0.001458  -0.003401
  114  H 19  S   -0.000115  -0.000001   0.006087  -0.006888   0.011891
  115  H 19  S    0.002418  -0.000095  -0.000854  -0.001422   0.001211
  116  H 20  S    0.000121  -0.000070   0.007768  -0.003717  -0.001552
  117  H 20  S    0.000138   0.016609  -0.005259  -0.001464   0.000817
  118  H 21  S   -0.000008  -0.000028   0.008421  -0.002806  -0.001227
  119  H 21  S    0.000035   0.016985   0.001908   0.005677  -0.001260
  120  O 22  S   -0.000007  -0.000048  -0.025951   0.021198   0.007105
  121  O 22  S   -0.000055  -0.000267   0.025124  -0.020553  -0.006471
  122  O 22  X    0.000032  -0.000202  -0.012167   0.009558   0.002693
  123  O 22  Y    0.000005  -0.000246  -0.009981   0.006908   0.002450
  124  O 22  Z   -0.000002  -0.000086   0.001936  -0.001046  -0.000591
  125  O 22  S    0.000206   0.007656   0.069481  -0.059105  -0.021707
  126  O 22  X   -0.000174   0.000137  -0.011963   0.010095   0.003255
  127  O 22  Y   -0.000083  -0.002381  -0.009730   0.006250   0.002294
  128  O 22  Z    0.000023   0.001082   0.004851  -0.000661   0.000003
  129  H 23  S   -0.000119  -0.000486   0.044885  -0.007493  -0.022773
  130  H 23  S    0.000007  -0.000039   0.001007   0.005676  -0.007229
  131  H 24  S   -0.000057  -0.000209   0.012689  -0.010764  -0.003203
  132  H 24  S    0.000006   0.002984   0.007022  -0.003828   0.000684

                     16         17         18         19         20
                   -1.0134    -0.9997    -0.9943    -0.7838    -0.7672
                     A          A          A          A          A   
    1  O  1  S    0.047741  -0.051815  -0.177399  -0.002717   0.051879
    2  O  1  S   -0.044259   0.048661   0.164661   0.000753  -0.048070
    3  O  1  X   -0.008214   0.014274   0.035406   0.004046  -0.030321
    4  O  1  Y    0.018798  -0.019959  -0.073383  -0.012729   0.007472
    5  O  1  Z    0.010857  -0.009723  -0.028140   0.014855  -0.038908
    6  O  1  S   -0.149155   0.160076   0.560782   0.021049  -0.185879
    7  O  1  X   -0.007547   0.016613   0.029738   0.002222  -0.013952
    8  O  1  Y    0.020445  -0.022888  -0.079371  -0.015339   0.013677
    9  O  1  Z    0.014186  -0.013143  -0.046025   0.008676  -0.018112
   10  C  2  S    0.017188  -0.004223  -0.022906   0.026847  -0.106123
   11  C  2  S   -0.017749   0.000350   0.024098  -0.019332   0.105310
   12  C  2  X   -0.010998   0.054907   0.055476   0.017331   0.002281
   13  C  2  Y   -0.009104   0.007851   0.006947  -0.075266  -0.066345
   14  C  2  Z   -0.016940   0.015917   0.090180   0.039263  -0.051642
   15  C  2  S   -0.037435   0.019899   0.054257  -0.108942   0.272475
   16  C  2  X    0.000718  -0.010183  -0.011334   0.012206  -0.017940
   17  C  2  Y    0.001367   0.012647  -0.017930   0.008770  -0.044771
   18  C  2  Z    0.011180  -0.008832  -0.023294  -0.003300  -0.020998
   19  C  3  S    0.015286  -0.072203   0.031193   0.015726  -0.065031
   20  C  3  S   -0.016678   0.076930  -0.032447  -0.014350   0.069079
   21  C  3  X    0.001591   0.004501  -0.000528   0.017623  -0.033969
   22  C  3  Y   -0.012898   0.078051  -0.039650   0.006420  -0.043548
   23  C  3  Z   -0.002447  -0.005148   0.013184  -0.011208   0.028025
   24  C  3  S   -0.019785   0.121497  -0.060309  -0.044901   0.161248
   25  C  3  X   -0.006454   0.008529   0.025721   0.018005   0.000379
   26  C  3  Y    0.000322  -0.012641   0.009899  -0.000565  -0.019191
   27  C  3  Z   -0.001996   0.006627   0.017225  -0.000460   0.007209
   28  C  4  S   -0.006804   0.007421   0.011332  -0.073944  -0.117710
   29  C  4  S    0.008026  -0.007229  -0.012305   0.070936   0.118386
   30  C  4  X    0.007934   0.004646  -0.003585  -0.065936  -0.020603
   31  C  4  Y   -0.011179  -0.002375   0.013064   0.017890   0.063563
   32  C  4  Z    0.005775  -0.001487  -0.001238   0.015518  -0.020773
   33  C  4  S    0.005643  -0.010194  -0.032145   0.207405   0.291313
   34  C  4  X    0.003870   0.001433   0.019227  -0.003095  -0.032835
   35  C  4  Y    0.010162  -0.010128  -0.014589   0.040526   0.011288
   36  C  4  Z   -0.011080   0.018682   0.027937   0.007819  -0.010506
   37  H  5  S    0.001762  -0.000395  -0.002713   0.035103   0.064285
   38  H  5  S   -0.001316   0.003869   0.006049  -0.004087  -0.006006
   39  O  6  S   -0.032065   0.008620   0.039794   0.034534   0.049187
   40  O  6  S    0.029583  -0.007497  -0.035975  -0.031897  -0.046821
   41  O  6  X   -0.011533   0.003217   0.014369  -0.012225  -0.014382
   42  O  6  Y   -0.008194   0.002635   0.014210   0.040579   0.075262
   43  O  6  Z   -0.005826   0.001748   0.007379  -0.006435  -0.025198
   44  O  6  S    0.102829  -0.031428  -0.134883  -0.129611  -0.178176
   45  O  6  X   -0.016223   0.007869   0.022547  -0.003136  -0.002564
   46  O  6  Y   -0.008157   0.005290   0.014789   0.023129   0.052992
   47  O  6  Z   -0.008015   0.002161   0.013386  -0.000787  -0.016466
   48  C  7  S    0.004914   0.002176   0.001175  -0.122287  -0.042524
   49  C  7  S   -0.005303   0.000536  -0.001728   0.122499   0.041865
   50  C  7  X    0.004580  -0.007362  -0.006693   0.028921   0.070826
   51  C  7  Y    0.013581  -0.016812  -0.015375   0.070573  -0.015151
   52  C  7  Z    0.002060   0.004531   0.005361  -0.018499  -0.020349
   53  C  7  S    0.000813  -0.012926   0.004536   0.294490   0.125499
   54  C  7  X    0.010692  -0.012919  -0.007554   0.017123  -0.006265
   55  C  7  Y   -0.011348  -0.002969   0.005515   0.024669   0.025313
   56  C  7  Z   -0.004128  -0.001443  -0.010771  -0.008438  -0.011381
   57  H  8  S    0.000241   0.001152   0.001219   0.064626   0.017653
   58  H  8  S   -0.002973   0.003554   0.007585  -0.002719  -0.007072
   59  O  9  S    0.027083  -0.024219  -0.023453   0.057753   0.014162
   60  O  9  S   -0.024900   0.022998   0.022133  -0.054387  -0.012772
   61  O  9  X    0.004694  -0.004801  -0.005238   0.061424   0.034266
   62  O  9  Y   -0.007481   0.005667   0.005299   0.036815   0.010686
   63  O  9  Z   -0.009374   0.008925   0.008620  -0.027728  -0.011138
   64  O  9  S   -0.086820   0.073923   0.072211  -0.209880  -0.053815
   65  O  9  X   -0.000012  -0.002701  -0.002536   0.041632   0.025020
   66  O  9  Y   -0.009526   0.007117   0.006683   0.017338   0.000253
   67  O  9  Z   -0.009411   0.008455   0.009266  -0.024143  -0.007514
   68  C 10  S   -0.021065   0.027206   0.029305  -0.117598   0.080054
   69  C 10  S    0.019082  -0.029015  -0.030961   0.116018  -0.070253
   70  C 10  X   -0.006670  -0.030295  -0.031282  -0.013740   0.015650
   71  C 10  Y    0.017432  -0.010537  -0.013123  -0.044758  -0.060159
   72  C 10  Z    0.006760   0.013202   0.014367   0.050462   0.001026
   73  C 10  S    0.049674  -0.050437  -0.065896   0.291368  -0.250382
   74  C 10  X   -0.012604   0.001395   0.003493   0.006122  -0.013529
   75  C 10  Y    0.012242   0.004005   0.006908  -0.013809   0.011371
   76  C 10  Z   -0.000427  -0.003459  -0.000186   0.033908  -0.015937
   77  H 11  S    0.005722  -0.007589  -0.007964   0.057456  -0.039832
   78  H 11  S   -0.003336   0.003091   0.006717  -0.002989  -0.003481
   79  O 12  S   -0.010032   0.078479   0.087124   0.070273   0.040086
   80  O 12  S    0.009409  -0.070844  -0.080064  -0.064334  -0.035193
   81  O 12  X   -0.011468   0.005387   0.003533  -0.074457   0.098389
   82  O 12  Y   -0.003091   0.032669   0.032635  -0.008638  -0.014242
   83  O 12  Z    0.003477  -0.021379  -0.015006   0.009112  -0.022547
   84  O 12  S    0.032258  -0.259566  -0.283629  -0.257434  -0.150523
   85  O 12  X   -0.005429   0.000266  -0.003423  -0.054116   0.062817
   86  O 12  Y   -0.005482   0.044433   0.043173   0.001306  -0.003426
   87  O 12  Z    0.001742  -0.027204  -0.012435  -0.003047  -0.019539
   88  C 13  S   -0.078051  -0.013637  -0.008053  -0.071315   0.059273
   89  C 13  S    0.083389   0.015080   0.009778   0.076356  -0.061316
   90  C 13  X   -0.039140  -0.015809  -0.012721   0.032836  -0.027892
   91  C 13  Y    0.060333   0.018983   0.014865  -0.052849   0.031985
   92  C 13  Z   -0.036044  -0.003506  -0.000525  -0.020414   0.023326
   93  C 13  S    0.126172   0.024258   0.011068   0.162214  -0.142292
   94  C 13  X    0.001447  -0.004016  -0.005679  -0.008201  -0.006255
   95  C 13  Y   -0.004191  -0.006761  -0.009318  -0.022344   0.007725
   96  C 13  Z    0.015291   0.001246  -0.001797   0.010584   0.006647
   97  O 14  S   -0.204912  -0.053524  -0.038854   0.033124  -0.029560
   98  O 14  S    0.192243   0.050145   0.036225  -0.031365   0.027775
   99  O 14  X    0.037079   0.008034   0.005309   0.012805  -0.015643
  100  O 14  Y    0.001637   0.002473   0.002413  -0.039974   0.039511
  101  O 14  Z    0.092126   0.024627   0.017992  -0.016630   0.016343
  102  O 14  S    0.624280   0.164948   0.120993  -0.117807   0.108120
  103  O 14  X    0.043356   0.010832   0.008000   0.007907  -0.009626
  104  O 14  Y   -0.010105  -0.001100  -0.000234  -0.024050   0.025777
  105  O 14  Z    0.096213   0.026313   0.020095  -0.017025   0.018140
  106  H 15  S    0.017073  -0.003872  -0.022141  -0.037189  -0.063732
  107  H 15  S    0.004206  -0.001615  -0.006996  -0.019886  -0.033750
  108  H 16  S   -0.015410   0.014079   0.013698  -0.066188  -0.025531
  109  H 16  S   -0.002665   0.002913   0.003994  -0.031931  -0.017147
  110  H 17  S    0.022299   0.003737   0.002205   0.039371  -0.028962
  111  H 17  S   -0.009313  -0.002385  -0.002065  -0.008621  -0.001153
  112  H 18  S    0.023290   0.003641   0.001702   0.037147  -0.030058
  113  H 18  S   -0.008122   0.002916   0.010838   0.000208  -0.002927
  114  H 19  S    0.108423   0.029313   0.021444  -0.038865   0.037190
  115  H 19  S    0.021629   0.006941   0.005395  -0.020222   0.019471
  116  H 20  S   -0.004787   0.020760  -0.007414  -0.006582   0.038168
  117  H 20  S    0.000274  -0.005557   0.009305   0.004296   0.002607
  118  H 21  S   -0.004222   0.019730  -0.009306  -0.005184   0.034237
  119  H 21  S    0.002933  -0.007426  -0.004951  -0.003893  -0.008620
  120  O 22  S    0.032306  -0.189353   0.094514  -0.017385   0.032737
  121  O 22  S   -0.030061   0.176710  -0.088978   0.016171  -0.031533
  122  O 22  X    0.013420  -0.078824   0.041377  -0.004992   0.018218
  123  O 22  Y    0.009473  -0.050909   0.023706   0.005390  -0.022861
  124  O 22  Z   -0.001130   0.003319   0.000469  -0.003134   0.006579
  125  O 22  S   -0.098265   0.581565  -0.289473   0.063139  -0.114206
  126  O 22  X    0.014906  -0.080972   0.035418  -0.005630   0.013625
  127  O 22  Y    0.010903  -0.061799   0.031619   0.002457  -0.009996
  128  O 22  Z   -0.001067   0.002552  -0.001652  -0.004567   0.003081
  129  H 23  S   -0.024240   0.027685   0.096261   0.008746  -0.045777
  130  H 23  S   -0.002522   0.006473   0.017983   0.002296  -0.033429
  131  H 24  S   -0.016046   0.097037  -0.051571   0.010473  -0.028645
  132  H 24  S   -0.001863   0.011636  -0.011059  -0.001317  -0.021398

                     21         22         23         24         25
                   -0.7012    -0.6394    -0.6155    -0.5747    -0.5516
                     A          A          A          A          A   
    1  O  1  S    0.023843  -0.015249   0.004833   0.026601   0.011722
    2  O  1  S   -0.021806   0.012912  -0.003649  -0.023682  -0.010722
    3  O  1  X   -0.004175   0.044359  -0.070774  -0.091498  -0.009867
    4  O  1  Y    0.013208   0.005592   0.039992   0.003608  -0.027671
    5  O  1  Z   -0.039105   0.032887  -0.080287  -0.135070   0.026252
[...]

               ----- POPULATIONS IN EACH AO -----
                             MULLIKEN      LOWDIN
              1  O  1  S      1.98515     1.97925
              2  O  1  S      0.42386     0.58494
              3  O  1  X      0.79538     0.79087
              4  O  1  Y      0.72598     0.71538
              5  O  1  Z      0.60840     0.59111
              6  O  1  S      1.52467     1.04453
              7  O  1  X      0.92431     0.95694
              8  O  1  Y      0.86962     0.89663
              9  O  1  Z      0.70504     0.77584
             10  C  2  S      1.98899     1.97299
             11  C  2  S      0.38008     0.44242
             12  C  2  X      0.50100     0.48638
             13  C  2  Y      0.55714     0.53434
             14  C  2  Z      0.51263     0.49066
             15  C  2  S      0.86666     0.53956
             16  C  2  X      0.27325     0.43752
             17  C  2  Y      0.30585     0.47355
             18  C  2  Z      0.22532     0.43899
             19  C  3  S      1.98677     1.97363
             20  C  3  S      0.37933     0.43548
             21  C  3  X      0.59460     0.55987
             22  C  3  Y      0.46925     0.44855
             23  C  3  Z      0.57697     0.53805
             24  C  3  S      1.00529     0.56933
             25  C  3  X      0.43740     0.54762
             26  C  3  Y      0.24165     0.41552
             27  C  3  Z      0.41528     0.54264
             28  C  4  S      1.98885     1.97366
             29  C  4  S      0.37030     0.44206
             30  C  4  X      0.51241     0.49264
             31  C  4  Y      0.56679     0.55521
             32  C  4  Z      0.54928     0.51732
             33  C  4  S      1.00110     0.55677
             34  C  4  X      0.25093     0.45134
             35  C  4  Y      0.34652     0.48926
             36  C  4  Z      0.41827     0.51555
             37  H  5  S      0.47466     0.47995
             38  H  5  S      0.30373     0.42838
             39  O  6  S      1.98473     1.97889
             40  O  6  S      0.42263     0.57837
             41  O  6  X      0.73298     0.72883
             42  O  6  Y      0.62763     0.60132
             43  O  6  Z      0.77372     0.76981
             44  O  6  S      1.50690     1.04076
             45  O  6  X      0.88892     0.92275
             46  O  6  Y      0.71065     0.75401
             47  O  6  Z      0.91140     0.94333
             48  C  7  S      1.98873     1.97357
             49  C  7  S      0.36886     0.43821
             50  C  7  X      0.54745     0.53315
             51  C  7  Y      0.49281     0.47318
             52  C  7  Z      0.58210     0.54412
             53  C  7  S      0.99081     0.55639
             54  C  7  X      0.33173     0.48684
             55  C  7  Y      0.24005     0.43902
             56  C  7  Z      0.46680     0.54874
             57  H  8  S      0.47741     0.48732
             58  H  8  S      0.32306     0.43907
             59  O  9  S      1.98490     1.97924
             60  O  9  S      0.42523     0.58313
             61  O  9  X      0.64795     0.62470
             62  O  9  Y      0.68284     0.67445
             63  O  9  Z      0.79497     0.79217
             64  O  9  S      1.51564     1.05114
             65  O  9  X      0.73158     0.77776
             66  O  9  Y      0.82728     0.86992
             67  O  9  Z      0.94452     0.97145
             68  C 10  S      1.98912     1.97398
             69  C 10  S      0.36886     0.44780
             70  C 10  X      0.50891     0.48907
             71  C 10  Y      0.53618     0.51395
             72  C 10  Z      0.56491     0.53683
             73  C 10  S      1.03132     0.56786
             74  C 10  X      0.33924     0.46533
             75  C 10  Y      0.29607     0.47351
             76  C 10  Z      0.40595     0.52370
             77  H 11  S      0.47750     0.48166
             78  H 11  S      0.29927     0.42285
             79  O 12  S      1.98553     1.97945
             80  O 12  S      0.42263     0.58674
             81  O 12  X      0.56450     0.54425
             82  O 12  Y      0.75097     0.74719
             83  O 12  Z      0.79725     0.79693
             84  O 12  S      1.52871     1.02463
             85  O 12  X      0.62819     0.70650
             86  O 12  Y      0.89055     0.92649
             87  O 12  Z      0.92739     0.95434
             88  C 13  S      1.98669     1.97374
             89  C 13  S      0.37774     0.43503
             90  C 13  X      0.59353     0.54913
             91  C 13  Y      0.48062     0.46314
             92  C 13  Z      0.55946     0.52810
             93  C 13  S      1.00027     0.57133
             94  C 13  X      0.46665     0.55027
             95  C 13  Y      0.28136     0.43798
             96  C 13  Z      0.37604     0.52459
             97  O 14  S      1.98472     1.97933
             98  O 14  S      0.42663     0.58331
             99  O 14  X      0.70514     0.69185
            100  O 14  Y      0.64219     0.62755
            101  O 14  Z      0.77585     0.77005
            102  O 14  S      1.50786     1.05618
            103  O 14  X      0.84736     0.87954
            104  O 14  Y      0.75867     0.81397
            105  O 14  Z      0.90118     0.92987
            106  H 15  S      0.42065     0.42935
            107  H 15  S      0.21274     0.31834
            108  H 16  S      0.42787     0.43673
            109  H 16  S      0.22735     0.32631
            110  H 17  S      0.48160     0.48250
            111  H 17  S      0.33427     0.43939
            112  H 18  S      0.47700     0.48101
            113  H 18  S      0.32076     0.44078
            114  H 19  S      0.42309     0.43254
            115  H 19  S      0.23764     0.34019
            116  H 20  S      0.48141     0.48537
            117  H 20  S      0.35202     0.45199
            118  H 21  S      0.47987     0.48048
            119  H 21  S      0.30554     0.42520
            120  O 22  S      1.98472     1.97930
            121  O 22  S      0.42724     0.58318
            122  O 22  X      0.65522     0.63227
            123  O 22  Y      0.59770     0.57929
            124  O 22  Z      0.87069     0.87685
            125  O 22  S      1.50791     1.05254
            126  O 22  X      0.76349     0.80168
            127  O 22  Y      0.71501     0.78372
            128  O 22  Z      1.02102     1.03201
            129  H 23  S      0.41097     0.41800
            130  H 23  S      0.23379     0.34469
            131  H 24  S      0.42456     0.43328
            132  H 24  S      0.23382     0.33867

          ----- MULLIKEN ATOMIC OVERLAP POPULATIONS -----
          (OFF-DIAGONAL ELEMENTS NEED TO BE MULTIPLIED BY 2)

             1           2           3           4           5

    1    8.2160593
    2    0.2286737   5.4958958
    3   -0.0486294   0.1268869   5.2678807
    4   -0.0547758  -0.0097938  -0.0588322   5.7273632
    5    0.0018879  -0.0393244   0.0001154   0.3132835   0.5754107
    6   -0.0073360  -0.0405264  -0.0000987   0.2296983  -0.0315495
    7    0.0011678  -0.0761976   0.0049347   0.1019421  -0.0604251
    8    0.0042500   0.0021180   0.0000440  -0.0530707   0.0060459
    9    0.0000028   0.0018707  -0.0000077  -0.0382029   0.0051280
   10    0.0019223  -0.0944021   0.0051549  -0.0682831   0.0023594
   11   -0.0000644   0.0034598  -0.0001064  -0.0009676   0.0003704
   12   -0.0330685   0.2105498  -0.0510475  -0.0493244   0.0018293
   13   -0.0046198   0.0008231  -0.0002235   0.0040452  -0.0000037
   14    0.0000036   0.0001557  -0.0000002  -0.0000428   0.0000004
   15    0.0001535   0.0063382  -0.0001421  -0.0434899  -0.0015501
   16    0.0000016  -0.0002258   0.0000016   0.0060099  -0.0002173
   17    0.0000622   0.0001863   0.0000026  -0.0001238  -0.0000004
   18    0.0171555   0.0011202   0.0000978  -0.0004077  -0.0000058
   19    0.0000038   0.0002846  -0.0000440   0.0001062  -0.0000020
   20    0.0019999  -0.0594133   0.2931645   0.0072162   0.0040454
   21    0.0013554  -0.0445573   0.3434013  -0.0000918  -0.0002554
   22   -0.0000784  -0.0311080   0.2821325   0.0017217   0.0000015
   23    0.2360490  -0.0606719   0.0026484  -0.0102766   0.0012649
   24    0.0002340  -0.0112226  -0.0607851   0.0007558  -0.0000182

             6           7           8           9          10

    6    8.1508148
    7   -0.0418143   5.6416325
    8    0.0030734   0.3192968   0.6071285
    9    0.0001229   0.2512942  -0.0334388   8.1501191
   10    0.0025639   0.0150053  -0.0646478  -0.0349227   5.7423102
   11   -0.0000156  -0.0316455   0.0041457   0.0023146   0.3461751
   12    0.0002768  -0.0383089   0.0020013   0.0002708   0.2203882
   13   -0.0000132  -0.0345958  -0.0026764   0.0009675   0.1184269
   14    0.0000000   0.0016557   0.0000088  -0.0000002  -0.0362833
   15    0.2508888  -0.0014362  -0.0001703   0.0018896   0.0000917
   16   -0.0000479  -0.0458165  -0.0036293   0.2474434  -0.0014323
   17    0.0000001   0.0025555   0.0008619   0.0000601  -0.0452758
   18   -0.0000019   0.0008474   0.0062970  -0.0000067  -0.0590610
   19   -0.0000001   0.0004672  -0.0000185  -0.0000009  -0.0092921
   20   -0.0000734  -0.0003761  -0.0000092  -0.0000008  -0.0000934
   21    0.0018377  -0.0000442  -0.0000050   0.0000000  -0.0000910
   22   -0.0000004  -0.0000381   0.0000003   0.0000000   0.0001002
   23    0.0417797  -0.0007849   0.0028670  -0.0000128   0.0002702
   24   -0.0000014   0.0000188  -0.0000028  -0.0000000  -0.0004239

            11          12          13          14          15

   11    0.5227416
   12   -0.0245269   8.2577708
   13   -0.0499617  -0.0436081   5.2865457
   14    0.0016552  -0.0039049   0.2714117   8.1335966
   15    0.0000001  -0.0000287  -0.0000048   0.0000000   0.4222103
   16    0.0003859  -0.0000016   0.0000741  -0.0000014  -0.0001214
   17   -0.0013903   0.0018702   0.3291018  -0.0311738  -0.0000000
   18    0.0042462  -0.0020347   0.3085103  -0.0303913  -0.0000023
   19   -0.0000507   0.0223049  -0.0619097   0.2429227   0.0000000
   20   -0.0000082   0.0017267   0.0000057   0.0000001   0.0000085
   21   -0.0000001   0.0019086   0.0000053   0.0000000  -0.0000239
   22    0.0000005  -0.0035006  -0.0000053   0.0000000   0.0000001
   23    0.0000149   0.0024893   0.0000722  -0.0000001  -0.0012238
   24   -0.0000001   0.0217095   0.0000035  -0.0000149   0.0000002

            16          17          18          19          20

   16    0.4525449
   17    0.0002530   0.5861177
   18   -0.0000059  -0.0339886   0.5883979
   19    0.0000001   0.0067534  -0.0027573   0.4612917
   20   -0.0000001  -0.0000001  -0.0000050  -0.0000013   0.6612767
   21    0.0000000  -0.0000000  -0.0000017  -0.0000011  -0.0388219
   22   -0.0000000  -0.0000000  -0.0000017  -0.0000108  -0.0352296
   23    0.0000027  -0.0000018  -0.0002471  -0.0000032  -0.0001106
   24   -0.0000000  -0.0000003   0.0000008   0.0006898  -0.0018729

            21          22          23          24

   21    0.5446586
   22   -0.0305450   8.1148951
   23    0.0007006   0.0000183   0.4299574
   24    0.0059783   0.2446653  -0.0000374   0.4587029

          TOTAL MULLIKEN AND LOWDIN ATOMIC POPULATIONS
       ATOM         MULL.POP.    CHARGE          LOW.POP.     CHARGE
    1 O             8.562410   -0.562410         8.335493   -0.335493
    2 C             5.610919    0.389081         5.816409    0.183591
    3 C             6.106548   -0.106548         6.030686   -0.030686
    4 C             6.004459   -0.004459         5.993810    0.006190
    5 H             0.778391    0.221609         0.908321    0.091679
    6 O             8.559578   -0.559578         8.318056   -0.318056
    7 C             6.009335   -0.009335         5.993207    0.006793
    8 H             0.800470    0.199530         0.926390    0.073610
    9 O             8.554890   -0.554890         8.323951   -0.323951
   10 C             6.040560   -0.040560         5.992029    0.007971
   11 H             0.776773    0.223227         0.904508    0.095492
   12 O             8.495741   -0.495741         8.266527   -0.266527
   13 C             6.122371   -0.122371         6.033312   -0.033312
   14 O             8.549598   -0.549598         8.331631   -0.331631
   15 H             0.633387    0.366613         0.747682    0.252318
   16 H             0.655218    0.344782         0.763041    0.236959
   17 H             0.815870    0.184130         0.921899    0.078101
   18 H             0.797754    0.202246         0.921793    0.078207
   19 H             0.660733    0.339267         0.772731    0.227269
   20 H             0.833428    0.166572         0.937354    0.062646
   21 H             0.785407    0.214593         0.905681    0.094319
   22 O             8.543017   -0.543017         8.320844   -0.320844
   23 H             0.644765    0.355235         0.762690    0.237310
   24 H             0.658379    0.341621         0.771954    0.228046

          -------------------------------
          BOND ORDER AND VALENCE ANALYSIS     BOND ORDER THRESHOLD=0.050
          -------------------------------

                   BOND                       BOND                       BOND
  ATOM PAIR DIST  ORDER      ATOM PAIR DIST  ORDER      ATOM PAIR DIST  ORDER
    1   2  1.440  0.942        1  23  1.004  0.757        2   3  1.525  0.858
    2   4  1.531  0.823        2  12  1.454  0.866        3  20  1.101  0.862
    3  21  1.092  0.886        3  22  1.450  0.976        4   5  1.095  0.853
    4   6  1.454  0.913        4   7  1.539  0.873        6  15  0.994  0.808
    6  23  1.943  0.086        7   8  1.099  0.858        7   9  1.453  0.936
    7  10  1.548  0.830        9  16  0.995  0.826       10  11  1.092  0.885
   10  12  1.499  0.848       10  13  1.527  0.868       13  14  1.453  0.964
   13  17  1.094  0.891       13  18  1.098  0.856       14  19  0.998  0.804
   22  24  0.997  0.804

                       TOTAL       BONDED        FREE
      ATOM            VALENCE     VALENCE     VALENCE
    1 O                 1.892       1.892      -0.000
    2 C                 3.532       3.532       0.000
    3 C                 3.609       3.609       0.000
    4 C                 3.509       3.509      -0.000
    5 H                 0.906       0.906      -0.000
    6 O                 1.907       1.907      -0.000
    7 C                 3.521       3.521      -0.000
    8 H                 0.915       0.915      -0.000
    9 O                 1.873       1.873       0.000
   10 C                 3.495       3.495       0.000
   11 H                 0.912       0.912       0.000
   12 O                 1.967       1.967      -0.000
   13 C                 3.602       3.602      -0.000
   14 O                 1.878       1.878      -0.000
   15 H                 0.841       0.841      -0.000
   16 H                 0.853       0.853       0.000
   17 H                 0.916       0.916       0.000
   18 H                 0.927       0.927      -0.000
   19 H                 0.871       0.871       0.000
   20 H                 0.914       0.914       0.000
   21 H                 0.909       0.909       0.000
   22 O                 1.888       1.888      -0.000
   23 H                 0.872       0.872      -0.000
   24 H                 0.867       0.867      -0.000

          ---------------------
          ELECTROSTATIC MOMENTS
          ---------------------

 POINT   1           X           Y           Z (BOHR)    CHARGE
                -0.404993   -0.066933   -0.497290       -0.00 (A.U.)
         DX          DY          DZ         /D/  (DEBYE)
    -1.131702   -5.339755    1.053645    5.559127
 ...... END OF PROPERTY EVALUATION ......
 CPU     0: STEP CPU TIME=     0.09 TOTAL CPU TIME=       1621.6 (     27.0 MIN)
 TOTAL WALL CLOCK TIME=       1632.1 SECONDS, CPU UTILIZATION IS    99.36%
  $VIB   
          IVIB=   0 IATOM=   0 ICOORD=   0 E=     -682.9983161840
  1.108165843E-05 1.599904334E-06 3.658551736E-05-1.675874151E-05-1.351045811E-05
 -3.230701327E-05 1.900312609E-05 2.209878816E-06-5.701621436E-06-9.847845176E-06
  1.875416374E-05 1.793128503E-05-1.083392031E-06 2.990949573E-06-1.005264264E-06
  6.529806745E-06 1.088928105E-05-8.364035003E-06 1.933287454E-05-3.182317276E-05
 -2.460750719E-05 5.503952832E-06-1.141379882E-05 3.125876825E-07-2.298589862E-05
  1.766723018E-05 3.001294513E-05-3.498087791E-05 1.166641659E-07-2.891186725E-06
 -6.971492068E-06 2.113720761E-06 2.478521367E-06 1.889800372E-05-4.922868902E-07
 -4.399973358E-06 1.472605984E-05 8.204564720E-06-4.638576027E-05-4.710899188E-05
  4.397773201E-06 5.411529616E-06-7.563026485E-06-1.790962182E-05 6.647782893E-06
  2.940279545E-05-3.022538334E-07-1.766030711E-05-2.232616156E-05-2.058590402E-05
  2.238325605E-05 3.169941367E-05 1.391607505E-05 2.986258206E-05 2.739126264E-05
  6.940978737E-06-5.094754873E-06-9.597930980E-06 3.683575544E-08-7.594940533E-07
  1.478225622E-05-9.699178244E-06 6.513014586E-06 5.422579669E-05-1.161634663E-05
  8.776698176E-06-1.468564267E-05 1.167278448E-05-5.545656603E-06-5.866700595E-05
  1.584221658E-05-1.219314578E-05
 -1.131702473E+00-5.339754737E+00 1.053644818E+00
 ......END OF GEOMETRY SEARCH......
 CPU     0: STEP CPU TIME=     0.01 TOTAL CPU TIME=       1621.6 (     27.0 MIN)
 TOTAL WALL CLOCK TIME=       1632.1 SECONDS, CPU UTILIZATION IS    99.36%
               956419  WORDS OF DYNAMIC MEMORY USED
 EXECUTION OF GAMESS TERMINATED NORMALLY Fri May 22 14:48:08 2020
 DDI: 263640 bytes (0.3 MB / 0 MWords) used by master data server.
Note: The following floating-point exceptions are signalling: IEEE_UNDERFLOW_FLAGNote: The following floating-point exceptions are signalling: IEEE_UNDERFLOW_FLAGNote: The following floating-point exceptions are signalling:Note: The following floating-point exceptions are signalling: IEEE_UNDERFLOW_FLAGNote: The following floating-point exceptions are signalling:Note: The following floating-point exceptions are signalling: IEEE_UNDERFLOW_FLAG IEEE_DENORMAL
 ----------------------------------------
 CPU timing information for all processes
 ========================================
 0: 1611.539 + 10.65 = 1621.605
 1: 1611.710 + 3.467 = 1615.178
 2: 1612.834 + 4.583 = 1617.417
 3: 1610.864 + 3.284 = 1614.149
 4: 1612.585 + 4.302 = 1616.888
 5: 1609.830 + 3.34 = 1612.865
 6: 1610.881 + 3.903 = 1614.785
 7: 1609.257 + 3.23 = 1612.281
 ----------------------------------------
 IEEE_DENORMAL
 IEEE_UNDERFLOW_FLAG IEEE_DENORMAL IEEE_DENORMAL
 IEEE_UNDERFLOW_FLAG IEEE_DENORMAL IEEE_DENORMAL

Note: The following floating-point exceptions are signalling: IEEE_UNDERFLOW_FLAGNote: The following floating-point exceptions are signalling:

 IEEE_DENORMAL
 IEEE_UNDERFLOW_FLAG IEEE_DENORMAL
 ddikick.x: exited gracefully.
unset echo
----- accounting info -----
Files used on the master node pietdev were:
-rwxr-xr-x 1 piet piet     1330 mei 22 14:20 /home/piet/scr/beta-d-fructofuranose_geoopt.F05*
-rw-r--r-- 1 piet piet 57344000 mei 22 14:48 /home/piet/scr/beta-d-fructofuranose_geoopt.F10
-rw-r--r-- 1 piet piet  6184288 mei 22 14:47 /home/piet/scr/beta-d-fructofuranose_geoopt.F22
-rw-r--r-- 1 piet piet  6184288 mei 22 14:47 /home/piet/scr/beta-d-fructofuranose_geoopt.F22.001
-rw-r--r-- 1 piet piet  6184288 mei 22 14:47 /home/piet/scr/beta-d-fructofuranose_geoopt.F22.002
-rw-r--r-- 1 piet piet  6184288 mei 22 14:47 /home/piet/scr/beta-d-fructofuranose_geoopt.F22.003
-rw-r--r-- 1 piet piet  6184288 mei 22 14:47 /home/piet/scr/beta-d-fructofuranose_geoopt.F22.004
-rw-r--r-- 1 piet piet  6184288 mei 22 14:47 /home/piet/scr/beta-d-fructofuranose_geoopt.F22.005
-rw-r--r-- 1 piet piet  6184288 mei 22 14:47 /home/piet/scr/beta-d-fructofuranose_geoopt.F22.006
-rw-r--r-- 1 piet piet  6184288 mei 22 14:47 /home/piet/scr/beta-d-fructofuranose_geoopt.F22.007
ls: No match.
ls: No match.
ls: No match.
vr 22 mei 2020 14:48:11 CEST
0.109u 0.030s 27:15.22 0.0%	0+0k 0+8io 0pf+0w
