----- GAMESS execution script 'rungms' -----
This job is running on host pietdev
under operating system Linux at vr 22 mei 2020 14:48:22 CEST
Available scratch disk space (Kbyte units) at beginning of the job is
Filesystem     1K-blocks     Used Available Use% Mounted on
/dev/sda2      244568380 31372516 200702808  14% /
GAMESS temporary binary files will be written to /home/piet/scr
GAMESS supplementary output files will be written to /home/piet/gamess/scr
Copying input file beta-d-fructofuranose_charge_geodisk.inp to your run's scratch directory...
cp beta-d-fructofuranose_charge_geodisk.inp /home/piet/scr/beta-d-fructofuranose_charge_geodisk.F05
unset echo
 
Assuming a single but multicore node.
 
/home/piet/gamess/ddikick.x /home/piet/gamess/gamess.03.x beta-d-fructofuranose_charge_geodisk -ddi 1 8 pietdev:cpus=8 -scr /home/piet/scr

 Distributed Data Interface kickoff program.
 Initiating 8 compute processes on 1 nodes to run the following command:
 /home/piet/gamess/gamess.03.x beta-d-fructofuranose_charge_geodisk 

          ******************************************************
          *         GAMESS VERSION = 30 SEP 2019 (R2)          *
          *             FROM IOWA STATE UNIVERSITY             *
          * M.W.SCHMIDT, K.K.BALDRIDGE, J.A.BOATZ, S.T.ELBERT, *
          *   M.S.GORDON, J.H.JENSEN, S.KOSEKI, N.MATSUNAGA,   *
          *          K.A.NGUYEN, S.J.SU, T.L.WINDUS,           *
          *       TOGETHER WITH M.DUPUIS, J.A.MONTGOMERY       *
          *         J.COMPUT.CHEM.  14, 1347-1363(1993)        *
          **************** 64 BIT LINUX VERSION ****************

  SINCE 1993, STUDENTS AND POSTDOCS WORKING AT IOWA STATE UNIVERSITY
  AND ALSO IN THEIR VARIOUS JOBS AFTER LEAVING ISU HAVE MADE IMPORTANT
  CONTRIBUTIONS TO THE CODE:
     IVANA ADAMOVIC, CHRISTINE AIKENS, YURI ALEXEEV, POOJA ARORA,
     ANDREY ASADCHEV, ROB BELL, PRADIPTA BANDYOPADHYAY, JONATHAN BENTZ,
     COLLEEN BERTONI, BRETT BODE, KURT BRORSEN, CALEB CARLIN, GALINA CHABAN,
     WEI CHEN, CHEOL HO CHOI, PAUL DAY, ALBERT DEFUSCO, NUWAN DESILVA,
     TIM DUDLEY, DMITRI FEDOROV, ALEX FINDLATER, GRAHAM FLETCHER, 
     MARK FREITAG, KURT GLAESEMANN, EMILIE B GUIDEZ, ANASTASIA GUNINA, 
     DAN KEMP, SAROM SOK LEANG, GRANT MERRILL,
     NORIYUKI MINEZAWA, JONATHAN MULLIN,
     TAKESHI NAGATA, SEAN NEDD, HEATHER NETZLOFF, BOSILJKA NJEGIC, RYAN OLSON,
     MIKE PAK, BUU PHAM, DAVID POOLE,
     SPENCER PRUITT, LUKE ROSKOP, TOSAPORN SATTASATHUCHANA,
     JIM SHOEMAKER, LYUDMILA SLIPCHENKO,
     TONY SMITH, JIE SONG, TETSUYA TAKETSUGU, SIMON WEBB,
     JORGE LUIS GALVEZ VALLEJO, PENG XU, SOOHAENG YOO,
     FEDERICO ZAHARIEV

  ADDITIONAL CODE HAS BEEN PROVIDED BY COLLABORATORS IN OTHER GROUPS:
     IOWA STATE UNIVERSITY:
          JOE IVANIC, AARON WEST, LAIMUTIS BYTAUTAS, KLAUS RUEDENBERG
     UNIVERSITY OF TOKYO: KIMIHIKO HIRAO, TAKAHITO NAKAJIMA,
          TAKAO TSUNEDA, MUNEAKI KAMIYA, SUSUMU YANAGISAWA,
          KIYOSHI YAGI, MAHITO CHIBA, SEIKEN TOKURA, NAOAKI KAWAKAMI
     UNIVERSITY OF AARHUS: FRANK JENSEN
     UNIVERSITY OF IOWA: VISVALDAS KAIRYS, HUI LI
     NATIONAL INST. OF STANDARDS AND TECHNOLOGY: WALT STEVENS, DAVID GARMER
     UNIVERSITY OF PISA: BENEDETTA MENNUCCI, JACOPO TOMASI
     UNIVERSITY OF MEMPHIS: HENRY KURTZ, PRAKASHAN KORAMBATH
     UNIVERSITY OF ALBERTA: TOBY ZENG, MARIUSZ KLOBUKOWSKI
     UNIVERSITY OF NEW ENGLAND: MARK SPACKMAN
     MIE UNIVERSITY: HIROAKI UMEDA
     NAT. INST. OF ADVANCED INDUSTRIAL SCIENCE AND TECHNOLOGY: KAZUO KITAURA
     MICHIGAN STATE UNIVERSITY:
          KAROL KOWALSKI, MARTA WLOCH, JEFFREY GOUR, JESSE LUTZ,
          WEI LI, JUN SHEN, J. EMILIANO DEUSTUA, PIOTR PIECUCH
     UNIVERSITY OF MINNESOTA:
          ANDREW SAND, PRACHI SHARMA, YINAN SHU
     UNIVERSITY OF SILESIA: MONIKA MUSIAL, STANISLAW KUCHARSKI
     FACULTES UNIVERSITAIRES NOTRE-DAME DE LA PAIX:
          OLIVIER QUINET, BENOIT CHAMPAGNE
     UNIVERSITY OF CALIFORNIA - SANTA BARBARA: BERNARD KIRTMAN
     INSTITUTE FOR MOLECULAR SCIENCE:
          KAZUYA ISHIMURA, MICHIO KATOUDA, AND SHIGERU NAGASE
     UNIVERSITY OF NOTRE DAME: ANNA POMOGAEVA, DAN CHIPMAN
     KYUSHU UNIVERSITY:
          HARUYUKI NAKANO,
          FENG LONG GU, JACEK KORCHOWIEC, MARCIN MAKOWSKI, AND YURIKO AOKI,
          HIROTOSHI MORI AND EISAKU MIYOSHI
     PENNSYLVANIA STATE UNIVERSITY:
          TZVETELIN IORDANOV, CHET SWALINA, JONATHAN SKONE,
          SHARON HAMMES-SCHIFFER
     WASEDA UNIVERSITY:
          MASATO KOBAYASHI, TOMOKO AKAMA, TSUGUKI TOUMA,
          TAKESHI YOSHIKAWA, YASUHIRO IKABATA, JUNJI SEINO,
          YUYA NAKAJIMA, HIROMI NAKAI
     NANJING UNIVERSITY: SHUHUA LI
     UNIVERSITY OF NEBRASKA:
          PEIFENG SU, DEJUN SI, NANDUN THELLAMUREGE, YALI WANG, HUI LI
     UNIVERSITY OF ZURICH: ROBERTO PEVERATI, KIM BALDRIDGE
     N. COPERNICUS UNIVERSITY AND JACKSON STATE UNIVERSITY:
          MARIA BARYSZ
     UNIVERSITY OF COPENHAGEN: Jimmy Kromann, CASPER STEINMANN
     TOKYO INSTITUTE OF TECHNOLOGY: HIROYA NAKATA
     NAGOYA UNIVERSITY: YOSHIO NISHIMOTO, STEPHAN IRLE
     MOSCOW STATE UNIVERSITY: VLADIMIR MIRONOV
     A.N.NESMEYANOV INSTITUTE OF ORGANOELEMENT COMPOUNDS OF RUSSIAN ACADEMY OF SCIENCES:
          IGOR S. GERASIMOV
     JOHANNES KEPLER UNIVERSITY LINZ:
          CHRISTIAN FRIEDL


 PARALLEL VERSION RUNNING ON        8 PROCESSORS IN        1 NODES.

 EXECUTION OF GAMESS BEGUN Fri May 22 14:48:22 2020

            ECHO OF THE FIRST FEW INPUT CARDS -
 INPUT CARD> $BASIS GBASIS=N21 NGAUSS=3 $END                                                
 INPUT CARD> $CONTRL SCFTYP=RHF DFTTYP=B3LYP MAXIT=60 MULT=1 ICHARG=0 $END                  
 INPUT CARD> $SYSTEM MEMDDI=1000 MWORDS=30 $END                                             
 INPUT CARD> $SCF DIRSCF=.TRUE. $END                                                        
 INPUT CARD> $ELPOT  IEPOT=1 WHERE=PDC $END                                                 
 INPUT CARD> $PDC PTSEL=GEODESIC CONSTR=CHARGE $END                                         
 INPUT CARD> $DATA                                                                          
 INPUT CARD>                                                                                
 INPUT CARD>C1                                                                              
 INPUT CARD>O 8.0000000 0.9930867785 0.5913392020 0.8105323961                              
 INPUT CARD>C 6.0000000 0.7010498367 0.1415178444 -0.5260473667                             
 INPUT CARD>C 6.0000000 1.7215147094 0.5872719420 -1.5684404004                             
 INPUT CARD>C 6.0000000 0.4185177329 -1.3617034451 -0.4526579820                            
 INPUT CARD>H 1.0000000 0.3549723891 -1.8135832322 -1.4475742556                            
 INPUT CARD>O 8.0000000 1.4599728525 -1.9346016562 0.3847450356                             
 INPUT CARD>C 6.0000000 -0.9810804109 -1.4029871373 0.1858769112                            
 INPUT CARD>H 1.0000000 -0.8421148092 -1.3619316259 1.2750657782                            
 INPUT CARD>O 8.0000000 -1.6157115261 -2.6358132754 -0.2482617345                           
 INPUT CARD>C 6.0000000 -1.6545880794 -0.0943432616 -0.2950190208                           
 INPUT CARD>H 1.0000000 -2.4127098276 -0.2937437984 -1.0550097955                           
 INPUT CARD>O 8.0000000 -0.5704071129 0.7006312015 -0.9575299388                            
 INPUT CARD>C 6.0000000 -2.1844509506 0.7828496686 0.8364831382                             
 INPUT CARD>O 8.0000000 -2.6288728004 2.0573714167 0.2981524056                             
 INPUT CARD>H 1.0000000 1.2319083567 -2.8852660578 0.5630465043                             
 INPUT CARD>H 1.0000000 -2.4868846993 -2.7244746353 0.2239967896                            
 INPUT CARD>H 1.0000000 -3.0531577084 0.3218107431 1.3159089087                             
 INPUT CARD>H 1.0000000 -1.3671422978 0.8968449019 1.5604539514                             
 INPUT CARD>H 1.0000000 -1.8338416173 2.3912344120 -0.2045766044                            
 INPUT CARD>H 1.0000000 1.5127665951 0.0385970079 -2.5000872641                             
 INPUT CARD>H 1.0000000 2.7227363124 0.3283780725 -1.2187620822                             
 INPUT CARD>O 8.0000000 1.6841559845 2.0247772221 -1.7512261942                             
 INPUT CARD>H 1.0000000 1.4881409331 -0.1801714957 1.2193216995                             
 INPUT CARD>H 1.0000000 0.7158494590 2.2418859861 -1.8520306793                             
 INPUT CARD> $END                                                                           
   30000000 WORDS OF MEMORY AVAILABLE

     BASIS OPTIONS
     -------------
     GBASIS=N21          IGAUSS=       3      POLAR=NONE    
     NDFUNC=       0     NFFUNC=       0     DIFFSP=       F
     NPFUNC=       0      DIFFS=       F     BASNAM=        


     RUN TITLE
     ---------
                                                                                 

 THE POINT GROUP OF THE MOLECULE IS C1      
 THE ORDER OF THE PRINCIPAL AXIS IS     0

 ATOM      ATOMIC                      COORDINATES (BOHR)
           CHARGE         X                   Y                   Z
 O           8.0     1.8766618934        1.1174690576        1.5316841328
 C           6.0     1.3247920951        0.2674299483       -0.9940853796
 C           6.0     3.2531910846        1.1097830507       -2.9639225848
 C           6.0     0.7908838362       -2.5732463878       -0.8553995521
 H           1.0     0.6708005486       -3.4271753648       -2.7355186900
 O           8.0     2.7589486407       -3.6558670256        0.7270626924
 C           6.0    -1.8539731485       -2.6512612538        0.3512564296
 H           1.0    -1.5913662396       -2.5736775870        2.4095249371
 O           8.0    -3.0532520595       -4.9809648453       -0.4691466514
 C           6.0    -3.1267180926       -0.1782829132       -0.5575051105
 H           1.0    -4.5593604620       -0.5550952896       -1.9936794279
 O           8.0    -1.0779131448        1.3240009893       -1.8094692094
 C           6.0    -4.1280137303        1.4793713632        1.5807239245
 O           8.0    -4.9678492493        3.8878682325        0.5634263492
 H           1.0     2.3279692361       -5.4523622509        1.0640036115
 H           1.0    -4.6995306447       -5.1485105212        0.4232925545
 H           1.0    -5.7696314662        0.6081341244        2.4867072622
 H           1.0    -2.5835243291        1.6947911181        2.9488303846
 H           1.0    -3.4654581616        4.5187778111       -0.3865937258
 H           1.0     2.8587143481        0.0729377689       -4.7244798745
 H           1.0     5.1452255673        0.6205445774       -2.3031263796
 O           8.0     3.1825933313        3.8262741359       -3.3093376496
 H           1.0     2.8121785947       -0.3404747577        2.3041839029
 H           1.0     1.3527593260        4.2365502094       -3.4998305047

          INTERNUCLEAR DISTANCES (ANGS.)
          ------------------------------

                1 O          2 C          3 C          4 C          5 H     

   1 O       0.0000000    1.4401633 *  2.4879983 *  2.3958621 *  3.3600428  
   2 C       1.4401633 *  0.0000000    1.5253290 *  1.5313016 *  2.1889270 *
   3 C       2.4879983 *  1.5253290 *  0.0000000    2.5963968 *  2.7651676 *
   4 C       2.3958621 *  1.5313016 *  2.5963968 *  0.0000000    1.0945738 *
   5 H       3.3600428    2.1889270 *  2.7651676 *  1.0945738 *  0.0000000  
   6 O       2.6037770 *  2.3907696 *  3.2004975    1.4539893 *  2.1431438 *
   7 C       2.8748684 *  2.3920481 *  3.7871864    1.5389302 *  2.1498346 *
   8 H       2.7201145 *  2.8081535 *  4.2961748    2.1387435 *  3.0082845  
   9 O       4.2826845    3.6274118    4.8237153    2.4089878 *  2.4490831 *
  10 C       2.9500147 *  2.3786623 *  3.6720936    2.4349168 *  2.8848749 *
  11 H       3.9828470    3.1882210    4.2581231    3.0853225    3.1818365  
  12 O       2.3627320 *  1.4544373 *  2.3746510 *  2.3422409 *  2.7235537 *
  13 C       3.1834094    3.2548288    4.5911301    3.6106009    4.2903441  
  14 O       3.9408597    3.9291456    4.9569378    4.6411613    5.1899117  
  15 H       3.4935754    3.2602695    4.1038361    2.0036225 *  2.4413350 *
  16 H       4.8424009    4.3519428    5.6472225    3.2796906    3.4205299  
  17 H       4.0865811    4.1856162    5.5845714    4.2443585    4.8797641  
  18 H       2.4952750 *  3.0333851    4.4074502    3.5131527    4.4000379  
  19 H       3.5016558    3.4044446    4.2136639    4.3839719    4.9006572  
  20 H       3.3964384    2.1368927 *  1.1011748 *  2.7111231 *  2.4246325 *
  21 H       2.6793417 *  2.1452241 *  1.0916710 *  2.9584987 *  3.2010403  
  22 O       3.0157799    2.4523920 *  1.4495612 *  3.8414022    4.0733211  
  23 H       1.0037012 *  1.9414710 *  2.9008706 *  2.3098977 *  3.3263251  
  24 H       3.1449018    2.4839479 *  1.9569194 *  3.8771777    4.0915337  

                6 O          7 C          8 H          9 O         10 C     

   1 O       2.6037770 *  2.8748684 *  2.7201145 *  4.2826845    2.9500147 *
   2 C       2.3907696 *  2.3920481 *  2.8081535 *  3.6274118    2.3786623 *
   3 C       3.2004975    3.7871864    4.2961748    4.8237153    3.6720936  
   4 C       1.4539893 *  1.5389302 *  2.1387435 *  2.4089878 *  2.4349168 *
   5 H       2.1431438 *  2.1498346 *  3.0082845    2.4490831 *  2.8848749 *
   6 O       0.0000000    2.5061731 *  2.5338172 *  3.2174881    3.6809129  
   7 C       2.5061731 *  0.0000000    1.0987854 *  1.4529602 *  1.5483612 *
   8 H       2.5338172 *  1.0987854 *  0.0000000    2.1311389 *  2.1753297 *
   9 O       3.2174881    1.4529602 *  2.1311389 *  0.0000000    2.5421974 *
  10 C       3.6809129    1.5483612 *  2.1753297 *  2.5421974 *  0.0000000  
  11 H       4.4455573    2.1954005 *  3.0061680    2.6021795 *  1.0918311 *
  12 O       3.5872827    2.4292472 *  3.0516347    3.5675740    1.4987840 *
  13 C       4.5684170    2.5786182 *  2.5679384 *  3.6314449    1.5266038 *
  14 O       5.7150683    3.8343066    3.9797609    4.8322921    2.4353561 *
  15 H       0.9937644 *  2.6901165 *  2.6700358 *  2.9714284 *  4.1057750  
  16 H       4.0283277    2.0038036 *  2.3804490 *  0.9949028 *  2.8070779 *
  17 H       5.1309658    2.9232524 *  2.7794545 *  3.6414861    2.1735386 *
  18 H       4.1703670    2.7069786 *  2.3364870 *  3.9765453    2.1231719 *
  19 H       5.4689461    3.9084233    4.1544096    5.0319676    2.4936736 *
  20 H       3.4955053    3.9385075    4.6646251    4.6915417    3.8616233  
  21 H       3.0474389    4.3230654    4.6673855    5.3432603    4.4936581  
  22 O       4.5043659    4.7545160    5.1971419    5.9050090    4.2140744  
  23 H       1.9430226 *  2.9428456 *  2.6133802 *  4.2211228    3.4896046  
  24 H       4.7958247    4.5075202    5.0193113    5.6391667    3.6744015  

               11 H         12 O         13 C         14 O         15 H     

   1 O       3.9828470    2.3627320 *  3.1834094    3.9408597    3.4935754  
   2 C       3.1882210    1.4544373 *  3.2548288    3.9291456    3.2602695  
   3 C       4.2581231    2.3746510 *  4.5911301    4.9569378    4.1038361  
   4 C       3.0853225    2.3422409 *  3.6106009    4.6411613    2.0036225 *
   5 H       3.1818365    2.7235537 *  4.2903441    5.1899117    2.4413350 *
   6 O       4.4455573    3.5872827    4.5684170    5.7150683    0.9937644 *
   7 C       2.1954005 *  2.4292472 *  2.5786182 *  3.8343066    2.6901165 *
   8 H       3.0061680    3.0516347    2.5679384 *  3.9797609    2.6700358 *
   9 O       2.6021795 *  3.5675740    3.6314449    4.8322921    2.9714284 *
  10 C       1.0918311 *  1.4987840 *  1.5266038 *  2.4353561 *  4.1057750  
  11 H       0.0000000    2.0957966 *  2.1883558 *  2.7213080 *  4.7557687  
  12 O       2.0957966 *  0.0000000    2.4146180 *  2.7667243 *  4.2917541  
  13 C       2.1883558 *  2.4146180 *  0.0000000    1.4531746 *  5.0200948  
  14 O       2.7213080 *  2.7667243 *  1.4531746 *  0.0000000    6.2773773  
  15 H       4.7557687    4.2917541    5.0200948    6.2773773    0.0000000  
  16 H       2.7476922 *  4.0988098    3.5732240    4.7845283    3.7376771  
  17 H       2.5318642 *  3.3876363    1.0941012 *  2.0562142 *  5.4049916  
  18 H       3.0579999    2.6483069 *  1.0977805 *  2.1288943 *  4.6961952  
  19 H       2.8753144 *  2.2408357 *  1.9477253 *  0.9981360 *  6.1505711  
  20 H       4.1961964    2.6753290 *  5.0354773    5.3906189    4.2438950  
  21 H       5.1755828    3.3243959    5.3395753    5.8249607    3.9654657  
  22 O       4.7586307    2.7324661 *  4.8171302    4.7752730    5.4469176  
  23 H       4.5168705    3.1228379    3.8160066    4.7754532    2.7953334 *
  24 H       4.1051850    2.1977383 *  4.2152860    3.9805150    5.6909228  

               16 H         17 H         18 H         19 H         20 H     

   1 O       4.8424009    4.0865811    2.4952750 *  3.5016558    3.3964384  
   2 C       4.3519428    4.1856162    3.0333851    3.4044446    2.1368927 *
   3 C       5.6472225    5.5845714    4.4074502    4.2136639    1.1011748 *
   4 C       3.2796906    4.2443585    3.5131527    4.3839719    2.7111231 *
   5 H       3.4205299    4.8797641    4.4000379    4.9006572    2.4246325 *
   6 O       4.0283277    5.1309658    4.1703670    5.4689461    3.4955053  
   7 C       2.0038036 *  2.9232524 *  2.7069786 *  3.9084233    3.9385075  
   8 H       2.3804490 *  2.7794545 *  2.3364870 *  4.1544096    4.6646251  
   9 O       0.9949028 *  3.6414861    3.9765453    5.0319676    4.6915417  
  10 C       2.8070779 *  2.1735386 *  2.1231719 *  2.4936736 *  3.8616233  
  11 H       2.7476922 *  2.5318642 *  3.0579999    2.8753144 *  4.1961964  
  12 O       4.0988098    3.3876363    2.6483069 *  2.2408357 *  2.6753290 *
  13 C       3.5732240    1.0941012 *  1.0977805 *  1.9477253 *  5.0354773  
  14 O       4.7845283    2.0562142 *  2.1288943 *  0.9981360 *  5.3906189  
  15 H       3.7376771    5.4049916    4.6961952    6.1505711    4.2438950  
  16 H       0.0000000    3.2852385    4.0191910    5.1749995    5.5724689  
  17 H       3.2852385    0.0000000    1.7980864 *  2.8427315 *  5.9573234  
  18 H       4.0191910    1.7980864 *  0.0000000    2.3593095 *  5.0515799  
  19 H       5.1749995    2.8427315 *  2.3593095 *  0.0000000    4.6908484  
  20 H       5.5724689    5.9573234    5.0515799    4.6908484    0.0000000  
  21 H       6.2081893    6.3075789    4.9773792    5.1035626    1.7859994 *
  22 O       6.6222715    5.8948752    4.6421846    3.8604045    2.1295725 *
  23 H       4.8233784    4.5699791    3.0706641    4.4356716    3.7259186  
  24 H       6.2635560    5.2846897    4.2181799    3.0392984    2.4309538 *

               21 H         22 O         23 H         24 H     

   1 O       2.6793417 *  3.0157799    1.0037012 *  3.1449018  
   2 C       2.1452241 *  2.4523920 *  1.9414710 *  2.4839479 *
   3 C       1.0916710 *  1.4495612 *  2.9008706 *  1.9569194 *
   4 C       2.9584987 *  3.8414022    2.3098977 *  3.8771777  
   5 H       3.2010403    4.0733211    3.3263251    4.0915337  
   6 O       3.0474389    4.5043659    1.9430226 *  4.7958247  
   7 C       4.3230654    4.7545160    2.9428456 *  4.5075202  
   8 H       4.6673855    5.1971419    2.6133802 *  5.0193113  
   9 O       5.3432603    5.9050090    4.2211228    5.6391667  
  10 C       4.4936581    4.2140744    3.4896046    3.6744015  
  11 H       5.1755828    4.7586307    4.5168705    4.1051850  
  12 O       3.3243959    2.7324661 *  3.1228379    2.1977383 *
  13 C       5.3395753    4.8171302    3.8160066    4.2152860  
  14 O       5.8249607    4.7752730    4.7754532    3.9805150  
  15 H       3.9654657    5.4469176    2.7953334 *  5.6909228  
  16 H       6.2081893    6.6222715    4.8233784    6.2635560  
  17 H       6.3075789    5.8948752    4.5699791    5.2846897  
  18 H       4.9773792    4.6421846    3.0706641    4.2181799  
  19 H       5.1035626    3.8604045    4.4356716    3.0392984  
  20 H       1.7859994 *  2.1295725 *  3.7259186    2.4309538 *
  21 H       0.0000000    2.0591108 *  2.7797663 *  2.8443165 *
  22 O       2.0591108 *  0.0000000    3.7046424    0.9974544 *
  23 H       2.7797663 *  3.7046424    0.0000000    3.9869791  
  24 H       2.8443165 *  0.9974544 *  3.9869791    0.0000000  

  * ... LESS THAN  3.000


     ATOMIC BASIS SET
     ----------------
 THE CONTRACTED PRIMITIVE FUNCTIONS HAVE BEEN UNNORMALIZED
 THE CONTRACTED BASIS FUNCTIONS ARE NOW NORMALIZED TO UNITY

  SHELL TYPE  PRIMITIVE        EXPONENT          CONTRACTION COEFFICIENT(S)

 O         

      1   S       1           322.0370000    0.059239393389
      1   S       2            48.4308000    0.351499960776
      1   S       3            10.4206000    0.707657921031

      2   L       4             7.4029400   -0.404453583190    0.244586106967
      2   L       5             1.5762000    1.221561761397    0.853955373466

      3   L       6             0.3736840    1.000000000000    1.000000000000

 C         

      4   S       7           172.2560000    0.061766907377
      4   S       8            25.9109000    0.358794042852
      4   S       9             5.5333500    0.700713083689

      5   L      10             3.6649800   -0.395895162119    0.236459946619
      5   L      11             0.7705450    1.215834355681    0.860618805716

      6   L      12             0.1958570    1.000000000000    1.000000000000

 C         

      7   S      13           172.2560000    0.061766907377
      7   S      14            25.9109000    0.358794042852
      7   S      15             5.5333500    0.700713083689

      8   L      16             3.6649800   -0.395895162119    0.236459946619
      8   L      17             0.7705450    1.215834355681    0.860618805716

      9   L      18             0.1958570    1.000000000000    1.000000000000

 C         

     10   S      19           172.2560000    0.061766907377
     10   S      20            25.9109000    0.358794042852
     10   S      21             5.5333500    0.700713083689

     11   L      22             3.6649800   -0.395895162119    0.236459946619
     11   L      23             0.7705450    1.215834355681    0.860618805716

     12   L      24             0.1958570    1.000000000000    1.000000000000

 H         

     13   S      25             5.4471780    0.156284978695
     13   S      26             0.8245472    0.904690876670

     14   S      27             0.1831916    1.000000000000

 O         

     15   S      28           322.0370000    0.059239393389
     15   S      29            48.4308000    0.351499960776
     15   S      30            10.4206000    0.707657921031

     16   L      31             7.4029400   -0.404453583190    0.244586106967
     16   L      32             1.5762000    1.221561761397    0.853955373466

     17   L      33             0.3736840    1.000000000000    1.000000000000

 C         

     18   S      34           172.2560000    0.061766907377
     18   S      35            25.9109000    0.358794042852
     18   S      36             5.5333500    0.700713083689

     19   L      37             3.6649800   -0.395895162119    0.236459946619
     19   L      38             0.7705450    1.215834355681    0.860618805716

     20   L      39             0.1958570    1.000000000000    1.000000000000

 H         

     21   S      40             5.4471780    0.156284978695
     21   S      41             0.8245472    0.904690876670

     22   S      42             0.1831916    1.000000000000

 O         

     23   S      43           322.0370000    0.059239393389
     23   S      44            48.4308000    0.351499960776
     23   S      45            10.4206000    0.707657921031

     24   L      46             7.4029400   -0.404453583190    0.244586106967
     24   L      47             1.5762000    1.221561761397    0.853955373466

     25   L      48             0.3736840    1.000000000000    1.000000000000

 C         

     26   S      49           172.2560000    0.061766907377
     26   S      50            25.9109000    0.358794042852
     26   S      51             5.5333500    0.700713083689

     27   L      52             3.6649800   -0.395895162119    0.236459946619
     27   L      53             0.7705450    1.215834355681    0.860618805716

     28   L      54             0.1958570    1.000000000000    1.000000000000

 H         

     29   S      55             5.4471780    0.156284978695
     29   S      56             0.8245472    0.904690876670

     30   S      57             0.1831916    1.000000000000

 O         

     31   S      58           322.0370000    0.059239393389
     31   S      59            48.4308000    0.351499960776
     31   S      60            10.4206000    0.707657921031

     32   L      61             7.4029400   -0.404453583190    0.244586106967
     32   L      62             1.5762000    1.221561761397    0.853955373466

     33   L      63             0.3736840    1.000000000000    1.000000000000

 C         

     34   S      64           172.2560000    0.061766907377
     34   S      65            25.9109000    0.358794042852
     34   S      66             5.5333500    0.700713083689

     35   L      67             3.6649800   -0.395895162119    0.236459946619
     35   L      68             0.7705450    1.215834355681    0.860618805716

     36   L      69             0.1958570    1.000000000000    1.000000000000

 O         

     37   S      70           322.0370000    0.059239393389
     37   S      71            48.4308000    0.351499960776
     37   S      72            10.4206000    0.707657921031

     38   L      73             7.4029400   -0.404453583190    0.244586106967
     38   L      74             1.5762000    1.221561761397    0.853955373466

     39   L      75             0.3736840    1.000000000000    1.000000000000

 H         

     40   S      76             5.4471780    0.156284978695
     40   S      77             0.8245472    0.904690876670

     41   S      78             0.1831916    1.000000000000

 H         

     42   S      79             5.4471780    0.156284978695
     42   S      80             0.8245472    0.904690876670

     43   S      81             0.1831916    1.000000000000

 H         

     44   S      82             5.4471780    0.156284978695
     44   S      83             0.8245472    0.904690876670

     45   S      84             0.1831916    1.000000000000

 H         

     46   S      85             5.4471780    0.156284978695
     46   S      86             0.8245472    0.904690876670

     47   S      87             0.1831916    1.000000000000

 H         

     48   S      88             5.4471780    0.156284978695
     48   S      89             0.8245472    0.904690876670

     49   S      90             0.1831916    1.000000000000

 H         

     50   S      91             5.4471780    0.156284978695
     50   S      92             0.8245472    0.904690876670

     51   S      93             0.1831916    1.000000000000

 H         

     52   S      94             5.4471780    0.156284978695
     52   S      95             0.8245472    0.904690876670

     53   S      96             0.1831916    1.000000000000

 O         

     54   S      97           322.0370000    0.059239393389
     54   S      98            48.4308000    0.351499960776
     54   S      99            10.4206000    0.707657921031

     55   L     100             7.4029400   -0.404453583190    0.244586106967
     55   L     101             1.5762000    1.221561761397    0.853955373466

     56   L     102             0.3736840    1.000000000000    1.000000000000

 H         

     57   S     103             5.4471780    0.156284978695
     57   S     104             0.8245472    0.904690876670

     58   S     105             0.1831916    1.000000000000

 H         

     59   S     106             5.4471780    0.156284978695
     59   S     107             0.8245472    0.904690876670

     60   S     108             0.1831916    1.000000000000

 TOTAL NUMBER OF BASIS SET SHELLS             =   60
 NUMBER OF CARTESIAN GAUSSIAN BASIS FUNCTIONS =  132
 NUMBER OF ELECTRONS                          =   96
 CHARGE OF MOLECULE                           =    0
 SPIN MULTIPLICITY                            =    1
 NUMBER OF OCCUPIED ORBITALS (ALPHA)          =   48
 NUMBER OF OCCUPIED ORBITALS (BETA )          =   48
 TOTAL NUMBER OF ATOMS                        =   24
 THE NUCLEAR REPULSION ENERGY IS      830.9647180517

 SELECTED MURRAY-HANDY-LAMING RADIAL GRID

 LEGACY BECKE'S FUZZY CELL METHOD

 SELECTED ORIGINAL BECKE'S PARTITION FUNCTION

     LEBEDEV GRID-BASED DFT OPTIONS
     ------------------------------
     DFTTYP=B3LYP   
     NRAD  =      96     NLEB  =     302
     NRAD0 =      24     NLEB0 =     110
     SWOFF =    5.00E-03 (PURE SCF -> DFT)
     SWITCH=    3.00E-04 (COARSE -> TIGHT GRID)
     THRESH=    0.00E+00 GTHRE=    1.00E+00

 GRIMME'S EMPIRICAL DISPERSION CORRECTION= F

     $CONTRL OPTIONS
     ---------------
 SCFTYP=RHF          RUNTYP=ENERGY       EXETYP=RUN     
 MPLEVL=       0     CITYP =NONE         CCTYP =NONE         VBTYP =NONE    
 DFTTYP=B3LYP        TDDFT =NONE    
 MULT  =       1     ICHARG=       0     NZVAR =       0     COORD =UNIQUE  
 PP    =NONE         RELWFN=NONE         LOCAL =NONE         NUMGRD=       F
 ISPHER=      -1     NOSYM =       0     MAXIT =      60     UNITS =ANGS    
 PLTORB=       F     MOLPLT=       F     AIMPAC=       F     FRIEND=        
 NPRINT=       7     IREST =       0     GEOM  =INPUT   
 NORMF =       0     NORMP =       0     ITOL  =      20     ICUT  =       9
 INTTYP=BEST         GRDTYP=BEST         QMTTOL= 1.0E-06

     $SYSTEM OPTIONS
     ---------------
  REPLICATED MEMORY=    30000000 WORDS (ON EVERY NODE).
 DISTRIBUTED MEMDDI=        1000 MILLION WORDS IN AGGREGATE,
 MEMDDI DISTRIBUTED OVER   8 PROCESSORS IS   125000000 WORDS/PROCESSOR.
 TOTAL MEMORY REQUESTED ON EACH PROCESSOR=   155000000 WORDS.
 TIMLIM=      525600.00 MINUTES, OR     365.0 DAYS.
 PARALL= T  BALTYP=  DLB     KDIAG=    0  COREFL= F
 MXSEQ2=     300 MXSEQ3=     150  mem10=         0

     INPUT FOR POTENTIAL-DERIVED CHARGES 
     -----------------------------------
     VDWSCL=    1.40   RMAX=    3.00   DELR=    0.80
     VDWINC=    0.20 PTDENS=    0.28
     LAYER =       4  NFREQ=      30 MAXPDC=   10000
     CONSTR=CHARGE    UNITS=ANGS      PTSEL=GEODESIC
     CENTER=  0.0000  0.0000  0.0000
     DPOLE =  0.0000  0.0000  0.0000
     QPOLE =  0.0000  0.0000  0.0000  0.0000  0.0000  0.0000


          ----------------
          PROPERTIES INPUT
          ----------------

     MOMENTS            FIELD           POTENTIAL          DENSITY
 IEMOM =       1   IEFLD =       0   IEPOT =       1   IEDEN =       0
 WHERE =COMASS     WHERE =NUCLEI     WHERE =PDC        WHERE =NUCLEI  
 OUTPUT=BOTH       OUTPUT=BOTH       OUTPUT=BOTH       OUTPUT=BOTH    
 IEMINT=       0   IEFINT=       0                     IEDINT=       0
                                                       MORB  =       0
          EXTRAPOLATION IN EFFECT
          DIIS IN EFFECT
 ORBITAL PRINTING OPTION: NPREO=     1   132     2     1

     -------------------------------
     INTEGRAL TRANSFORMATION OPTIONS
     -------------------------------
     NWORD  =            0
     CUTOFF = 1.0E-09     MPTRAN =       0
     DIRTRF =       T     AOINTS =DUP     

          ----------------------
          INTEGRAL INPUT OPTIONS
          ----------------------
 NOPK  =       1 NORDER=       0 SCHWRZ=       T

     ------------------------------------------
     THE POINT GROUP IS C1 , NAXIS= 0, ORDER= 1
     ------------------------------------------

     DIMENSIONS OF THE SYMMETRY SUBSPACES ARE
 A   =  132

 ..... DONE SETTING UP THE RUN .....
 CPU     0: STEP CPU TIME=     0.02 TOTAL CPU TIME=          0.0 (      0.0 MIN)
 TOTAL WALL CLOCK TIME=          0.0 SECONDS, CPU UTILIZATION IS    50.00%

          ********************
          1 ELECTRON INTEGRALS
          ********************
 ...... END OF ONE-ELECTRON INTEGRALS ......
 CPU     0: STEP CPU TIME=     0.02 TOTAL CPU TIME=          0.0 (      0.0 MIN)
 TOTAL WALL CLOCK TIME=          0.1 SECONDS, CPU UTILIZATION IS    80.00%

          -------------
          GUESS OPTIONS
          -------------
          GUESS =HUCKEL            NORB  =       0          NORDER=       0
          MIX   =       F          PRTMO =       F          PUNMO =       F
          TOLZ  = 1.0E-08          TOLE  = 1.0E-05
          SYMDEN=       F          PURIFY=       F

 INITIAL GUESS ORBITALS GENERATED BY HUCKEL   ROUTINE.
 HUCKEL GUESS REQUIRES    164928 WORDS.

 SYMMETRIES FOR INITIAL GUESS ORBITALS FOLLOW.   BOTH SET(S).
    48 ORBITALS ARE OCCUPIED (   12 CORE ORBITALS).
    13=A       14=A       15=A       16=A       17=A       18=A       19=A   
    20=A       21=A       22=A       23=A       24=A       25=A       26=A   
    27=A       28=A       29=A       30=A       31=A       32=A       33=A   
    34=A       35=A       36=A       37=A       38=A       39=A       40=A   
    41=A       42=A       43=A       44=A       45=A       46=A       47=A   
    48=A       49=A       50=A       51=A       52=A       53=A       54=A   
    55=A       56=A       57=A       58=A   
 ...... END OF INITIAL ORBITAL SELECTION ......
 CPU     0: STEP CPU TIME=     0.03 TOTAL CPU TIME=          0.1 (      0.0 MIN)
 TOTAL WALL CLOCK TIME=          0.1 SECONDS, CPU UTILIZATION IS    70.00%

                    ----------------------
                    AO INTEGRAL TECHNOLOGY
                    ----------------------
     S,P,L SHELL ROTATED AXIS INTEGRALS, REPROGRAMMED BY
        KAZUYA ISHIMURA (IMS) AND JOSE SIERRA (SYNSTAR).
     S,P,D,L SHELL ROTATED AXIS INTEGRALS PROGRAMMED BY
        KAZUYA ISHIMURA (INSTITUTE FOR MOLECULAR SCIENCE).
     S,P,D,F,G SHELL TO TOTAL QUARTET ANGULAR MOMENTUM SUM 5,
        ERIC PROGRAM BY GRAHAM FLETCHER (ELORET AND NASA ADVANCED
        SUPERCOMPUTING DIVISION, AMES RESEARCH CENTER).
     S,P,D,F,G,L SHELL GENERAL RYS QUADRATURE PROGRAMMED BY
        MICHEL DUPUIS (PACIFIC NORTHWEST NATIONAL LABORATORY).

          --------------------
          2 ELECTRON INTEGRALS
          --------------------

 DIRECT SCF METHOD SKIPS INTEGRAL STORAGE ON DISK.
 DIRECT TRANSFORMATION SKIPS AO INTEGRAL STORAGE ON DISK.
  ...... END OF TWO-ELECTRON INTEGRALS .....
 CPU     0: STEP CPU TIME=     0.01 TOTAL CPU TIME=          0.1 (      0.0 MIN)
 TOTAL WALL CLOCK TIME=          0.1 SECONDS, CPU UTILIZATION IS    72.73%

          --------------------------
             R-B3LYP SCF CALCULATION
          --------------------------

     NUCLEAR ENERGY =       830.9647180517
     MAXIT =   60     NPUNCH=    2
     EXTRAP=T  DAMP=F  SHIFT=F  RSTRCT=F  DIIS=T  DEM=F  SOSCF=F
         DENSITY MATRIX CONVERGENCE THRESHOLD=  2.00E-05
     COARSE -> FINE DFT GRID SWITCH THRESHOLD=  3.00E-04 (SWITCH IN $DFT)
                   HF -> DFT SWITCH THRESHOLD=  5.00E-03 (SWOFF IN $DFT)
     MEMORY REQUIRED FOR RHF ITERS=    955663 WORDS.

 DIRECT SCF CALCULATION, SCHWRZ=T   FDIFF=T,  DIRTHR=  0.00E+00 NITDIR=10
 SCHWARZ INEQUALITY OVERHEAD:      8156 INTEGRALS, T=        0.00

 DFT CODE IS SWITCHING FROM THE FINE GRID NRAD= 96,  NLEB=  302
                      TO THE COARSE GRID NRAD0= 24, NLEB0=  110

     EXCHANGE FUNCTIONAL   =B88&HFX   
     CORRELATION FUNCTIONAL=LYP88&VWN5
     DFT THRESHOLD         =.575E-08
     GRID CHANGE THRESHOLD =.300E-03
 FOR AN EULER-MACLAURIN QUADRATURE USING  96 RADIAL POINTS:
 SMALLEST GAUSSIAN PRIMITIVE EXPONENT=        0.1831915800 OF TYPE -S-
 ON ATOM NUMBER   5 HAS RADIAL NORMALIZATION=  1.000000
  LARGEST GAUSSIAN PRIMITIVE EXPONENT=      322.0370000000 OF TYPE -S-
 ON ATOM NUMBER   1 HAS RADIAL NORMALIZATION=  1.000000
 DFT IS SWITCHED OFF, PERFORMING PURE SCF UNTIL SWOFF THRESHOLD IS REACHED.

                                                                                   NONZERO     BLOCKS
 ITER EX DEM     TOTAL ENERGY        E CHANGE  DENSITY CHANGE    DIIS ERROR      INTEGRALS    SKIPPED
   1  0  0     -677.6624959252  -677.6624959252   0.783975628   0.615425928       22024256     851402
          * * *   INITIATING DIIS PROCEDURE   * * *
   2  1  0     -679.4182040936    -1.7557081685   0.131327215   0.084426118       21984892     865887
   3  2  0     -679.5097105153    -0.0915064216   0.084113107   0.038760013       21630461     913805
   4  3  0     -679.5249884248    -0.0152779096   0.019261138   0.017844485       21275505     948166
   5  4  0     -679.5276116649    -0.0026232400   0.004590266   0.002069444       20621806     984735
 CONVERGED TO SWOFF, SO DFT CALCULATION IS NOW SWITCHED ON.
          * * *   INITIATING DIIS PROCEDURE   * * *
   6  5  0     -682.9293371259    -3.4017254611   0.133657620   0.061955850       22061053     840685
   7  6  0     -682.9801178737    -0.0507807478   0.121788698   0.029497231       21800841     898632
   8  7  0     -682.9813724161    -0.0012545424   0.060640884   0.036419335       21470790     930362
   9  8  0     -682.9908310228    -0.0094586066   0.004790045   0.008454378       21119424     959597
  10  9  0     -682.9911968617    -0.0003658389   0.000796852   0.001213917       19917381    1019115
  11 10  0     -682.9912021233    -0.0000052616   0.000293704   0.000523084       18611971    1084525
 DFT CODE IS SWITCHING BACK TO THE FINE GRID
          * * *   INITIATING DIIS PROCEDURE   * * *
  12 11  0     -682.9982678855    -0.0070657621   0.002676472   0.000936661       22071895     836213
  13 12  0     -682.9983131350    -0.0000452495   0.002124337   0.000495034       19721007    1033982
  14 13  0     -682.9983131124     0.0000000226   0.000903220   0.000722079       18627647    1086758
  15 14  0     -682.9983160677    -0.0000029553   0.000092590   0.000157764       17883499    1122205
  16 15  0     -682.9983161760    -0.0000001082   0.000052253   0.000029224       16121017    1192125
  17 16  0     -682.9983161834    -0.0000000074   0.000010596   0.000006529       14739015    1248422
  18 17  0     -682.9983161839    -0.0000000005   0.000004730   0.000002424       13028876    1309038

          -----------------
          DENSITY CONVERGED
          -----------------
     TIME TO FORM FOCK OPERATORS=      24.7 SECONDS (       1.4 SEC/ITER)
     FOCK TIME ON FIRST ITERATION=       0.2, LAST ITERATION=       2.7
     TIME TO SOLVE SCF EQUATIONS=       0.3 SECONDS (       0.0 SEC/ITER)

 FINAL R-B3LYP ENERGY IS     -682.9983161839 AFTER  18 ITERATIONS
 DFT EXCHANGE + CORRELATION ENERGY =       -71.1326399162
 TOTAL ELECTRON NUMBER             =        96.0007738386

          ------------
          EIGENVECTORS
          ------------

                      1          2          3          4          5
                  -19.0675   -19.0617   -19.0536   -19.0313   -19.0131
                     A          A          A          A          A   
    1  O  1  S    0.000065   0.006904   0.001935   0.982611  -0.002810
    2  O  1  S   -0.000188   0.001822   0.000431   0.106307  -0.000196
    3  O  1  X    0.000083  -0.000494  -0.000111   0.000260   0.000137
    4  O  1  Y   -0.000240   0.000128   0.000028  -0.003086   0.000027
    5  O  1  Z    0.000308  -0.000147  -0.000019  -0.002348  -0.000138
    6  O  1  S    0.002375  -0.003936  -0.001084  -0.055636   0.000361
    7  O  1  X   -0.000877   0.003175   0.000910   0.001075  -0.000396
    8  O  1  Y    0.000326  -0.000435   0.000220   0.008218  -0.000006
    9  O  1  Z   -0.002547   0.002170   0.000271   0.010018  -0.000073
   10  C  2  S    0.000334  -0.001134  -0.000168  -0.001116   0.000241
   11  C  2  S    0.001326  -0.005004  -0.001052  -0.004927   0.000951
   12  C  2  X   -0.000082  -0.001148   0.000659   0.000554  -0.000438
   13  C  2  Y    0.000764   0.000890   0.000275   0.000778  -0.000337
   14  C  2  Z    0.000380   0.000021  -0.000378   0.000592   0.000292
   15  C  2  S   -0.009451   0.025056   0.002450   0.023987  -0.007453
   16  C  2  X    0.000061  -0.013462  -0.005767   0.000034  -0.001235
   17  C  2  Y    0.004444   0.003817  -0.001881   0.002772  -0.002091
   18  C  2  Z   -0.008057  -0.004555   0.002052   0.020048   0.002466
   19  C  3  S    0.000072   0.000189  -0.000060   0.000078  -0.000884
   20  C  3  S    0.000627   0.000577  -0.000329   0.000110  -0.003550
   21  C  3  X   -0.000116   0.000665  -0.000121   0.000531  -0.000100
   22  C  3  Y   -0.000234   0.000254  -0.000144   0.000116   0.001706
   23  C  3  Z   -0.000044  -0.000546  -0.000014  -0.000293  -0.000426
   24  C  3  S   -0.002933  -0.004937   0.003328   0.000803   0.020902
   25  C  3  X    0.002211   0.003714  -0.000180  -0.004275  -0.002319
   26  C  3  Y    0.000884  -0.001477   0.000358  -0.001706   0.010449
   27  C  3  Z    0.000711   0.001106   0.001881  -0.003256   0.000826
   28  C  4  S   -0.001109   0.000082   0.000360   0.000181  -0.000075
   29  C  4  S   -0.004907  -0.000108   0.001633   0.000358  -0.000550
   30  C  4  X    0.000836  -0.000504   0.000350   0.000012  -0.000413
   31  C  4  Y   -0.001137  -0.001116  -0.000024  -0.001345  -0.000262
   32  C  4  Z    0.000044   0.000009  -0.000522   0.000202   0.000344
   33  C  4  S    0.027329  -0.001570  -0.011704  -0.005763   0.000381
   34  C  4  X    0.008557   0.001356   0.007073  -0.002224   0.002795
   35  C  4  Y    0.000001  -0.002730   0.001522  -0.000897   0.001440
   36  C  4  Z    0.015286   0.003866   0.002192  -0.006797  -0.002325
   37  H  5  S   -0.000458   0.000737   0.000997  -0.000786  -0.000494
   38  H  5  S    0.001988   0.000398   0.002468  -0.000879  -0.000206
   39  O  6  S    0.982543   0.000220  -0.003256  -0.000153  -0.000318
   40  O  6  S    0.105492   0.000117  -0.000202  -0.000169   0.000056
   41  O  6  X   -0.003200  -0.000106   0.000002   0.000312   0.000043
   42  O  6  Y   -0.000819  -0.000268   0.000187   0.000545   0.000022
   43  O  6  Z   -0.001321   0.000034  -0.000057   0.000095  -0.000085
   44  O  6  S   -0.052501  -0.001137  -0.000476   0.002282  -0.000329
   45  O  6  X    0.010096   0.000840  -0.000295  -0.001985  -0.000260
   46  O  6  Y   -0.000937   0.000792  -0.000977  -0.001618  -0.000271
   47  O  6  Z    0.004977   0.000102   0.000288  -0.000873   0.000506
   48  C  7  S    0.000300   0.000388  -0.001050   0.000086  -0.000076
   49  C  7  S    0.001282   0.002148  -0.004458   0.000823  -0.000404
   50  C  7  X   -0.000310   0.000881  -0.000631  -0.000000  -0.000037
   51  C  7  Y   -0.000157  -0.000238  -0.000831   0.000375   0.000180
   52  C  7  Z    0.000670   0.000425   0.000517  -0.000375  -0.000036
   53  C  7  S   -0.009138  -0.009452   0.026590  -0.000009   0.003157
   54  C  7  X   -0.006969  -0.004123  -0.005014   0.001311   0.001241
   55  C  7  Y   -0.000294  -0.006948  -0.012214  -0.002252  -0.000543
   56  C  7  Z   -0.004296  -0.000365  -0.011665   0.001990  -0.000385
   57  H  8  S    0.001264   0.001145  -0.000494  -0.000273  -0.000133
   58  H  8  S    0.002544   0.001070   0.001024  -0.000584  -0.000249
   59  O  9  S    0.003272   0.012353   0.982464  -0.001972  -0.000494
   60  O  9  S    0.000484   0.001762   0.105429  -0.000030   0.000058
   61  O  9  X    0.000050   0.000060  -0.000680   0.000117  -0.000019
   62  O  9  Y    0.000104   0.000022   0.002923  -0.000000   0.000011
   63  O  9  Z   -0.000070   0.000185   0.002303   0.000067   0.000026
   64  O  9  S   -0.000634  -0.002725  -0.052593  -0.000438  -0.000502
   65  O  9  X    0.000297  -0.000380  -0.001155  -0.000560  -0.000082
   66  O  9  Y   -0.000552  -0.000442  -0.010296  -0.000019  -0.000200
   67  O  9  Z    0.000426  -0.000839  -0.005437  -0.000383  -0.000153
   68  C 10  S   -0.000130  -0.000926   0.000288   0.000139   0.000070
   69  C 10  S   -0.001024  -0.003821   0.001405   0.001213   0.000268
   70  C 10  X   -0.000822   0.001109  -0.000369   0.000736  -0.000097
   71  C 10  Y   -0.000165   0.000708   0.000069   0.000094  -0.000152
   72  C 10  Z    0.000009  -0.000934  -0.000527   0.000166   0.000178
   73  C 10  S    0.001009   0.020117  -0.006655  -0.001083  -0.001546
   74  C 10  X    0.004881   0.010191   0.001753  -0.002502  -0.001079
   75  C 10  Y    0.001416   0.003649   0.006789  -0.002016  -0.000226
   76  C 10  Z    0.000979  -0.001257   0.004402  -0.001052  -0.000210
   77  H 11  S    0.000437  -0.000960   0.001190  -0.000140  -0.000005
   78  H 11  S    0.001414  -0.000273   0.003098  -0.001279  -0.000116
   79  O 12  S   -0.000214   0.982656  -0.012250  -0.006610  -0.000667
   80  O 12  S    0.000079   0.107294  -0.000835   0.000275  -0.000072
   81  O 12  X   -0.000022   0.000774   0.000065   0.000185   0.000343
   82  O 12  Y    0.000244  -0.002740   0.000221   0.000161   0.000275
   83  O 12  Z   -0.000102   0.002453   0.000243   0.000621  -0.000384
   84  O 12  S   -0.001525  -0.058868  -0.001944  -0.002382   0.001213
   85  O 12  X    0.000514  -0.003695  -0.000896  -0.002340  -0.000722
   86  O 12  Y   -0.000576   0.009085  -0.000539  -0.000472  -0.001252
   87  O 12  Z    0.000366  -0.008007  -0.001534  -0.003687   0.001442
   88  C 13  S   -0.000006   0.000104   0.000003  -0.000010  -0.000012
   89  C 13  S   -0.000146   0.000043  -0.000025   0.000039  -0.000091
   90  C 13  X    0.000086  -0.000434   0.000059  -0.000027  -0.000018
   91  C 13  Y    0.000176   0.000429   0.000233  -0.000049  -0.000051
   92  C 13  Z    0.000157   0.000801   0.000015   0.000113  -0.000042
   93  C 13  S   -0.000120  -0.003894  -0.001970   0.000235   0.000359
   94  C 13  X   -0.002042  -0.002821  -0.001848   0.001043   0.000644
   95  C 13  Y   -0.000776  -0.000750  -0.001572  -0.000090  -0.000278
   96  C 13  Z   -0.000527   0.000570   0.001333  -0.001100   0.000073
   97  O 14  S    0.000085   0.001610  -0.000774  -0.000162  -0.021209
   98  O 14  S    0.000027   0.000416  -0.000245  -0.000020  -0.002338
   99  O 14  X   -0.000067  -0.000019  -0.000035   0.000041  -0.000074
  100  O 14  Y   -0.000040  -0.000060  -0.000034   0.000033   0.000031
  101  O 14  Z   -0.000016  -0.000167  -0.000083  -0.000006   0.000021
  102  O 14  S   -0.000076  -0.000452   0.000908  -0.000039   0.001305
  103  O 14  X    0.000347   0.000234   0.000333  -0.000222   0.000155
  104  O 14  Y    0.000204  -0.000046  -0.000131  -0.000077  -0.000090
  105  O 14  Z    0.000062   0.000637   0.000366   0.000090  -0.000052
  106  H 15  S    0.003074   0.000491  -0.000135  -0.000733  -0.000065
  107  H 15  S    0.005132  -0.000527  -0.000592  -0.000095   0.000085
  108  H 16  S    0.000015   0.000117   0.003167   0.000039   0.000080
  109  H 16  S   -0.000376  -0.000181   0.004966  -0.000288  -0.000020
  110  H 17  S   -0.000228  -0.000392  -0.000063   0.000157   0.000023
  111  H 17  S   -0.000734   0.000151  -0.001487   0.000441   0.000118
  112  H 18  S    0.000153   0.000412  -0.000136  -0.000630  -0.000083
  113  H 18  S    0.001010   0.000853   0.001140   0.001152  -0.000208
  114  H 19  S   -0.000125  -0.000506   0.000010   0.000077   0.000088
  115  H 19  S    0.000075   0.001391  -0.000052   0.000015  -0.000601
  116  H 20  S    0.000379   0.000551   0.000082  -0.000816  -0.001191
  117  H 20  S    0.000955   0.000646   0.000328  -0.000631  -0.000955
  118  H 21  S   -0.000084  -0.000442  -0.000196   0.000769  -0.001442
  119  H 21  S   -0.000524   0.000085  -0.000496   0.001486  -0.001189
  120  O 22  S    0.000337   0.000692   0.000504   0.002808   0.982221
  121  O 22  S    0.000089   0.000084   0.000159   0.000430   0.104702
  122  O 22  X    0.000041  -0.000113   0.000046  -0.000342  -0.002471
  123  O 22  Y   -0.000043   0.000063  -0.000020  -0.000125  -0.002972
  124  O 22  Z    0.000099   0.000250   0.000037   0.000024   0.000131
  125  O 22  S   -0.000056   0.000746  -0.000552   0.000136  -0.049134
  126  O 22  X   -0.000261   0.000232  -0.000181   0.001358   0.004996
  127  O 22  Y    0.000082  -0.000919   0.000294   0.000111   0.009291
  128  O 22  Z   -0.000397  -0.000716  -0.000245   0.000268  -0.000897
  129  H 23  S   -0.000698  -0.000361  -0.000313   0.003108   0.000080
  130  H 23  S    0.003190   0.000248   0.000353   0.005980  -0.000072
  131  H 24  S   -0.000045  -0.000464  -0.000051   0.000774   0.003019
  132  H 24  S   -0.000227   0.001266  -0.000052  -0.000586   0.006136

                      6          7          8          9         10
                  -19.0121   -10.2331   -10.1975   -10.1964   -10.1857
                     A          A          A          A          A   
    1  O  1  S    0.000095  -0.000188   0.000066   0.000064   0.000157
    2  O  1  S    0.000012  -0.001185   0.000768   0.000119   0.001209
    3  O  1  X    0.000054   0.000177  -0.000153   0.000087  -0.000290
    4  O  1  Y    0.000001  -0.000329  -0.000276   0.000376  -0.000098
    5  O  1  Z   -0.000025  -0.000048  -0.000325   0.000277  -0.000082
    6  O  1  S   -0.000120   0.010743  -0.001900  -0.003001  -0.005592
    7  O  1  X   -0.000258  -0.002028   0.000943   0.000657   0.002675
    8  O  1  Y    0.000052  -0.000929   0.000869   0.000438   0.001539
    9  O  1  Z    0.000174  -0.004905   0.001225   0.000490   0.002034
   10  C  2  S    0.000005   0.987342  -0.003443   0.013358   0.007690
   11  C  2  S    0.000039   0.117882   0.000721  -0.003005  -0.003973
   12  C  2  X   -0.000168  -0.001140   0.000554   0.000281   0.002045
   13  C  2  Y   -0.000067  -0.001299   0.001498   0.000095   0.000634
   14  C  2  Z    0.000081  -0.000441  -0.001057  -0.000468  -0.001012
   15  C  2  S    0.000511  -0.112755  -0.018579   0.028332   0.015227
   16  C  2  X    0.001228   0.002779  -0.000256  -0.007737  -0.014729
   17  C  2  Y   -0.000458   0.013915   0.007000  -0.017374  -0.007452
   18  C  2  Z    0.000424   0.008188   0.006041   0.005455   0.010536
   19  C  3  S   -0.000017  -0.007285  -0.000488  -0.007198  -0.004459
   20  C  3  S   -0.000078  -0.005006  -0.000886  -0.002328  -0.001542
   21  C  3  X    0.000042   0.000167  -0.000308   0.000271  -0.000195
   22  C  3  Y    0.000038  -0.000270  -0.000061   0.000655  -0.000014
   23  C  3  Z    0.000001   0.000049   0.000256  -0.000362  -0.000067
   24  C  3  S    0.000110   0.028812   0.006827   0.005484   0.009346
   25  C  3  X   -0.000295  -0.013233  -0.002872  -0.000952  -0.001930
   26  C  3  Y    0.000377  -0.006022  -0.002636  -0.001056  -0.000936
   27  C  3  Z   -0.000434   0.009399   0.001481   0.001873   0.004263
   28  C  4  S    0.000004  -0.015034  -0.464242   0.871129   0.011279
   29  C  4  S    0.000073  -0.007157  -0.059016   0.101868   0.001820
   30  C  4  X    0.000018   0.000031  -0.000187  -0.000993   0.000815
   31  C  4  Y    0.000203   0.000451  -0.000748   0.000846  -0.000661
   32  C  4  Z    0.000069  -0.000014  -0.000410   0.000697   0.000384
   33  C  4  S    0.000603   0.041759   0.082500  -0.084660  -0.013894
   34  C  4  X   -0.000849   0.001163  -0.020966   0.002275  -0.000206
   35  C  4  Y   -0.001618   0.021288   0.007462  -0.014042  -0.007218
   36  C  4  Z   -0.000559  -0.002507   0.010481  -0.003127  -0.007194
   37  H  5  S   -0.000166  -0.002478  -0.002061  -0.000660  -0.000410
   38  H  5  S   -0.000521  -0.000117  -0.005401   0.013734  -0.002785
   39  O  6  S   -0.000093   0.000073   0.000154  -0.000153  -0.000101
   40  O  6  S    0.000004   0.000230   0.000817  -0.000934  -0.000850
   41  O  6  X   -0.000001   0.000116   0.000045  -0.000112   0.000220
   42  O  6  Y   -0.000035  -0.000648   0.000059  -0.000186  -0.000259
   43  O  6  Z   -0.000032   0.000371   0.000329  -0.000310  -0.000045
   44  O  6  S    0.000010  -0.002573  -0.006882   0.009110   0.003421
   45  O  6  X    0.000022   0.000537   0.003703  -0.002692  -0.001842
   46  O  6  Y    0.000245   0.000707  -0.002073   0.003178   0.001900
   47  O  6  Z    0.000124  -0.000456   0.000158  -0.001218  -0.000251
   48  C  7  S   -0.000101  -0.003496   0.871619   0.462480   0.033895
   49  C  7  S   -0.000694  -0.000434   0.106254   0.051461  -0.000303
   50  C  7  X    0.000287  -0.000725   0.000565   0.000701   0.000066
   51  C  7  Y   -0.000481  -0.000632   0.000868   0.000664   0.000847
   52  C  7  Z   -0.000289   0.000110  -0.000401  -0.000595  -0.000429
   53  C  7  S    0.001510  -0.010544  -0.117361  -0.023033   0.033285
   54  C  7  X   -0.001474   0.000021  -0.018150   0.012186  -0.004939
   55  C  7  Y    0.003574  -0.003948  -0.015129  -0.005324   0.014617
   56  C  7  Z    0.001732   0.004444   0.011510  -0.000510  -0.001858
   57  H  8  S   -0.000897   0.000254   0.002173  -0.001731  -0.002328
   58  H  8  S    0.000532  -0.001891   0.014596   0.008302  -0.001426
   59  O  9  S    0.000700  -0.000061  -0.000177  -0.000014   0.000072
   60  O  9  S   -0.000080  -0.000577  -0.000941  -0.000084   0.000437
   61  O  9  X   -0.000133  -0.000214   0.000184  -0.000209  -0.000046
   62  O  9  Y    0.000035  -0.000163   0.000264  -0.000120   0.000025
   63  O  9  Z    0.000041   0.000114   0.000530   0.000298  -0.000037
   64  O  9  S    0.000926   0.001742   0.009346   0.002470  -0.001640
   65  O  9  X    0.000781   0.001095   0.002364   0.000668   0.000239
   66  O  9  Y    0.000085   0.001266   0.003656   0.001829  -0.001761
   67  O  9  Z   -0.000098  -0.000601  -0.001270  -0.000724   0.000084
   68  C 10  S    0.000245  -0.008793  -0.026123  -0.026478   0.986407
   69  C 10  S    0.000936  -0.005324  -0.006674  -0.005385   0.118352
   70  C 10  X    0.000422  -0.001503   0.000438  -0.000049   0.002054
   71  C 10  Y   -0.000506  -0.000299  -0.000671   0.000994   0.000377
   72  C 10  Z   -0.000214  -0.000816  -0.000362   0.000582   0.001141
   73  C 10  S   -0.007882   0.015380   0.033859   0.014963  -0.111593
   74  C 10  X    0.000372   0.010253   0.011879   0.002543  -0.009180
   75  C 10  Y   -0.002148   0.000093  -0.012076  -0.010760  -0.001430
   76  C 10  Z   -0.002397   0.005587   0.006316  -0.002355  -0.016187
   77  H 11  S    0.000437   0.000113  -0.001619  -0.001292  -0.000329
   78  H 11  S   -0.000361   0.003405   0.002399  -0.002578   0.012712
   79  O 12  S   -0.001619  -0.000199   0.000129   0.000075  -0.000180
   80  O 12  S    0.000009  -0.001149   0.001104   0.000139  -0.000670
   81  O 12  X   -0.000212   0.000138   0.000017  -0.000097  -0.000177
   82  O 12  Y    0.000322  -0.000330  -0.000299   0.000333  -0.000529
   83  O 12  Z    0.000213   0.000381   0.000114  -0.000077   0.000538
   84  O 12  S    0.000712   0.011724  -0.003998  -0.003158   0.009094
   85  O 12  X    0.000554   0.007203   0.001901  -0.000597  -0.006634
   86  O 12  Y   -0.001319  -0.001290   0.002313   0.001253  -0.001029
   87  O 12  Z   -0.000269  -0.000678  -0.001916  -0.000730   0.001184
   88  C 13  S   -0.000896   0.000364  -0.004141  -0.003405  -0.022495
   89  C 13  S   -0.003594   0.000845  -0.000886  -0.001357  -0.007115
   90  C 13  X   -0.000371  -0.000189  -0.000423   0.000064  -0.000165
   91  C 13  Y    0.001614   0.000225   0.000688   0.000218  -0.000522
   92  C 13  Z   -0.000583   0.000574   0.000425   0.000043  -0.000171
   93  C 13  S    0.021237  -0.006530  -0.002278   0.004644   0.035812
   94  C 13  X   -0.002369  -0.003962  -0.001972   0.000709   0.011817
   95  C 13  Y    0.008077   0.001363   0.000630  -0.000739  -0.009702
   96  C 13  Z   -0.006176  -0.000293   0.000367  -0.001174  -0.012908
   97  O 14  S    0.982218  -0.000000  -0.000034  -0.000000   0.000056
   98  O 14  S    0.104640   0.000035  -0.000368  -0.000062   0.000130
   99  O 14  X    0.003169  -0.000103  -0.000073  -0.000043   0.000073
  100  O 14  Y   -0.002237  -0.000002   0.000201   0.000114   0.000279
  101  O 14  Z    0.000021   0.000045   0.000140   0.000062  -0.000015
  102  O 14  S   -0.048863  -0.000237   0.000754  -0.000243  -0.002022
  103  O 14  X   -0.007457   0.000576   0.000446   0.000064  -0.001409
  104  O 14  Y    0.007536  -0.000030  -0.000815  -0.000217   0.000830
  105  O 14  Z   -0.001127  -0.000167  -0.000541  -0.000255   0.000446
  106  H 15  S    0.000031   0.000605   0.000101  -0.000272  -0.000298
  107  H 15  S    0.000043   0.001788  -0.001202   0.002096   0.001192
  108  H 16  S    0.000156   0.000057  -0.000172   0.000087   0.000017
  109  H 16  S    0.000083   0.000498   0.001157   0.002383   0.000034
  110  H 17  S   -0.001452  -0.000003   0.000228  -0.000329  -0.001447
  111  H 17  S   -0.001312   0.000115  -0.001243  -0.000039   0.002153
  112  H 18  S   -0.001197   0.000345   0.000080   0.000087  -0.002530
  113  H 18  S   -0.001396   0.002737   0.000489  -0.001419  -0.001794
  114  H 19  S    0.003116  -0.000339  -0.000324  -0.000269  -0.000017
  115  H 19  S    0.005839   0.000428   0.000502   0.000657   0.000411
  116  H 20  S   -0.000084  -0.002148  -0.000565  -0.000217  -0.000204
  117  H 20  S   -0.000057  -0.000115  -0.000384  -0.000737   0.000524
  118  H 21  S    0.000046  -0.001688  -0.000419  -0.000436  -0.000627
  119  H 21  S    0.000115   0.002159   0.000365  -0.000587  -0.000334
  120  O 22  S    0.021195   0.000053   0.000006  -0.000025   0.000008
  121  O 22  S    0.002180   0.000157   0.000047  -0.000327   0.000010
  122  O 22  X   -0.000020  -0.000108  -0.000115   0.000093   0.000071
  123  O 22  Y   -0.000081   0.000174  -0.000069   0.000176   0.000039
  124  O 22  Z   -0.000016  -0.000138   0.000117  -0.000187   0.000049
  125  O 22  S   -0.000835  -0.001731   0.000149   0.000476  -0.000414
  126  O 22  X    0.000004   0.001313   0.000547  -0.000336  -0.000201
  127  O 22  Y    0.000271   0.000814   0.000334  -0.000542   0.000195
  128  O 22  Z    0.000062  -0.000418  -0.000458   0.000575  -0.000357
  129  H 23  S    0.000097  -0.000208   0.000369  -0.000498   0.000270
  130  H 23  S   -0.000207   0.003452  -0.002039   0.001610  -0.000441
  131  H 24  S    0.000206  -0.000070   0.000386  -0.000399  -0.000067
  132  H 24  S   -0.000321   0.000645  -0.000713   0.000944   0.000097

                     11         12         13         14         15
                  -10.1650   -10.1642    -1.0794    -1.0404    -1.0301
                     A          A          A          A          A   
    1  O  1  S    0.000024  -0.000001  -0.099987   0.016890   0.045080
    2  O  1  S   -0.000124   0.000090   0.091890  -0.013914  -0.043060
    3  O  1  X   -0.000037  -0.000233   0.001298   0.004316  -0.005069
    4  O  1  Y    0.000053   0.000093  -0.043195   0.001267   0.020696
    5  O  1  Z    0.000230   0.000187  -0.034482   0.010235   0.010361
    6  O  1  S   -0.000836   0.000347   0.299968  -0.059578  -0.133187
    7  O  1  X   -0.000659   0.000683  -0.004340   0.003999  -0.007306
    8  O  1  Y   -0.000526  -0.000483  -0.044635   0.001767   0.021223
    9  O  1  Z    0.000943  -0.000815  -0.035918   0.011593   0.011651
   10  C  2  S    0.006487   0.000067  -0.093425   0.030622   0.016417
   11  C  2  S   -0.002288   0.000254   0.101039  -0.035618  -0.013934
   12  C  2  X   -0.000669   0.000076  -0.041300   0.034531  -0.015567
   13  C  2  Y   -0.000413  -0.000176   0.013134  -0.032644  -0.000549
   14  C  2  Z    0.000252   0.000200   0.024209   0.009693  -0.018593
   15  C  2  S    0.023970  -0.000982   0.151543  -0.050197  -0.028037
   16  C  2  X    0.013436   0.000734   0.022400   0.011719   0.013251
   17  C  2  Y    0.008346   0.000320  -0.017696   0.000769   0.007449
   18  C  2  Z   -0.011038  -0.001388  -0.014971   0.018793  -0.009853
   19  C  3  S    0.986390  -0.004220  -0.024405   0.014709   0.006381
   20  C  3  S    0.112351  -0.000415   0.026651  -0.014528  -0.005389
   21  C  3  X   -0.000274   0.000043  -0.015749   0.009236   0.002004
   22  C  3  Y   -0.000614   0.000026   0.003446  -0.008781  -0.001392
   23  C  3  Z    0.000343   0.000007   0.012670  -0.002702  -0.003518
   24  C  3  S   -0.091606  -0.000416   0.021040  -0.024942  -0.020902
   25  C  3  X    0.005613   0.000223  -0.000803  -0.000027   0.000574
   26  C  3  Y    0.006396   0.000048   0.010042  -0.005856   0.000872
   27  C  3  Z   -0.007859  -0.000236  -0.008432  -0.002547  -0.007854
   28  C  4  S    0.005933   0.001088  -0.057159  -0.056673   0.011312
   29  C  4  S   -0.000724  -0.000297   0.059318   0.057642  -0.014971
   30  C  4  X   -0.000798   0.000185   0.012208   0.044101  -0.037964
   31  C  4  Y   -0.000637   0.000166   0.016966  -0.043032   0.003575
   32  C  4  Z    0.000640   0.000245   0.020633   0.044794  -0.013848
   33  C  4  S    0.002872   0.002197   0.085581   0.106953  -0.011790
   34  C  4  X    0.003571  -0.001770  -0.021149  -0.009968  -0.012623
   35  C  4  Y    0.002213  -0.000174   0.001679  -0.001726  -0.011865
   36  C  4  Z   -0.001040  -0.000790   0.004329  -0.015685  -0.008652
   37  H  5  S   -0.000234  -0.000438   0.015952   0.013704  -0.002709
   38  H  5  S   -0.000921  -0.000313  -0.004779  -0.011499  -0.000352
   39  O  6  S    0.000048  -0.000018  -0.081619  -0.180419   0.072767
   40  O  6  S    0.000490  -0.000198   0.075714   0.169157  -0.067916
   41  O  6  X    0.000070   0.000043  -0.033483  -0.067311   0.023906
   42  O  6  Y    0.000281  -0.000131  -0.007048  -0.037054   0.012284
   43  O  6  Z   -0.000206   0.000011  -0.013357  -0.025078   0.009378
   44  O  6  S   -0.001550   0.000647   0.247822   0.556612  -0.225432
   45  O  6  X   -0.000107  -0.000199  -0.034412  -0.076692   0.028553
   46  O  6  Y   -0.001336   0.000598  -0.004743  -0.027184   0.011650
   47  O  6  Z    0.001113  -0.000114  -0.015574  -0.031392   0.011193
   48  C  7  S    0.003593   0.005891  -0.037293  -0.025824  -0.070759
   49  C  7  S   -0.000689  -0.000678   0.035209   0.026507   0.074046
   50  C  7  X   -0.000115   0.000591   0.006025   0.002573  -0.043297
   51  C  7  Y   -0.000235  -0.001031   0.004213  -0.031994  -0.060849
   52  C  7  Z    0.000070  -0.000249  -0.012722  -0.004420  -0.023084
   53  C  7  S    0.003103   0.001280   0.064466   0.040864   0.123259
   54  C  7  X    0.002332  -0.002337   0.010487   0.005185   0.003484
   55  C  7  Y    0.000639   0.002363   0.022632  -0.009481   0.020938
   56  C  7  Z   -0.001102  -0.000183   0.004055   0.019197   0.009753
   57  H  8  S   -0.000315  -0.000681   0.010710   0.008000   0.018439
   58  H  8  S    0.000295   0.001152  -0.005590  -0.006328  -0.011327
   59  O  9  S   -0.000007  -0.000006  -0.035863  -0.064742  -0.201628
   60  O  9  S   -0.000108  -0.000057   0.032607   0.061179   0.188497
   61  O  9  X   -0.000048  -0.000056  -0.002020  -0.007086  -0.033881
   62  O  9  Y   -0.000063   0.000104   0.014223   0.020129   0.061670
   63  O  9  Z    0.000006   0.000066   0.009883   0.020371   0.061274
   64  O  9  S    0.000214   0.000472   0.112203   0.196180   0.623379
   65  O  9  X    0.000084   0.000305  -0.002195  -0.007538  -0.025220
   66  O  9  Y    0.000209  -0.000356   0.016260   0.023685   0.074636
   67  O  9  Z    0.000036  -0.000176   0.013832   0.018617   0.066674
   68  C 10  S    0.003973   0.021244  -0.047516   0.028247  -0.022337
   69  C 10  S   -0.000624  -0.000609   0.051364  -0.029412   0.020417
   70  C 10  X   -0.000157  -0.000155   0.039076  -0.021672   0.006015
   71  C 10  Y    0.000036  -0.000239   0.014450  -0.023272  -0.011312
   72  C 10  Z   -0.000523  -0.000169  -0.011795   0.011118   0.001675
   73  C 10  S    0.003102   0.021292   0.072714  -0.046883   0.036278
   74  C 10  X    0.001814  -0.005255  -0.013517  -0.006345  -0.009531
   75  C 10  Y    0.001569   0.010735   0.003582  -0.008377  -0.010457
   76  C 10  Z    0.002419   0.010672  -0.001327   0.000140  -0.008815
   77  H 11  S    0.000091  -0.001570   0.011824  -0.008245   0.006922
   78  H 11  S    0.001197   0.002133  -0.007170   0.001097  -0.005216
   79  O 12  S    0.000029   0.000001  -0.138571   0.100836  -0.015571
   80  O 12  S   -0.000100  -0.000352   0.125965  -0.093651   0.013489
   81  O 12  X   -0.000595   0.000191   0.022065  -0.011059  -0.005433
   82  O 12  Y    0.000064  -0.000049  -0.048098   0.029624  -0.007060
   83  O 12  Z    0.000368  -0.000465   0.040258  -0.026647   0.003383
   84  O 12  S   -0.001201  -0.000350   0.425439  -0.304559   0.054491
   85  O 12  X    0.000916   0.000451   0.023432  -0.011238  -0.002381
   86  O 12  Y   -0.000260   0.000047  -0.053678   0.037133  -0.008734
   87  O 12  Z   -0.001119   0.000601   0.053634  -0.032724   0.007347
   88  C 13  S    0.004178   0.986132  -0.014746   0.014255  -0.007874
   89  C 13  S    0.000754   0.111907   0.016589  -0.014495   0.009242
   90  C 13  X   -0.000141   0.000258   0.006152  -0.003531   0.001290
   91  C 13  Y    0.000051  -0.000610  -0.000503  -0.005305  -0.001320
   92  C 13  Z    0.000208  -0.000217  -0.011394   0.010099  -0.004888
   93  C 13  S   -0.003033  -0.088727   0.016512  -0.023358   0.015016
   94  C 13  X   -0.000819  -0.004135   0.008962  -0.000833   0.004194
   95  C 13  Y    0.000826   0.007386   0.005835   0.001678   0.004885
   96  C 13  Z    0.000298   0.004914   0.002220   0.000216  -0.001203
   97  O 14  S   -0.000004  -0.000102  -0.016116   0.022783  -0.010353
   98  O 14  S   -0.000029  -0.000414   0.015426  -0.021435   0.010130
   99  O 14  X   -0.000033   0.000330   0.008249  -0.010657   0.004687
  100  O 14  Y   -0.000034  -0.000295  -0.005434   0.006621  -0.003223
  101  O 14  Z    0.000022   0.000102  -0.001163   0.001481  -0.000442
  102  O 14  S    0.000163   0.007962   0.044900  -0.066930   0.028778
  103  O 14  X    0.000168   0.000161   0.006664  -0.011001   0.004112
  104  O 14  Y    0.000060  -0.003081  -0.007022   0.008210  -0.002587
  105  O 14  Z   -0.000083   0.000964  -0.001304   0.000968  -0.001204
  106  H 15  S   -0.000266   0.000029   0.036340   0.090108  -0.035372
  107  H 15  S   -0.000201   0.000323   0.006202   0.020873  -0.004469
  108  H 16  S   -0.000073   0.000362   0.015141   0.031218   0.100636
  109  H 16  S    0.000422  -0.000776   0.003007   0.005855   0.024410
  110  H 17  S    0.000052  -0.000310   0.005054  -0.003575   0.002953
  111  H 17  S    0.000396   0.016611   0.000859   0.003237   0.003221
  112  H 18  S    0.000119  -0.000201   0.005218  -0.004375   0.002940
  113  H 18  S    0.000607   0.017037  -0.000976  -0.000277  -0.004918
  114  H 19  S    0.000046  -0.000158   0.009665  -0.012282   0.005379
  115  H 19  S   -0.000316   0.003337   0.004912  -0.005573   0.000467
  116  H 20  S   -0.000066   0.000022   0.007976  -0.004356  -0.001831
  117  H 20  S    0.016473  -0.000112  -0.004038  -0.000676  -0.000147
  118  H 21  S    0.000030  -0.000008   0.008216  -0.003751  -0.001327
  119  H 21  S    0.017237   0.000051   0.000518   0.005213   0.000596
  120  O 22  S   -0.000101  -0.000006  -0.025034   0.024919   0.007735
  121  O 22  S   -0.000427  -0.000063   0.024265  -0.024165  -0.007272
  122  O 22  X   -0.000190   0.000025  -0.010185   0.010087   0.002544
  123  O 22  Y   -0.000423  -0.000009  -0.011102   0.009605   0.003162
  124  O 22  Z   -0.000056   0.000005   0.001825  -0.001081  -0.000651
  125  O 22  S    0.008007   0.000211   0.067402  -0.069849  -0.022749
  126  O 22  X    0.000602  -0.000111  -0.010780   0.010465   0.003405
  127  O 22  Y   -0.002867   0.000021  -0.010777   0.009511   0.002588
  128  O 22  Z    0.001177  -0.000006   0.004102  -0.001271   0.000304
  129  H 23  S   -0.000158   0.000138   0.047071   0.002894  -0.024625
  130  H 23  S   -0.000244  -0.000344   0.002266   0.007742  -0.006394
  131  H 24  S   -0.000182   0.000069   0.012986  -0.013273  -0.003418
  132  H 24  S    0.003041  -0.000329   0.007361  -0.006190   0.000627

                     16         17         18         19         20
                   -1.0009    -0.9919    -0.9860    -0.7930    -0.7733
                     A          A          A          A          A   
    1  O  1  S   -0.132471   0.094357  -0.094237   0.015045  -0.054217
    2  O  1  S    0.123162  -0.086997   0.087566  -0.015780   0.049559
    3  O  1  X    0.015674  -0.008769   0.014574  -0.005541   0.017723
    4  O  1  Y   -0.055224   0.041548  -0.039841  -0.007898  -0.015596
    5  O  1  Z   -0.027349   0.015420  -0.014648   0.003794   0.040397
    6  O  1  S    0.416646  -0.301921   0.300063  -0.040612   0.197767
    7  O  1  X    0.016569  -0.005593   0.015010  -0.003258   0.004428
    8  O  1  Y   -0.061956   0.045339  -0.045549  -0.008286  -0.022080
    9  O  1  Z   -0.036237   0.024874  -0.023067   0.004175   0.017491
   10  C  2  S   -0.030223   0.011856  -0.001164  -0.000472   0.112819
   11  C  2  S    0.029783  -0.014776  -0.001088   0.008387  -0.109385
   12  C  2  X    0.044526  -0.000952   0.056544   0.011464  -0.012618
   13  C  2  Y    0.012590   0.005052   0.003671  -0.085308   0.049001
   14  C  2  Z    0.058051  -0.057912   0.048869   0.022367   0.068686
   15  C  2  S    0.067630  -0.024621   0.009697  -0.044459  -0.299113
   16  C  2  X   -0.007411  -0.000606  -0.007444   0.008882   0.018731
   17  C  2  Y   -0.002114   0.016681   0.004637   0.000985   0.047856
   18  C  2  Z   -0.017557   0.009877  -0.013058  -0.009606   0.021877
   19  C  3  S   -0.025500  -0.070151  -0.022710   0.002135   0.074724
   20  C  3  S    0.027389   0.073969   0.024536   0.000438  -0.077707
   21  C  3  X   -0.003742  -0.009588   0.001681   0.008947   0.035538
   22  C  3  Y    0.019637   0.075718   0.024950  -0.001124   0.053256
   23  C  3  Z    0.005737  -0.012115   0.000307  -0.005626  -0.032940
   24  C  3  S    0.038769   0.134225   0.037624  -0.013550  -0.191564
   25  C  3  X    0.016651  -0.012674   0.015921   0.017719   0.005855
   26  C  3  Y    0.001737  -0.012502  -0.001400  -0.001821   0.022990
   27  C  3  Z    0.010555  -0.008032   0.010467  -0.000863  -0.009411
   28  C  4  S    0.012206  -0.004268   0.010636  -0.100282   0.098774
   29  C  4  S   -0.013847   0.005499  -0.011225   0.096391  -0.099109
   30  C  4  X   -0.007606   0.007974   0.003386  -0.071931   0.000140
   31  C  4  Y    0.016288  -0.012141  -0.000348   0.027723  -0.058468
   32  C  4  Z   -0.007064   0.000839   0.000170   0.009770   0.028587
   33  C  4  S   -0.022084   0.015981  -0.021178   0.275111  -0.243996
   34  C  4  X    0.003583  -0.011593   0.012351  -0.011394   0.028197
   35  C  4  Y   -0.012532  -0.000161  -0.005131   0.043919  -0.000455
   36  C  4  Z    0.024655  -0.009780   0.023733   0.014971   0.007731
   37  H  5  S   -0.002668   0.001744  -0.002028   0.050385  -0.056834
   38  H  5  S    0.005857  -0.002614   0.007170  -0.001528   0.000921
   39  O  6  S    0.053178  -0.030266   0.017307   0.046718  -0.039480
   40  O  6  S   -0.049697   0.028239  -0.015690  -0.042905   0.037102
   41  O  6  X    0.018186  -0.010127   0.006214  -0.016785   0.013011
   42  O  6  Y    0.018062  -0.011871   0.007550   0.049952  -0.057256
   43  O  6  Z    0.006919  -0.004032   0.002901  -0.017842   0.031908
   44  O  6  S   -0.172312   0.098916  -0.060657  -0.176415   0.145018
   45  O  6  X    0.026517  -0.013567   0.011459  -0.002487   0.001216
   46  O  6  Y    0.021075  -0.011230   0.010312   0.030364  -0.042163
   47  O  6  Z    0.011673  -0.008396   0.005614  -0.007580   0.022161
   48  C  7  S   -0.000888   0.001721   0.004192  -0.130524   0.002991
   49  C  7  S    0.001889   0.000104  -0.002131   0.130156  -0.004385
   50  C  7  X   -0.006168   0.000751  -0.006659   0.042714  -0.062007
   51  C  7  Y   -0.020986  -0.001094  -0.013742   0.072588   0.030179
   52  C  7  Z    0.000798  -0.000880   0.006495  -0.015909   0.017014
   53  C  7  S   -0.004836  -0.011855  -0.010657   0.321141  -0.016179
   54  C  7  X   -0.013522  -0.002605  -0.009289   0.012456   0.012969
   55  C  7  Y    0.011096  -0.005860  -0.007612   0.032840  -0.011982
   56  C  7  Z   -0.000757   0.007006  -0.006438  -0.011290   0.006260
   57  H  8  S   -0.000392  -0.000983   0.001809   0.070721   0.003470
   58  H  8  S    0.006155  -0.003013   0.004544  -0.001944   0.007271
   59  O  9  S   -0.035084   0.001781  -0.018960   0.061631   0.001649
   60  O  9  S    0.032446  -0.001563   0.018377  -0.057810  -0.002096
   61  O  9  X   -0.008144   0.000795  -0.005073   0.062460  -0.014198
   62  O  9  Y    0.008330  -0.000491   0.003685   0.036507   0.000250
   63  O  9  Z    0.011054  -0.000493   0.006459  -0.021419   0.003118
   64  O  9  S    0.112437  -0.005763   0.056418  -0.224441  -0.004905
   65  O  9  X   -0.002950   0.000143  -0.004076   0.044549  -0.011933
   66  O  9  Y    0.011729  -0.000554   0.004432   0.014869   0.004544
   67  O  9  Z    0.012047  -0.001398   0.006165  -0.020358   0.001407
   68  C 10  S    0.039255   0.000793   0.019169  -0.096677  -0.103814
   69  C 10  S   -0.038805  -0.000768  -0.022012   0.095936   0.092093
   70  C 10  X   -0.013466   0.002903  -0.037590   0.001287  -0.014459
   71  C 10  Y   -0.026251   0.000405  -0.001842  -0.059796   0.034713
   72  C 10  Z    0.002577  -0.003068   0.023258   0.046416   0.011443
   73  C 10  S   -0.087961   0.007301  -0.042644   0.229497   0.310935
   74  C 10  X    0.001720  -0.001058   0.001486   0.009486   0.020323
   75  C 10  Y   -0.009055  -0.002028   0.007966  -0.002940  -0.005660
   76  C 10  Z   -0.000431  -0.003103  -0.000986   0.034782   0.023760
   77  H 11  S   -0.011640  -0.000684  -0.005034   0.046987   0.053486
   78  H 11  S    0.004414  -0.002855   0.004324   0.001475   0.007952
   79  O 12  S    0.069820  -0.012509   0.099408   0.078399  -0.023033
   80  O 12  S   -0.064258   0.011927  -0.091512  -0.071037   0.019956
   81  O 12  X    0.013771   0.004861  -0.006838  -0.042297  -0.103796
   82  O 12  Y    0.022083  -0.000640   0.036080  -0.017765   0.005442
   83  O 12  Z   -0.017387  -0.003907  -0.020974   0.004316   0.024661
   84  O 12  S   -0.225620   0.039165  -0.325337  -0.287871   0.086480
   85  O 12  X    0.004593   0.008086  -0.012923  -0.031798  -0.065069
   86  O 12  Y    0.027720   0.000835   0.050219  -0.005439  -0.000587
   87  O 12  Z   -0.017719  -0.009699  -0.025164  -0.008558   0.018903
   88  C 13  S    0.057226   0.006977  -0.055732  -0.050348  -0.062273
   89  C 13  S   -0.060451  -0.007432   0.058871   0.054919   0.065310
   90  C 13  X    0.007156   0.001394  -0.020127   0.017457   0.024043
   91  C 13  Y   -0.040885  -0.005470   0.057765  -0.045275  -0.050341
   92  C 13  Z    0.030636   0.002537  -0.021744  -0.013019  -0.024138
   93  C 13  S   -0.099632  -0.010396   0.102391   0.103255   0.137887
   94  C 13  X   -0.004624  -0.000330  -0.001746  -0.013188   0.001056
   95  C 13  Y    0.000227   0.000584  -0.006682  -0.016912  -0.013576
   96  C 13  Z   -0.006266   0.002867  -0.002651   0.011857  -0.004187
   97  O 14  S    0.135430   0.017307  -0.165147   0.025403   0.042158
   98  O 14  S   -0.126970  -0.016188   0.154772  -0.024681  -0.039790
   99  O 14  X   -0.058526  -0.007350   0.069279  -0.012147  -0.015290
  100  O 14  Y    0.033050   0.004146  -0.036793  -0.014806  -0.021721
  101  O 14  Z    0.006540   0.000693  -0.007245   0.009029   0.010607
  102  O 14  S   -0.412242  -0.053316   0.508937  -0.084770  -0.149274
  103  O 14  X   -0.060994  -0.007639   0.072975  -0.008980  -0.014828
  104  O 14  Y    0.039814   0.004271  -0.043211  -0.004688  -0.010720
  105  O 14  Z    0.005241   0.000329  -0.003920   0.005546   0.005298
  106  H 15  S   -0.028345   0.017180  -0.009144  -0.046341   0.049088
  107  H 15  S   -0.007840   0.005069  -0.003412  -0.027037   0.028080
  108  H 16  S    0.019169  -0.000955   0.010759  -0.063790   0.005505
  109  H 16  S    0.004995  -0.001028   0.003098  -0.034658   0.007182
  110  H 17  S   -0.016670  -0.002223   0.016563   0.027558   0.032602
  111  H 17  S    0.004144  -0.000602  -0.001907  -0.008253  -0.000393
  112  H 18  S   -0.016507  -0.002256   0.015547   0.029137   0.033555
  113  H 18  S    0.013740  -0.005316   0.001684   0.002548   0.005262
  114  H 19  S   -0.067835  -0.008658   0.081025  -0.021566  -0.028974
  115  H 19  S   -0.014323   0.000336   0.011188  -0.020610  -0.014606
  116  H 20  S    0.008202   0.019071   0.006982   0.001674  -0.043759
  117  H 20  S    0.000994  -0.010808   0.000773   0.004084  -0.001435
  118  H 21  S    0.007181   0.020076   0.006268   0.001157  -0.038388
  119  H 21  S   -0.006977  -0.001050  -0.005675  -0.005798   0.007644
  120  O 22  S   -0.054756  -0.196569  -0.063651  -0.011972  -0.041238
  121  O 22  S    0.050962   0.184415   0.059236   0.010910   0.039467
  122  O 22  X   -0.018721  -0.072426  -0.021671  -0.001336  -0.022477
  123  O 22  Y   -0.019031  -0.063011  -0.020408   0.000048   0.019564
  124  O 22  Z    0.001989   0.001234   0.001293  -0.001897  -0.008191
  125  O 22  S    0.168489   0.603721   0.198408   0.044442   0.144117
  126  O 22  X   -0.022834  -0.071028  -0.024979  -0.002833  -0.017510
  127  O 22  Y   -0.020720  -0.074254  -0.023491  -0.000346   0.006370
  128  O 22  Z    0.000235   0.002842  -0.000670  -0.004089  -0.004803
  129  H 23  S    0.063443  -0.046725   0.047530  -0.004885   0.041889
  130  H 23  S    0.008634  -0.007682   0.010740  -0.009200   0.035415
  131  H 24  S    0.025319   0.099165   0.029649   0.003488   0.030341
  132  H 24  S    0.000060   0.017954   0.000899  -0.007029   0.022978

                     21         22         23         24         25
                   -0.7048    -0.6432    -0.6184    -0.5803    -0.5561
                     A          A          A          A          A   
    1  O  1  S    0.019319   0.017311   0.004521   0.034049   0.021496
    2  O  1  S   -0.017833  -0.015114  -0.003097  -0.029742  -0.020110
    3  O  1  X    0.003615  -0.026222  -0.052204  -0.068684   0.005748
    4  O  1  Y    0.017867  -0.008990   0.042985   0.018580  -0.047693
    5  O  1  Z   -0.032941  -0.020036  -0.062108  -0.136439   0.043836
    6  O  1  S   -0.075753  -0.072168  -0.026607  -0.145891  -0.083742
    7  O  1  X    0.001778  -0.019749  -0.043751  -0.053536   0.001248
    8  O  1  Y    0.019952  -0.004497   0.039621   0.020719  -0.042271
    9  O  1  Z   -0.022310  -0.006353  -0.045680  -0.107295   0.037892
   10  C  2  S   -0.054163  -0.035872  -0.042338  -0.096740   0.033342
   11  C  2  S    0.053811   0.029650   0.036783   0.091881  -0.028865
   12  C  2  X    0.096801  -0.059131  -0.063923  -0.005206  -0.006085
   13  C  2  Y    0.034428  -0.076554   0.124478  -0.016715  -0.053404
   14  C  2  Z   -0.067892   0.033195  -0.002136   0.060527   0.035666
   15  C  2  S    0.155392   0.134102   0.187609   0.362066  -0.151326
   16  C  2  X    0.029288  -0.020022  -0.052718  -0.002348  -0.001261
   17  C  2  Y   -0.029167  -0.025545   0.040759  -0.049279  -0.023832
   18  C  2  Z   -0.015189   0.015922  -0.003670   0.023008   0.045348
   19  C  3  S   -0.129570   0.095636   0.019741   0.050056  -0.028463
   20  C  3  S    0.129613  -0.092793  -0.017942  -0.044218   0.024819
   21  C  3  X   -0.009712  -0.033499  -0.046875  -0.057613   0.073466
   22  C  3  Y   -0.057246   0.014319   0.017139  -0.004847   0.014377
   23  C  3  Z    0.033156   0.006565   0.023564   0.062080  -0.034230
   24  C  3  S    0.374591  -0.307221  -0.068536  -0.187746   0.121998
   25  C  3  X   -0.009169  -0.006612  -0.017310  -0.005187   0.026441
   26  C  3  Y   -0.039353   0.019818   0.022112   0.021239  -0.007507
   27  C  3  Z    0.015295  -0.008624   0.007516   0.021198  -0.016493
   28  C  4  S    0.048388  -0.076207   0.063493   0.043164   0.009727
   29  C  4  S   -0.039297   0.068736  -0.052080  -0.033774  -0.014310
   30  C  4  X    0.062459   0.068468  -0.083934   0.051181   0.076967
   31  C  4  Y    0.020245   0.040002  -0.006044   0.139699   0.045851
   32  C  4  Z   -0.023108  -0.023344   0.052322   0.033544   0.167081
   33  C  4  S   -0.175896   0.273192  -0.277503  -0.198488  -0.016188
   34  C  4  X    0.024438   0.002502  -0.016896   0.035908   0.054643
   35  C  4  Y   -0.022352   0.021354  -0.041354   0.055574   0.064558
   36  C  4  Z   -0.010276  -0.000063   0.014913   0.033247   0.124656
[...]
   1590    1.41285   -9.89442    1.06400        -9.791544       9.817409       0.025865
   1591    2.32797   -9.68915   -0.55431        -9.862513       9.886528       0.024015
   1592    3.24308   -9.89442    1.06400        -9.324050       9.350242       0.026192
   1593   -0.29051   -8.07084    3.68248       -10.851087      10.879242       0.028154
   1594    0.49774   -9.32885    2.54469       -10.103270      10.130296       0.027026
   1595    0.84728   -7.28259    4.94049       -10.565456      10.593763       0.028307
   1596    1.41285   -8.76328    4.02538        -9.820627       9.849212       0.028585
   1597    2.32797   -9.68915    2.68231        -9.396769       9.424689       0.027920
   1598    0.70966   -5.45236    5.30080       -11.721758      11.748500       0.026742
   1599   -4.69953   -7.53288    4.28129        -9.995037      10.023005       0.027968
   1600   -4.69953   -6.06363    4.86535       -10.617607      10.648725       0.031118
   1601   -8.57602   -3.66782   -1.40694       -10.777224      10.801510       0.024285
   1602   -8.55752   -5.14851   -1.96108       -10.023838      10.045352       0.021515
   1603   -7.66090   -6.06363   -2.88762       -10.046920      10.062294       0.015374
   1604   -7.66090   -4.23340    3.73421       -10.394847      10.428619       0.033773
   1605   -8.57602   -3.66782    2.25352       -10.479140      10.511445       0.032305
   1606   -8.55752   -5.14851    2.80766        -9.668040       9.700010       0.031970
   1607   -9.14159   -5.14851    1.33841        -9.574193       9.604106       0.029914
   1608   -8.93632   -3.53020    0.42329       -10.555404      10.584206       0.028802
   1609   -9.14159   -5.14851   -0.49182        -9.699497       9.725688       0.026191
   1610   -7.08390   -9.00650    0.42329        -8.942577       8.964712       0.022134
   1611   -8.01045   -8.10988    1.33841        -8.869326       8.895999       0.026673
   1612   -8.57602   -6.62920    2.25352        -9.119915       9.150008       0.030093
   1613   -8.01045   -8.10988   -0.49182        -8.991404       9.013925       0.022521
   1614   -8.93632   -6.76682    0.42329        -9.084086       9.111140       0.027055
   1615   -8.57602   -6.62920   -1.40694        -9.367826       9.390007       0.022181
   1616   -6.52976   -9.02500   -1.05739        -9.230236       9.246458       0.016222
   1617   -7.31801   -7.76699   -2.19519        -9.457793       9.473493       0.015700
   1618   -5.61465   -9.59057    0.42329        -9.253054       9.270653       0.017599
   1619   -7.66090   -6.06363    3.73421        -9.516496       9.548424       0.031929
   1620   -7.31801   -7.76699    3.04177        -9.065429       9.094485       0.029056
   1621   -6.52976   -9.02500    1.90398        -9.001770       9.026198       0.024428
   1622   -6.18022   -6.97874    4.29978        -9.628114       9.658555       0.030440
   1623   -5.61465   -8.45943    3.38467        -9.371022       9.397449       0.026427
   1624   -4.69953   -9.38530    2.04160        -9.517743       9.537797       0.020054
   1625   -6.31784   -5.14851    4.66008       -10.369586      10.402728       0.033141
   1626   -5.76963   -1.77624    6.34470       -10.650365      10.668924       0.018559
   1627   -5.76963   -0.30698    6.92877       -10.330311      10.341794       0.011483
   1628   -9.62762    0.60813    0.10234       -10.705275      10.705777       0.000502
   1629   -7.25032    2.43836    6.36320        -9.814089       9.812802      -0.001288
   1630   -8.38811    3.22662    5.10519        -9.772038       9.763841      -0.008197
   1631   -8.73100    1.52325    5.79762        -9.361328       9.363754       0.002426
   1632   -9.64612    2.08882    4.31694        -9.429942       9.427532      -0.002410
   1633   -9.62762    0.60813    4.87108        -9.258627       9.264323       0.005696
   1634  -10.21169    0.60813    3.40182        -9.414319       9.418672       0.004353
   1635  -10.00642    2.22644    2.48671        -9.819960       9.812677      -0.007283
   1636  -10.21169    0.60813    1.57159        -9.923582       9.925872       0.002290
   1637   -9.08055   -2.35324    3.40182       -10.003729      10.025096       0.021367
   1638   -9.64612   -0.87255    4.31694        -9.412267       9.424479       0.012212
   1639   -9.08055   -2.35324    1.57159       -10.631184      10.654913       0.023728
   1640  -10.00642   -1.01018    2.48671        -9.765537       9.778083       0.012546
   1641   -9.64612   -0.87255    0.65648       -10.510949      10.522821       0.011872
   1642   -8.73100   -0.30698    5.79762        -9.365534       9.375805       0.010271
   1643   -8.38811   -2.01035    5.10519        -9.773879       9.792342       0.018464
   1644   -7.59986   -3.26835    3.96739       -10.720912      10.751661       0.030749
   1645   -7.25032   -1.22210    6.36320        -9.852228       9.866991       0.014764
   1646   -6.68475   -2.70278    5.44808       -10.582662      10.606684       0.024022
   1647   -7.38794    0.60813    6.72350        -9.629288       9.636403       0.007115
   1648   -2.58352   -0.68958    6.80682       -11.668346      11.681755       0.013409
   1649   -1.10284   -0.13544    6.82532       -11.877560      11.886782       0.009222
   1650   -2.58352    0.77968    7.39089       -10.964708      10.970888       0.006180
   1651   -0.96521    1.69479    7.18562       -11.201581      11.202164       0.000583
   1652   -2.58352    2.60991    7.39089       -10.601583      10.600743      -0.000840
   1653   -1.10284    3.52502    6.82532       -10.955556      10.949202      -0.006354
   1654   -2.58352    4.07916    6.80682       -10.623059      10.616407      -0.006652
   1655    0.03496    4.31327    5.56731       -11.774344      11.758638      -0.015707
   1656   -0.75330    5.57128    4.42952       -11.960818      11.943389      -0.017428
   1657   -1.66841    5.00571    5.91020       -11.035157      11.023554      -0.011603
   1658   -0.15454    7.48015    0.52852       -12.027213      12.018700      -0.008513
   1659   -1.08109    8.37677   -0.38659       -11.084722      11.081716      -0.003006
   1660   -0.84698    7.13726    2.23189       -11.865961      11.853040      -0.012921
   1661   -1.63523    8.39527    1.09409       -10.849779      10.841886      -0.007894
   1662   -3.46546    6.90315   -4.24459       -11.043528      11.046214       0.002686
   1663   -3.46546    5.43389   -4.82865       -11.941290      11.943245       0.001955
   1664   -1.63523    8.39527   -1.86728       -10.915725      10.917375       0.001650
   1665   -2.55034    7.82969   -3.34797       -10.895039      10.899182       0.004143
   1666   -2.55034    8.96084   -0.38659       -10.329830      10.325380      -0.004449
   1667   -3.46546    8.75557   -2.00490       -10.179762      10.177543      -0.002219
   1668   -4.38057    7.82969   -3.34797       -10.330139      10.327826      -0.002313
   1669   -4.94614    6.34901   -4.26308       -10.855176      10.851483      -0.003693
   1670    2.85871   -2.31143   -8.58247       -10.220220      10.226064       0.005844
   1671    4.33940   -1.75729   -8.60097        -9.872970       9.876501       0.003531
   1672    5.82009   -0.84218   -8.03540        -9.847749       9.848035       0.000286
   1673    3.77383   -3.23798   -7.68585       -10.416275      10.423795       0.007520
   1674    5.47720   -2.54554   -7.34296       -10.154996      10.159698       0.004702
   1675    4.68894   -3.80355   -6.20517       -10.993868      11.002661       0.008793
   1676    2.85871    2.45731   -8.58247       -10.612669      10.605329      -0.007339
   1677    4.33940    1.90317   -8.60097       -10.186940      10.178910      -0.008030
   1678    5.82009    0.98805   -8.03540       -10.018944      10.012887      -0.006057
   1679    2.85871    0.98805   -9.16654       -10.130326      10.128517      -0.001809
   1680    4.47702    0.07294   -8.96127        -9.797284       9.796197      -0.001087
   1681    2.85871   -0.84218   -9.16654        -9.999195      10.001831       0.002635
   1682    1.37803    1.90317   -8.60097       -10.894628      10.892687      -0.001941
   1683   -0.10266    0.98805   -8.03540       -11.631808      11.632848       0.001040
   1684   -0.99928    0.07294   -7.10885       -12.725891      12.727281       0.001389
   1685   -0.10266   -0.84218   -8.03540       -11.515103      11.519502       0.004399
   1686    1.24040    0.07294   -8.96127       -10.559453      10.561444       0.001991
   1687    1.37803   -1.75729   -8.60097       -10.634727      10.640403       0.005676
   1688   -1.01777   -1.40775   -6.55471       -13.253891      13.259870       0.005978
   1689    1.94360   -3.23798   -7.68585       -10.982734      10.992063       0.009328
   1690    0.24023   -2.54554   -7.34296       -11.875094      11.884236       0.009142
   1691    8.10660   -0.29457    1.00779       -11.118665      11.118343      -0.000322
   1692    9.00322    0.62054    0.08124       -10.282895      10.280404      -0.002491
   1693    8.10660    1.53566    1.00779       -10.949636      10.943500      -0.006137
   1694    7.52960   -3.23745   -2.30313       -11.132365      11.134091       0.001726
   1695    8.45614   -2.34083   -1.38801       -10.599920      10.601260       0.001340
   1696    9.02171   -0.86014   -0.47290       -10.285609      10.285968       0.000358
   1697    9.02171    2.10123   -0.47290       -10.139724      10.131984      -0.007741
   1698    8.45614    3.58192   -1.38801       -10.372092      10.354660      -0.017432
   1699    7.76371    3.23903    0.31535       -11.012083      10.995563      -0.016520
   1700    9.38202    2.23885   -2.30313        -9.748636       9.740086      -0.008550
   1701    9.58729    0.62054   -1.38801        -9.768025       9.765568      -0.002457
   1702    9.02171    2.10123   -4.13336        -9.740365       9.730822      -0.009543
   1703    9.58729    0.62054   -3.21824        -9.550133       9.547163      -0.002970
   1704    9.00322    0.62054   -4.68750        -9.654712       9.650837      -0.003874
   1705    8.45614   -2.34083   -3.21824       -10.226263      10.228888       0.002625
   1706    9.02171   -0.86014   -4.13336        -9.722232       9.722534       0.000301
   1707    9.38202   -0.99777   -2.30313        -9.808861       9.809636       0.000775
   1708    8.10660   -0.29457   -5.61404        -9.971325       9.969787      -0.001537
   1709    7.76371   -1.99794   -4.92161       -10.285318      10.288091       0.002772
   1710    6.97545   -3.25594   -3.78381       -11.123625      11.127976       0.004350
   1711    6.63753    4.89391    0.55340       -11.189980      11.160355      -0.029625
   1712    4.91006    5.96154    1.21323       -11.528450      11.493465      -0.034985
   1713    3.18259    6.60804    1.19165       -11.937776      11.905025      -0.032752
   1714    7.70516    5.55374   -1.17407       -10.104274      10.076058      -0.028217
   1715    7.04533    7.28121   -2.24170        -9.486714       9.456179      -0.030535
   1716    5.96436    8.32727   -3.30934        -9.243767       9.214995      -0.028773
   1717    6.23749    6.88117   -0.25444       -10.219069      10.187391      -0.031678
   1718    5.31786    8.34884   -1.58187        -9.687726       9.658580      -0.029146
   1719    4.25023    7.68901    0.14560       -10.612091      10.582239      -0.029852
   1720    7.04533    7.28121   -4.37697        -9.126935       9.097771      -0.029164
   1721    8.12552    5.71430   -3.30934        -9.523780       9.496231      -0.027549
   1722    8.36500    3.82627   -2.24170       -10.357450      10.337011      -0.020439
   1723    7.70516    5.55374   -5.44461        -9.276037       9.249558      -0.026479
   1724    8.36500    3.82627   -4.37697        -9.873771       9.852815      -0.020956
   1725    7.68358    3.82627   -6.09110        -9.669656       9.648337      -0.021319
   1726    3.18259    6.60804   -7.81033        -9.461621       9.445457      -0.016164
   1727    4.91006    5.96154   -7.83191        -9.280626       9.259032      -0.021594
   1728    6.63753    4.89391   -7.17207        -9.355060       9.331576      -0.023484
   1729    3.18259    4.89391   -8.49174        -9.810820       9.796454      -0.014366
   1730    5.07062    3.82627   -8.25226        -9.776934       9.759149      -0.017785
   1731    3.18259    2.75864   -8.49174       -10.567212      10.557505      -0.009707
   1732    5.31786    8.34884   -5.03681        -9.083592       9.057728      -0.025864
   1733    6.23749    6.88117   -6.36423        -9.054958       9.028539      -0.026419
   1734    4.25023    7.68901   -6.76427        -9.161081       9.139853      -0.021229
   1735    4.25023    9.00868   -3.30934        -9.427340       9.403430      -0.023910
   1736    2.11496    9.00868   -3.30934        -9.968789       9.954801      -0.013988
   1737    3.18259    8.76920   -1.42131       -10.160345      10.137930      -0.022415
   1738    1.04733    8.34884   -1.58187       -11.058408      11.048348      -0.010060
   1739    2.11496    7.68901    0.14560       -11.457367      11.435115      -0.022252
   1740    3.18259    8.76920   -5.19737        -9.385746       9.367946      -0.017800
   1741    2.11496    7.68901   -6.76427        -9.615962       9.604380      -0.011582
   1742    1.45513    5.96154   -7.83191       -10.057605      10.050102      -0.007503
   1743    1.29456    3.82627   -8.25226       -10.761385      10.756167      -0.005218
   1744    2.81218   -2.72485    6.16218       -11.568040      11.583340       0.015301
   1745    4.29287   -2.17070    6.18067       -10.920561      10.932563       0.012002
   1746    5.77355   -1.25559    5.61510       -10.594126      10.602479       0.008353
   1747    6.67017   -0.34047    4.68855       -10.647000      10.651690       0.004690
   1748    2.81218   -1.25559    6.74624       -11.195506      11.207060       0.011554
   1749    4.43049   -0.34047    6.54098       -10.659337      10.666968       0.007630
   1750    5.77355    0.57464    5.61510       -10.574086      10.577238       0.003153
   1751    2.81218    0.57464    6.74624       -11.196897      11.200522       0.003625
   1752    6.68867   -1.82116    4.13441       -10.936399      10.941821       0.005422
   1753    6.68867    1.14021    4.13441       -10.892049      10.890620      -0.001429
   1754    7.25424   -0.34047    3.21930       -11.085207      11.087522       0.002315
   1755    1.33149   -2.17070    6.18067       -12.236395      12.253170       0.016775
   1756    0.43764    8.67861   -3.49983       -10.363582      10.359829      -0.003753
   1757   -1.03161    8.09454   -3.49983       -10.854982      10.858379       0.003397
   1758   -0.47747    8.11304   -2.01914       -11.317759      11.318398       0.000639
   1759    0.43764    7.54747   -0.53846       -12.085981      12.077783      -0.008197
   1760   -0.47747    8.11304   -4.98052       -10.245320      10.246299       0.000979
   1761    1.35276    8.47334   -5.11814        -9.928863       9.921218      -0.007645
   1762    0.43764    7.54747   -6.46120        -9.954629       9.952091      -0.002538
   1763   -1.95816    7.19792   -4.41495       -11.139984      11.146135       0.006152
   1764   -1.26572    6.85503   -6.11831       -10.496115      10.499368       0.003253
   1765   -0.12793    6.06678   -7.37632       -10.294347      10.294102      -0.000245
   1766   -2.52373    5.71724   -5.33006       -11.676099      11.680764       0.004666
   1767   -1.60861    5.15166   -6.81075       -11.083791      11.086677       0.002886
   1768   -1.60861    3.32144   -6.81075       -12.175610      12.176030       0.000420
   1769   -0.26555    4.23655   -7.73662       -11.006832      11.007088       0.000256
   1770   -0.12793    2.40632   -7.37632       -12.253968      12.254436       0.000468

 NET CHARGES:
 -------------------------------------
 ATOM                CHARGE    E.S.D.
 -------------------------------------
 O                  -0.5683    0.0278
 C                   0.4018    0.1966
 C                   0.0875    0.2049
 C                   0.0784    0.2273
 H                   0.0970    0.0235
 O                  -0.6674    0.0248
 C                   0.2394    0.2107
 H                   0.0183    0.0182
 O                  -0.6239    0.0175
 C                  -0.0560    0.2732
 H                   0.1230    0.0223
 O                  -0.3972    0.0497
 C                   0.2285    0.1880
 O                  -0.6167    0.0137
 H                   0.4644    0.0061
 H                   0.4031    0.0037
 H                   0.0351    0.0154
 H                   0.0099    0.0175
 H                   0.4096    0.0048
 H                   0.0120    0.0183
 H                   0.0959    0.0181
 O                  -0.5631    0.0174
 H                   0.4090    0.0074
 H                   0.3798    0.0055
 -------------------------------------

 RMS DEVIATION IS            0.940 KCAL/MOLE
 RELATIVE RMS DEVIATION IS   6.763 %

 MULTIPOLE MOMENTS:
 ---------------------------------------------------------
 STATUS  ACTUAL VALUE       QUANTITY        FITTED VALUE 
 ---------------------------------------------------------
 FIXED       0.0000       TOTAL CHARGE         0.0000
             5.5591 D    DIPOLE MOMENT         5.5129 D
 FREE       -1.1317 D          DX             -1.0925 D
 FREE       -5.3398 D          DY             -5.2997 D
 FREE        1.0536 D          DZ              1.0542 D
 FREE        0.0000 BU         QXX            -4.6319 BU
 FREE        0.0000 BU         QYY            -0.0404 BU
 FREE        0.0000 BU         QZZ             4.6724 BU
 FREE        0.0000 BU         QXY             0.7702 BU
 FREE        0.0000 BU         QXZ             1.0912 BU
 FREE        0.0000 BU         QYZ            -8.4715 BU
 ---------------------------------------------------------
 ...... END OF PROPERTY EVALUATION ......
 CPU     0: STEP CPU TIME=     0.75 TOTAL CPU TIME=         26.8 (      0.4 MIN)
 TOTAL WALL CLOCK TIME=         54.2 SECONDS, CPU UTILIZATION IS    49.44%
               956059  WORDS OF DYNAMIC MEMORY USED
 EXECUTION OF GAMESS TERMINATED NORMALLY Fri May 22 14:49:16 2020
 DDI: 263640 bytes (0.3 MB / 0 MWords) used by master data server.
Note: The following floating-point exceptions are signalling: IEEE_UNDERFLOW_FLAGNote: The following floating-point exceptions are signalling: IEEE_UNDERFLOW_FLAGNote: The following floating-point exceptions are signalling: IEEE_UNDERFLOW_FLAG IEEE_DENORMAL
Note: The following floating-point exceptions are signalling: IEEE_UNDERFLOW_FLAG IEEE_DENORMALNote: The following floating-point exceptions are signalling: IEEE_UNDERFLOW_FLAGNote: The following floating-point exceptions are signalling: IEEE_UNDERFLOW_FLAG
 ----------------------------------------
 CPU timing information for all processes
 ========================================
 0: 26.420 + 0.370 = 26.790
 1: 26.960 + 0.102 = 27.62
 2: 27.39 + 0.86 = 27.126
 3: 26.546 + 0.66 = 26.612
 4: 26.442 + 0.125 = 26.567
 5: 26.721 + 0.54 = 26.775
 6: 26.497 + 0.98 = 26.596
 7: 25.70 + 0.73 = 25.144
 ----------------------------------------
 IEEE_DENORMAL
 IEEE_DENORMAL

 IEEE_DENORMAL
 IEEE_DENORMAL
Note: The following floating-point exceptions are signalling: IEEE_UNDERFLOW_FLAGNote: The following floating-point exceptions are signalling: IEEE_UNDERFLOW_FLAG IEEE_DENORMAL
 IEEE_DENORMAL
 ddikick.x: exited gracefully.
unset echo
----- accounting info -----
Files used on the master node pietdev were:
-rwxr-xr-x 1 piet piet     1506 mei 22 14:48 /home/piet/scr/beta-d-fructofuranose_charge_geodisk.F05*
-rw-r--r-- 1 piet piet 50790400 mei 22 14:49 /home/piet/scr/beta-d-fructofuranose_charge_geodisk.F10
ls: No match.
ls: No match.
ls: No match.
vr 22 mei 2020 14:49:19 CEST
0.137u 0.019s 0:57.34 0.2%	0+0k 0+8io 0pf+0w
