----- GAMESS execution script 'rungms' -----
This job is running on host pietdev
under operating system Linux at vr 22 mei 2020 14:49:39 CEST
Available scratch disk space (Kbyte units) at beginning of the job is
Filesystem     1K-blocks     Used Available Use% Mounted on
/dev/sda2      244568380 31372532 200702792  14% /
GAMESS temporary binary files will be written to /home/piet/scr
GAMESS supplementary output files will be written to /home/piet/gamess/scr
Copying input file beta-d-fructofuranose_fukui_neu.inp to your run's scratch directory...
cp beta-d-fructofuranose_fukui_neu.inp /home/piet/scr/beta-d-fructofuranose_fukui_neu.F05
unset echo
 
Assuming a single but multicore node.
 
/home/piet/gamess/ddikick.x /home/piet/gamess/gamess.03.x beta-d-fructofuranose_fukui_neu -ddi 1 8 pietdev:cpus=8 -scr /home/piet/scr

 Distributed Data Interface kickoff program.
 Initiating 8 compute processes on 1 nodes to run the following command:
 /home/piet/gamess/gamess.03.x beta-d-fructofuranose_fukui_neu 

          ******************************************************
          *         GAMESS VERSION = 30 SEP 2019 (R2)          *
          *             FROM IOWA STATE UNIVERSITY             *
          * M.W.SCHMIDT, K.K.BALDRIDGE, J.A.BOATZ, S.T.ELBERT, *
          *   M.S.GORDON, J.H.JENSEN, S.KOSEKI, N.MATSUNAGA,   *
          *          K.A.NGUYEN, S.J.SU, T.L.WINDUS,           *
          *       TOGETHER WITH M.DUPUIS, J.A.MONTGOMERY       *
          *         J.COMPUT.CHEM.  14, 1347-1363(1993)        *
          **************** 64 BIT LINUX VERSION ****************

  SINCE 1993, STUDENTS AND POSTDOCS WORKING AT IOWA STATE UNIVERSITY
  AND ALSO IN THEIR VARIOUS JOBS AFTER LEAVING ISU HAVE MADE IMPORTANT
  CONTRIBUTIONS TO THE CODE:
     IVANA ADAMOVIC, CHRISTINE AIKENS, YURI ALEXEEV, POOJA ARORA,
     ANDREY ASADCHEV, ROB BELL, PRADIPTA BANDYOPADHYAY, JONATHAN BENTZ,
     COLLEEN BERTONI, BRETT BODE, KURT BRORSEN, CALEB CARLIN, GALINA CHABAN,
     WEI CHEN, CHEOL HO CHOI, PAUL DAY, ALBERT DEFUSCO, NUWAN DESILVA,
     TIM DUDLEY, DMITRI FEDOROV, ALEX FINDLATER, GRAHAM FLETCHER, 
     MARK FREITAG, KURT GLAESEMANN, EMILIE B GUIDEZ, ANASTASIA GUNINA, 
     DAN KEMP, SAROM SOK LEANG, GRANT MERRILL,
     NORIYUKI MINEZAWA, JONATHAN MULLIN,
     TAKESHI NAGATA, SEAN NEDD, HEATHER NETZLOFF, BOSILJKA NJEGIC, RYAN OLSON,
     MIKE PAK, BUU PHAM, DAVID POOLE,
     SPENCER PRUITT, LUKE ROSKOP, TOSAPORN SATTASATHUCHANA,
     JIM SHOEMAKER, LYUDMILA SLIPCHENKO,
     TONY SMITH, JIE SONG, TETSUYA TAKETSUGU, SIMON WEBB,
     JORGE LUIS GALVEZ VALLEJO, PENG XU, SOOHAENG YOO,
     FEDERICO ZAHARIEV

  ADDITIONAL CODE HAS BEEN PROVIDED BY COLLABORATORS IN OTHER GROUPS:
     IOWA STATE UNIVERSITY:
          JOE IVANIC, AARON WEST, LAIMUTIS BYTAUTAS, KLAUS RUEDENBERG
     UNIVERSITY OF TOKYO: KIMIHIKO HIRAO, TAKAHITO NAKAJIMA,
          TAKAO TSUNEDA, MUNEAKI KAMIYA, SUSUMU YANAGISAWA,
          KIYOSHI YAGI, MAHITO CHIBA, SEIKEN TOKURA, NAOAKI KAWAKAMI
     UNIVERSITY OF AARHUS: FRANK JENSEN
     UNIVERSITY OF IOWA: VISVALDAS KAIRYS, HUI LI
     NATIONAL INST. OF STANDARDS AND TECHNOLOGY: WALT STEVENS, DAVID GARMER
     UNIVERSITY OF PISA: BENEDETTA MENNUCCI, JACOPO TOMASI
     UNIVERSITY OF MEMPHIS: HENRY KURTZ, PRAKASHAN KORAMBATH
     UNIVERSITY OF ALBERTA: TOBY ZENG, MARIUSZ KLOBUKOWSKI
     UNIVERSITY OF NEW ENGLAND: MARK SPACKMAN
     MIE UNIVERSITY: HIROAKI UMEDA
     NAT. INST. OF ADVANCED INDUSTRIAL SCIENCE AND TECHNOLOGY: KAZUO KITAURA
     MICHIGAN STATE UNIVERSITY:
          KAROL KOWALSKI, MARTA WLOCH, JEFFREY GOUR, JESSE LUTZ,
          WEI LI, JUN SHEN, J. EMILIANO DEUSTUA, PIOTR PIECUCH
     UNIVERSITY OF MINNESOTA:
          ANDREW SAND, PRACHI SHARMA, YINAN SHU
     UNIVERSITY OF SILESIA: MONIKA MUSIAL, STANISLAW KUCHARSKI
     FACULTES UNIVERSITAIRES NOTRE-DAME DE LA PAIX:
          OLIVIER QUINET, BENOIT CHAMPAGNE
     UNIVERSITY OF CALIFORNIA - SANTA BARBARA: BERNARD KIRTMAN
     INSTITUTE FOR MOLECULAR SCIENCE:
          KAZUYA ISHIMURA, MICHIO KATOUDA, AND SHIGERU NAGASE
     UNIVERSITY OF NOTRE DAME: ANNA POMOGAEVA, DAN CHIPMAN
     KYUSHU UNIVERSITY:
          HARUYUKI NAKANO,
          FENG LONG GU, JACEK KORCHOWIEC, MARCIN MAKOWSKI, AND YURIKO AOKI,
          HIROTOSHI MORI AND EISAKU MIYOSHI
     PENNSYLVANIA STATE UNIVERSITY:
          TZVETELIN IORDANOV, CHET SWALINA, JONATHAN SKONE,
          SHARON HAMMES-SCHIFFER
     WASEDA UNIVERSITY:
          MASATO KOBAYASHI, TOMOKO AKAMA, TSUGUKI TOUMA,
          TAKESHI YOSHIKAWA, YASUHIRO IKABATA, JUNJI SEINO,
          YUYA NAKAJIMA, HIROMI NAKAI
     NANJING UNIVERSITY: SHUHUA LI
     UNIVERSITY OF NEBRASKA:
          PEIFENG SU, DEJUN SI, NANDUN THELLAMUREGE, YALI WANG, HUI LI
     UNIVERSITY OF ZURICH: ROBERTO PEVERATI, KIM BALDRIDGE
     N. COPERNICUS UNIVERSITY AND JACKSON STATE UNIVERSITY:
          MARIA BARYSZ
     UNIVERSITY OF COPENHAGEN: Jimmy Kromann, CASPER STEINMANN
     TOKYO INSTITUTE OF TECHNOLOGY: HIROYA NAKATA
     NAGOYA UNIVERSITY: YOSHIO NISHIMOTO, STEPHAN IRLE
     MOSCOW STATE UNIVERSITY: VLADIMIR MIRONOV
     A.N.NESMEYANOV INSTITUTE OF ORGANOELEMENT COMPOUNDS OF RUSSIAN ACADEMY OF SCIENCES:
          IGOR S. GERASIMOV
     JOHANNES KEPLER UNIVERSITY LINZ:
          CHRISTIAN FRIEDL


 PARALLEL VERSION RUNNING ON        8 PROCESSORS IN        1 NODES.

 EXECUTION OF GAMESS BEGUN Fri May 22 14:49:40 2020

            ECHO OF THE FIRST FEW INPUT CARDS -
 INPUT CARD> $BASIS GBASIS=N21 NGAUSS=3 $END                                                
 INPUT CARD> $CONTRL SCFTYP=RHF MAXIT=60 MULT=1 ICHARG=0 $END                               
 INPUT CARD> $SYSTEM MEMDDI=1000 MWORDS=30 $END                                             
 INPUT CARD> $SCF DIRSCF=.TRUE. $END                                                        
 INPUT CARD> $DATA                                                                          
 INPUT CARD>                                                                                
 INPUT CARD>C1                                                                              
 INPUT CARD>O 8.0000000 0.9930867785 0.5913392020 0.8105323961                              
 INPUT CARD>C 6.0000000 0.7010498367 0.1415178444 -0.5260473667                             
 INPUT CARD>C 6.0000000 1.7215147094 0.5872719420 -1.5684404004                             
 INPUT CARD>C 6.0000000 0.4185177329 -1.3617034451 -0.4526579820                            
 INPUT CARD>H 1.0000000 0.3549723891 -1.8135832322 -1.4475742556                            
 INPUT CARD>O 8.0000000 1.4599728525 -1.9346016562 0.3847450356                             
 INPUT CARD>C 6.0000000 -0.9810804109 -1.4029871373 0.1858769112                            
 INPUT CARD>H 1.0000000 -0.8421148092 -1.3619316259 1.2750657782                            
 INPUT CARD>O 8.0000000 -1.6157115261 -2.6358132754 -0.2482617345                           
 INPUT CARD>C 6.0000000 -1.6545880794 -0.0943432616 -0.2950190208                           
 INPUT CARD>H 1.0000000 -2.4127098276 -0.2937437984 -1.0550097955                           
 INPUT CARD>O 8.0000000 -0.5704071129 0.7006312015 -0.9575299388                            
 INPUT CARD>C 6.0000000 -2.1844509506 0.7828496686 0.8364831382                             
 INPUT CARD>O 8.0000000 -2.6288728004 2.0573714167 0.2981524056                             
 INPUT CARD>H 1.0000000 1.2319083567 -2.8852660578 0.5630465043                             
 INPUT CARD>H 1.0000000 -2.4868846993 -2.7244746353 0.2239967896                            
 INPUT CARD>H 1.0000000 -3.0531577084 0.3218107431 1.3159089087                             
 INPUT CARD>H 1.0000000 -1.3671422978 0.8968449019 1.5604539514                             
 INPUT CARD>H 1.0000000 -1.8338416173 2.3912344120 -0.2045766044                            
 INPUT CARD>H 1.0000000 1.5127665951 0.0385970079 -2.5000872641                             
 INPUT CARD>H 1.0000000 2.7227363124 0.3283780725 -1.2187620822                             
 INPUT CARD>O 8.0000000 1.6841559845 2.0247772221 -1.7512261942                             
 INPUT CARD>H 1.0000000 1.4881409331 -0.1801714957 1.2193216995                             
 INPUT CARD>H 1.0000000 0.7158494590 2.2418859861 -1.8520306793                             
 INPUT CARD> $END                                                                           
   30000000 WORDS OF MEMORY AVAILABLE

     BASIS OPTIONS
     -------------
     GBASIS=N21          IGAUSS=       3      POLAR=NONE    
     NDFUNC=       0     NFFUNC=       0     DIFFSP=       F
     NPFUNC=       0      DIFFS=       F     BASNAM=        


     RUN TITLE
     ---------
                                                                                 

 THE POINT GROUP OF THE MOLECULE IS C1      
 THE ORDER OF THE PRINCIPAL AXIS IS     0

 ATOM      ATOMIC                      COORDINATES (BOHR)
           CHARGE         X                   Y                   Z
 O           8.0     1.8766618934        1.1174690576        1.5316841328
 C           6.0     1.3247920951        0.2674299483       -0.9940853796
 C           6.0     3.2531910846        1.1097830507       -2.9639225848
 C           6.0     0.7908838362       -2.5732463878       -0.8553995521
 H           1.0     0.6708005486       -3.4271753648       -2.7355186900
 O           8.0     2.7589486407       -3.6558670256        0.7270626924
 C           6.0    -1.8539731485       -2.6512612538        0.3512564296
 H           1.0    -1.5913662396       -2.5736775870        2.4095249371
 O           8.0    -3.0532520595       -4.9809648453       -0.4691466514
 C           6.0    -3.1267180926       -0.1782829132       -0.5575051105
 H           1.0    -4.5593604620       -0.5550952896       -1.9936794279
 O           8.0    -1.0779131448        1.3240009893       -1.8094692094
 C           6.0    -4.1280137303        1.4793713632        1.5807239245
 O           8.0    -4.9678492493        3.8878682325        0.5634263492
 H           1.0     2.3279692361       -5.4523622509        1.0640036115
 H           1.0    -4.6995306447       -5.1485105212        0.4232925545
 H           1.0    -5.7696314662        0.6081341244        2.4867072622
 H           1.0    -2.5835243291        1.6947911181        2.9488303846
 H           1.0    -3.4654581616        4.5187778111       -0.3865937258
 H           1.0     2.8587143481        0.0729377689       -4.7244798745
 H           1.0     5.1452255673        0.6205445774       -2.3031263796
 O           8.0     3.1825933313        3.8262741359       -3.3093376496
 H           1.0     2.8121785947       -0.3404747577        2.3041839029
 H           1.0     1.3527593260        4.2365502094       -3.4998305047

          INTERNUCLEAR DISTANCES (ANGS.)
          ------------------------------

                1 O          2 C          3 C          4 C          5 H     

   1 O       0.0000000    1.4401633 *  2.4879983 *  2.3958621 *  3.3600428  
   2 C       1.4401633 *  0.0000000    1.5253290 *  1.5313016 *  2.1889270 *
   3 C       2.4879983 *  1.5253290 *  0.0000000    2.5963968 *  2.7651676 *
   4 C       2.3958621 *  1.5313016 *  2.5963968 *  0.0000000    1.0945738 *
   5 H       3.3600428    2.1889270 *  2.7651676 *  1.0945738 *  0.0000000  
   6 O       2.6037770 *  2.3907696 *  3.2004975    1.4539893 *  2.1431438 *
   7 C       2.8748684 *  2.3920481 *  3.7871864    1.5389302 *  2.1498346 *
   8 H       2.7201145 *  2.8081535 *  4.2961748    2.1387435 *  3.0082845  
   9 O       4.2826845    3.6274118    4.8237153    2.4089878 *  2.4490831 *
  10 C       2.9500147 *  2.3786623 *  3.6720936    2.4349168 *  2.8848749 *
  11 H       3.9828470    3.1882210    4.2581231    3.0853225    3.1818365  
  12 O       2.3627320 *  1.4544373 *  2.3746510 *  2.3422409 *  2.7235537 *
  13 C       3.1834094    3.2548288    4.5911301    3.6106009    4.2903441  
  14 O       3.9408597    3.9291456    4.9569378    4.6411613    5.1899117  
  15 H       3.4935754    3.2602695    4.1038361    2.0036225 *  2.4413350 *
  16 H       4.8424009    4.3519428    5.6472225    3.2796906    3.4205299  
  17 H       4.0865811    4.1856162    5.5845714    4.2443585    4.8797641  
  18 H       2.4952750 *  3.0333851    4.4074502    3.5131527    4.4000379  
  19 H       3.5016558    3.4044446    4.2136639    4.3839719    4.9006572  
  20 H       3.3964384    2.1368927 *  1.1011748 *  2.7111231 *  2.4246325 *
  21 H       2.6793417 *  2.1452241 *  1.0916710 *  2.9584987 *  3.2010403  
  22 O       3.0157799    2.4523920 *  1.4495612 *  3.8414022    4.0733211  
  23 H       1.0037012 *  1.9414710 *  2.9008706 *  2.3098977 *  3.3263251  
  24 H       3.1449018    2.4839479 *  1.9569194 *  3.8771777    4.0915337  

                6 O          7 C          8 H          9 O         10 C     

   1 O       2.6037770 *  2.8748684 *  2.7201145 *  4.2826845    2.9500147 *
   2 C       2.3907696 *  2.3920481 *  2.8081535 *  3.6274118    2.3786623 *
   3 C       3.2004975    3.7871864    4.2961748    4.8237153    3.6720936  
   4 C       1.4539893 *  1.5389302 *  2.1387435 *  2.4089878 *  2.4349168 *
   5 H       2.1431438 *  2.1498346 *  3.0082845    2.4490831 *  2.8848749 *
   6 O       0.0000000    2.5061731 *  2.5338172 *  3.2174881    3.6809129  
   7 C       2.5061731 *  0.0000000    1.0987854 *  1.4529602 *  1.5483612 *
   8 H       2.5338172 *  1.0987854 *  0.0000000    2.1311389 *  2.1753297 *
   9 O       3.2174881    1.4529602 *  2.1311389 *  0.0000000    2.5421974 *
  10 C       3.6809129    1.5483612 *  2.1753297 *  2.5421974 *  0.0000000  
  11 H       4.4455573    2.1954005 *  3.0061680    2.6021795 *  1.0918311 *
  12 O       3.5872827    2.4292472 *  3.0516347    3.5675740    1.4987840 *
  13 C       4.5684170    2.5786182 *  2.5679384 *  3.6314449    1.5266038 *
  14 O       5.7150683    3.8343066    3.9797609    4.8322921    2.4353561 *
  15 H       0.9937644 *  2.6901165 *  2.6700358 *  2.9714284 *  4.1057750  
  16 H       4.0283277    2.0038036 *  2.3804490 *  0.9949028 *  2.8070779 *
  17 H       5.1309658    2.9232524 *  2.7794545 *  3.6414861    2.1735386 *
  18 H       4.1703670    2.7069786 *  2.3364870 *  3.9765453    2.1231719 *
  19 H       5.4689461    3.9084233    4.1544096    5.0319676    2.4936736 *
  20 H       3.4955053    3.9385075    4.6646251    4.6915417    3.8616233  
  21 H       3.0474389    4.3230654    4.6673855    5.3432603    4.4936581  
  22 O       4.5043659    4.7545160    5.1971419    5.9050090    4.2140744  
  23 H       1.9430226 *  2.9428456 *  2.6133802 *  4.2211228    3.4896046  
  24 H       4.7958247    4.5075202    5.0193113    5.6391667    3.6744015  

               11 H         12 O         13 C         14 O         15 H     

   1 O       3.9828470    2.3627320 *  3.1834094    3.9408597    3.4935754  
   2 C       3.1882210    1.4544373 *  3.2548288    3.9291456    3.2602695  
   3 C       4.2581231    2.3746510 *  4.5911301    4.9569378    4.1038361  
   4 C       3.0853225    2.3422409 *  3.6106009    4.6411613    2.0036225 *
   5 H       3.1818365    2.7235537 *  4.2903441    5.1899117    2.4413350 *
   6 O       4.4455573    3.5872827    4.5684170    5.7150683    0.9937644 *
   7 C       2.1954005 *  2.4292472 *  2.5786182 *  3.8343066    2.6901165 *
   8 H       3.0061680    3.0516347    2.5679384 *  3.9797609    2.6700358 *
   9 O       2.6021795 *  3.5675740    3.6314449    4.8322921    2.9714284 *
  10 C       1.0918311 *  1.4987840 *  1.5266038 *  2.4353561 *  4.1057750  
  11 H       0.0000000    2.0957966 *  2.1883558 *  2.7213080 *  4.7557687  
  12 O       2.0957966 *  0.0000000    2.4146180 *  2.7667243 *  4.2917541  
  13 C       2.1883558 *  2.4146180 *  0.0000000    1.4531746 *  5.0200948  
  14 O       2.7213080 *  2.7667243 *  1.4531746 *  0.0000000    6.2773773  
  15 H       4.7557687    4.2917541    5.0200948    6.2773773    0.0000000  
  16 H       2.7476922 *  4.0988098    3.5732240    4.7845283    3.7376771  
  17 H       2.5318642 *  3.3876363    1.0941012 *  2.0562142 *  5.4049916  
  18 H       3.0579999    2.6483069 *  1.0977805 *  2.1288943 *  4.6961952  
  19 H       2.8753144 *  2.2408357 *  1.9477253 *  0.9981360 *  6.1505711  
  20 H       4.1961964    2.6753290 *  5.0354773    5.3906189    4.2438950  
  21 H       5.1755828    3.3243959    5.3395753    5.8249607    3.9654657  
  22 O       4.7586307    2.7324661 *  4.8171302    4.7752730    5.4469176  
  23 H       4.5168705    3.1228379    3.8160066    4.7754532    2.7953334 *
  24 H       4.1051850    2.1977383 *  4.2152860    3.9805150    5.6909228  

               16 H         17 H         18 H         19 H         20 H     

   1 O       4.8424009    4.0865811    2.4952750 *  3.5016558    3.3964384  
   2 C       4.3519428    4.1856162    3.0333851    3.4044446    2.1368927 *
   3 C       5.6472225    5.5845714    4.4074502    4.2136639    1.1011748 *
   4 C       3.2796906    4.2443585    3.5131527    4.3839719    2.7111231 *
   5 H       3.4205299    4.8797641    4.4000379    4.9006572    2.4246325 *
   6 O       4.0283277    5.1309658    4.1703670    5.4689461    3.4955053  
   7 C       2.0038036 *  2.9232524 *  2.7069786 *  3.9084233    3.9385075  
   8 H       2.3804490 *  2.7794545 *  2.3364870 *  4.1544096    4.6646251  
   9 O       0.9949028 *  3.6414861    3.9765453    5.0319676    4.6915417  
  10 C       2.8070779 *  2.1735386 *  2.1231719 *  2.4936736 *  3.8616233  
  11 H       2.7476922 *  2.5318642 *  3.0579999    2.8753144 *  4.1961964  
  12 O       4.0988098    3.3876363    2.6483069 *  2.2408357 *  2.6753290 *
  13 C       3.5732240    1.0941012 *  1.0977805 *  1.9477253 *  5.0354773  
  14 O       4.7845283    2.0562142 *  2.1288943 *  0.9981360 *  5.3906189  
  15 H       3.7376771    5.4049916    4.6961952    6.1505711    4.2438950  
  16 H       0.0000000    3.2852385    4.0191910    5.1749995    5.5724689  
  17 H       3.2852385    0.0000000    1.7980864 *  2.8427315 *  5.9573234  
  18 H       4.0191910    1.7980864 *  0.0000000    2.3593095 *  5.0515799  
  19 H       5.1749995    2.8427315 *  2.3593095 *  0.0000000    4.6908484  
  20 H       5.5724689    5.9573234    5.0515799    4.6908484    0.0000000  
  21 H       6.2081893    6.3075789    4.9773792    5.1035626    1.7859994 *
  22 O       6.6222715    5.8948752    4.6421846    3.8604045    2.1295725 *
  23 H       4.8233784    4.5699791    3.0706641    4.4356716    3.7259186  
  24 H       6.2635560    5.2846897    4.2181799    3.0392984    2.4309538 *

               21 H         22 O         23 H         24 H     

   1 O       2.6793417 *  3.0157799    1.0037012 *  3.1449018  
   2 C       2.1452241 *  2.4523920 *  1.9414710 *  2.4839479 *
   3 C       1.0916710 *  1.4495612 *  2.9008706 *  1.9569194 *
   4 C       2.9584987 *  3.8414022    2.3098977 *  3.8771777  
   5 H       3.2010403    4.0733211    3.3263251    4.0915337  
   6 O       3.0474389    4.5043659    1.9430226 *  4.7958247  
   7 C       4.3230654    4.7545160    2.9428456 *  4.5075202  
   8 H       4.6673855    5.1971419    2.6133802 *  5.0193113  
   9 O       5.3432603    5.9050090    4.2211228    5.6391667  
  10 C       4.4936581    4.2140744    3.4896046    3.6744015  
  11 H       5.1755828    4.7586307    4.5168705    4.1051850  
  12 O       3.3243959    2.7324661 *  3.1228379    2.1977383 *
  13 C       5.3395753    4.8171302    3.8160066    4.2152860  
  14 O       5.8249607    4.7752730    4.7754532    3.9805150  
  15 H       3.9654657    5.4469176    2.7953334 *  5.6909228  
  16 H       6.2081893    6.6222715    4.8233784    6.2635560  
  17 H       6.3075789    5.8948752    4.5699791    5.2846897  
  18 H       4.9773792    4.6421846    3.0706641    4.2181799  
  19 H       5.1035626    3.8604045    4.4356716    3.0392984  
  20 H       1.7859994 *  2.1295725 *  3.7259186    2.4309538 *
  21 H       0.0000000    2.0591108 *  2.7797663 *  2.8443165 *
  22 O       2.0591108 *  0.0000000    3.7046424    0.9974544 *
  23 H       2.7797663 *  3.7046424    0.0000000    3.9869791  
  24 H       2.8443165 *  0.9974544 *  3.9869791    0.0000000  

  * ... LESS THAN  3.000


     ATOMIC BASIS SET
     ----------------
 THE CONTRACTED PRIMITIVE FUNCTIONS HAVE BEEN UNNORMALIZED
 THE CONTRACTED BASIS FUNCTIONS ARE NOW NORMALIZED TO UNITY

  SHELL TYPE  PRIMITIVE        EXPONENT          CONTRACTION COEFFICIENT(S)

 O         

      1   S       1           322.0370000    0.059239393389
      1   S       2            48.4308000    0.351499960776
      1   S       3            10.4206000    0.707657921031

      2   L       4             7.4029400   -0.404453583190    0.244586106967
      2   L       5             1.5762000    1.221561761397    0.853955373466

      3   L       6             0.3736840    1.000000000000    1.000000000000

 C         

      4   S       7           172.2560000    0.061766907377
      4   S       8            25.9109000    0.358794042852
      4   S       9             5.5333500    0.700713083689

      5   L      10             3.6649800   -0.395895162119    0.236459946619
      5   L      11             0.7705450    1.215834355681    0.860618805716

      6   L      12             0.1958570    1.000000000000    1.000000000000

 C         

      7   S      13           172.2560000    0.061766907377
      7   S      14            25.9109000    0.358794042852
      7   S      15             5.5333500    0.700713083689

      8   L      16             3.6649800   -0.395895162119    0.236459946619
      8   L      17             0.7705450    1.215834355681    0.860618805716

      9   L      18             0.1958570    1.000000000000    1.000000000000

 C         

     10   S      19           172.2560000    0.061766907377
     10   S      20            25.9109000    0.358794042852
     10   S      21             5.5333500    0.700713083689

     11   L      22             3.6649800   -0.395895162119    0.236459946619
     11   L      23             0.7705450    1.215834355681    0.860618805716

     12   L      24             0.1958570    1.000000000000    1.000000000000

 H         

     13   S      25             5.4471780    0.156284978695
     13   S      26             0.8245472    0.904690876670

     14   S      27             0.1831916    1.000000000000

 O         

     15   S      28           322.0370000    0.059239393389
     15   S      29            48.4308000    0.351499960776
     15   S      30            10.4206000    0.707657921031

     16   L      31             7.4029400   -0.404453583190    0.244586106967
     16   L      32             1.5762000    1.221561761397    0.853955373466

     17   L      33             0.3736840    1.000000000000    1.000000000000

 C         

     18   S      34           172.2560000    0.061766907377
     18   S      35            25.9109000    0.358794042852
     18   S      36             5.5333500    0.700713083689

     19   L      37             3.6649800   -0.395895162119    0.236459946619
     19   L      38             0.7705450    1.215834355681    0.860618805716

     20   L      39             0.1958570    1.000000000000    1.000000000000

 H         

     21   S      40             5.4471780    0.156284978695
     21   S      41             0.8245472    0.904690876670

     22   S      42             0.1831916    1.000000000000

 O         

     23   S      43           322.0370000    0.059239393389
     23   S      44            48.4308000    0.351499960776
     23   S      45            10.4206000    0.707657921031

     24   L      46             7.4029400   -0.404453583190    0.244586106967
     24   L      47             1.5762000    1.221561761397    0.853955373466

     25   L      48             0.3736840    1.000000000000    1.000000000000

 C         

     26   S      49           172.2560000    0.061766907377
     26   S      50            25.9109000    0.358794042852
     26   S      51             5.5333500    0.700713083689

     27   L      52             3.6649800   -0.395895162119    0.236459946619
     27   L      53             0.7705450    1.215834355681    0.860618805716

     28   L      54             0.1958570    1.000000000000    1.000000000000

 H         

     29   S      55             5.4471780    0.156284978695
     29   S      56             0.8245472    0.904690876670

     30   S      57             0.1831916    1.000000000000

 O         

     31   S      58           322.0370000    0.059239393389
     31   S      59            48.4308000    0.351499960776
     31   S      60            10.4206000    0.707657921031

     32   L      61             7.4029400   -0.404453583190    0.244586106967
     32   L      62             1.5762000    1.221561761397    0.853955373466

     33   L      63             0.3736840    1.000000000000    1.000000000000

 C         

     34   S      64           172.2560000    0.061766907377
     34   S      65            25.9109000    0.358794042852
     34   S      66             5.5333500    0.700713083689

     35   L      67             3.6649800   -0.395895162119    0.236459946619
     35   L      68             0.7705450    1.215834355681    0.860618805716

     36   L      69             0.1958570    1.000000000000    1.000000000000

 O         

     37   S      70           322.0370000    0.059239393389
     37   S      71            48.4308000    0.351499960776
     37   S      72            10.4206000    0.707657921031

     38   L      73             7.4029400   -0.404453583190    0.244586106967
     38   L      74             1.5762000    1.221561761397    0.853955373466

     39   L      75             0.3736840    1.000000000000    1.000000000000

 H         

     40   S      76             5.4471780    0.156284978695
     40   S      77             0.8245472    0.904690876670

     41   S      78             0.1831916    1.000000000000

 H         

     42   S      79             5.4471780    0.156284978695
     42   S      80             0.8245472    0.904690876670

     43   S      81             0.1831916    1.000000000000

 H         

     44   S      82             5.4471780    0.156284978695
     44   S      83             0.8245472    0.904690876670

     45   S      84             0.1831916    1.000000000000

 H         

     46   S      85             5.4471780    0.156284978695
     46   S      86             0.8245472    0.904690876670

     47   S      87             0.1831916    1.000000000000

 H         

     48   S      88             5.4471780    0.156284978695
     48   S      89             0.8245472    0.904690876670

     49   S      90             0.1831916    1.000000000000

 H         

     50   S      91             5.4471780    0.156284978695
     50   S      92             0.8245472    0.904690876670

     51   S      93             0.1831916    1.000000000000

 H         

     52   S      94             5.4471780    0.156284978695
     52   S      95             0.8245472    0.904690876670

     53   S      96             0.1831916    1.000000000000

 O         

     54   S      97           322.0370000    0.059239393389
     54   S      98            48.4308000    0.351499960776
     54   S      99            10.4206000    0.707657921031

     55   L     100             7.4029400   -0.404453583190    0.244586106967
     55   L     101             1.5762000    1.221561761397    0.853955373466

     56   L     102             0.3736840    1.000000000000    1.000000000000

 H         

     57   S     103             5.4471780    0.156284978695
     57   S     104             0.8245472    0.904690876670

     58   S     105             0.1831916    1.000000000000

 H         

     59   S     106             5.4471780    0.156284978695
     59   S     107             0.8245472    0.904690876670

     60   S     108             0.1831916    1.000000000000

 TOTAL NUMBER OF BASIS SET SHELLS             =   60
 NUMBER OF CARTESIAN GAUSSIAN BASIS FUNCTIONS =  132
 NUMBER OF ELECTRONS                          =   96
 CHARGE OF MOLECULE                           =    0
 SPIN MULTIPLICITY                            =    1
 NUMBER OF OCCUPIED ORBITALS (ALPHA)          =   48
 NUMBER OF OCCUPIED ORBITALS (BETA )          =   48
 TOTAL NUMBER OF ATOMS                        =   24
 THE NUCLEAR REPULSION ENERGY IS      830.9647180517

     $CONTRL OPTIONS
     ---------------
 SCFTYP=RHF          RUNTYP=ENERGY       EXETYP=RUN     
 MPLEVL=       0     CITYP =NONE         CCTYP =NONE         VBTYP =NONE    
 DFTTYP=NONE         TDDFT =NONE    
 MULT  =       1     ICHARG=       0     NZVAR =       0     COORD =UNIQUE  
 PP    =NONE         RELWFN=NONE         LOCAL =NONE         NUMGRD=       F
 ISPHER=      -1     NOSYM =       0     MAXIT =      60     UNITS =ANGS    
 PLTORB=       F     MOLPLT=       F     AIMPAC=       F     FRIEND=        
 NPRINT=       7     IREST =       0     GEOM  =INPUT   
 NORMF =       0     NORMP =       0     ITOL  =      20     ICUT  =       9
 INTTYP=BEST         GRDTYP=BEST         QMTTOL= 1.0E-06

     $SYSTEM OPTIONS
     ---------------
  REPLICATED MEMORY=    30000000 WORDS (ON EVERY NODE).
 DISTRIBUTED MEMDDI=        1000 MILLION WORDS IN AGGREGATE,
 MEMDDI DISTRIBUTED OVER   8 PROCESSORS IS   125000000 WORDS/PROCESSOR.
 TOTAL MEMORY REQUESTED ON EACH PROCESSOR=   155000000 WORDS.
 TIMLIM=      525600.00 MINUTES, OR     365.0 DAYS.
 PARALL= T  BALTYP=  DLB     KDIAG=    0  COREFL= F
 MXSEQ2=     300 MXSEQ3=     150  mem10=         0

          ----------------
          PROPERTIES INPUT
          ----------------

     MOMENTS            FIELD           POTENTIAL          DENSITY
 IEMOM =       1   IEFLD =       0   IEPOT =       0   IEDEN =       0
 WHERE =COMASS     WHERE =NUCLEI     WHERE =NUCLEI     WHERE =NUCLEI  
 OUTPUT=BOTH       OUTPUT=BOTH       OUTPUT=BOTH       OUTPUT=BOTH    
 IEMINT=       0   IEFINT=       0                     IEDINT=       0
                                                       MORB  =       0
          EXTRAPOLATION IN EFFECT
          SOSCF IN EFFECT
 ORBITAL PRINTING OPTION: NPREO=     1   132     2     1

     -------------------------------
     INTEGRAL TRANSFORMATION OPTIONS
     -------------------------------
     NWORD  =            0
     CUTOFF = 1.0E-09     MPTRAN =       0
     DIRTRF =       T     AOINTS =DUP     

          ----------------------
          INTEGRAL INPUT OPTIONS
          ----------------------
 NOPK  =       1 NORDER=       0 SCHWRZ=       T

     ------------------------------------------
     THE POINT GROUP IS C1 , NAXIS= 0, ORDER= 1
     ------------------------------------------

     DIMENSIONS OF THE SYMMETRY SUBSPACES ARE
 A   =  132

 ..... DONE SETTING UP THE RUN .....
 CPU     0: STEP CPU TIME=     0.03 TOTAL CPU TIME=          0.0 (      0.0 MIN)
 TOTAL WALL CLOCK TIME=          0.0 SECONDS, CPU UTILIZATION IS    75.00%

          ********************
          1 ELECTRON INTEGRALS
          ********************
 ...... END OF ONE-ELECTRON INTEGRALS ......
 CPU     0: STEP CPU TIME=     0.01 TOTAL CPU TIME=          0.0 (      0.0 MIN)
 TOTAL WALL CLOCK TIME=          0.1 SECONDS, CPU UTILIZATION IS    57.14%

          -------------
          GUESS OPTIONS
          -------------
          GUESS =HUCKEL            NORB  =       0          NORDER=       0
          MIX   =       F          PRTMO =       F          PUNMO =       F
          TOLZ  = 1.0E-08          TOLE  = 1.0E-05
          SYMDEN=       F          PURIFY=       F

 INITIAL GUESS ORBITALS GENERATED BY HUCKEL   ROUTINE.
 HUCKEL GUESS REQUIRES    164928 WORDS.

 SYMMETRIES FOR INITIAL GUESS ORBITALS FOLLOW.   BOTH SET(S).
    48 ORBITALS ARE OCCUPIED (   12 CORE ORBITALS).
    13=A       14=A       15=A       16=A       17=A       18=A       19=A   
    20=A       21=A       22=A       23=A       24=A       25=A       26=A   
    27=A       28=A       29=A       30=A       31=A       32=A       33=A   
    34=A       35=A       36=A       37=A       38=A       39=A       40=A   
    41=A       42=A       43=A       44=A       45=A       46=A       47=A   
    48=A       49=A       50=A       51=A       52=A       53=A       54=A   
    55=A       56=A       57=A       58=A   
 ...... END OF INITIAL ORBITAL SELECTION ......
 CPU     0: STEP CPU TIME=     0.03 TOTAL CPU TIME=          0.1 (      0.0 MIN)
 TOTAL WALL CLOCK TIME=          0.1 SECONDS, CPU UTILIZATION IS    50.00%

                    ----------------------
                    AO INTEGRAL TECHNOLOGY
                    ----------------------
     S,P,L SHELL ROTATED AXIS INTEGRALS, REPROGRAMMED BY
        KAZUYA ISHIMURA (IMS) AND JOSE SIERRA (SYNSTAR).
     S,P,D,L SHELL ROTATED AXIS INTEGRALS PROGRAMMED BY
        KAZUYA ISHIMURA (INSTITUTE FOR MOLECULAR SCIENCE).
     S,P,D,F,G SHELL TO TOTAL QUARTET ANGULAR MOMENTUM SUM 5,
        ERIC PROGRAM BY GRAHAM FLETCHER (ELORET AND NASA ADVANCED
        SUPERCOMPUTING DIVISION, AMES RESEARCH CENTER).
     S,P,D,F,G,L SHELL GENERAL RYS QUADRATURE PROGRAMMED BY
        MICHEL DUPUIS (PACIFIC NORTHWEST NATIONAL LABORATORY).

          --------------------
          2 ELECTRON INTEGRALS
          --------------------

 DIRECT SCF METHOD SKIPS INTEGRAL STORAGE ON DISK.
 DIRECT TRANSFORMATION SKIPS AO INTEGRAL STORAGE ON DISK.
  ...... END OF TWO-ELECTRON INTEGRALS .....
 CPU     0: STEP CPU TIME=     0.01 TOTAL CPU TIME=          0.1 (      0.0 MIN)
 TOTAL WALL CLOCK TIME=          0.2 SECONDS, CPU UTILIZATION IS    53.33%

          --------------------------
                 RHF SCF CALCULATION
          --------------------------

     NUCLEAR ENERGY =       830.9647180517
     MAXIT =   60     NPUNCH=    2
     EXTRAP=T  DAMP=F  SHIFT=F  RSTRCT=F  DIIS=F  DEM=F  SOSCF=T
     DENSITY MATRIX CONV=  2.00E-05
     SOSCF WILL OPTIMIZE    4032 ORBITAL ROTATIONS, SOGTOL=   0.250
     MEMORY REQUIRED FOR RHF ITERS=    187960 WORDS.

 DIRECT SCF CALCULATION, SCHWRZ=T   FDIFF=T,  DIRTHR=  0.00E+00 NITDIR=10
 SCHWARZ INEQUALITY OVERHEAD:      8156 INTEGRALS, T=        0.00

                                                                                   NONZERO     BLOCKS
 ITER EX DEM     TOTAL ENERGY        E CHANGE  DENSITY CHANGE     ORB. GRAD      INTEGRALS    SKIPPED
   1  0  0     -677.6624959252  -677.6624959252   0.783975628   0.000000000       22024256     851402
          ---------------START SECOND ORDER SCF---------------
   2  1  0     -679.4182040936    -1.7557081685   0.142654881   0.062864742       21984892     865887
   3  2  0     -679.5103840803    -0.0921799867   0.104560913   0.012338821       21632103     914117
   4  3  0     -679.5270546035    -0.0166705232   0.013013517   0.004907385       21363445     938658
   5  4  0     -679.5276831563    -0.0006285528   0.002970342   0.000748008       20202867    1007901
   6  5  0     -679.5277517275    -0.0000685712   0.001560703   0.000446840       19501083    1040254
   7  6  0     -679.5277584100    -0.0000066825   0.000369610   0.000093313       18634231    1083732
   8  7  0     -679.5277589048    -0.0000004948   0.000182825   0.000032922       17240731    1144918
   9  8  0     -679.5277589828    -0.0000000780   0.000029042   0.000006781       16144102    1192556
  10  9  0     -679.5277589870    -0.0000000042   0.000009206   0.000002546       14563148    1252923
  11 10  0     -679.5277589879    -0.0000000009   0.000004659   0.000000958       13028292    1309182

          -----------------
          DENSITY CONVERGED
          -----------------
     TIME TO FORM FOCK OPERATORS=       2.1 SECONDS (       0.2 SEC/ITER)
     FOCK TIME ON FIRST ITERATION=       0.2, LAST ITERATION=       0.1
     TIME TO SOLVE SCF EQUATIONS=       0.1 SECONDS (       0.0 SEC/ITER)

 FINAL RHF ENERGY IS     -679.5277589879 AFTER  11 ITERATIONS

          ------------
          EIGENVECTORS
          ------------

                      1          2          3          4          5
                  -20.5006   -20.4916   -20.4895   -20.4646   -20.4429
                     A          A          A          A          A   
    1  O  1  S   -0.000063   0.006750   0.001320   0.983614  -0.002176
    2  O  1  S   -0.000194   0.001672   0.000306   0.099105  -0.000113
    3  O  1  X    0.000072  -0.000444  -0.000088   0.000284   0.000117
    4  O  1  Y   -0.000212   0.000112   0.000023  -0.003107   0.000024
    5  O  1  Z    0.000278  -0.000129  -0.000013  -0.002339  -0.000124
    6  O  1  S    0.002195  -0.003646  -0.000853  -0.049935   0.000269
    7  O  1  X   -0.000787   0.002921   0.000742   0.000942  -0.000326
    8  O  1  Y    0.000285  -0.000368   0.000206   0.007635  -0.000011
    9  O  1  Z   -0.002316   0.001990   0.000183   0.009185  -0.000059
   10  C  2  S    0.000304  -0.001043  -0.000121  -0.001021   0.000219
   11  C  2  S    0.001209  -0.004536  -0.000818  -0.004429   0.000854
   12  C  2  X   -0.000068  -0.001104   0.000632   0.000522  -0.000390
   13  C  2  Y    0.000689   0.000863   0.000223   0.000753  -0.000313
   14  C  2  Z    0.000349  -0.000022  -0.000342   0.000629   0.000258
   15  C  2  S   -0.008571   0.022913   0.001508   0.021857  -0.006836
   16  C  2  X    0.000004  -0.012427  -0.004884   0.000049  -0.001204
   17  C  2  Y    0.004037   0.003352  -0.001786   0.002406  -0.001768
   18  C  2  Z   -0.007343  -0.004003   0.001971   0.018230   0.002255
   19  C  3  S    0.000064   0.000171  -0.000060   0.000072  -0.000804
   20  C  3  S    0.000562   0.000517  -0.000315   0.000090  -0.003148
   21  C  3  X   -0.000107   0.000595  -0.000128   0.000485  -0.000090
   22  C  3  Y   -0.000210   0.000228  -0.000137   0.000104   0.001631
   23  C  3  Z   -0.000043  -0.000497   0.000002  -0.000275  -0.000394
   24  C  3  S   -0.002642  -0.004365   0.003158   0.000735   0.018905
   25  C  3  X    0.002022   0.003379  -0.000262  -0.003896  -0.002158
   26  C  3  Y    0.000790  -0.001334   0.000360  -0.001520   0.009370
   27  C  3  Z    0.000672   0.001073   0.001683  -0.002940   0.000753
   28  C  4  S   -0.001015   0.000087   0.000325   0.000166  -0.000070
   29  C  4  S   -0.004414  -0.000059   0.001483   0.000318  -0.000516
   30  C  4  X    0.000826  -0.000443   0.000324   0.000009  -0.000371
   31  C  4  Y   -0.001061  -0.001028   0.000002  -0.001236  -0.000252
   32  C  4  Z    0.000092   0.000003  -0.000476   0.000172   0.000302
   33  C  4  S    0.024878  -0.001800  -0.010530  -0.005302   0.000379
   34  C  4  X    0.007750   0.001383   0.006389  -0.002039   0.002587
   35  C  4  Y   -0.000077  -0.002460   0.001499  -0.000848   0.001495
   36  C  4  Z    0.013889   0.003505   0.001904  -0.006127  -0.002057
   37  H  5  S   -0.000433   0.000688   0.000891  -0.000705  -0.000434
   38  H  5  S    0.001788   0.000406   0.002230  -0.000775  -0.000144
   39  O  6  S    0.983545   0.000010  -0.003568  -0.000015  -0.000251
   40  O  6  S    0.098372   0.000083  -0.000224  -0.000140   0.000054
   41  O  6  X   -0.003186  -0.000095   0.000008   0.000282   0.000039
   42  O  6  Y   -0.000851  -0.000237   0.000178   0.000490   0.000023
   43  O  6  Z   -0.001337   0.000029  -0.000050   0.000085  -0.000073
   44  O  6  S   -0.047083  -0.001002  -0.000397   0.002055  -0.000299
   45  O  6  X    0.009317   0.000739  -0.000294  -0.001795  -0.000237
   46  O  6  Y   -0.000767   0.000699  -0.000916  -0.001474  -0.000272
   47  O  6  Z    0.004586   0.000093   0.000256  -0.000795   0.000443
   48  C  7  S    0.000275   0.000327  -0.000971   0.000078  -0.000058
   49  C  7  S    0.001165   0.001848  -0.004057   0.000748  -0.000290
   50  C  7  X   -0.000298   0.000779  -0.000632  -0.000003  -0.000063
   51  C  7  Y   -0.000142  -0.000249  -0.000824   0.000334   0.000209
   52  C  7  Z    0.000602   0.000402   0.000423  -0.000339  -0.000004
   53  C  7  S   -0.008347  -0.007982   0.024429  -0.000029   0.002653
   54  C  7  X   -0.006316  -0.003839  -0.004507   0.001175   0.001256
   55  C  7  Y   -0.000251  -0.006677  -0.010910  -0.002031  -0.000858
   56  C  7  Z   -0.003865  -0.000606  -0.010517   0.001797  -0.000502
   57  H  8  S    0.001136   0.001028  -0.000500  -0.000250  -0.000030
   58  H  8  S    0.002311   0.000996   0.000874  -0.000515  -0.000279
   59  O  9  S    0.003581   0.040872   0.982701  -0.001554  -0.000434
   60  O  9  S    0.000476   0.004481   0.098208   0.000008   0.000071
   61  O  9  X    0.000047   0.000035  -0.000707   0.000106  -0.000004
   62  O  9  Y    0.000096   0.000109   0.002903   0.000000   0.000007
   63  O  9  Z   -0.000063   0.000237   0.002299   0.000061   0.000020
   64  O  9  S   -0.000565  -0.003825  -0.047078  -0.000411  -0.000546
   65  O  9  X    0.000263  -0.000379  -0.000972  -0.000505  -0.000150
   66  O  9  Y   -0.000492  -0.000668  -0.009455  -0.000017  -0.000187
   67  O  9  Z    0.000388  -0.000910  -0.005033  -0.000346  -0.000130
   68  C 10  S   -0.000118  -0.000840   0.000287   0.000125   0.000038
   69  C 10  S   -0.000930  -0.003388   0.001372   0.001098   0.000146
   70  C 10  X   -0.000741   0.001061  -0.000369   0.000665  -0.000131
   71  C 10  Y   -0.000148   0.000697   0.000056   0.000085  -0.000085
   72  C 10  Z    0.000011  -0.000904  -0.000446   0.000148   0.000181
   73  C 10  S    0.000928   0.018152  -0.006603  -0.000976  -0.000589
   74  C 10  X    0.004422   0.009347   0.001337  -0.002262  -0.000991
   75  C 10  Y    0.001256   0.003407   0.006044  -0.001817   0.000001
   76  C 10  Z    0.000873  -0.000992   0.003989  -0.000958   0.000059
   77  H 11  S    0.000392  -0.000842   0.001098  -0.000128  -0.000047
   78  H 11  S    0.001274  -0.000155   0.002819  -0.001158  -0.000064
   79  O 12  S   -0.000116   0.982884  -0.040782  -0.006440  -0.000367
   80  O 12  S    0.000087   0.099914  -0.003687   0.000249  -0.000056
   81  O 12  X   -0.000018   0.000768   0.000035   0.000160   0.000329
   82  O 12  Y    0.000219  -0.002764   0.000282   0.000144   0.000215
   83  O 12  Z   -0.000093   0.002451   0.000145   0.000555  -0.000364
   84  O 12  S   -0.001410  -0.052891  -0.000242  -0.002169   0.001020
   85  O 12  X    0.000452  -0.003414  -0.000712  -0.002105  -0.000709
   86  O 12  Y   -0.000517   0.008395  -0.000732  -0.000418  -0.001010
   87  O 12  Z    0.000335  -0.007437  -0.001168  -0.003356   0.001320
   88  C 13  S   -0.000006   0.000094  -0.000001  -0.000009   0.000079
   89  C 13  S   -0.000133   0.000026  -0.000023   0.000032   0.000267
   90  C 13  X    0.000079  -0.000397   0.000068  -0.000027   0.000026
   91  C 13  Y    0.000157   0.000396   0.000195  -0.000044  -0.000216
   92  C 13  Z    0.000142   0.000733  -0.000009   0.000101   0.000025
   93  C 13  S   -0.000097  -0.003561  -0.001649   0.000219  -0.001786
   94  C 13  X   -0.001848  -0.002614  -0.001603   0.000948   0.000797
   95  C 13  Y   -0.000698  -0.000705  -0.001397  -0.000079  -0.001049
   96  C 13  Z   -0.000485   0.000527   0.001171  -0.000992   0.000679
   97  O 14  S    0.000070   0.001391  -0.000641  -0.000105  -0.128167
   98  O 14  S    0.000024   0.000356  -0.000215  -0.000012  -0.012789
   99  O 14  X   -0.000061  -0.000021  -0.000031   0.000037  -0.000418
  100  O 14  Y   -0.000036  -0.000055  -0.000030   0.000029   0.000275
  101  O 14  Z   -0.000014  -0.000150  -0.000070  -0.000005   0.000019
  102  O 14  S   -0.000072  -0.000387   0.000815  -0.000040   0.005929
  103  O 14  X    0.000314   0.000222   0.000293  -0.000203   0.000899
  104  O 14  Y    0.000187  -0.000037  -0.000110  -0.000069  -0.000838
  105  O 14  Z    0.000054   0.000578   0.000312   0.000081   0.000062
  106  H 15  S    0.002930   0.000438  -0.000140  -0.000663  -0.000062
  107  H 15  S    0.004662  -0.000492  -0.000519  -0.000087   0.000076
  108  H 16  S    0.000011   0.000194   0.003010   0.000036   0.000057
  109  H 16  S   -0.000338  -0.000033   0.004517  -0.000258  -0.000027
  110  H 17  S   -0.000206  -0.000355  -0.000047   0.000142   0.000163
  111  H 17  S   -0.000664   0.000101  -0.001352   0.000400   0.000231
  112  H 18  S    0.000138   0.000367  -0.000134  -0.000569   0.000048
  113  H 18  S    0.000915   0.000809   0.001016   0.001032  -0.000045
  114  H 19  S   -0.000113  -0.000457   0.000023   0.000069  -0.000249
  115  H 19  S    0.000066   0.001245  -0.000086   0.000016  -0.001117
  116  H 20  S    0.000343   0.000501   0.000059  -0.000736  -0.001090
  117  H 20  S    0.000875   0.000607   0.000281  -0.000561  -0.000881
  118  H 21  S   -0.000082  -0.000407  -0.000167   0.000694  -0.001297
  119  H 21  S   -0.000488   0.000051  -0.000453   0.001357  -0.001054
  120  O 22  S    0.000277   0.000553   0.000373   0.002184   0.975086
  121  O 22  S    0.000075   0.000059   0.000133   0.000339   0.096825
  122  O 22  X    0.000037  -0.000097   0.000044  -0.000306  -0.002460
  123  O 22  Y   -0.000038   0.000056  -0.000020  -0.000112  -0.002929
  124  O 22  Z    0.000091   0.000227   0.000027   0.000020   0.000135
  125  O 22  S   -0.000044   0.000690  -0.000518   0.000134  -0.043672
  126  O 22  X   -0.000239   0.000192  -0.000170   0.001224   0.004649
  127  O 22  Y    0.000073  -0.000823   0.000290   0.000104   0.008477
  128  O 22  Z   -0.000366  -0.000657  -0.000205   0.000244  -0.000816
  129  H 23  S   -0.000634  -0.000328  -0.000276   0.002966   0.000063
  130  H 23  S    0.002874   0.000232   0.000312   0.005429  -0.000047
  131  H 24  S   -0.000042  -0.000418  -0.000034   0.000698   0.002848
  132  H 24  S   -0.000205   0.001117  -0.000080  -0.000534   0.005571

                      6          7          8          9         10
                  -20.4427   -11.3076   -11.2679   -11.2661   -11.2556
                     A          A          A          A          A   
    1  O  1  S   -0.000186  -0.000257   0.000078   0.000039   0.000139
    2  O  1  S   -0.000005  -0.001048   0.000683  -0.000121   0.001069
    3  O  1  X    0.000061   0.000124  -0.000096   0.000123  -0.000255
    4  O  1  Y    0.000004  -0.000361  -0.000100   0.000409  -0.000084
    5  O  1  Z   -0.000036  -0.000251  -0.000173   0.000336  -0.000070
    6  O  1  S   -0.000083   0.009900  -0.002606  -0.002067  -0.004925
    7  O  1  X   -0.000267  -0.001884   0.001013   0.000276   0.002352
    8  O  1  Y    0.000047  -0.000919   0.000866   0.000134   0.001342
    9  O  1  Z    0.000154  -0.004604   0.001177   0.000113   0.001783
   10  C  2  S    0.000027   0.988614   0.002431   0.005193   0.006252
   11  C  2  S    0.000123   0.106633  -0.000405  -0.003625  -0.003694
   12  C  2  X   -0.000194  -0.001111   0.000572   0.000016   0.001813
   13  C  2  Y   -0.000094  -0.001203   0.001304  -0.000690   0.000520
   14  C  2  Z    0.000103  -0.000323  -0.001032  -0.000007  -0.000862
   15  C  2  S   -0.000261  -0.100410  -0.005767   0.031237   0.013848
   16  C  2  X    0.000971   0.002608  -0.002904  -0.006391  -0.012960
   17  C  2  Y   -0.000624   0.012318  -0.000073  -0.016940  -0.006584
   18  C  2  Z    0.000642   0.007119   0.006872   0.002455   0.009142
   19  C  3  S   -0.000103  -0.002999  -0.002304  -0.004811  -0.002842
   20  C  3  S   -0.000416  -0.003986  -0.001449  -0.001403  -0.001170
   21  C  3  X    0.000028  -0.000056  -0.000168   0.000334  -0.000171
   22  C  3  Y    0.000215  -0.000309   0.000172   0.000560  -0.000024
   23  C  3  Z   -0.000043   0.000246   0.000090  -0.000391  -0.000056
   24  C  3  S    0.002179   0.025713   0.007503   0.001722   0.007916
   25  C  3  X   -0.000506  -0.011780  -0.002698   0.000341  -0.001627
   26  C  3  Y    0.001371  -0.005307  -0.002567   0.000151  -0.000727
   27  C  3  Z   -0.000308   0.008413   0.001886   0.000925   0.003692
   28  C  4  S   -0.000003  -0.006511  -0.096684   0.983639   0.008779
   29  C  4  S    0.000013  -0.005473  -0.014113   0.105709   0.001518
   30  C  4  X   -0.000022   0.000100  -0.000711  -0.000752   0.000751
   31  C  4  Y    0.000156   0.000695  -0.000365   0.000970  -0.000577
   32  C  4  Z    0.000096  -0.000031   0.000015   0.000866   0.000339
   33  C  4  S    0.000555   0.037008   0.039627  -0.098220  -0.013178
   34  C  4  X   -0.000485   0.001051  -0.016648   0.009027   0.000275
   35  C  4  Y   -0.001322   0.018991   0.001376  -0.014432  -0.006476
   36  C  4  Z   -0.000750  -0.002115   0.007555  -0.006374  -0.006615
   37  H  5  S   -0.000198  -0.002227  -0.002005   0.000563  -0.000301
   38  H  5  S   -0.000495  -0.000007   0.000121   0.013035  -0.002552
   39  O  6  S   -0.000104   0.000071   0.000087  -0.000260  -0.000093
   40  O  6  S    0.000010   0.000226   0.000362  -0.001011  -0.000772
   41  O  6  X    0.000003   0.000097   0.000023  -0.000268   0.000195
   42  O  6  Y   -0.000030  -0.000572  -0.000028  -0.000088  -0.000226
   43  O  6  Z   -0.000037   0.000327   0.000175  -0.000502  -0.000046
   44  O  6  S   -0.000017  -0.002354  -0.002639   0.010100   0.003098
   45  O  6  X   -0.000009   0.000516   0.002201  -0.003634  -0.001704
   46  O  6  Y    0.000196   0.000575  -0.000623   0.003374   0.001699
   47  O  6  Z    0.000160  -0.000383  -0.000278  -0.001138  -0.000206
   48  C  7  S   -0.000100  -0.002963   0.983790   0.095213   0.011287
   49  C  7  S   -0.000676  -0.000342   0.106644   0.006437  -0.002663
   50  C  7  X    0.000251  -0.000657   0.000639   0.000629  -0.000089
   51  C  7  Y   -0.000411  -0.000564   0.000943   0.000249   0.000928
   52  C  7  Z   -0.000264   0.000106  -0.000628  -0.000479  -0.000451
   53  C  7  S    0.001752  -0.009425  -0.103963   0.021772   0.032589
   54  C  7  X   -0.001199  -0.000000  -0.010967   0.016322  -0.004158
   55  C  7  Y    0.003202  -0.003477  -0.013993   0.000915   0.013528
   56  C  7  Z    0.001517   0.003956   0.009482  -0.004436  -0.001987
   57  H  8  S   -0.000824   0.000223   0.001545  -0.002181  -0.002134
   58  H  8  S    0.000448  -0.001669   0.014755   0.001813  -0.001631
   59  O  9  S    0.000492  -0.000057  -0.000231   0.000049   0.000072
   60  O  9  S   -0.000079  -0.000526  -0.000762   0.000282   0.000426
   61  O  9  X   -0.000121  -0.000194   0.000167  -0.000224  -0.000037
   62  O  9  Y    0.000033  -0.000146   0.000365  -0.000165   0.000018
   63  O  9  Z    0.000039   0.000101   0.000606   0.000072  -0.000044
   64  O  9  S    0.000792   0.001586   0.008746  -0.001247  -0.001721
   65  O  9  X    0.000696   0.001002   0.002253  -0.000322   0.000158
   66  O  9  Y    0.000054   0.001140   0.003775   0.000210  -0.001725
   67  O  9  Z   -0.000100  -0.000535  -0.001231  -0.000148   0.000126
   68  C 10  S    0.000231  -0.007376  -0.011905  -0.009698   0.988355
   69  C 10  S    0.000873  -0.004654  -0.004963  -0.001566   0.107235
   70  C 10  X    0.000387  -0.001356   0.000483  -0.000142   0.002019
   71  C 10  Y   -0.000485  -0.000272  -0.000435   0.001036   0.000317
   72  C 10  Z   -0.000176  -0.000714  -0.000005   0.000612   0.001091
   73  C 10  S   -0.007330   0.013623   0.031310  -0.000005  -0.099904
   74  C 10  X    0.000158   0.009117   0.010593  -0.002245  -0.008715
   75  C 10  Y   -0.001944   0.000092  -0.013674  -0.004685  -0.000790
   76  C 10  Z   -0.002238   0.004941   0.004166  -0.004206  -0.014528
   77  H 11  S    0.000384   0.000093  -0.001815  -0.000516   0.000136
   78  H 11  S   -0.000366   0.003041   0.001325  -0.002933   0.011223
   79  O 12  S   -0.001461  -0.000262   0.000133   0.000024  -0.000235
   80  O 12  S    0.000018  -0.000997   0.000954  -0.000241  -0.000567
   81  O 12  X   -0.000156   0.000310  -0.000024  -0.000081  -0.000301
   82  O 12  Y    0.000315  -0.000379  -0.000138   0.000378  -0.000576
   83  O 12  Z    0.000153   0.000400   0.000071  -0.000102   0.000564
   84  O 12  S    0.000756   0.010712  -0.004217  -0.001357   0.008357
   85  O 12  X    0.000430   0.006608   0.001309  -0.001305  -0.006038
   86  O 12  Y   -0.001322  -0.001241   0.002345   0.000298  -0.001074
   87  O 12  Z   -0.000098  -0.000491  -0.001804   0.000045   0.001189
   88  C 13  S   -0.000818   0.000293  -0.004234  -0.001275  -0.008138
   89  C 13  S   -0.003206   0.000748  -0.001175  -0.000815  -0.004834
   90  C 13  X   -0.000374  -0.000167  -0.000332   0.000193  -0.000044
   91  C 13  Y    0.001533   0.000201   0.000636  -0.000061  -0.000643
   92  C 13  Z   -0.000564   0.000508   0.000373  -0.000119  -0.000383
   93  C 13  S    0.019262  -0.005791   0.000112   0.004768   0.031177
   94  C 13  X   -0.001977  -0.003516  -0.001237   0.001393   0.010577
   95  C 13  Y    0.007272   0.001196   0.000158  -0.000866  -0.008571
   96  C 13  Z   -0.005586  -0.000261  -0.000315  -0.001113  -0.011496
   97  O 14  S    0.975080  -0.000000  -0.000028   0.000011   0.000056
   98  O 14  S    0.096753   0.000031  -0.000325   0.000073   0.000146
   99  O 14  X    0.003139  -0.000090  -0.000075  -0.000007   0.000074
  100  O 14  Y   -0.002205  -0.000001   0.000207   0.000026   0.000240
  101  O 14  Z    0.000009   0.000039   0.000138   0.000002  -0.000012
  102  O 14  S   -0.043381  -0.000208   0.000512  -0.000449  -0.001816
  103  O 14  X   -0.006877   0.000513   0.000377  -0.000119  -0.001304
  104  O 14  Y    0.006876  -0.000032  -0.000741   0.000098   0.000801
  105  O 14  Z   -0.001005  -0.000146  -0.000535  -0.000020   0.000433
  106  H 15  S    0.000021   0.000534   0.000002  -0.000300  -0.000269
  107  H 15  S    0.000050   0.001596  -0.000267   0.002098   0.001057
  108  H 16  S    0.000147   0.000053  -0.000149   0.000124   0.000025
  109  H 16  S    0.000072   0.000449   0.001742   0.001554  -0.000032
  110  H 17  S   -0.001301  -0.000003   0.000052  -0.000350  -0.001315
  111  H 17  S   -0.001145   0.000100  -0.000971   0.000420   0.002089
  112  H 18  S   -0.001112   0.000306   0.000058   0.000024  -0.002298
  113  H 18  S   -0.001309   0.002432  -0.000060  -0.001386  -0.001455
  114  H 19  S    0.002963  -0.000304  -0.000365  -0.000101   0.000017
  115  H 19  S    0.005212   0.000391   0.000652   0.000356   0.000346
  116  H 20  S   -0.000196  -0.001935  -0.000545   0.000036  -0.000164
  117  H 20  S   -0.000147  -0.000110  -0.000552  -0.000429   0.000500
  118  H 21  S   -0.000101  -0.001534  -0.000503  -0.000193  -0.000537
  119  H 21  S   -0.000011   0.001883   0.000110  -0.000595  -0.000269
  120  O 22  S    0.128155   0.000053  -0.000004  -0.000023   0.000008
  121  O 22  S    0.012653   0.000165  -0.000076  -0.000289   0.000014
  122  O 22  X   -0.000293  -0.000091  -0.000063   0.000118   0.000063
  123  O 22  Y   -0.000400   0.000153   0.000004   0.000164   0.000033
  124  O 22  Z    0.000001  -0.000128   0.000035  -0.000192   0.000042
  125  O 22  S   -0.005536  -0.001622   0.000302   0.000363  -0.000378
  126  O 22  X    0.000516   0.001179   0.000339  -0.000486  -0.000186
  127  O 22  Y    0.001178   0.000790   0.000089  -0.000572   0.000171
  128  O 22  Z   -0.000034  -0.000403  -0.000190   0.000641  -0.000310
  129  H 23  S    0.000095  -0.000222   0.000140  -0.000514   0.000243
  130  H 23  S   -0.000195   0.003065  -0.001135   0.001949  -0.000387
  131  H 24  S    0.000501  -0.000053   0.000186  -0.000462  -0.000063
  132  H 24  S    0.000321   0.000555  -0.000273   0.001017   0.000099

                     11         12         13         14         15
                  -11.2297   -11.2297    -1.4333    -1.3863    -1.3759
                     A          A          A          A          A   
    1  O  1  S    0.000003   0.000027  -0.104622   0.019308   0.046295
    2  O  1  S    0.000046  -0.000104   0.095295  -0.016149  -0.043724
    3  O  1  X   -0.000202  -0.000007  -0.001178   0.004002  -0.004073
    4  O  1  Y    0.000090   0.000033  -0.033674   0.000391   0.015830
    5  O  1  Z    0.000198   0.000178  -0.029031   0.008770   0.007548
    6  O  1  S    0.000238  -0.000905   0.324165  -0.067987  -0.140478
    7  O  1  X    0.000458  -0.000680  -0.005602   0.003795  -0.006614
    8  O  1  Y   -0.000523  -0.000387  -0.041423   0.002188   0.019329
    9  O  1  Z   -0.000592   0.001035  -0.035320   0.011353   0.010478
   10  C  2  S    0.000338   0.002017  -0.089358   0.028193   0.013930
   11  C  2  S   -0.000112  -0.002465   0.099273  -0.032478  -0.011335
   12  C  2  X   -0.000034  -0.000410  -0.035981   0.028596  -0.016314
   13  C  2  Y   -0.000208  -0.000240   0.011322  -0.030700   0.001872
   14  C  2  Z    0.000196   0.000019   0.021636   0.008282  -0.017829
   15  C  2  S    0.002592   0.022182   0.138600  -0.045031  -0.024855
   16  C  2  X    0.002892   0.011713   0.022796   0.009873   0.013346
   17  C  2  Y    0.001660   0.007237  -0.017504   0.003264   0.007802
   18  C  2  Z   -0.003041  -0.009635  -0.018717   0.017182  -0.010211
   19  C  3  S    0.162254   0.974249  -0.023379   0.013592   0.004871
   20  C  3  S    0.016793   0.100367   0.026796  -0.013788  -0.003931
   21  C  3  X   -0.000023  -0.000362  -0.015402   0.008336   0.001408
   22  C  3  Y   -0.000066  -0.000519   0.002193  -0.007232  -0.000391
   23  C  3  Z    0.000069   0.000356   0.012750  -0.002870  -0.003190
   24  C  3  S   -0.014236  -0.080373   0.019354  -0.023097  -0.018421
   25  C  3  X    0.001100   0.005080   0.001261  -0.000536   0.000387
   26  C  3  Y    0.001010   0.005593   0.009424  -0.004837   0.001201
   27  C  3  Z   -0.001467  -0.006990  -0.007642  -0.003075  -0.007455
   28  C  4  S    0.001463   0.004283  -0.053517  -0.054185   0.014292
   29  C  4  S   -0.000434  -0.000677   0.057266   0.055166  -0.017412
   30  C  4  X    0.000028  -0.000719   0.010537   0.036209  -0.038034
   31  C  4  Y    0.000053  -0.000591   0.017872  -0.037175   0.004962
   32  C  4  Z    0.000304   0.000516   0.017717   0.039539  -0.014378
   33  C  4  S    0.002546   0.001936   0.079983   0.100539  -0.016805
   34  C  4  X   -0.001003   0.003332  -0.018852  -0.010969  -0.009125
   35  C  4  Y    0.000321   0.001774   0.002416   0.000998  -0.010709
   36  C  4  Z   -0.000727  -0.000713   0.004993  -0.016797  -0.006082
   37  H  5  S   -0.000405  -0.000112   0.015893   0.013892  -0.003489
   38  H  5  S   -0.000364  -0.000755  -0.004535  -0.010720   0.000294
   39  O  6  S   -0.000008   0.000045  -0.080169  -0.178189   0.086096
   40  O  6  S   -0.000089   0.000459   0.074130   0.164780  -0.079263
   41  O  6  X    0.000045   0.000051  -0.024424  -0.046707   0.019093
   42  O  6  Y   -0.000066   0.000267  -0.001752  -0.022700   0.008640
   43  O  6  Z   -0.000020  -0.000181  -0.009666  -0.017520   0.007455
   44  O  6  S    0.000288  -0.001445   0.248212   0.563755  -0.273675
   45  O  6  X   -0.000163  -0.000059  -0.029159  -0.065835   0.029412
   46  O  6  Y    0.000284  -0.001253  -0.002470  -0.017573   0.009205
   47  O  6  Z    0.000065   0.000983  -0.013325  -0.028019   0.012004
   48  C  7  S    0.004684   0.001710  -0.035410  -0.029871  -0.065058
   49  C  7  S   -0.000789  -0.000593   0.034396   0.030924   0.068604
   50  C  7  X    0.000498  -0.000183   0.005460   0.001593  -0.038634
   51  C  7  Y   -0.000948  -0.000054   0.004272  -0.032353  -0.052138
   52  C  7  Z   -0.000192   0.000095  -0.012095  -0.006352  -0.020865
   53  C  7  S    0.001085   0.002675   0.062342   0.049006   0.110776
   54  C  7  X   -0.001586   0.002357   0.009295   0.005861   0.005810
   55  C  7  Y    0.001856   0.000310   0.021631  -0.004465   0.021776
   56  C  7  Z   -0.000360  -0.000964   0.002761   0.017402   0.007397
   57  H  8  S   -0.000591  -0.000177   0.010566   0.009365   0.017668
   58  H  8  S    0.001080   0.000081  -0.005468  -0.006867  -0.009559
   59  O  9  S   -0.000008  -0.000005  -0.036830  -0.080597  -0.199450
   60  O  9  S   -0.000068  -0.000085   0.033520   0.075169   0.184256
   61  O  9  X   -0.000051  -0.000032  -0.000450  -0.004985  -0.020818
   62  O  9  Y    0.000083  -0.000070   0.011334   0.017624   0.042918
   63  O  9  Z    0.000058  -0.000007   0.006868   0.017114   0.040195
   64  O  9  S    0.000440   0.000117   0.117001   0.251693   0.632318
   65  O  9  X    0.000254   0.000023  -0.001435  -0.006358  -0.016893
   66  O  9  Y   -0.000254   0.000227   0.014492   0.026202   0.065218
   67  O  9  Z   -0.000144   0.000072   0.012287   0.019866   0.054959
   68  C 10  S    0.007298   0.001293  -0.045638   0.024885  -0.023062
   69  C 10  S   -0.002096  -0.000331   0.050380  -0.025796   0.021616
   70  C 10  X   -0.000277  -0.000089   0.034626  -0.017736   0.007079
   71  C 10  Y   -0.000052   0.000045   0.012765  -0.022125  -0.009576
   72  C 10  Z   -0.000048  -0.000460  -0.010119   0.009784   0.001563
   73  C 10  S    0.021056  -0.000784   0.068054  -0.042630   0.039588
   74  C 10  X   -0.004204   0.002314  -0.013775  -0.006936  -0.007875
   75  C 10  Y    0.009742  -0.000239   0.003690  -0.006753  -0.008859
   76  C 10  Z    0.010068   0.000463  -0.000084  -0.000973  -0.007312
   77  H 11  S   -0.001381   0.000326   0.012155  -0.007545   0.007304
   78  H 11  S    0.001855   0.000734  -0.006623   0.000319  -0.005457
   79  O 12  S    0.000014   0.000031  -0.142113   0.100003  -0.023228
   80  O 12  S   -0.000301  -0.000017   0.127947  -0.091478   0.020286
   81  O 12  X    0.000078  -0.000548   0.019144  -0.008720  -0.004777
   82  O 12  Y   -0.000029   0.000066  -0.037060   0.020074  -0.007054
   83  O 12  Z   -0.000362   0.000394   0.030560  -0.018460   0.003420
   84  O 12  S   -0.000704  -0.001132   0.446923  -0.310931   0.079343
   85  O 12  X    0.000664   0.000601   0.022330  -0.010833  -0.000876
   86  O 12  Y    0.000028  -0.000217  -0.049716   0.032734  -0.010355
   87  O 12  Z    0.000294  -0.001055   0.049924  -0.028522   0.008442
   88  C 13  S    0.974191  -0.162208  -0.014171   0.012937  -0.008478
   89  C 13  S    0.100072  -0.016406   0.016753  -0.013456   0.010202
   90  C 13  X    0.000225  -0.000162   0.005953  -0.003132   0.001454
   91  C 13  Y   -0.000532   0.000134  -0.001240  -0.004385  -0.000906
   92  C 13  Z   -0.000280   0.000230  -0.010958   0.008913  -0.005324
   93  C 13  S   -0.078660   0.010697   0.015387  -0.021066   0.014947
   94  C 13  X   -0.003938  -0.000070   0.007581   0.000085   0.003311
   95  C 13  Y    0.006738  -0.000394   0.005039   0.002412   0.004471
   96  C 13  Z    0.004679  -0.000517   0.002919   0.000009  -0.000508
   97  O 14  S   -0.000170   0.000025  -0.016283   0.022391  -0.012519
   98  O 14  S   -0.000329   0.000030   0.015488  -0.020849   0.012079
   99  O 14  X    0.000353  -0.000089   0.006300  -0.007523   0.004021
  100  O 14  Y   -0.000455   0.000045  -0.004612   0.005107  -0.003038
  101  O 14  Z    0.000173  -0.000009  -0.000990   0.001164  -0.000404
  102  O 14  S    0.007234  -0.001088   0.046975  -0.067876   0.036334
  103  O 14  X    0.000263   0.000107   0.005848  -0.009362   0.004360
  104  O 14  Y   -0.002872   0.000548  -0.006600   0.007421  -0.003036
  105  O 14  Z    0.000884  -0.000228  -0.001092   0.000641  -0.001126
  106  H 15  S   -0.000012  -0.000237   0.031997   0.079615  -0.037580
  107  H 15  S    0.000229  -0.000241   0.003868   0.016034  -0.004518
  108  H 16  S    0.000300  -0.000121   0.014147   0.034960   0.089016
  109  H 16  S   -0.000618   0.000480   0.002022   0.005929   0.018738
  110  H 17  S    0.000134   0.000027   0.004962  -0.003260   0.003177
  111  H 17  S    0.014591  -0.002142  -0.000053   0.003543   0.002193
  112  H 18  S    0.000260   0.000068   0.005282  -0.004154   0.003274
  113  H 18  S    0.015039  -0.002033  -0.001051  -0.000619  -0.004704
  114  H 19  S   -0.000168   0.000073   0.008779  -0.010751   0.005839
  115  H 19  S    0.002856  -0.000783   0.004012  -0.004614   0.000647
  116  H 20  S    0.000076   0.000320   0.008083  -0.004253  -0.001400
  117  H 20  S    0.002364   0.014474  -0.003788  -0.000911  -0.000013
  118  H 21  S    0.000074   0.000428   0.008099  -0.003502  -0.000974
  119  H 21  S    0.002623   0.015086  -0.001057   0.005087   0.000554
  120  O 22  S   -0.000034  -0.000168  -0.025071   0.024447   0.005436
  121  O 22  S   -0.000114  -0.000326   0.024194  -0.023446  -0.005054
  122  O 22  X   -0.000007  -0.000168  -0.007541   0.007110   0.001029
  123  O 22  Y   -0.000108  -0.000585  -0.008958   0.007150   0.001784
  124  O 22  Z    0.000000  -0.000022   0.001953  -0.001114  -0.000583
  125  O 22  S    0.001429   0.007203   0.069827  -0.070971  -0.016446
  126  O 22  X   -0.000010   0.000517  -0.009602   0.008813   0.002147
  127  O 22  Y   -0.000446  -0.002716  -0.009775   0.008460   0.001415
  128  O 22  Z    0.000180   0.001061   0.003871  -0.001235   0.000408
  129  H 23  S    0.000094  -0.000154   0.044247   0.001310  -0.023175
  130  H 23  S   -0.000331  -0.000188   0.000471   0.006288  -0.005661
  131  H 24  S    0.000029  -0.000207   0.011630  -0.011599  -0.001958
  132  H 24  S    0.000157   0.002697   0.005916  -0.005013   0.001104

                     16         17         18         19         20
                   -1.3422    -1.3309    -1.3253    -1.0780    -1.0502
                     A          A          A          A          A   
    1  O  1  S   -0.142743   0.093370  -0.082914   0.016413  -0.052230
    2  O  1  S    0.130703  -0.084783   0.075951  -0.016534   0.045932
    3  O  1  X    0.011784  -0.005450   0.010080  -0.007748   0.012209
    4  O  1  Y   -0.041150   0.028762  -0.023721  -0.010191  -0.002997
    5  O  1  Z   -0.020497   0.009475  -0.008300  -0.000461   0.043755
    6  O  1  S    0.460816  -0.306039   0.269986  -0.047860   0.198566
    7  O  1  X    0.013602  -0.003908   0.011673  -0.005246   0.001555
    8  O  1  Y   -0.056904   0.038490  -0.033923  -0.008477  -0.014262
    9  O  1  Z   -0.035608   0.022071  -0.018245   0.001748   0.020560
   10  C  2  S   -0.027714   0.008158   0.000307  -0.007998   0.113125
   11  C  2  S    0.027692  -0.010557  -0.002319   0.017632  -0.109494
   12  C  2  X    0.041602  -0.002036   0.049078   0.008252  -0.019194
   13  C  2  Y    0.011675   0.004092   0.003960  -0.079939   0.049205
   14  C  2  Z    0.056675  -0.052286   0.037104   0.018114   0.064929
   15  C  2  S    0.061359  -0.013578   0.005884  -0.023142  -0.304817
   16  C  2  X   -0.009459   0.000535  -0.008954   0.013786   0.016153
   17  C  2  Y   -0.004294   0.011878   0.004861   0.000809   0.052726
   18  C  2  Z   -0.018269   0.009185  -0.010586  -0.013413   0.020270
   19  C  3  S   -0.019178  -0.065277  -0.027807  -0.000509   0.077143
   20  C  3  S    0.020948   0.069788   0.030006   0.003959  -0.080803
   21  C  3  X   -0.002692  -0.007775   0.000836   0.005912   0.035335
   22  C  3  Y    0.013002   0.066382   0.029153  -0.003315   0.051175
   23  C  3  Z    0.005745  -0.010213  -0.001152  -0.003026  -0.033401
   24  C  3  S    0.027910   0.120071   0.047695  -0.011845  -0.201912
   25  C  3  X    0.016278  -0.009815   0.012757   0.016593   0.005720
   26  C  3  Y    0.001629  -0.012959  -0.003666   0.000389   0.022222
   27  C  3  Z    0.010851  -0.006287   0.009114  -0.003438  -0.009993
   28  C  4  S    0.013024  -0.004689   0.009286  -0.100129   0.095690
   29  C  4  S   -0.014109   0.006186  -0.009426   0.096751  -0.096034
   30  C  4  X   -0.008309   0.006659   0.002722  -0.070631   0.000527
   31  C  4  Y    0.015332  -0.009137  -0.001273   0.029127  -0.059913
   32  C  4  Z   -0.007106   0.000626  -0.000206   0.007416   0.029126
   33  C  4  S   -0.024979   0.012881  -0.019280   0.275966  -0.240650
   34  C  4  X    0.003559  -0.012106   0.008574  -0.014173   0.033930
   35  C  4  Y   -0.013305  -0.001579  -0.004774   0.043138  -0.000368
   36  C  4  Z    0.021643  -0.007730   0.018162   0.011132   0.006304
   37  H  5  S   -0.003253   0.002130  -0.001843   0.051148  -0.056219
   38  H  5  S    0.004428  -0.002019   0.005287  -0.003551   0.001418
   39  O  6  S    0.057373  -0.027939   0.014172   0.046798  -0.039410
   40  O  6  S   -0.052765   0.025432  -0.012740  -0.041231   0.035507
   41  O  6  X    0.013155  -0.006179   0.003586  -0.023894   0.017833
   42  O  6  Y    0.013216  -0.007805   0.004357   0.039024  -0.044904
   43  O  6  Z    0.005703  -0.003008   0.002188  -0.017742   0.030440
   44  O  6  S   -0.188670   0.093542  -0.049579  -0.181697   0.149410
   45  O  6  X    0.024071  -0.010768   0.008205  -0.007486   0.004911
   46  O  6  Y    0.017451  -0.007707   0.007400   0.023162  -0.034234
   47  O  6  Z    0.011348  -0.007469   0.003934  -0.008061   0.021787
   48  C  7  S   -0.000933   0.001165   0.003750  -0.129091  -0.000189
   49  C  7  S    0.001048   0.000245  -0.001476   0.128752  -0.001239
   50  C  7  X   -0.005560   0.001337  -0.005323   0.041022  -0.061064
   51  C  7  Y   -0.019618  -0.000366  -0.011869   0.072785   0.030643
   52  C  7  Z    0.000813  -0.001282   0.005422  -0.014402   0.015565
   53  C  7  S   -0.002236  -0.009638  -0.012584   0.323198  -0.005303
   54  C  7  X   -0.011897  -0.002810  -0.006431   0.015755   0.015475
   55  C  7  Y    0.011403  -0.002167  -0.008458   0.036992  -0.012813
   56  C  7  Z   -0.000764   0.006270  -0.004613  -0.007887   0.003430
   57  H  8  S   -0.000422  -0.001131   0.001768   0.070779   0.004938
   58  H  8  S    0.005715  -0.002245   0.003143  -0.004245   0.005880
   59  O  9  S   -0.036130   0.002509  -0.017946   0.061288   0.002037
   60  O  9  S    0.032940  -0.002345   0.017022  -0.055400  -0.002547
   61  O  9  X   -0.005643   0.000709  -0.003157   0.048372  -0.011789
   62  O  9  Y    0.005356  -0.000415   0.001880   0.041159   0.002902
   63  O  9  Z    0.007453  -0.000495   0.004031  -0.010358   0.002610
   64  O  9  S    0.118321  -0.007457   0.055266  -0.229563  -0.007012
   65  O  9  X   -0.001562   0.000481  -0.003068   0.035128  -0.010388
   66  O  9  Y    0.010458  -0.000505   0.003948   0.018930   0.005840
   67  O  9  Z    0.010054  -0.001129   0.004605  -0.012053   0.001208
   68  C 10  S    0.036832   0.000935   0.017359  -0.096832  -0.102533
   69  C 10  S   -0.036971  -0.000384  -0.019817   0.097192   0.089305
   70  C 10  X   -0.011833   0.005760  -0.032437  -0.000146  -0.019050
   71  C 10  Y   -0.023347  -0.000924  -0.001236  -0.058274   0.029472
   72  C 10  Z    0.001610  -0.005154   0.021064   0.047607   0.017552
   73  C 10  S   -0.083082   0.003611  -0.035065   0.232697   0.312306
   74  C 10  X    0.001383  -0.001680   0.002739   0.004470   0.020864
   75  C 10  Y   -0.007027  -0.002618   0.005388  -0.005511  -0.008902
   76  C 10  Z   -0.002097  -0.002993  -0.000334   0.036239   0.026732
   77  H 11  S   -0.011355  -0.000685  -0.004866   0.047422   0.053638
   78  H 11  S    0.003778  -0.002603   0.003620  -0.000378   0.007672
   79  O 12  S    0.074564  -0.019051   0.097482   0.077357  -0.020887
   80  O 12  S   -0.067460   0.017709  -0.087671  -0.067874   0.017462
   81  O 12  X    0.012147   0.004693  -0.004240  -0.032905  -0.094608
   82  O 12  Y    0.016134  -0.001888   0.025772  -0.029304   0.010848
   83  O 12  Z   -0.011395  -0.003873  -0.012495   0.013710   0.022981
   84  O 12  S   -0.246373   0.062187  -0.326235  -0.291703   0.080788
   85  O 12  X    0.002188   0.007661  -0.011069  -0.026840  -0.061464
   86  O 12  Y    0.026111  -0.002728   0.043929  -0.013476   0.002826
   87  O 12  Z   -0.014709  -0.007069  -0.021931  -0.000473   0.017075
   88  C 13  S    0.052129   0.015827  -0.051987  -0.051383  -0.065687
   89  C 13  S   -0.056107  -0.017068   0.055448   0.056887   0.069093
   90  C 13  X    0.006286   0.003810  -0.018339   0.018406   0.024274
   91  C 13  Y   -0.034600  -0.013107   0.051579  -0.043823  -0.049067
   92  C 13  Z    0.026777   0.006028  -0.018699  -0.014321  -0.023399
   93  C 13  S   -0.087933  -0.025498   0.092527   0.107561   0.150784
   94  C 13  X   -0.003348   0.000082  -0.002235  -0.009988   0.001620
   95  C 13  Y    0.001976   0.001799  -0.008006  -0.013380  -0.015311
   96  C 13  Z   -0.007188   0.001970  -0.001336   0.011340  -0.003756
   97  O 14  S    0.133130   0.045458  -0.167203   0.025562   0.040883
   98  O 14  S   -0.123407  -0.042071   0.154788  -0.023701  -0.037367
   99  O 14  X   -0.039305  -0.012962   0.046849  -0.006253  -0.005403
  100  O 14  Y    0.023854   0.007599  -0.026253  -0.016903  -0.026059
  101  O 14  Z    0.004460   0.001260  -0.004684   0.007650   0.008545
  102  O 14  S   -0.416109  -0.143350   0.528449  -0.090064  -0.150162
  103  O 14  X   -0.050169  -0.016767   0.061250  -0.005789  -0.007857
  104  O 14  Y    0.035361   0.010699  -0.039101  -0.005596  -0.013626
  105  O 14  Z    0.003494   0.000626  -0.002151   0.004387   0.004388
  106  H 15  S   -0.027073   0.013981  -0.006489  -0.039255   0.041559
  107  H 15  S   -0.006463   0.003636  -0.002200  -0.023322   0.023128
  108  H 16  S    0.017518  -0.001215   0.008854  -0.054163   0.004162
  109  H 16  S    0.004250  -0.000924   0.002368  -0.029373   0.005008
  110  H 17  S   -0.015813  -0.005004   0.016123   0.028510   0.034708
  111  H 17  S    0.004513   0.000178  -0.002270  -0.007462  -0.001296
  112  H 18  S   -0.015851  -0.004979   0.015289   0.030099   0.036133
  113  H 18  S    0.012707  -0.004212   0.001619   0.000263   0.005024
  114  H 19  S   -0.059717  -0.020202   0.073379  -0.018750  -0.024971
  115  H 19  S   -0.010770  -0.001169   0.007883  -0.019223  -0.014201
  116  H 20  S    0.006490   0.018838   0.008535   0.003130  -0.045643
  117  H 20  S    0.001592  -0.008843  -0.000318   0.003026  -0.000732
  118  H 21  S    0.005580   0.019673   0.008145   0.002872  -0.040286
  119  H 21  S   -0.006771  -0.001540  -0.005380  -0.005060   0.008360
  120  O 22  S   -0.042424  -0.196456  -0.084858  -0.008407  -0.040619
  121  O 22  S    0.038984   0.182144   0.078223   0.007608   0.037488
  122  O 22  X   -0.009203  -0.048640  -0.019301   0.001553  -0.013537
  123  O 22  Y   -0.010762  -0.043937  -0.018779   0.000662   0.025505
  124  O 22  Z    0.001883   0.001296   0.001375  -0.001579  -0.008515
  125  O 22  S    0.133997   0.618711   0.269965   0.031808   0.148223
  126  O 22  X   -0.015373  -0.057837  -0.026619  -0.000522  -0.011397
  127  O 22  Y   -0.014011  -0.065147  -0.027422   0.000889   0.010206
  128  O 22  Z    0.000043   0.003140  -0.000173  -0.003293  -0.004844
  129  H 23  S    0.061299  -0.041339   0.037328  -0.005750   0.035034
  130  H 23  S    0.006528  -0.005895   0.007360  -0.011381   0.032558
  131  H 24  S    0.017065   0.088750   0.036140   0.001144   0.026384
  132  H 24  S   -0.001645   0.013253   0.001374  -0.006918   0.021625

                     21         22         23         24         25
                   -0.9636    -0.8807    -0.8364    -0.7967    -0.7533
                     A          A          A          A          A   
    1  O  1  S    0.018706   0.016257   0.005246   0.036969   0.024173
    2  O  1  S   -0.016436  -0.013742  -0.003481  -0.032341  -0.023251
    3  O  1  X    0.008596  -0.027438  -0.044644  -0.063538   0.010716
    4  O  1  Y    0.013830  -0.015318   0.035235  -0.001540  -0.086668
    5  O  1  Z   -0.033178  -0.020891  -0.044010  -0.134222   0.050317
    6  O  1  S   -0.076070  -0.071048  -0.026661  -0.161709  -0.093394
    7  O  1  X    0.005150  -0.020657  -0.042553  -0.056015   0.008879
    8  O  1  Y    0.017030  -0.009086   0.034900   0.006092  -0.085031
    9  O  1  Z   -0.023810  -0.008678  -0.037282  -0.118948   0.046190
   10  C  2  S   -0.053645  -0.038026  -0.029864  -0.106580   0.028801
   11  C  2  S    0.053570   0.029727   0.024672   0.096172  -0.023532
   12  C  2  X    0.093811  -0.057401  -0.047210  -0.014661  -0.003995
   13  C  2  Y    0.037337  -0.076454   0.110714  -0.011354  -0.086319
   14  C  2  Z   -0.067694   0.033060  -0.006193   0.050519   0.037250
   15  C  2  S    0.158760   0.144370   0.135429   0.416060  -0.137703
   16  C  2  X    0.028110  -0.026421  -0.037173  -0.004652   0.000970
   17  C  2  Y   -0.030471  -0.033438   0.039634  -0.068696  -0.044247
   18  C  2  Z   -0.017727   0.018493  -0.008894   0.008616   0.035196
   19  C  3  S   -0.129426   0.092754   0.009090   0.056326  -0.022724
   20  C  3  S    0.128567  -0.088231  -0.007241  -0.047402   0.019394
   21  C  3  X   -0.012181  -0.030610  -0.036230  -0.066457   0.074038
   22  C  3  Y   -0.056790   0.017878   0.014334   0.001614   0.001629
   23  C  3  Z    0.031578   0.008295   0.018417   0.067892  -0.036860
   24  C  3  S    0.380821  -0.300755  -0.038143  -0.220907   0.098396
   25  C  3  X   -0.010897  -0.003166  -0.014697  -0.006231   0.033846
   26  C  3  Y   -0.043360   0.030127   0.014140   0.036607  -0.013433
   27  C  3  Z    0.015495  -0.005547   0.005989   0.023987  -0.020383
   28  C  4  S    0.052125  -0.077494   0.060606   0.053992   0.003155
   29  C  4  S   -0.040670   0.067640  -0.048119  -0.040019  -0.010559
   30  C  4  X    0.061499   0.055065  -0.071307   0.049840   0.079447
   31  C  4  Y    0.019586   0.039646  -0.010934   0.142432   0.071547
   32  C  4  Z   -0.020968  -0.034224   0.069036   0.036365   0.144261
   33  C  4  S   -0.194016   0.276337  -0.268896  -0.259794   0.008677
   34  C  4  X    0.021854  -0.002083  -0.011785   0.041865   0.050400
   35  C  4  Y   -0.025312   0.022941  -0.035566   0.047004   0.088996
   36  C  4  Z   -0.004472  -0.011167   0.031465   0.042775   0.129532
   37  H  5  S   -0.025135   0.054016  -0.067632  -0.087258  -0.098153
   38  H  5  S    0.003035   0.013580  -0.033230  -0.040401  -0.043712
   39  O  6  S   -0.018473   0.018586  -0.008477  -0.024121  -0.008976
   40  O  6  S    0.016367  -0.015554   0.007057   0.023762   0.008566
   41  O  6  X    0.025994  -0.024862   0.002758   0.053438  -0.032230
   42  O  6  Y   -0.015354   0.069272  -0.077173  -0.000919   0.202977
   43  O  6  Z    0.005912  -0.053433   0.064087   0.040708  -0.002761
   44  O  6  S    0.077275  -0.083059   0.041639   0.098756   0.033695
   45  O  6  X    0.019521  -0.015811  -0.003426   0.052020  -0.027736
   46  O  6  Y   -0.009752   0.058673  -0.070913  -0.003525   0.200133
   47  O  6  Z    0.001649  -0.045167   0.059237   0.040131  -0.000763
   48  C  7  S    0.050143   0.087369  -0.088648   0.008017  -0.009420
   49  C  7  S   -0.041551  -0.074415   0.070911  -0.007664   0.009191
   50  C  7  X   -0.064171   0.044767   0.021011  -0.083544   0.036678
   51  C  7  Y    0.017770  -0.025706  -0.034855   0.108153   0.041429
   52  C  7  Z    0.015384  -0.014432   0.100651   0.018045   0.152514
   53  C  7  S   -0.171614  -0.318911   0.389558  -0.023622   0.037044
   54  C  7  X   -0.020616  -0.003824   0.031778  -0.042677   0.003092
   55  C  7  Y   -0.019146  -0.034068   0.028489   0.059102   0.019009
   56  C  7  Z    0.009498  -0.003728   0.065406  -0.001759   0.111564
   57  H  8  S   -0.023086  -0.057269   0.111239  -0.000881   0.099217
   58  H  8  S    0.001165  -0.013651   0.040110   0.004445   0.064300
   59  O  9  S   -0.015010  -0.029233   0.021461   0.003103   0.005406
   60  O  9  S    0.013157   0.026799  -0.019810  -0.003515  -0.005094
   61  O  9  X   -0.040085  -0.045005   0.069214  -0.109260  -0.097925
   62  O  9  Y   -0.020146  -0.065064   0.046538  -0.016233  -0.070331
   63  O  9  Z    0.003840  -0.005783   0.037531   0.014427   0.083246
   64  O  9  S    0.060609   0.120073  -0.091695  -0.011234  -0.025847
   65  O  9  X   -0.034517  -0.037010   0.061978  -0.103825  -0.092595
   66  O  9  Y   -0.011440  -0.052835   0.038124  -0.014495  -0.068762
   67  O  9  Z    0.003655  -0.005109   0.034688   0.015732   0.078072
   68  C 10  S   -0.053642   0.045015   0.090910  -0.055685   0.020823
   69  C 10  S    0.052635  -0.037195  -0.073979   0.049851  -0.021176
   70  C 10  X   -0.063975  -0.029604   0.039366  -0.017171   0.068197
   71  C 10  Y    0.037425   0.086984  -0.026775  -0.081491   0.056721
   72  C 10  Z    0.053678   0.050624   0.109534   0.014394   0.046473
   73  C 10  S    0.156686  -0.166779  -0.386301   0.208658  -0.074547
   74  C 10  X   -0.019310  -0.002919   0.007031  -0.017053   0.054774
   75  C 10  Y   -0.020783   0.015939   0.001529  -0.052591   0.049478
   76  C 10  Z    0.018515   0.014237   0.022364   0.032195   0.032419
   77  H 11  S    0.034085  -0.042222  -0.108850   0.050728  -0.066870
[...]
    8            -0.000009   0.026143   0.161509   0.003089   0.032120
    9             0.058379   0.157296   0.371231   0.001902   0.101537
   10             0.030516   0.038538   0.096990   0.025055   0.039913
   11             0.003902   0.000118   0.006247   0.022495   0.013395
   12             0.085410   0.142207   0.342967   0.714348   0.072450
   13             0.023931   0.052579   0.097551   0.063934   0.000492
   14             0.134541   0.481616   0.220031   0.192223   0.098370
   15             0.003293   0.001971   0.001635   0.001878   0.005619
   16             0.000723   0.006800   0.002680   0.000812   0.005617
   17             0.017093   0.028388   0.076680   0.046295   0.000079
   18             0.001696   0.032211   0.019815   0.012682   0.001747
   19             0.008134   0.037639   0.022569   0.008692   0.000230
   20             0.032349   0.000074   0.005572   0.014437   0.084774
   21             0.011369   0.023347   0.005687   0.066392   0.059870
   22             0.519403   0.085220   0.050401   0.174871   0.657571
   23             0.011217   0.010217   0.004877   0.000781   0.000767
   24             0.019575   0.009513   0.002284   0.018782   0.019221

                     46         47         48

                  2.000000   2.000000   2.000000

    1             0.065226   0.168423   0.266613
    2             0.028628   0.105104   0.094686
    3             0.004593   0.097082   0.085335
    4             0.096149   0.015281   0.104000
    5             0.011097   0.001304   0.000178
    6             0.233069   0.016022   0.042206
    7             0.190781   0.038521   0.073941
    8             0.018185   0.001013   0.002129
    9             0.289827   0.063218   0.060467
   10             0.196162   0.138523   0.113009
   11             0.059337   0.004416   0.020704
   12             0.104765   0.136884   0.114354
   13             0.103867   0.086741   0.103093
   14             0.424171   0.396750   0.456182
   15             0.002538   0.000045   0.004813
   16             0.010735   0.000065   0.006121
   17             0.019064   0.009338   0.001446
   18             0.105088   0.040227   0.066066
   19             0.006804   0.002337   0.000511
   20             0.000759   0.099454   0.061299
   21             0.000153   0.000459   0.000569
   22             0.022046   0.575967   0.321457
   23             0.006196   0.001853  -0.000032
   24             0.000757   0.000973   0.000852

               ----- POPULATIONS IN EACH AO -----
                             MULLIKEN      LOWDIN
              1  O  1  S      1.98637     1.98047
              2  O  1  S      0.41308     0.57531
              3  O  1  X      0.78553     0.78856
              4  O  1  Y      0.71236     0.70979
              5  O  1  Z      0.58328     0.57398
              6  O  1  S      1.53266     1.04214
              7  O  1  X      0.97859     0.98889
              8  O  1  Y      0.93005     0.93134
              9  O  1  Z      0.76806     0.81463
             10  C  2  S      1.99054     1.97511
             11  C  2  S      0.36326     0.43120
             12  C  2  X      0.46917     0.46407
             13  C  2  Y      0.53424     0.51995
             14  C  2  Z      0.48389     0.47107
             15  C  2  S      0.87851     0.53938
             16  C  2  X      0.26162     0.43653
             17  C  2  Y      0.28995     0.47187
             18  C  2  Z      0.21854     0.43966
             19  C  3  S      1.98849     1.97567
             20  C  3  S      0.36420     0.42399
             21  C  3  X      0.57322     0.54520
             22  C  3  Y      0.44110     0.42842
             23  C  3  Z      0.55315     0.52105
             24  C  3  S      1.01343     0.56874
             25  C  3  X      0.45018     0.55498
             26  C  3  Y      0.24417     0.42005
             27  C  3  Z      0.42213     0.54713
             28  C  4  S      1.99039     1.97574
             29  C  4  S      0.35335     0.43045
             30  C  4  X      0.48789     0.47635
             31  C  4  Y      0.54379     0.53946
             32  C  4  Z      0.52577     0.50356
             33  C  4  S      1.01571     0.55679
             34  C  4  X      0.24589     0.45340
             35  C  4  Y      0.34564     0.49243
             36  C  4  Z      0.45425     0.52663
             37  H  5  S      0.47020     0.48028
             38  H  5  S      0.26968     0.41908
             39  O  6  S      1.98602     1.98018
             40  O  6  S      0.41202     0.56996
             41  O  6  X      0.71561     0.71856
             42  O  6  Y      0.60952     0.59309
             43  O  6  Z      0.75941     0.76309
             44  O  6  S      1.51410     1.03964
             45  O  6  X      0.94211     0.95764
             46  O  6  Y      0.77997     0.79150
             47  O  6  Z      0.96459     0.97696
             48  C  7  S      1.99026     1.97563
             49  C  7  S      0.35019     0.42568
             50  C  7  X      0.52308     0.51638
             51  C  7  Y      0.46742     0.45645
             52  C  7  Z      0.56038     0.53179
             53  C  7  S      1.00767     0.55689
             54  C  7  X      0.33650     0.49354
             55  C  7  Y      0.23552     0.44175
             56  C  7  Z      0.50775     0.56093
             57  H  8  S      0.47322     0.48798
             58  H  8  S      0.29185     0.43086
             59  O  9  S      1.98615     1.98045
             60  O  9  S      0.41515     0.57421
             61  O  9  X      0.62995     0.61551
             62  O  9  Y      0.66345     0.66223
             63  O  9  Z      0.78297     0.78726
             64  O  9  S      1.51879     1.04732
             65  O  9  X      0.79420     0.81366
             66  O  9  Y      0.88090     0.90631
             67  O  9  Z      0.99439     1.00151
             68  C 10  S      1.99060     1.97599
             69  C 10  S      0.34996     0.43436
             70  C 10  X      0.47989     0.47051
             71  C 10  Y      0.51299     0.49774
             72  C 10  Z      0.54389     0.52447
             73  C 10  S      1.05321     0.56816
             74  C 10  X      0.36366     0.47382
             75  C 10  Y      0.29564     0.47714
             76  C 10  Z      0.43548     0.53264
             77  H 11  S      0.47275     0.48142
             78  H 11  S      0.26476     0.41463
             79  O 12  S      1.98671     1.98066
             80  O 12  S      0.40933     0.57617
             81  O 12  X      0.53553     0.52541
             82  O 12  Y      0.74172     0.74789
             83  O 12  Z      0.78754     0.79602
             84  O 12  S      1.53927     1.02541
             85  O 12  X      0.69856     0.74833
             86  O 12  Y      0.96067     0.96853
             87  O 12  Z      0.98760     0.99079
             88  C 13  S      1.98842     1.97579
             89  C 13  S      0.36225     0.42358
             90  C 13  X      0.57256     0.53566
             91  C 13  Y      0.45127     0.44139
             92  C 13  Z      0.53583     0.51072
             93  C 13  S      1.01043     0.57131
             94  C 13  X      0.49323     0.56087
             95  C 13  Y      0.27587     0.43957
             96  C 13  Z      0.37936     0.53125
             97  O 14  S      1.98597     1.98051
             98  O 14  S      0.41642     0.57418
             99  O 14  X      0.69170     0.68641
            100  O 14  Y      0.62014     0.61323
            101  O 14  Z      0.76185     0.76302
            102  O 14  S      1.51188     1.05262
            103  O 14  X      0.90824     0.91519
            104  O 14  Y      0.81531     0.85040
            105  O 14  Z      0.95155     0.96065
            106  H 15  S      0.40229     0.41917
            107  H 15  S      0.19180     0.30798
            108  H 16  S      0.41071     0.42744
            109  H 16  S      0.20837     0.31720
            110  H 17  S      0.47946     0.48320
            111  H 17  S      0.31992     0.43793
            112  H 18  S      0.47474     0.48106
            113  H 18  S      0.29545     0.43235
            114  H 19  S      0.40523     0.42217
            115  H 19  S      0.20794     0.32434
            116  H 20  S      0.47916     0.48556
            117  H 20  S      0.33525     0.44740
            118  H 21  S      0.47694     0.48035
            119  H 21  S      0.28760     0.42232
            120  O 22  S      1.98598     1.98049
            121  O 22  S      0.41709     0.57422
            122  O 22  X      0.64033     0.62612
            123  O 22  Y      0.57284     0.56254
            124  O 22  Z      0.86076     0.87283
            125  O 22  S      1.51146     1.04909
            126  O 22  X      0.82985     0.83931
            127  O 22  Y      0.77550     0.82254
            128  O 22  Z      1.06188     1.05795
            129  H 23  S      0.39183     0.40679
            130  H 23  S      0.19725     0.32558
            131  H 24  S      0.40678     0.42308
            132  H 24  S      0.20606     0.32422

          ----- MULLIKEN ATOMIC OVERLAP POPULATIONS -----
          (OFF-DIAGONAL ELEMENTS NEED TO BE MULTIPLIED BY 2)

             1           2           3           4           5

    1    8.3330880
    2    0.2172753   5.3231307
    3   -0.0446452   0.1642603   5.1281908
    4   -0.0574224   0.0683421  -0.0633400   5.5649095
    5    0.0015956  -0.0387416   0.0002440   0.3536118   0.4924333
    6   -0.0057076  -0.0429699   0.0007368   0.2095384  -0.0267316
    7    0.0024103  -0.1005443   0.0043511   0.1515184  -0.0562452
    8    0.0031313   0.0030065   0.0000117  -0.0539261   0.0040664
    9    0.0000019   0.0018027  -0.0000088  -0.0392729   0.0035273
   10    0.0032566  -0.1025662   0.0041540  -0.0805520   0.0031040
   11   -0.0000523   0.0031037  -0.0000396  -0.0000219   0.0000881
   12   -0.0313422   0.2049512  -0.0483909  -0.0531630   0.0019257
   13   -0.0039551   0.0022567  -0.0001863   0.0043066  -0.0000096
   14    0.0000030   0.0001735  -0.0000002  -0.0000414   0.0000002
   15    0.0000749   0.0055290  -0.0001415  -0.0433357  -0.0012908
   16    0.0000013  -0.0002175   0.0000015   0.0054302  -0.0001497
   17    0.0000488   0.0001057   0.0000021  -0.0001002  -0.0000003
   18    0.0122574   0.0002102   0.0000781  -0.0003651  -0.0000098
   19    0.0000030   0.0000508  -0.0000170   0.0000599  -0.0000012
   20    0.0016590  -0.0648679   0.3413662   0.0056896   0.0016778
   21    0.0013744  -0.0528980   0.3668149   0.0007352  -0.0000424
   22    0.0000837  -0.0356993   0.2529594   0.0015835  -0.0000014
   23    0.2565975  -0.0562552   0.0023603  -0.0120422   0.0008343
   24    0.0002433  -0.0097089  -0.0587002   0.0005357  -0.0000123

             6           7           8           9          10

    6    8.2881774
    7   -0.0414994   5.5223516
    8    0.0023347   0.3599112   0.5280909
    9    0.0002278   0.2259704  -0.0300641   8.2687749
   10    0.0024074   0.0790528  -0.0570799  -0.0335133   5.6421115
   11   -0.0000106  -0.0347588   0.0027218   0.0014343   0.3735093
   12    0.0002774  -0.0387814   0.0020011   0.0002611   0.2077963
   13   -0.0000197  -0.0523485  -0.0013398   0.0009576   0.1450108
   14    0.0000000   0.0015866   0.0000047  -0.0000002  -0.0391406
   15    0.2661381  -0.0017289  -0.0000147   0.0013664   0.0000603
   16   -0.0000460  -0.0471116  -0.0028234   0.2644594  -0.0013044
   17    0.0000001   0.0027144   0.0006207   0.0000358  -0.0525479
   18    0.0000002   0.0015151   0.0028011  -0.0000053  -0.0598163
   19   -0.0000001   0.0003470  -0.0000146  -0.0000007  -0.0083068
   20   -0.0000423  -0.0002937  -0.0000068  -0.0000003  -0.0001176
   21    0.0012940  -0.0000513  -0.0000025   0.0000000  -0.0000918
   22   -0.0000004  -0.0000358   0.0000002   0.0000000   0.0000774
   23    0.0292609   0.0004443   0.0016404  -0.0000091   0.0001040
   24   -0.0000011   0.0000045  -0.0000015  -0.0000000  -0.0002903

            11          12          13          14          15

   11    0.4519889
   12   -0.0209951   8.4342956
   13   -0.0428179  -0.0443572   5.1714207
   14    0.0009914  -0.0027158   0.2431920   8.2527311
   15   -0.0000009  -0.0000267  -0.0000026   0.0000000   0.3683305
   16    0.0003812   0.0000023   0.0000991  -0.0000010  -0.0000879
   17   -0.0008479   0.0016124   0.3574758  -0.0281557  -0.0000000
   18    0.0029739  -0.0008010   0.3494994  -0.0280106  -0.0000011
   19   -0.0001370   0.0158015  -0.0600363   0.2624698   0.0000000
   20   -0.0000084   0.0019036   0.0000040   0.0000001   0.0000086
   21    0.0000000   0.0016660   0.0000040   0.0000000  -0.0000128
   22    0.0000001  -0.0026049  -0.0000044   0.0000000   0.0000001
   23    0.0000082   0.0021557   0.0000674   0.0000001  -0.0007766
   24   -0.0000006   0.0154546   0.0000092  -0.0000089   0.0000001

            16          17          18          19          20

   16    0.4002903
   17    0.0001517   0.5409553
   18   -0.0000007  -0.0280804   0.5202548
   19    0.0000000   0.0053928  -0.0020988   0.3993829
   20   -0.0000001  -0.0000001  -0.0000029  -0.0000002   0.5919331
   21   -0.0000000  -0.0000000  -0.0000013  -0.0000006  -0.0312089
   22   -0.0000000  -0.0000000  -0.0000012  -0.0000046  -0.0319896
   23    0.0000020  -0.0000022  -0.0001973  -0.0000028  -0.0001076
   24   -0.0000000  -0.0000002   0.0000002   0.0002827  -0.0011888

            21          22          23          24

   21    0.4986509
   22   -0.0270938   8.2358152
   23    0.0005582   0.0000003   0.3644723
   24    0.0048456   0.2625947  -0.0000267   0.3988066

          TOTAL MULLIKEN AND LOWDIN ATOMIC POPULATIONS
       ATOM         MULL.POP.    CHARGE          LOW.POP.     CHARGE
    1 O             8.689981   -0.689981         8.405105   -0.405105
    2 C             5.489730    0.510270         5.748823    0.251177
    3 C             6.050061   -0.050061         5.985230    0.014770
    4 C             5.962678    0.037322         5.954806    0.045194
    5 H             0.739873    0.260127         0.899356    0.100644
    6 O             8.683364   -0.683364         8.390632   -0.390632
    7 C             5.978779    0.021221         5.959049    0.040951
    8 H             0.765069    0.234931         0.918836    0.081164
    9 O             8.665945   -0.665945         8.388453   -0.388453
   10 C             6.025317   -0.025317         5.954849    0.045151
   11 H             0.737510    0.262490         0.896051    0.103949
   12 O             8.646926   -0.646926         8.359214   -0.359214
   13 C             6.069226   -0.069226         5.990143    0.009857
   14 O             8.663078   -0.663078         8.396217   -0.396217
   15 H             0.594088    0.405912         0.727152    0.272848
   16 H             0.619077    0.380923         0.744642    0.255358
   17 H             0.799381    0.200619         0.921129    0.078871
   18 H             0.770198    0.229802         0.913413    0.086587
   19 H             0.613170    0.386830         0.746515    0.253485
   20 H             0.814407    0.185593         0.932961    0.067039
   21 H             0.764540    0.235460         0.902667    0.097333
   22 O             8.655679   -0.655679         8.385093   -0.385093
   23 H             0.589086    0.410914         0.732362    0.267638
   24 H             0.612837    0.387163         0.747300    0.252700

          -------------------------------
          BOND ORDER AND VALENCE ANALYSIS     BOND ORDER THRESHOLD=0.050
          -------------------------------

                   BOND                       BOND                       BOND
  ATOM PAIR DIST  ORDER      ATOM PAIR DIST  ORDER      ATOM PAIR DIST  ORDER
    1   2  1.440  0.880        1  23  1.004  0.750        2   3  1.525  0.858
    2   4  1.531  0.834        2  12  1.454  0.819        3  20  1.101  0.888
    3  21  1.092  0.895        3  22  1.450  0.909        4   5  1.095  0.869
    4   6  1.454  0.855        4   7  1.539  0.879        6  15  0.994  0.793
    6  23  1.943  0.056        7   8  1.099  0.878        7   9  1.453  0.873
    7  10  1.548  0.836        9  16  0.995  0.812       10  11  1.092  0.894
   10  12  1.499  0.808       10  13  1.527  0.860       13  14  1.453  0.899
   13  17  1.094  0.904       13  18  1.098  0.877       14  19  0.998  0.792
   22  24  0.997  0.792

                       TOTAL       BONDED        FREE
      ATOM            VALENCE     VALENCE     VALENCE
    1 O                 1.746       1.746      -0.000
    2 C                 3.374       3.374       0.000
    3 C                 3.546       3.546       0.000
    4 C                 3.428       3.428      -0.000
    5 H                 0.890       0.890      -0.000
    6 O                 1.761       1.761      -0.000
    7 C                 3.442       3.442      -0.000
    8 H                 0.899       0.899      -0.000
    9 O                 1.748       1.748       0.000
   10 C                 3.400       3.400       0.000
   11 H                 0.896       0.896       0.000
   12 O                 1.775       1.775      -0.000
   13 C                 3.535       3.535      -0.000
   14 O                 1.752       1.752      -0.000
   15 H                 0.813       0.813      -0.000
   16 H                 0.829       0.829       0.000
   17 H                 0.913       0.913       0.000
   18 H                 0.913       0.913      -0.000
   19 H                 0.833       0.833       0.000
   20 H                 0.912       0.912       0.000
   21 H                 0.902       0.902       0.000
   22 O                 1.762       1.762      -0.000
   23 H                 0.823       0.823      -0.000
   24 H                 0.832       0.832      -0.000

          ---------------------
          ELECTROSTATIC MOMENTS
          ---------------------

 POINT   1           X           Y           Z (BOHR)    CHARGE
                -0.404993   -0.066933   -0.497290       -0.00 (A.U.)
         DX          DY          DZ         /D/  (DEBYE)
    -1.319995   -6.080083    1.126488    6.322876
 ...... END OF PROPERTY EVALUATION ......
 CPU     0: STEP CPU TIME=     0.05 TOTAL CPU TIME=          2.4 (      0.0 MIN)
 TOTAL WALL CLOCK TIME=          8.6 SECONDS, CPU UTILIZATION IS    27.31%
               580000  WORDS OF DYNAMIC MEMORY USED
 EXECUTION OF GAMESS TERMINATED NORMALLY Fri May 22 14:49:48 2020
 DDI: 263640 bytes (0.3 MB / 0 MWords) used by master data server.
Note: The following floating-point exceptions are signalling: IEEE_DENORMALNote: The following floating-point exceptions are signalling: IEEE_DENORMALNote: The following floating-point exceptions are signalling: IEEE_DENORMAL

 ----------------------------------------
 CPU timing information for all processes
 ========================================
 0: 2.225 + 0.143 = 2.369
 1: 2.99 + 0.28 = 2.127
 2: 2.170 + 0.42 = 2.212
 3: 2.142 + 0.16 = 2.158
 4: 2.230 + 0.27 = 2.258
 5: 2.286 + 0.12 = 2.298
 6: 2.226 + 0.32 = 2.259
 7: 2.257 + 0.23 = 2.281
 ----------------------------------------

Note: The following floating-point exceptions are signalling: IEEE_DENORMALNote: The following floating-point exceptions are signalling: IEEE_DENORMAL
Note: The following floating-point exceptions are signalling: IEEE_DENORMALNote: The following floating-point exceptions are signalling: IEEE_DENORMAL
Note: The following floating-point exceptions are signalling: IEEE_DENORMAL



 ddikick.x: exited gracefully.
unset echo
----- accounting info -----
Files used on the master node pietdev were:
-rwxr-xr-x 1 piet piet     1421 mei 22 14:49 /home/piet/scr/beta-d-fructofuranose_fukui_neu.F05*
-rw-r--r-- 1 piet piet 49152000 mei 22 14:49 /home/piet/scr/beta-d-fructofuranose_fukui_neu.F10
ls: No match.
ls: No match.
ls: No match.
vr 22 mei 2020 14:49:51 CEST
0.182u 0.025s 0:11.98 1.6%	0+0k 0+8io 0pf+0w
