----- GAMESS execution script 'rungms' -----
This job is running on host pietdev
under operating system Linux at vr 22 mei 2020 14:49:39 CEST
Available scratch disk space (Kbyte units) at beginning of the job is
Filesystem     1K-blocks     Used Available Use% Mounted on
/dev/sda2      244568380 31372528 200702796  14% /
GAMESS temporary binary files will be written to /home/piet/scr
GAMESS supplementary output files will be written to /home/piet/gamess/scr
Copying input file beta-d-fructofuranose_fukui_acid.inp to your run's scratch directory...
cp beta-d-fructofuranose_fukui_acid.inp /home/piet/scr/beta-d-fructofuranose_fukui_acid.F05
unset echo
 
Assuming a single but multicore node.
 
/home/piet/gamess/ddikick.x /home/piet/gamess/gamess.03.x beta-d-fructofuranose_fukui_acid -ddi 1 8 pietdev:cpus=8 -scr /home/piet/scr

 Distributed Data Interface kickoff program.
 Initiating 8 compute processes on 1 nodes to run the following command:
 /home/piet/gamess/gamess.03.x beta-d-fructofuranose_fukui_acid 

          ******************************************************
          *         GAMESS VERSION = 30 SEP 2019 (R2)          *
          *             FROM IOWA STATE UNIVERSITY             *
          * M.W.SCHMIDT, K.K.BALDRIDGE, J.A.BOATZ, S.T.ELBERT, *
          *   M.S.GORDON, J.H.JENSEN, S.KOSEKI, N.MATSUNAGA,   *
          *          K.A.NGUYEN, S.J.SU, T.L.WINDUS,           *
          *       TOGETHER WITH M.DUPUIS, J.A.MONTGOMERY       *
          *         J.COMPUT.CHEM.  14, 1347-1363(1993)        *
          **************** 64 BIT LINUX VERSION ****************

  SINCE 1993, STUDENTS AND POSTDOCS WORKING AT IOWA STATE UNIVERSITY
  AND ALSO IN THEIR VARIOUS JOBS AFTER LEAVING ISU HAVE MADE IMPORTANT
  CONTRIBUTIONS TO THE CODE:
     IVANA ADAMOVIC, CHRISTINE AIKENS, YURI ALEXEEV, POOJA ARORA,
     ANDREY ASADCHEV, ROB BELL, PRADIPTA BANDYOPADHYAY, JONATHAN BENTZ,
     COLLEEN BERTONI, BRETT BODE, KURT BRORSEN, CALEB CARLIN, GALINA CHABAN,
     WEI CHEN, CHEOL HO CHOI, PAUL DAY, ALBERT DEFUSCO, NUWAN DESILVA,
     TIM DUDLEY, DMITRI FEDOROV, ALEX FINDLATER, GRAHAM FLETCHER, 
     MARK FREITAG, KURT GLAESEMANN, EMILIE B GUIDEZ, ANASTASIA GUNINA, 
     DAN KEMP, SAROM SOK LEANG, GRANT MERRILL,
     NORIYUKI MINEZAWA, JONATHAN MULLIN,
     TAKESHI NAGATA, SEAN NEDD, HEATHER NETZLOFF, BOSILJKA NJEGIC, RYAN OLSON,
     MIKE PAK, BUU PHAM, DAVID POOLE,
     SPENCER PRUITT, LUKE ROSKOP, TOSAPORN SATTASATHUCHANA,
     JIM SHOEMAKER, LYUDMILA SLIPCHENKO,
     TONY SMITH, JIE SONG, TETSUYA TAKETSUGU, SIMON WEBB,
     JORGE LUIS GALVEZ VALLEJO, PENG XU, SOOHAENG YOO,
     FEDERICO ZAHARIEV

  ADDITIONAL CODE HAS BEEN PROVIDED BY COLLABORATORS IN OTHER GROUPS:
     IOWA STATE UNIVERSITY:
          JOE IVANIC, AARON WEST, LAIMUTIS BYTAUTAS, KLAUS RUEDENBERG
     UNIVERSITY OF TOKYO: KIMIHIKO HIRAO, TAKAHITO NAKAJIMA,
          TAKAO TSUNEDA, MUNEAKI KAMIYA, SUSUMU YANAGISAWA,
          KIYOSHI YAGI, MAHITO CHIBA, SEIKEN TOKURA, NAOAKI KAWAKAMI
     UNIVERSITY OF AARHUS: FRANK JENSEN
     UNIVERSITY OF IOWA: VISVALDAS KAIRYS, HUI LI
     NATIONAL INST. OF STANDARDS AND TECHNOLOGY: WALT STEVENS, DAVID GARMER
     UNIVERSITY OF PISA: BENEDETTA MENNUCCI, JACOPO TOMASI
     UNIVERSITY OF MEMPHIS: HENRY KURTZ, PRAKASHAN KORAMBATH
     UNIVERSITY OF ALBERTA: TOBY ZENG, MARIUSZ KLOBUKOWSKI
     UNIVERSITY OF NEW ENGLAND: MARK SPACKMAN
     MIE UNIVERSITY: HIROAKI UMEDA
     NAT. INST. OF ADVANCED INDUSTRIAL SCIENCE AND TECHNOLOGY: KAZUO KITAURA
     MICHIGAN STATE UNIVERSITY:
          KAROL KOWALSKI, MARTA WLOCH, JEFFREY GOUR, JESSE LUTZ,
          WEI LI, JUN SHEN, J. EMILIANO DEUSTUA, PIOTR PIECUCH
     UNIVERSITY OF MINNESOTA:
          ANDREW SAND, PRACHI SHARMA, YINAN SHU
     UNIVERSITY OF SILESIA: MONIKA MUSIAL, STANISLAW KUCHARSKI
     FACULTES UNIVERSITAIRES NOTRE-DAME DE LA PAIX:
          OLIVIER QUINET, BENOIT CHAMPAGNE
     UNIVERSITY OF CALIFORNIA - SANTA BARBARA: BERNARD KIRTMAN
     INSTITUTE FOR MOLECULAR SCIENCE:
          KAZUYA ISHIMURA, MICHIO KATOUDA, AND SHIGERU NAGASE
     UNIVERSITY OF NOTRE DAME: ANNA POMOGAEVA, DAN CHIPMAN
     KYUSHU UNIVERSITY:
          HARUYUKI NAKANO,
          FENG LONG GU, JACEK KORCHOWIEC, MARCIN MAKOWSKI, AND YURIKO AOKI,
          HIROTOSHI MORI AND EISAKU MIYOSHI
     PENNSYLVANIA STATE UNIVERSITY:
          TZVETELIN IORDANOV, CHET SWALINA, JONATHAN SKONE,
          SHARON HAMMES-SCHIFFER
     WASEDA UNIVERSITY:
          MASATO KOBAYASHI, TOMOKO AKAMA, TSUGUKI TOUMA,
          TAKESHI YOSHIKAWA, YASUHIRO IKABATA, JUNJI SEINO,
          YUYA NAKAJIMA, HIROMI NAKAI
     NANJING UNIVERSITY: SHUHUA LI
     UNIVERSITY OF NEBRASKA:
          PEIFENG SU, DEJUN SI, NANDUN THELLAMUREGE, YALI WANG, HUI LI
     UNIVERSITY OF ZURICH: ROBERTO PEVERATI, KIM BALDRIDGE
     N. COPERNICUS UNIVERSITY AND JACKSON STATE UNIVERSITY:
          MARIA BARYSZ
     UNIVERSITY OF COPENHAGEN: Jimmy Kromann, CASPER STEINMANN
     TOKYO INSTITUTE OF TECHNOLOGY: HIROYA NAKATA
     NAGOYA UNIVERSITY: YOSHIO NISHIMOTO, STEPHAN IRLE
     MOSCOW STATE UNIVERSITY: VLADIMIR MIRONOV
     A.N.NESMEYANOV INSTITUTE OF ORGANOELEMENT COMPOUNDS OF RUSSIAN ACADEMY OF SCIENCES:
          IGOR S. GERASIMOV
     JOHANNES KEPLER UNIVERSITY LINZ:
          CHRISTIAN FRIEDL


 PARALLEL VERSION RUNNING ON        8 PROCESSORS IN        1 NODES.

 EXECUTION OF GAMESS BEGUN Fri May 22 14:49:39 2020

            ECHO OF THE FIRST FEW INPUT CARDS -
 INPUT CARD> $BASIS GBASIS=N21 NGAUSS=3 $END                                                
 INPUT CARD> $CONTRL SCFTYP=UHF MAXIT=60 MULT=2 ICHARG=-1 $END                              
 INPUT CARD> $SYSTEM MEMDDI=1000 MWORDS=30 $END                                             
 INPUT CARD> $SCF DIRSCF=.TRUE. $END                                                        
 INPUT CARD> $STATPT OPTTOL=0.0001 NSTEP=999 $END                                           
 INPUT CARD> $DATA                                                                          
 INPUT CARD>                                                                                
 INPUT CARD>C1                                                                              
 INPUT CARD>O 8.0000000 0.9930867785 0.5913392020 0.8105323961                              
 INPUT CARD>C 6.0000000 0.7010498367 0.1415178444 -0.5260473667                             
 INPUT CARD>C 6.0000000 1.7215147094 0.5872719420 -1.5684404004                             
 INPUT CARD>C 6.0000000 0.4185177329 -1.3617034451 -0.4526579820                            
 INPUT CARD>H 1.0000000 0.3549723891 -1.8135832322 -1.4475742556                            
 INPUT CARD>O 8.0000000 1.4599728525 -1.9346016562 0.3847450356                             
 INPUT CARD>C 6.0000000 -0.9810804109 -1.4029871373 0.1858769112                            
 INPUT CARD>H 1.0000000 -0.8421148092 -1.3619316259 1.2750657782                            
 INPUT CARD>O 8.0000000 -1.6157115261 -2.6358132754 -0.2482617345                           
 INPUT CARD>C 6.0000000 -1.6545880794 -0.0943432616 -0.2950190208                           
 INPUT CARD>H 1.0000000 -2.4127098276 -0.2937437984 -1.0550097955                           
 INPUT CARD>O 8.0000000 -0.5704071129 0.7006312015 -0.9575299388                            
 INPUT CARD>C 6.0000000 -2.1844509506 0.7828496686 0.8364831382                             
 INPUT CARD>O 8.0000000 -2.6288728004 2.0573714167 0.2981524056                             
 INPUT CARD>H 1.0000000 1.2319083567 -2.8852660578 0.5630465043                             
 INPUT CARD>H 1.0000000 -2.4868846993 -2.7244746353 0.2239967896                            
 INPUT CARD>H 1.0000000 -3.0531577084 0.3218107431 1.3159089087                             
 INPUT CARD>H 1.0000000 -1.3671422978 0.8968449019 1.5604539514                             
 INPUT CARD>H 1.0000000 -1.8338416173 2.3912344120 -0.2045766044                            
 INPUT CARD>H 1.0000000 1.5127665951 0.0385970079 -2.5000872641                             
 INPUT CARD>H 1.0000000 2.7227363124 0.3283780725 -1.2187620822                             
 INPUT CARD>O 8.0000000 1.6841559845 2.0247772221 -1.7512261942                             
 INPUT CARD>H 1.0000000 1.4881409331 -0.1801714957 1.2193216995                             
 INPUT CARD>H 1.0000000 0.7158494590 2.2418859861 -1.8520306793                             
 INPUT CARD> $END                                                                           
   30000000 WORDS OF MEMORY AVAILABLE

     BASIS OPTIONS
     -------------
     GBASIS=N21          IGAUSS=       3      POLAR=NONE    
     NDFUNC=       0     NFFUNC=       0     DIFFSP=       F
     NPFUNC=       0      DIFFS=       F     BASNAM=        


     RUN TITLE
     ---------
                                                                                 

 THE POINT GROUP OF THE MOLECULE IS C1      
 THE ORDER OF THE PRINCIPAL AXIS IS     0

 ATOM      ATOMIC                      COORDINATES (BOHR)
           CHARGE         X                   Y                   Z
 O           8.0     1.8766618934        1.1174690576        1.5316841328
 C           6.0     1.3247920951        0.2674299483       -0.9940853796
 C           6.0     3.2531910846        1.1097830507       -2.9639225848
 C           6.0     0.7908838362       -2.5732463878       -0.8553995521
 H           1.0     0.6708005486       -3.4271753648       -2.7355186900
 O           8.0     2.7589486407       -3.6558670256        0.7270626924
 C           6.0    -1.8539731485       -2.6512612538        0.3512564296
 H           1.0    -1.5913662396       -2.5736775870        2.4095249371
 O           8.0    -3.0532520595       -4.9809648453       -0.4691466514
 C           6.0    -3.1267180926       -0.1782829132       -0.5575051105
 H           1.0    -4.5593604620       -0.5550952896       -1.9936794279
 O           8.0    -1.0779131448        1.3240009893       -1.8094692094
 C           6.0    -4.1280137303        1.4793713632        1.5807239245
 O           8.0    -4.9678492493        3.8878682325        0.5634263492
 H           1.0     2.3279692361       -5.4523622509        1.0640036115
 H           1.0    -4.6995306447       -5.1485105212        0.4232925545
 H           1.0    -5.7696314662        0.6081341244        2.4867072622
 H           1.0    -2.5835243291        1.6947911181        2.9488303846
 H           1.0    -3.4654581616        4.5187778111       -0.3865937258
 H           1.0     2.8587143481        0.0729377689       -4.7244798745
 H           1.0     5.1452255673        0.6205445774       -2.3031263796
 O           8.0     3.1825933313        3.8262741359       -3.3093376496
 H           1.0     2.8121785947       -0.3404747577        2.3041839029
 H           1.0     1.3527593260        4.2365502094       -3.4998305047

          INTERNUCLEAR DISTANCES (ANGS.)
          ------------------------------

                1 O          2 C          3 C          4 C          5 H     

   1 O       0.0000000    1.4401633 *  2.4879983 *  2.3958621 *  3.3600428  
   2 C       1.4401633 *  0.0000000    1.5253290 *  1.5313016 *  2.1889270 *
   3 C       2.4879983 *  1.5253290 *  0.0000000    2.5963968 *  2.7651676 *
   4 C       2.3958621 *  1.5313016 *  2.5963968 *  0.0000000    1.0945738 *
   5 H       3.3600428    2.1889270 *  2.7651676 *  1.0945738 *  0.0000000  
   6 O       2.6037770 *  2.3907696 *  3.2004975    1.4539893 *  2.1431438 *
   7 C       2.8748684 *  2.3920481 *  3.7871864    1.5389302 *  2.1498346 *
   8 H       2.7201145 *  2.8081535 *  4.2961748    2.1387435 *  3.0082845  
   9 O       4.2826845    3.6274118    4.8237153    2.4089878 *  2.4490831 *
  10 C       2.9500147 *  2.3786623 *  3.6720936    2.4349168 *  2.8848749 *
  11 H       3.9828470    3.1882210    4.2581231    3.0853225    3.1818365  
  12 O       2.3627320 *  1.4544373 *  2.3746510 *  2.3422409 *  2.7235537 *
  13 C       3.1834094    3.2548288    4.5911301    3.6106009    4.2903441  
  14 O       3.9408597    3.9291456    4.9569378    4.6411613    5.1899117  
  15 H       3.4935754    3.2602695    4.1038361    2.0036225 *  2.4413350 *
  16 H       4.8424009    4.3519428    5.6472225    3.2796906    3.4205299  
  17 H       4.0865811    4.1856162    5.5845714    4.2443585    4.8797641  
  18 H       2.4952750 *  3.0333851    4.4074502    3.5131527    4.4000379  
  19 H       3.5016558    3.4044446    4.2136639    4.3839719    4.9006572  
  20 H       3.3964384    2.1368927 *  1.1011748 *  2.7111231 *  2.4246325 *
  21 H       2.6793417 *  2.1452241 *  1.0916710 *  2.9584987 *  3.2010403  
  22 O       3.0157799    2.4523920 *  1.4495612 *  3.8414022    4.0733211  
  23 H       1.0037012 *  1.9414710 *  2.9008706 *  2.3098977 *  3.3263251  
  24 H       3.1449018    2.4839479 *  1.9569194 *  3.8771777    4.0915337  

                6 O          7 C          8 H          9 O         10 C     

   1 O       2.6037770 *  2.8748684 *  2.7201145 *  4.2826845    2.9500147 *
   2 C       2.3907696 *  2.3920481 *  2.8081535 *  3.6274118    2.3786623 *
   3 C       3.2004975    3.7871864    4.2961748    4.8237153    3.6720936  
   4 C       1.4539893 *  1.5389302 *  2.1387435 *  2.4089878 *  2.4349168 *
   5 H       2.1431438 *  2.1498346 *  3.0082845    2.4490831 *  2.8848749 *
   6 O       0.0000000    2.5061731 *  2.5338172 *  3.2174881    3.6809129  
   7 C       2.5061731 *  0.0000000    1.0987854 *  1.4529602 *  1.5483612 *
   8 H       2.5338172 *  1.0987854 *  0.0000000    2.1311389 *  2.1753297 *
   9 O       3.2174881    1.4529602 *  2.1311389 *  0.0000000    2.5421974 *
  10 C       3.6809129    1.5483612 *  2.1753297 *  2.5421974 *  0.0000000  
  11 H       4.4455573    2.1954005 *  3.0061680    2.6021795 *  1.0918311 *
  12 O       3.5872827    2.4292472 *  3.0516347    3.5675740    1.4987840 *
  13 C       4.5684170    2.5786182 *  2.5679384 *  3.6314449    1.5266038 *
  14 O       5.7150683    3.8343066    3.9797609    4.8322921    2.4353561 *
  15 H       0.9937644 *  2.6901165 *  2.6700358 *  2.9714284 *  4.1057750  
  16 H       4.0283277    2.0038036 *  2.3804490 *  0.9949028 *  2.8070779 *
  17 H       5.1309658    2.9232524 *  2.7794545 *  3.6414861    2.1735386 *
  18 H       4.1703670    2.7069786 *  2.3364870 *  3.9765453    2.1231719 *
  19 H       5.4689461    3.9084233    4.1544096    5.0319676    2.4936736 *
  20 H       3.4955053    3.9385075    4.6646251    4.6915417    3.8616233  
  21 H       3.0474389    4.3230654    4.6673855    5.3432603    4.4936581  
  22 O       4.5043659    4.7545160    5.1971419    5.9050090    4.2140744  
  23 H       1.9430226 *  2.9428456 *  2.6133802 *  4.2211228    3.4896046  
  24 H       4.7958247    4.5075202    5.0193113    5.6391667    3.6744015  

               11 H         12 O         13 C         14 O         15 H     

   1 O       3.9828470    2.3627320 *  3.1834094    3.9408597    3.4935754  
   2 C       3.1882210    1.4544373 *  3.2548288    3.9291456    3.2602695  
   3 C       4.2581231    2.3746510 *  4.5911301    4.9569378    4.1038361  
   4 C       3.0853225    2.3422409 *  3.6106009    4.6411613    2.0036225 *
   5 H       3.1818365    2.7235537 *  4.2903441    5.1899117    2.4413350 *
   6 O       4.4455573    3.5872827    4.5684170    5.7150683    0.9937644 *
   7 C       2.1954005 *  2.4292472 *  2.5786182 *  3.8343066    2.6901165 *
   8 H       3.0061680    3.0516347    2.5679384 *  3.9797609    2.6700358 *
   9 O       2.6021795 *  3.5675740    3.6314449    4.8322921    2.9714284 *
  10 C       1.0918311 *  1.4987840 *  1.5266038 *  2.4353561 *  4.1057750  
  11 H       0.0000000    2.0957966 *  2.1883558 *  2.7213080 *  4.7557687  
  12 O       2.0957966 *  0.0000000    2.4146180 *  2.7667243 *  4.2917541  
  13 C       2.1883558 *  2.4146180 *  0.0000000    1.4531746 *  5.0200948  
  14 O       2.7213080 *  2.7667243 *  1.4531746 *  0.0000000    6.2773773  
  15 H       4.7557687    4.2917541    5.0200948    6.2773773    0.0000000  
  16 H       2.7476922 *  4.0988098    3.5732240    4.7845283    3.7376771  
  17 H       2.5318642 *  3.3876363    1.0941012 *  2.0562142 *  5.4049916  
  18 H       3.0579999    2.6483069 *  1.0977805 *  2.1288943 *  4.6961952  
  19 H       2.8753144 *  2.2408357 *  1.9477253 *  0.9981360 *  6.1505711  
  20 H       4.1961964    2.6753290 *  5.0354773    5.3906189    4.2438950  
  21 H       5.1755828    3.3243959    5.3395753    5.8249607    3.9654657  
  22 O       4.7586307    2.7324661 *  4.8171302    4.7752730    5.4469176  
  23 H       4.5168705    3.1228379    3.8160066    4.7754532    2.7953334 *
  24 H       4.1051850    2.1977383 *  4.2152860    3.9805150    5.6909228  

               16 H         17 H         18 H         19 H         20 H     

   1 O       4.8424009    4.0865811    2.4952750 *  3.5016558    3.3964384  
   2 C       4.3519428    4.1856162    3.0333851    3.4044446    2.1368927 *
   3 C       5.6472225    5.5845714    4.4074502    4.2136639    1.1011748 *
   4 C       3.2796906    4.2443585    3.5131527    4.3839719    2.7111231 *
   5 H       3.4205299    4.8797641    4.4000379    4.9006572    2.4246325 *
   6 O       4.0283277    5.1309658    4.1703670    5.4689461    3.4955053  
   7 C       2.0038036 *  2.9232524 *  2.7069786 *  3.9084233    3.9385075  
   8 H       2.3804490 *  2.7794545 *  2.3364870 *  4.1544096    4.6646251  
   9 O       0.9949028 *  3.6414861    3.9765453    5.0319676    4.6915417  
  10 C       2.8070779 *  2.1735386 *  2.1231719 *  2.4936736 *  3.8616233  
  11 H       2.7476922 *  2.5318642 *  3.0579999    2.8753144 *  4.1961964  
  12 O       4.0988098    3.3876363    2.6483069 *  2.2408357 *  2.6753290 *
  13 C       3.5732240    1.0941012 *  1.0977805 *  1.9477253 *  5.0354773  
  14 O       4.7845283    2.0562142 *  2.1288943 *  0.9981360 *  5.3906189  
  15 H       3.7376771    5.4049916    4.6961952    6.1505711    4.2438950  
  16 H       0.0000000    3.2852385    4.0191910    5.1749995    5.5724689  
  17 H       3.2852385    0.0000000    1.7980864 *  2.8427315 *  5.9573234  
  18 H       4.0191910    1.7980864 *  0.0000000    2.3593095 *  5.0515799  
  19 H       5.1749995    2.8427315 *  2.3593095 *  0.0000000    4.6908484  
  20 H       5.5724689    5.9573234    5.0515799    4.6908484    0.0000000  
  21 H       6.2081893    6.3075789    4.9773792    5.1035626    1.7859994 *
  22 O       6.6222715    5.8948752    4.6421846    3.8604045    2.1295725 *
  23 H       4.8233784    4.5699791    3.0706641    4.4356716    3.7259186  
  24 H       6.2635560    5.2846897    4.2181799    3.0392984    2.4309538 *

               21 H         22 O         23 H         24 H     

   1 O       2.6793417 *  3.0157799    1.0037012 *  3.1449018  
   2 C       2.1452241 *  2.4523920 *  1.9414710 *  2.4839479 *
   3 C       1.0916710 *  1.4495612 *  2.9008706 *  1.9569194 *
   4 C       2.9584987 *  3.8414022    2.3098977 *  3.8771777  
   5 H       3.2010403    4.0733211    3.3263251    4.0915337  
   6 O       3.0474389    4.5043659    1.9430226 *  4.7958247  
   7 C       4.3230654    4.7545160    2.9428456 *  4.5075202  
   8 H       4.6673855    5.1971419    2.6133802 *  5.0193113  
   9 O       5.3432603    5.9050090    4.2211228    5.6391667  
  10 C       4.4936581    4.2140744    3.4896046    3.6744015  
  11 H       5.1755828    4.7586307    4.5168705    4.1051850  
  12 O       3.3243959    2.7324661 *  3.1228379    2.1977383 *
  13 C       5.3395753    4.8171302    3.8160066    4.2152860  
  14 O       5.8249607    4.7752730    4.7754532    3.9805150  
  15 H       3.9654657    5.4469176    2.7953334 *  5.6909228  
  16 H       6.2081893    6.6222715    4.8233784    6.2635560  
  17 H       6.3075789    5.8948752    4.5699791    5.2846897  
  18 H       4.9773792    4.6421846    3.0706641    4.2181799  
  19 H       5.1035626    3.8604045    4.4356716    3.0392984  
  20 H       1.7859994 *  2.1295725 *  3.7259186    2.4309538 *
  21 H       0.0000000    2.0591108 *  2.7797663 *  2.8443165 *
  22 O       2.0591108 *  0.0000000    3.7046424    0.9974544 *
  23 H       2.7797663 *  3.7046424    0.0000000    3.9869791  
  24 H       2.8443165 *  0.9974544 *  3.9869791    0.0000000  

  * ... LESS THAN  3.000


     ATOMIC BASIS SET
     ----------------
 THE CONTRACTED PRIMITIVE FUNCTIONS HAVE BEEN UNNORMALIZED
 THE CONTRACTED BASIS FUNCTIONS ARE NOW NORMALIZED TO UNITY

  SHELL TYPE  PRIMITIVE        EXPONENT          CONTRACTION COEFFICIENT(S)

 O         

      1   S       1           322.0370000    0.059239393389
      1   S       2            48.4308000    0.351499960776
      1   S       3            10.4206000    0.707657921031

      2   L       4             7.4029400   -0.404453583190    0.244586106967
      2   L       5             1.5762000    1.221561761397    0.853955373466

      3   L       6             0.3736840    1.000000000000    1.000000000000

 C         

      4   S       7           172.2560000    0.061766907377
      4   S       8            25.9109000    0.358794042852
      4   S       9             5.5333500    0.700713083689

      5   L      10             3.6649800   -0.395895162119    0.236459946619
      5   L      11             0.7705450    1.215834355681    0.860618805716

      6   L      12             0.1958570    1.000000000000    1.000000000000

 C         

      7   S      13           172.2560000    0.061766907377
      7   S      14            25.9109000    0.358794042852
      7   S      15             5.5333500    0.700713083689

      8   L      16             3.6649800   -0.395895162119    0.236459946619
      8   L      17             0.7705450    1.215834355681    0.860618805716

      9   L      18             0.1958570    1.000000000000    1.000000000000

 C         

     10   S      19           172.2560000    0.061766907377
     10   S      20            25.9109000    0.358794042852
     10   S      21             5.5333500    0.700713083689

     11   L      22             3.6649800   -0.395895162119    0.236459946619
     11   L      23             0.7705450    1.215834355681    0.860618805716

     12   L      24             0.1958570    1.000000000000    1.000000000000

 H         

     13   S      25             5.4471780    0.156284978695
     13   S      26             0.8245472    0.904690876670

     14   S      27             0.1831916    1.000000000000

 O         

     15   S      28           322.0370000    0.059239393389
     15   S      29            48.4308000    0.351499960776
     15   S      30            10.4206000    0.707657921031

     16   L      31             7.4029400   -0.404453583190    0.244586106967
     16   L      32             1.5762000    1.221561761397    0.853955373466

     17   L      33             0.3736840    1.000000000000    1.000000000000

 C         

     18   S      34           172.2560000    0.061766907377
     18   S      35            25.9109000    0.358794042852
     18   S      36             5.5333500    0.700713083689

     19   L      37             3.6649800   -0.395895162119    0.236459946619
     19   L      38             0.7705450    1.215834355681    0.860618805716

     20   L      39             0.1958570    1.000000000000    1.000000000000

 H         

     21   S      40             5.4471780    0.156284978695
     21   S      41             0.8245472    0.904690876670

     22   S      42             0.1831916    1.000000000000

 O         

     23   S      43           322.0370000    0.059239393389
     23   S      44            48.4308000    0.351499960776
     23   S      45            10.4206000    0.707657921031

     24   L      46             7.4029400   -0.404453583190    0.244586106967
     24   L      47             1.5762000    1.221561761397    0.853955373466

     25   L      48             0.3736840    1.000000000000    1.000000000000

 C         

     26   S      49           172.2560000    0.061766907377
     26   S      50            25.9109000    0.358794042852
     26   S      51             5.5333500    0.700713083689

     27   L      52             3.6649800   -0.395895162119    0.236459946619
     27   L      53             0.7705450    1.215834355681    0.860618805716

     28   L      54             0.1958570    1.000000000000    1.000000000000

 H         

     29   S      55             5.4471780    0.156284978695
     29   S      56             0.8245472    0.904690876670

     30   S      57             0.1831916    1.000000000000

 O         

     31   S      58           322.0370000    0.059239393389
     31   S      59            48.4308000    0.351499960776
     31   S      60            10.4206000    0.707657921031

     32   L      61             7.4029400   -0.404453583190    0.244586106967
     32   L      62             1.5762000    1.221561761397    0.853955373466

     33   L      63             0.3736840    1.000000000000    1.000000000000

 C         

     34   S      64           172.2560000    0.061766907377
     34   S      65            25.9109000    0.358794042852
     34   S      66             5.5333500    0.700713083689

     35   L      67             3.6649800   -0.395895162119    0.236459946619
     35   L      68             0.7705450    1.215834355681    0.860618805716

     36   L      69             0.1958570    1.000000000000    1.000000000000

 O         

     37   S      70           322.0370000    0.059239393389
     37   S      71            48.4308000    0.351499960776
     37   S      72            10.4206000    0.707657921031

     38   L      73             7.4029400   -0.404453583190    0.244586106967
     38   L      74             1.5762000    1.221561761397    0.853955373466

     39   L      75             0.3736840    1.000000000000    1.000000000000

 H         

     40   S      76             5.4471780    0.156284978695
     40   S      77             0.8245472    0.904690876670

     41   S      78             0.1831916    1.000000000000

 H         

     42   S      79             5.4471780    0.156284978695
     42   S      80             0.8245472    0.904690876670

     43   S      81             0.1831916    1.000000000000

 H         

     44   S      82             5.4471780    0.156284978695
     44   S      83             0.8245472    0.904690876670

     45   S      84             0.1831916    1.000000000000

 H         

     46   S      85             5.4471780    0.156284978695
     46   S      86             0.8245472    0.904690876670

     47   S      87             0.1831916    1.000000000000

 H         

     48   S      88             5.4471780    0.156284978695
     48   S      89             0.8245472    0.904690876670

     49   S      90             0.1831916    1.000000000000

 H         

     50   S      91             5.4471780    0.156284978695
     50   S      92             0.8245472    0.904690876670

     51   S      93             0.1831916    1.000000000000

 H         

     52   S      94             5.4471780    0.156284978695
     52   S      95             0.8245472    0.904690876670

     53   S      96             0.1831916    1.000000000000

 O         

     54   S      97           322.0370000    0.059239393389
     54   S      98            48.4308000    0.351499960776
     54   S      99            10.4206000    0.707657921031

     55   L     100             7.4029400   -0.404453583190    0.244586106967
     55   L     101             1.5762000    1.221561761397    0.853955373466

     56   L     102             0.3736840    1.000000000000    1.000000000000

 H         

     57   S     103             5.4471780    0.156284978695
     57   S     104             0.8245472    0.904690876670

     58   S     105             0.1831916    1.000000000000

 H         

     59   S     106             5.4471780    0.156284978695
     59   S     107             0.8245472    0.904690876670

     60   S     108             0.1831916    1.000000000000

 TOTAL NUMBER OF BASIS SET SHELLS             =   60
 NUMBER OF CARTESIAN GAUSSIAN BASIS FUNCTIONS =  132
 NUMBER OF ELECTRONS                          =   97
 CHARGE OF MOLECULE                           =   -1
 SPIN MULTIPLICITY                            =    2
 NUMBER OF OCCUPIED ORBITALS (ALPHA)          =   49
 NUMBER OF OCCUPIED ORBITALS (BETA )          =   48
 TOTAL NUMBER OF ATOMS                        =   24
 THE NUCLEAR REPULSION ENERGY IS      830.9647180517

     $CONTRL OPTIONS
     ---------------
 SCFTYP=UHF          RUNTYP=ENERGY       EXETYP=RUN     
 MPLEVL=       0     CITYP =NONE         CCTYP =NONE         VBTYP =NONE    
 DFTTYP=NONE         TDDFT =NONE    
 MULT  =       2     ICHARG=      -1     NZVAR =       0     COORD =UNIQUE  
 PP    =NONE         RELWFN=NONE         LOCAL =NONE         NUMGRD=       F
 ISPHER=      -1     NOSYM =       0     MAXIT =      60     UNITS =ANGS    
 PLTORB=       F     MOLPLT=       F     AIMPAC=       F     FRIEND=        
 NPRINT=       7     IREST =       0     GEOM  =INPUT   
 NORMF =       0     NORMP =       0     ITOL  =      20     ICUT  =       9
 INTTYP=BEST         GRDTYP=BEST         QMTTOL= 1.0E-06

     $SYSTEM OPTIONS
     ---------------
  REPLICATED MEMORY=    30000000 WORDS (ON EVERY NODE).
 DISTRIBUTED MEMDDI=        1000 MILLION WORDS IN AGGREGATE,
 MEMDDI DISTRIBUTED OVER   8 PROCESSORS IS   125000000 WORDS/PROCESSOR.
 TOTAL MEMORY REQUESTED ON EACH PROCESSOR=   155000000 WORDS.
 TIMLIM=      525600.00 MINUTES, OR     365.0 DAYS.
 PARALL= T  BALTYP=  DLB     KDIAG=    0  COREFL= F
 MXSEQ2=     300 MXSEQ3=     150  mem10=         0

          ----------------
          PROPERTIES INPUT
          ----------------

     MOMENTS            FIELD           POTENTIAL          DENSITY
 IEMOM =       1   IEFLD =       0   IEPOT =       0   IEDEN =       0
 WHERE =COMASS     WHERE =NUCLEI     WHERE =NUCLEI     WHERE =NUCLEI  
 OUTPUT=BOTH       OUTPUT=BOTH       OUTPUT=BOTH       OUTPUT=BOTH    
 IEMINT=       0   IEFINT=       0                     IEDINT=       0
                                                       MORB  =       0
          EXTRAPOLATION IN EFFECT
          SOSCF IN EFFECT
          DIIS or SOSCF will be reset if energy rises
 ORBITAL PRINTING OPTION: NPREO=     1   132     2     1

     -------------------------------
     INTEGRAL TRANSFORMATION OPTIONS
     -------------------------------
     NWORD  =            0
     CUTOFF = 1.0E-09     MPTRAN =       0
     DIRTRF =       T     AOINTS =DUP     

          ----------------------
          INTEGRAL INPUT OPTIONS
          ----------------------
 NOPK  =       1 NORDER=       0 SCHWRZ=       T

     ------------------------------------------
     THE POINT GROUP IS C1 , NAXIS= 0, ORDER= 1
     ------------------------------------------

     DIMENSIONS OF THE SYMMETRY SUBSPACES ARE
 A   =  132

 ..... DONE SETTING UP THE RUN .....
 CPU     0: STEP CPU TIME=     0.02 TOTAL CPU TIME=          0.0 (      0.0 MIN)
 TOTAL WALL CLOCK TIME=          0.0 SECONDS, CPU UTILIZATION IS    50.00%

          ********************
          1 ELECTRON INTEGRALS
          ********************
 ...... END OF ONE-ELECTRON INTEGRALS ......
 CPU     0: STEP CPU TIME=     0.01 TOTAL CPU TIME=          0.0 (      0.0 MIN)
 TOTAL WALL CLOCK TIME=          0.0 SECONDS, CPU UTILIZATION IS    60.00%

          -------------
          GUESS OPTIONS
          -------------
          GUESS =HUCKEL            NORB  =       0          NORDER=       0
          MIX   =       F          PRTMO =       F          PUNMO =       F
          TOLZ  = 1.0E-08          TOLE  = 1.0E-05
          SYMDEN=       F          PURIFY=       F

 INITIAL GUESS ORBITALS GENERATED BY HUCKEL   ROUTINE.
 HUCKEL GUESS REQUIRES    164928 WORDS.

 SYMMETRIES FOR INITIAL GUESS ORBITALS FOLLOW.  ALPHA SET(S).
    49 ORBITALS ARE OCCUPIED (   12 CORE ORBITALS).
    13=A       14=A       15=A       16=A       17=A       18=A       19=A   
    20=A       21=A       22=A       23=A       24=A       25=A       26=A   
    27=A       28=A       29=A       30=A       31=A       32=A       33=A   
    34=A       35=A       36=A       37=A       38=A       39=A       40=A   
    41=A       42=A       43=A       44=A       45=A       46=A       47=A   
    48=A       49=A       50=A       51=A       52=A       53=A       54=A   
    55=A       56=A       57=A       58=A       59=A   

 SYMMETRIES FOR INITIAL GUESS ORBITALS FOLLOW.   BETA SET(S).
    48 ORBITALS ARE OCCUPIED (   12 CORE ORBITALS).
    13=A       14=A       15=A       16=A       17=A       18=A       19=A   
    20=A       21=A       22=A       23=A       24=A       25=A       26=A   
    27=A       28=A       29=A       30=A       31=A       32=A       33=A   
    34=A       35=A       36=A       37=A       38=A       39=A       40=A   
    41=A       42=A       43=A       44=A       45=A       46=A       47=A   
    48=A       49=A       50=A       51=A       52=A       53=A       54=A   
    55=A       56=A       57=A       58=A   
 ...... END OF INITIAL ORBITAL SELECTION ......
 CPU     0: STEP CPU TIME=     0.05 TOTAL CPU TIME=          0.1 (      0.0 MIN)
 TOTAL WALL CLOCK TIME=          0.1 SECONDS, CPU UTILIZATION IS    88.89%

                    ----------------------
                    AO INTEGRAL TECHNOLOGY
                    ----------------------
     S,P,L SHELL ROTATED AXIS INTEGRALS, REPROGRAMMED BY
        KAZUYA ISHIMURA (IMS) AND JOSE SIERRA (SYNSTAR).
     S,P,D,L SHELL ROTATED AXIS INTEGRALS PROGRAMMED BY
        KAZUYA ISHIMURA (INSTITUTE FOR MOLECULAR SCIENCE).
     S,P,D,F,G SHELL TO TOTAL QUARTET ANGULAR MOMENTUM SUM 5,
        ERIC PROGRAM BY GRAHAM FLETCHER (ELORET AND NASA ADVANCED
        SUPERCOMPUTING DIVISION, AMES RESEARCH CENTER).
     S,P,D,F,G,L SHELL GENERAL RYS QUADRATURE PROGRAMMED BY
        MICHEL DUPUIS (PACIFIC NORTHWEST NATIONAL LABORATORY).

          --------------------
          2 ELECTRON INTEGRALS
          --------------------

 DIRECT SCF METHOD SKIPS INTEGRAL STORAGE ON DISK.
 DIRECT TRANSFORMATION SKIPS AO INTEGRAL STORAGE ON DISK.
  ...... END OF TWO-ELECTRON INTEGRALS .....
 CPU     0: STEP CPU TIME=     0.02 TOTAL CPU TIME=          0.1 (      0.0 MIN)
 TOTAL WALL CLOCK TIME=          0.1 SECONDS, CPU UTILIZATION IS    90.91%

          ---------------------------
                  UHF SCF CALCULATION
          ---------------------------

     NUCLEAR ENERGY =       830.9647180517
     MAXIT = 60     NPUNCH=  2     MULT=  2
     EXTRAP=T  DAMP=F  SHIFT=F  RSTRCT=F  DIIS=F  SOSCF=T
     DENSITY MATRIX CONV=  2.00E-05
     SOSCF WILL OPTIMIZE    4067 ALPHA AND    4032 BETA ROTATION ANGLES.
     SOGTOL= 2.500E-01
     MEMORY REQUIRED FOR UHF/ROHF ITERS=    281061 WORDS.

 DIRECT SCF CALCULATION, SCHWRZ=T   FDIFF=T
 SCHWARZ INEQUALITY OVERHEAD:      8156 INTEGRALS, T=        0.00

                                                                                NONZERO     BLOCKS
 ITER EX      TOTAL ENERGY        E CHANGE  DENSITY CHANGE    ORB. GRAD       INTEGRALS    SKIPPED
   1  0     -677.3321258615  -677.3321258615   0.889370599   0.000000000       22010516     859275
          ---------------START SECOND ORDER SCF---------------
   2  1     -679.1455907717    -1.8134649102   0.269532341   0.054506164       21981160     868396
   3  2     -679.2744197014    -0.1288289297   0.218782397   0.040907319       21883733     886837
   4  3     -679.3189416696    -0.0445219682   0.114361852   0.013684171       21856176     888715
   5  4     -679.3314972416    -0.0125555720   0.160622696   0.011177178       21619303     912628
   6  5     -679.3382582347    -0.0067609931   0.059430912   0.005666160       21732538     901175
   7  6     -679.3404449610    -0.0021867263   0.068745329   0.003330796       21237561     940206
   8  7     -679.3414748420    -0.0010298810   0.040713553   0.002341733       21329255     936219
   9  8     -679.3417994150    -0.0003245729   0.059077144   0.001409728       20779065     970963
  10  9     -679.3420915144    -0.0002920994   0.115148463   0.001441740       20837004     967622
  11 10     -679.3424891069    -0.0003975926   0.193987621   0.001602019       21130029     950116
  12 11     -679.3429698333    -0.0004807264   0.135324442   0.001994767       21363717     934030
  13 12     -679.3433892765    -0.0004194431   0.038533732   0.002024048       21218676     946389
  14 13     -679.3438583638    -0.0004690874   0.015974624   0.000827639       20866237     968233
  15 14     -679.3439603374    -0.0001019736   0.007843409   0.000556725       20144068    1007917
  16 15     -679.3439806297    -0.0000202922   0.009875919   0.000279062       19688162    1030130
  17 16     -679.3439871584    -0.0000065287   0.001658979   0.000102251       19227232    1053146
  18 17     -679.3439886355    -0.0000014771   0.002295740   0.000052293       18367855    1092094
  19 18     -679.3439890796    -0.0000004441   0.000380484   0.000029811       17824605    1117099
  20 19     -679.3439891996    -0.0000001200   0.000258608   0.000013494       16630464    1167302
  21 20     -679.3439892223    -0.0000000227   0.000135384   0.000004973       15787755    1200523
  22 21     -679.3439892273    -0.0000000050   0.000032170   0.000002575       14720031    1246328
  23 22     -679.3439892284    -0.0000000011   0.000017880   0.000001360       13600262    1284357
  24 23     -679.3439892290    -0.0000000007   0.000007921   0.000000544       12679981    1316700

          -----------------
          DENSITY CONVERGED
          -----------------
     TIME TO FORM FOCK OPERATORS=       5.7 SECONDS (       0.2 SEC/ITER)
     FOCK TIME ON FIRST ITERATION=       0.3, LAST ITERATION=       0.1
     TIME TO SOLVE SCF EQUATIONS=       0.3 SECONDS (       0.0 SEC/ITER)

 FINAL UHF ENERGY IS     -679.3439892290 AFTER  24 ITERATIONS

          --------------------
          SPIN SZ   =    0.500
          S-SQUARED =    0.758
          --------------------

  ----- ALPHA SET ----- 

          ------------
          EIGENVECTORS
          ------------

                      1          2          3          4          5
                  -20.3357   -20.3174   -20.3155   -20.3137   -20.2964
                     A          A          A          A          A   
    1  O  1  S   -0.000064   0.013771   0.102661   0.978169   0.000140
    2  O  1  S   -0.000192   0.001509   0.011318   0.098460   0.000012
    3  O  1  X    0.000072   0.000122  -0.000404   0.000402   0.000046
    4  O  1  Y   -0.000212  -0.000023  -0.000185  -0.003042   0.000000
    5  O  1  Z    0.000278  -0.000167  -0.000351  -0.002279  -0.000020
    6  O  1  S    0.002189  -0.000603  -0.008450  -0.049324  -0.000112
    7  O  1  X   -0.000791  -0.000297   0.002964   0.000624  -0.000230
    8  O  1  Y    0.000286   0.000115   0.000353   0.007611   0.000049
    9  O  1  Z   -0.002316   0.000139   0.002867   0.008926   0.000157
   10  C  2  S    0.000305   0.000187  -0.001135  -0.000917   0.000001
   11  C  2  S    0.001215   0.000717  -0.004921  -0.003979   0.000022
   12  C  2  X   -0.000070  -0.000419  -0.001065   0.000633  -0.000140
   13  C  2  Y    0.000687  -0.000295   0.000920   0.000670  -0.000056
   14  C  2  Z    0.000349   0.000278   0.000055   0.000620   0.000068
   15  C  2  S   -0.008588  -0.006064   0.024953   0.019594   0.000571
   16  C  2  X    0.000023  -0.001267  -0.012109   0.001272   0.001151
   17  C  2  Y    0.004043  -0.001760   0.003737   0.002087  -0.000395
   18  C  2  Z   -0.007335   0.002543  -0.002374   0.018484   0.000357
   19  C  3  S    0.000064  -0.000806   0.000194   0.000066   0.000001
   20  C  3  S    0.000562  -0.003165   0.000589   0.000084  -0.000006
   21  C  3  X   -0.000107  -0.000068   0.000654   0.000425   0.000039
   22  C  3  Y   -0.000209   0.001645   0.000214   0.000057   0.000002
   23  C  3  Z   -0.000043  -0.000409  -0.000515  -0.000221   0.000010
   24  C  3  S   -0.002637   0.018944  -0.004769   0.000885  -0.000275
   25  C  3  X    0.002017  -0.002200   0.003019  -0.004169  -0.000232
   26  C  3  Y    0.000794   0.009414  -0.001659  -0.001511   0.000150
   27  C  3  Z    0.000665   0.000674   0.000679  -0.003032  -0.000408
   28  C  4  S   -0.001014  -0.000065   0.000090   0.000160   0.000005
   29  C  4  S   -0.004416  -0.000500  -0.000081   0.000340   0.000079
   30  C  4  X    0.000820  -0.000377  -0.000447   0.000060   0.000027
   31  C  4  Y   -0.001059  -0.000266  -0.001133  -0.001123   0.000189
   32  C  4  Z    0.000091   0.000315   0.000030   0.000166   0.000057
   33  C  4  S    0.024869   0.000300  -0.001843  -0.005158   0.000512
   34  C  4  X    0.007729   0.002481   0.000888  -0.002169  -0.000824
   35  C  4  Y   -0.000063   0.001245  -0.002593  -0.000610  -0.001496
   36  C  4  Z    0.013849  -0.002184   0.002879  -0.006401  -0.000490
   37  H  5  S   -0.000435  -0.000455   0.000589  -0.000757  -0.000143
   38  H  5  S    0.001777  -0.000214   0.000252  -0.000799  -0.000476
   39  O  6  S    0.983540  -0.000849   0.000086  -0.000016  -0.000104
   40  O  6  S    0.098394  -0.000005   0.000074  -0.000148  -0.000001
   41  O  6  X   -0.003065   0.000044  -0.000068   0.000289  -0.000002
   42  O  6  Y   -0.000855   0.000024  -0.000195   0.000512  -0.000032
   43  O  6  Z   -0.001308  -0.000074   0.000040   0.000083  -0.000027
   44  O  6  S   -0.047046  -0.000252  -0.000789   0.002145   0.000027
   45  O  6  X    0.009257  -0.000259   0.000583  -0.001858   0.000019
   46  O  6  Y   -0.000761  -0.000255   0.000591  -0.001539   0.000229
   47  O  6  Z    0.004567   0.000445  -0.000001  -0.000808   0.000101
   48  C  7  S    0.000277  -0.000064   0.000372   0.000041  -0.000091
   49  C  7  S    0.001176  -0.000333   0.002077   0.000544  -0.000630
   50  C  7  X   -0.000291  -0.000017   0.000797  -0.000082   0.000255
   51  C  7  Y   -0.000140   0.000155  -0.000186   0.000350  -0.000433
   52  C  7  Z    0.000601  -0.000038   0.000349  -0.000373  -0.000262
   53  C  7  S   -0.008399   0.002730  -0.008959   0.000854   0.001374
   54  C  7  X   -0.006291   0.001050  -0.003552   0.001503  -0.001329
   55  C  7  Y   -0.000209  -0.000572  -0.006378  -0.001426   0.003296
   56  C  7  Z   -0.003831  -0.000280  -0.000015   0.001793   0.001580
   57  H  8  S    0.001137  -0.000125   0.001020  -0.000349  -0.000813
   58  H  8  S    0.002304  -0.000212   0.000917  -0.000608   0.000476
   59  O  9  S    0.000298   0.000177   0.000835   0.000273  -0.000299
   60  O  9  S    0.000148   0.000123   0.000491   0.000150  -0.000174
   61  O  9  X    0.000048  -0.000017   0.000074   0.000098  -0.000119
   62  O  9  Y    0.000086   0.000012  -0.000010   0.000007   0.000029
   63  O  9  Z   -0.000070   0.000029   0.000146   0.000050   0.000033
   64  O  9  S   -0.000406  -0.000503  -0.001941  -0.000306   0.000901
   65  O  9  X    0.000268  -0.000073  -0.000381  -0.000471   0.000709
   66  O  9  Y   -0.000461  -0.000188  -0.000286  -0.000005   0.000088
   67  O  9  Z    0.000404  -0.000162  -0.000732  -0.000282  -0.000077
   68  C 10  S   -0.000119   0.000056  -0.000832   0.000206   0.000225
   69  C 10  S   -0.000931   0.000221  -0.003325   0.001427   0.000853
   70  C 10  X   -0.000740  -0.000052   0.001118   0.000559   0.000397
   71  C 10  Y   -0.000149  -0.000134   0.000690   0.000021  -0.000468
   72  C 10  Z    0.000012   0.000145  -0.000861   0.000230  -0.000195
   73  C 10  S    0.000939  -0.001257   0.018162  -0.002749  -0.007209
   74  C 10  X    0.004411  -0.000852   0.009013  -0.003136   0.000265
   75  C 10  Y    0.001242  -0.000226   0.002960  -0.002101  -0.001953
   76  C 10  Z    0.000859  -0.000265  -0.001216  -0.000831  -0.002215
   77  H 11  S    0.000389  -0.000013  -0.000887  -0.000039   0.000387
   78  H 11  S    0.001264  -0.000133  -0.000371  -0.001119  -0.000353
   79  O 12  S   -0.000032   0.015293   0.978249  -0.102633  -0.003599
   80  O 12  S    0.000093   0.001573   0.099518  -0.009534  -0.000199
   81  O 12  X   -0.000018   0.000322   0.000874   0.000070  -0.000200
   82  O 12  Y    0.000218   0.000213  -0.002600   0.000396   0.000291
   83  O 12  Z   -0.000094  -0.000294   0.002381   0.000330   0.000194
   84  O 12  S   -0.001402   0.000221  -0.052760   0.002995   0.000741
   85  O 12  X    0.000457  -0.000736  -0.003633  -0.001746   0.000524
   86  O 12  Y   -0.000516  -0.001043   0.008265  -0.001217  -0.001200
   87  O 12  Z    0.000339   0.001124  -0.007631  -0.002640  -0.000250
   88  C 13  S   -0.000006  -0.000026   0.000092  -0.000018  -0.000820
   89  C 13  S   -0.000132  -0.000149   0.000030   0.000031  -0.003214
   90  C 13  X    0.000078  -0.000030  -0.000397   0.000013  -0.000370
   91  C 13  Y    0.000157  -0.000011   0.000385  -0.000082   0.001542
   92  C 13  Z    0.000142  -0.000035   0.000736   0.000030  -0.000563
   93  C 13  S   -0.000092   0.000668  -0.003430   0.000544   0.019307
   94  C 13  X   -0.001842   0.000510  -0.002460   0.001182  -0.002054
   95  C 13  Y   -0.000694  -0.000112  -0.000637  -0.000018   0.007336
   96  C 13  Z   -0.000487  -0.000057   0.000372  -0.001028  -0.005612
   97  O 14  S    0.000104  -0.000896   0.003596  -0.000502   0.983453
   98  O 14  S    0.000027  -0.000157   0.000580  -0.000072   0.097609
   99  O 14  X   -0.000061  -0.000008  -0.000009   0.000038   0.003123
  100  O 14  Y   -0.000036  -0.000013  -0.000055   0.000035  -0.002116
  101  O 14  Z   -0.000014   0.000017  -0.000147   0.000009   0.000013
  102  O 14  S   -0.000076   0.000259  -0.000523   0.000011  -0.043756
  103  O 14  X    0.000313   0.000001   0.000174  -0.000220  -0.006915
  104  O 14  Y    0.000187   0.000057  -0.000029  -0.000068   0.006873
  105  O 14  Z    0.000053  -0.000058   0.000570   0.000027  -0.001006
  106  H 15  S    0.002921  -0.000065   0.000379  -0.000704   0.000028
  107  H 15  S    0.004673   0.000069  -0.000480  -0.000042   0.000041
  108  H 16  S    0.000001   0.000079   0.000076   0.000033   0.000136
  109  H 16  S   -0.000354  -0.000021  -0.000238  -0.000225   0.000073
  110  H 17  S   -0.000206  -0.000010  -0.000341   0.000176  -0.001309
  111  H 17  S   -0.000660   0.000090   0.000187   0.000379  -0.001164
  112  H 18  S    0.000138  -0.000100   0.000316  -0.000600  -0.001108
  113  H 18  S    0.000911  -0.000185   0.000867   0.000954  -0.001296
  114  H 19  S   -0.000113   0.000130  -0.000446   0.000111   0.002961
  115  H 19  S    0.000066  -0.000413   0.001271  -0.000102   0.005325
  116  H 20  S    0.000342  -0.001108   0.000442  -0.000764  -0.000055
  117  H 20  S    0.000871  -0.000891   0.000544  -0.000598  -0.000035
  118  H 21  S   -0.000082  -0.001295  -0.000304   0.000749   0.000069
  119  H 21  S   -0.000484  -0.001027   0.000235   0.001357   0.000127
  120  O 22  S    0.000864   0.983248  -0.016666  -0.012086   0.000938
  121  O 22  S    0.000133   0.097654  -0.001637  -0.001079   0.000021
  122  O 22  X    0.000036  -0.002430  -0.000086  -0.000260   0.000028
  123  O 22  Y   -0.000040  -0.002892   0.000099  -0.000075  -0.000018
  124  O 22  Z    0.000091   0.000101   0.000224  -0.000003  -0.000017
  125  O 22  S   -0.000070  -0.043976   0.001480   0.000700   0.000159
  126  O 22  X   -0.000235   0.004673   0.000249   0.001130  -0.000090
  127  O 22  Y    0.000077   0.008513  -0.000976   0.000063   0.000073
  128  O 22  Z   -0.000365  -0.000805  -0.000606   0.000317   0.000074
  129  H 23  S   -0.000635   0.000118  -0.000031   0.002976   0.000087
  130  H 23  S    0.002881   0.000018   0.000752   0.005396  -0.000188
  131  H 24  S   -0.000040   0.002884  -0.000401   0.000694   0.000130
  132  H 24  S   -0.000202   0.005576   0.000993  -0.000724  -0.000407

                      6          7          8          9         10
                  -20.1984   -11.1445   -11.0984   -11.0859   -11.0686
                     A          A          A          A          A   
    1  O  1  S   -0.000314  -0.000255   0.000026   0.000032  -0.000011
    2  O  1  S    0.000183  -0.001025  -0.000094  -0.000191  -0.000007
    3  O  1  X   -0.000106   0.000119  -0.000039   0.000132  -0.000183
    4  O  1  Y    0.000033  -0.000368   0.000041   0.000418   0.000089
    5  O  1  Z   -0.000013  -0.000252   0.000198   0.000357   0.000172
    6  O  1  S   -0.000910   0.009831  -0.000785  -0.001820   0.000702
    7  O  1  X    0.000854  -0.001848  -0.000622   0.000160   0.000418
    8  O  1  Y    0.000181  -0.000872  -0.000485   0.000036  -0.000540
    9  O  1  Z    0.000247  -0.004578   0.000924   0.000011  -0.000874
   10  C  2  S   -0.000163   0.988612   0.003586   0.003488  -0.000248
   11  C  2  S   -0.001004   0.106679  -0.002212  -0.003772   0.000536
   12  C  2  X    0.000580  -0.000889  -0.000419  -0.000040  -0.000079
   13  C  2  Y    0.000256  -0.001015  -0.000263  -0.000811  -0.000208
   14  C  2  Z   -0.000342  -0.000387   0.000059   0.000100   0.000251
   15  C  2  S    0.002490  -0.100363   0.021579   0.032230  -0.001891
   16  C  2  X   -0.005363   0.002377   0.012222  -0.005844   0.001710
   17  C  2  Y   -0.001685   0.012109   0.007782  -0.016742   0.000840
   18  C  2  Z    0.001750   0.007296  -0.010117   0.001549  -0.002017
   19  C  3  S   -0.000052  -0.004647   0.987593   0.013374  -0.000301
   20  C  3  S   -0.000288  -0.004154   0.101747   0.000583   0.000109
   21  C  3  X   -0.000103  -0.000051  -0.000181   0.000349   0.000047
   22  C  3  Y   -0.000128  -0.000309  -0.000456   0.000545   0.000020
   23  C  3  Z   -0.000019   0.000237   0.000231  -0.000399   0.000012
   24  C  3  S    0.002932   0.025956  -0.081697  -0.000540  -0.001330
   25  C  3  X   -0.000106  -0.011829   0.005091   0.000714   0.000373
   26  C  3  Y    0.000309  -0.005305   0.005664   0.000451   0.000140
   27  C  3  Z    0.001717   0.008493  -0.007109   0.000607  -0.000526
   28  C  4  S    0.000325  -0.004974  -0.013527   0.988347   0.001233
   29  C  4  S    0.001464  -0.005336  -0.002662   0.106468  -0.000266
   30  C  4  X    0.000329   0.000097  -0.000693  -0.000313   0.000109
   31  C  4  Y   -0.000023   0.000685  -0.000585   0.001079   0.000184
   32  C  4  Z   -0.000475  -0.000025   0.000537   0.000726   0.000193
   33  C  4  S   -0.010606   0.036874   0.004144  -0.101704   0.002589
   34  C  4  X    0.006436   0.001074   0.002970   0.010497  -0.001380
   35  C  4  Y    0.001298   0.018931   0.002098  -0.014574   0.000420
   36  C  4  Z    0.002092  -0.002132  -0.000660  -0.007018  -0.000266
   37  H  5  S    0.000895  -0.002235  -0.000176   0.000740  -0.000342
   38  H  5  S    0.002268  -0.000011  -0.001029   0.012974  -0.000077
   39  O  6  S   -0.000281   0.000072   0.000048  -0.000265  -0.000010
   40  O  6  S    0.000111   0.000230   0.000459  -0.001025  -0.000121
   41  O  6  X   -0.000010   0.000099   0.000061  -0.000272   0.000024
   42  O  6  Y    0.000161  -0.000568   0.000253  -0.000080  -0.000095
   43  O  6  Z   -0.000055   0.000326  -0.000171  -0.000517   0.000012
   44  O  6  S   -0.000599  -0.002366  -0.001574   0.010292   0.000360
   45  O  6  X   -0.000218   0.000519  -0.000010  -0.003798  -0.000071
   46  O  6  Y   -0.000864   0.000570  -0.001252   0.003406   0.000386
   47  O  6  Z    0.000278  -0.000372   0.000998  -0.001093  -0.000083
   48  C  7  S   -0.000956  -0.001063  -0.001790  -0.004787  -0.005972
   49  C  7  S   -0.003986  -0.000130  -0.001083  -0.004460  -0.001558
   50  C  7  X   -0.000595  -0.000651  -0.000112   0.000552   0.000512
   51  C  7  Y   -0.000800  -0.000553  -0.000224   0.000143  -0.000983
   52  C  7  Z    0.000465   0.000102   0.000076  -0.000420  -0.000167
   53  C  7  S    0.023993  -0.009505   0.002476   0.032420  -0.000269
   54  C  7  X   -0.004592  -0.000051   0.001796   0.017324  -0.001607
   55  C  7  Y   -0.011181  -0.003534   0.000575   0.002456   0.001075
   56  C  7  Z   -0.010657   0.003931  -0.000939  -0.005407  -0.000210
   57  H  8  S   -0.000431   0.000227  -0.000223  -0.002344  -0.000431
   58  H  8  S    0.000972  -0.001628   0.000197   0.000279   0.001006
   59  O  9  S    0.983530  -0.000055  -0.000007   0.000075  -0.000008
   60  O  9  S    0.098330  -0.000518  -0.000103   0.000363  -0.000067
   61  O  9  X   -0.000231  -0.000194  -0.000036  -0.000228  -0.000043
   62  O  9  Y    0.002648  -0.000144  -0.000053  -0.000199   0.000087
   63  O  9  Z    0.001842   0.000103  -0.000001   0.000001   0.000054
   64  O  9  S   -0.047036   0.001553   0.000206  -0.002152   0.000407
   65  O  9  X   -0.001258   0.001001   0.000067  -0.000580   0.000202
   66  O  9  Y   -0.009346   0.001124   0.000180  -0.000195  -0.000230
   67  O  9  Z   -0.004804  -0.000548   0.000055  -0.000003  -0.000149
   68  C 10  S    0.000251  -0.004963  -0.002113  -0.003966  -0.049219
   69  C 10  S    0.001227  -0.004385  -0.001153  -0.000562  -0.008097
   70  C 10  X   -0.000328  -0.001337  -0.000147  -0.000181  -0.000380
   71  C 10  Y    0.000073  -0.000272   0.000016   0.001074  -0.000090
   72  C 10  Z   -0.000491  -0.000708  -0.000478   0.000602  -0.000032
   73  C 10  S   -0.005822   0.013436   0.003090  -0.003695   0.026312
   74  C 10  X    0.001734   0.009078   0.001667  -0.003360  -0.004073
   75  C 10  Y    0.006215   0.000079   0.001482  -0.003208   0.009837
   76  C 10  Z    0.004014   0.004890   0.002256  -0.004639   0.010650
   77  H 11  S    0.001070   0.000086   0.000110  -0.000319  -0.001398
   78  H 11  S    0.002837   0.003051   0.001034  -0.002981   0.001053
   79  O 12  S   -0.000698  -0.000261   0.000034   0.000009   0.000020
   80  O 12  S    0.000386  -0.001013  -0.000054  -0.000351  -0.000261
   81  O 12  X    0.000066   0.000303  -0.000516  -0.000088   0.000180
   82  O 12  Y    0.000169  -0.000377   0.000055   0.000392  -0.000006
   83  O 12  Z    0.000246   0.000393   0.000324  -0.000104  -0.000449
   84  O 12  S   -0.002396   0.010720  -0.001248  -0.000877  -0.000967
   85  O 12  X   -0.000847   0.006630   0.000726  -0.001447   0.000907
   86  O 12  Y   -0.000389  -0.001221  -0.000217   0.000033   0.000103
   87  O 12  Z   -0.001475  -0.000505  -0.000984   0.000232   0.000399
   88  C 13  S    0.000003   0.000290   0.000299  -0.001647   0.986461
   89  C 13  S   -0.000027   0.000735   0.000318  -0.000787   0.101493
   90  C 13  X    0.000048  -0.000168  -0.000124   0.000221   0.000217
   91  C 13  Y    0.000221   0.000202   0.000047  -0.000127  -0.000284
   92  C 13  Z    0.000022   0.000507   0.000184  -0.000156  -0.000166
   93  C 13  S   -0.001819  -0.005710  -0.002621   0.004884  -0.080993
   94  C 13  X   -0.001722  -0.003481  -0.000800   0.001564  -0.004490
   95  C 13  Y   -0.001435   0.001162   0.000778  -0.000910   0.007092
   96  C 13  Z    0.001217  -0.000275   0.000330  -0.001115   0.005287
   97  O 14  S    0.000258  -0.000000  -0.000004   0.000015  -0.000173
   98  O 14  S   -0.000121   0.000029  -0.000025   0.000106  -0.000313
   99  O 14  X   -0.000030  -0.000090  -0.000031   0.000001   0.000362
  100  O 14  Y   -0.000033   0.000001  -0.000033   0.000006  -0.000478
  101  O 14  Z   -0.000077   0.000039   0.000019  -0.000012   0.000170
  102  O 14  S    0.000779  -0.000205   0.000129  -0.000507   0.007376
  103  O 14  X    0.000301   0.000509   0.000158  -0.000163   0.000299
  104  O 14  Y   -0.000114  -0.000035   0.000067   0.000179  -0.002916
  105  O 14  Z    0.000338  -0.000142  -0.000081   0.000038   0.000891
  106  H 15  S   -0.000103   0.000531  -0.000226  -0.000296   0.000042
  107  H 15  S   -0.000525   0.001602  -0.000242   0.002108   0.000207
  108  H 16  S    0.002919   0.000059  -0.000073   0.000126   0.000311
  109  H 16  S    0.004389   0.000444   0.000339   0.001380  -0.000705
  110  H 17  S   -0.000065  -0.000007   0.000061  -0.000358   0.000200
  111  H 17  S   -0.001354   0.000100   0.000269   0.000523   0.014594
  112  H 18  S   -0.000118   0.000298   0.000121   0.000008   0.000360
  113  H 18  S    0.001042   0.002421   0.000506  -0.001390   0.015282
  114  H 19  S    0.000005  -0.000304   0.000046  -0.000061  -0.000168
  115  H 19  S   -0.000025   0.000398  -0.000313   0.000282   0.002922
  116  H 20  S    0.000084  -0.001932   0.000319   0.000087   0.000038
  117  H 20  S    0.000306  -0.000111   0.014692  -0.000100  -0.000077
  118  H 21  S   -0.000182  -0.001540   0.000420  -0.000140   0.000038
  119  H 21  S   -0.000453   0.001871   0.015378  -0.000330   0.000114
  120  O 22  S   -0.000133   0.000054  -0.000170  -0.000027  -0.000006
  121  O 22  S    0.000081   0.000158  -0.000324  -0.000293  -0.000059
  122  O 22  X    0.000042  -0.000085  -0.000171   0.000119   0.000017
  123  O 22  Y   -0.000015   0.000159  -0.000601   0.000154  -0.000013
  124  O 22  Z    0.000035  -0.000133  -0.000017  -0.000194   0.000001
  125  O 22  S   -0.000461  -0.001637   0.007322   0.000496   0.000244
  126  O 22  X   -0.000169   0.001165   0.000534  -0.000502  -0.000089
  127  O 22  Y    0.000249   0.000788  -0.002720  -0.000648  -0.000003
  128  O 22  Z   -0.000228  -0.000396   0.001054   0.000678   0.000022
  129  H 23  S   -0.000294  -0.000217  -0.000125  -0.000529   0.000101
  130  H 23  S    0.000315   0.003065  -0.000276   0.002055  -0.000261
  131  H 24  S   -0.000055  -0.000063  -0.000185  -0.000483   0.000065
  132  H 24  S   -0.000036   0.000567   0.002665   0.001101  -0.000295

                     11         12         13         14         15
                  -11.0647   -11.0415    -1.2693    -1.2221    -1.2047
                     A          A          A          A          A   
    1  O  1  S    0.000137   0.000087  -0.121904  -0.001372   0.024515
    2  O  1  S    0.001061   0.000701   0.111168   0.003035  -0.021257
    3  O  1  X   -0.000266  -0.000092   0.001566   0.004256   0.002482
    4  O  1  Y   -0.000080  -0.000058  -0.037331  -0.006487   0.007134
    5  O  1  Z   -0.000057  -0.000138  -0.031386   0.004927   0.003838
    6  O  1  S   -0.004860  -0.002976   0.379081  -0.004130  -0.083655
    7  O  1  X    0.002368   0.001119  -0.001583   0.004091   0.005240
    8  O  1  Y    0.001298   0.000910  -0.045828  -0.005922   0.008955
    9  O  1  Z    0.001731   0.001242  -0.038949   0.005657   0.008075
   10  C  2  S    0.003768   0.001142  -0.092354   0.017939   0.011676
   11  C  2  S   -0.003923  -0.001100   0.101380  -0.021348  -0.016271
   12  C  2  X    0.001800   0.000621  -0.027645   0.022026   0.032158
   13  C  2  Y    0.000497   0.001256   0.014970  -0.030094  -0.000335
   14  C  2  Z   -0.000828  -0.001058   0.025704   0.016426  -0.015266
   15  C  2  S    0.014096  -0.001914   0.147161  -0.030616  -0.012946
   16  C  2  X   -0.012775  -0.003886   0.021752   0.007266  -0.006647
   17  C  2  Y   -0.006449  -0.001979  -0.015890  -0.003758   0.009595
   18  C  2  Z    0.008817   0.007303  -0.021308   0.020191   0.008018
   19  C  3  S    0.001850   0.001532  -0.031798   0.028294  -0.062993
   20  C  3  S   -0.000641  -0.001162   0.035681  -0.030006   0.067335
   21  C  3  X   -0.000168  -0.000140  -0.016652   0.008193  -0.003099
   22  C  3  Y   -0.000030   0.000225   0.008563  -0.024823   0.066417
   23  C  3  Z   -0.000055   0.000050   0.013332   0.000983  -0.009615
   24  C  3  S    0.007246   0.007488   0.034044  -0.046068   0.115561
   25  C  3  X   -0.001496  -0.002662   0.003029  -0.002239   0.001478
   26  C  3  Y   -0.000631  -0.002521   0.008746  -0.001680  -0.012707
   27  C  3  Z    0.003584   0.002042  -0.006109  -0.000828   0.000341
   28  C  4  S    0.004321   0.003452  -0.047675  -0.054465  -0.006046
   29  C  4  S    0.001108  -0.003290   0.051784   0.056374   0.007373
   30  C  4  X    0.000771  -0.000754   0.014085   0.043827   0.014938
   31  C  4  Y   -0.000568  -0.000281   0.018546  -0.032417  -0.012977
   32  C  4  Z    0.000344   0.000096   0.015670   0.039818   0.006921
   33  C  4  S   -0.013287   0.029056   0.066001   0.092509   0.013163
   34  C  4  X    0.000485  -0.015607  -0.015081  -0.004232  -0.006213
   35  C  4  Y   -0.006485  -0.000283   0.001863   0.007267  -0.004441
   36  C  4  Z   -0.006728   0.006743   0.007056  -0.017938   0.000368
   37  H  5  S   -0.000274  -0.001934   0.014282   0.013549   0.002172
   38  H  5  S   -0.002656   0.001399  -0.002944  -0.010040  -0.001118
   39  O  6  S   -0.000094   0.000058  -0.077226  -0.193179  -0.045204
   40  O  6  S   -0.000775   0.000238   0.071190   0.178149   0.041460
   41  O  6  X    0.000198   0.000002  -0.022114  -0.047433  -0.010170
   42  O  6  Y   -0.000230  -0.000040  -0.001514  -0.024355  -0.007630
   43  O  6  Z   -0.000048   0.000120  -0.009026  -0.018604  -0.004046
   44  O  6  S    0.003093  -0.001529   0.239505   0.612524   0.145179
   45  O  6  X   -0.001728   0.001767  -0.025352  -0.065566  -0.014005
   46  O  6  Y    0.001713  -0.000251  -0.001530  -0.020062  -0.004515
   47  O  6  Z   -0.000186  -0.000386  -0.012399  -0.029157  -0.008185
   48  C  7  S   -0.007535   0.988384  -0.022252  -0.008094   0.007068
   49  C  7  S   -0.004772   0.106784   0.020612   0.007050  -0.005615
   50  C  7  X   -0.000073   0.001050   0.008601   0.012324   0.003197
   51  C  7  Y    0.000833   0.001368   0.009582  -0.009512  -0.007033
   52  C  7  Z   -0.000458  -0.000617  -0.007386  -0.000369   0.002671
   53  C  7  S    0.034422  -0.100651   0.039577   0.015884  -0.020760
   54  C  7  X   -0.004140  -0.009441   0.007351   0.006354  -0.007747
   55  C  7  Y    0.013891  -0.013662   0.019055  -0.008654  -0.005768
   56  C  7  Z   -0.002122   0.008852   0.000855   0.011347   0.005856
   57  H  8  S   -0.002187   0.001252   0.006653   0.002878  -0.001990
   58  H  8  S   -0.001883   0.014926  -0.003085  -0.003201   0.001063
   59  O  9  S    0.000079  -0.000204  -0.010676  -0.008722   0.004067
   60  O  9  S    0.000439  -0.000835   0.009478   0.008794  -0.003761
   61  O  9  X   -0.000036   0.000150   0.000720   0.001512   0.000639
   62  O  9  Y    0.000020   0.000272   0.004621   0.002496  -0.001809
   63  O  9  Z   -0.000059   0.000556   0.001969   0.002546  -0.000689
   64  O  9  S   -0.001881   0.008564   0.035044   0.024001  -0.012622
   65  O  9  X    0.000151   0.002295   0.000747  -0.000282   0.000612
   66  O  9  Y   -0.001831   0.003830   0.005103   0.002643  -0.001803
   67  O  9  Z    0.000137  -0.001227   0.004809   0.000160  -0.002114
   68  C 10  S    0.987274   0.005756  -0.037685   0.022242   0.026425
   69  C 10  S    0.106962  -0.003093   0.042299  -0.022312  -0.027013
   70  C 10  X    0.001878   0.000509   0.029631  -0.012776  -0.012341
   71  C 10  Y    0.000654  -0.000299   0.014113  -0.014753  -0.013132
   72  C 10  Z    0.001077   0.000062  -0.009315   0.006159   0.003161
   73  C 10  S   -0.099104   0.029498   0.050824  -0.035765  -0.044245
   74  C 10  X   -0.009104   0.010118  -0.012682  -0.004024   0.001368
   75  C 10  Y   -0.000162  -0.013948   0.005711  -0.003304  -0.004331
   76  C 10  Z   -0.014002   0.003595  -0.000123   0.002700  -0.001669
   77  H 11  S    0.000061  -0.001861   0.009762  -0.006738  -0.007955
   78  H 11  S    0.011301   0.001270  -0.004812   0.001349   0.000814
   79  O 12  S   -0.000227   0.000137  -0.132071   0.080011   0.064806
   80  O 12  S   -0.000602   0.000921   0.119345  -0.073542  -0.058496
   81  O 12  X   -0.000275  -0.000035   0.019145  -0.006222   0.003416
   82  O 12  Y   -0.000568  -0.000102  -0.033588   0.015344   0.017190
   83  O 12  Z    0.000527   0.000066   0.029118  -0.014022  -0.016621
   84  O 12  S    0.008343  -0.004290   0.413134  -0.247350  -0.209576
   85  O 12  X   -0.006047   0.001039   0.022328  -0.008775   0.000115
   86  O 12  Y   -0.001073   0.002358  -0.042588   0.023189   0.026391
   87  O 12  Z    0.001233  -0.001808   0.045551  -0.020990  -0.026170
   88  C 13  S    0.048040   0.006227  -0.013271   0.014056   0.025359
   89  C 13  S    0.000975  -0.000240   0.015376  -0.014824  -0.027505
   90  C 13  X   -0.000025  -0.000313   0.004830  -0.001742   0.000826
   91  C 13  Y   -0.000672   0.000613   0.000500  -0.005986  -0.014267
   92  C 13  Z   -0.000390   0.000352  -0.009837   0.008729   0.013486
   93  C 13  S    0.026580   0.000296   0.014965  -0.024580  -0.039737
   94  C 13  X    0.010355  -0.000945   0.007410  -0.000489  -0.002885
   95  C 13  Y   -0.008153  -0.000027   0.003900   0.001358  -0.000390
   96  C 13  Z   -0.011235  -0.000575   0.002046   0.000568  -0.001348
   97  O 14  S    0.000047  -0.000028  -0.018199   0.029097   0.061225
   98  O 14  S    0.000126  -0.000319   0.017203  -0.027137  -0.056730
   99  O 14  X    0.000093  -0.000070   0.006719  -0.009173  -0.018286
  100  O 14  Y    0.000217   0.000209  -0.004555   0.005783   0.011024
  101  O 14  Z    0.000000   0.000139  -0.001012   0.001228   0.002026
  102  O 14  S   -0.001404   0.000517   0.053417  -0.088761  -0.190352
  103  O 14  X   -0.001286   0.000342   0.006272  -0.011190  -0.022421
  104  O 14  Y    0.000631  -0.000746  -0.006629   0.007926   0.015262
  105  O 14  Z    0.000478  -0.000514  -0.000740   0.000701   0.001388
  106  H 15  S   -0.000266  -0.000041   0.030894   0.086070   0.021284
  107  H 15  S    0.001056  -0.000036   0.004092   0.018341   0.004721
  108  H 16  S    0.000058  -0.000122   0.002627   0.002641  -0.001185
  109  H 16  S   -0.000090   0.001935   0.000321  -0.000231  -0.000922
  110  H 17  S   -0.001301  -0.000005   0.004573  -0.003784  -0.007679
  111  H 17  S    0.002961  -0.000739   0.000017   0.002370   0.001348
  112  H 18  S   -0.002276   0.000017   0.004751  -0.004499  -0.008035
  113  H 18  S   -0.000564  -0.000058   0.000495   0.000574   0.001357
  114  H 19  S    0.000002  -0.000374   0.009647  -0.013684  -0.028146
  115  H 19  S    0.000519   0.000724   0.004665  -0.005030  -0.005670
  116  H 20  S   -0.000144  -0.000539   0.010805  -0.008568   0.018256
  117  H 20  S    0.000588  -0.000512  -0.004000   0.000384  -0.006430
  118  H 21  S   -0.000521  -0.000531   0.010697  -0.008037   0.018780
  119  H 21  S   -0.000197   0.000105  -0.001828   0.006116  -0.003532
  120  O 22  S    0.000007  -0.000006  -0.046057   0.075346  -0.198512
  121  O 22  S    0.000010  -0.000106   0.043558  -0.070293   0.183143
  122  O 22  X    0.000065  -0.000048  -0.012526   0.019228  -0.047211
  123  O 22  Y    0.000029   0.000018  -0.014033   0.017862  -0.042909
  124  O 22  Z    0.000043   0.000016   0.002433  -0.001203   0.001136
  125  O 22  S   -0.000330   0.000356   0.135479  -0.232814   0.628826
  126  O 22  X   -0.000198   0.000283  -0.015757   0.023025  -0.056985
  127  O 22  Y    0.000158   0.000027  -0.016439   0.024358  -0.062269
  128  O 22  Z   -0.000306  -0.000129   0.003908  -0.001193   0.000311
  129  H 23  S    0.000251   0.000090   0.052009   0.010615  -0.008496
  130  H 23  S   -0.000403  -0.000948   0.003102   0.008491   0.000833
  131  H 24  S   -0.000061   0.000137   0.020767  -0.034226   0.087861
  132  H 24  S    0.000089  -0.000158   0.007339  -0.008267   0.010548

                     16         17         18         19         20
                   -1.1920    -1.1745    -1.1268    -0.8902    -0.8844
                     A          A          A          A          A   
    1  O  1  S    0.122012  -0.138801  -0.012878   0.055323  -0.005390
    2  O  1  S   -0.111372   0.127072   0.010959  -0.049404   0.002981
    3  O  1  X   -0.009478   0.016163   0.002010  -0.013038  -0.004342
    4  O  1  Y    0.034045  -0.039250  -0.003907  -0.001900  -0.013693
    5  O  1  Z    0.017218  -0.012977   0.000398  -0.045873   0.018116
    6  O  1  S   -0.394702   0.451453   0.047065  -0.205934   0.032213
    7  O  1  X   -0.011574   0.019885  -0.000084  -0.004325  -0.005378
    8  O  1  Y    0.045765  -0.053785  -0.006484   0.007997  -0.015309
    9  O  1  Z    0.029969  -0.029198  -0.002138  -0.023244   0.011615
   10  C  2  S    0.026513  -0.001831   0.005452  -0.112655   0.036778
   11  C  2  S   -0.027611  -0.000578  -0.003550   0.113132  -0.027613
   12  C  2  X   -0.020127   0.060936   0.007993   0.041560  -0.007810
   13  C  2  Y   -0.010059   0.002825  -0.006952  -0.072708  -0.063609
   14  C  2  Z   -0.048737   0.064866   0.010866  -0.059250   0.047251
   15  C  2  S   -0.054061   0.011384  -0.006228   0.285920  -0.136313
   16  C  2  X    0.006369  -0.013756   0.015599   0.000045   0.013516
   17  C  2  Y    0.007431  -0.000017   0.004939  -0.053650   0.011710
   18  C  2  Z    0.015700  -0.013168  -0.012301  -0.024614   0.002181
   19  C  3  S   -0.008713  -0.005628   0.000405  -0.098062   0.042487
   20  C  3  S    0.009240   0.006002   0.001599   0.102493  -0.040947
   21  C  3  X    0.001076   0.004543   0.002604  -0.029015   0.020288
   22  C  3  Y    0.015359   0.006865   0.002757  -0.058284   0.019578
   23  C  3  Z   -0.008350   0.002866  -0.001218   0.033542  -0.017915
   24  C  3  S    0.020108   0.008989  -0.015264   0.260025  -0.124265
   25  C  3  X   -0.012152   0.019424   0.007514   0.000912   0.018626
   26  C  3  Y   -0.006031   0.000553   0.001290  -0.028855   0.012256
   27  C  3  Z   -0.009376   0.015324  -0.005094   0.009311  -0.007077
   28  C  4  S   -0.014773   0.015178  -0.011011  -0.115457  -0.060135
   29  C  4  S    0.015826  -0.015731   0.008709   0.116109   0.055697
   30  C  4  X    0.009021   0.004608  -0.026429  -0.015116  -0.057049
   31  C  4  Y   -0.017415   0.002296  -0.002426   0.066094   0.006723
   32  C  4  Z    0.008736  -0.000820   0.001267  -0.024244   0.016334
   33  C  4  S    0.027452  -0.030261   0.027613   0.283562   0.177325
   34  C  4  X   -0.005402   0.015217  -0.013325  -0.027235  -0.000411
   35  C  4  Y    0.008424  -0.004496  -0.014246   0.011861   0.040848
   36  C  4  Z   -0.016330   0.023486  -0.003660   0.000181   0.010802
   37  H  5  S    0.004236  -0.003965   0.004323   0.065754   0.028572
   38  H  5  S   -0.003060   0.005808  -0.002398   0.001378  -0.000354
   39  O  6  S   -0.061987   0.025654   0.027481   0.048257   0.025470
   40  O  6  S    0.057060  -0.023304  -0.024864  -0.042921  -0.021895
   41  O  6  X   -0.014442   0.006787   0.001196  -0.024004  -0.019274
   42  O  6  Y   -0.013170   0.007864   0.005223   0.054827   0.023439
   43  O  6  Z   -0.006211   0.003860   0.000976  -0.034454  -0.008462
   44  O  6  S    0.201485  -0.087525  -0.092551  -0.185227  -0.102995
   45  O  6  X   -0.022944   0.012620   0.006954  -0.009105  -0.010436
   46  O  6  Y   -0.015049   0.011388   0.008868   0.040487   0.012495
   47  O  6  Z   -0.011959   0.007361   0.003120  -0.023926  -0.002912
   48  C  7  S   -0.009539   0.019187  -0.076054  -0.043240  -0.101526
   49  C  7  S    0.010993  -0.018147   0.080378   0.045171   0.099968
   50  C  7  X   -0.001049   0.001114  -0.033236   0.055549   0.022248
   51  C  7  Y    0.001725  -0.003228  -0.062432   0.012820   0.080864
   52  C  7  Z   -0.002818   0.010121  -0.022826  -0.014422  -0.005815
   53  C  7  S    0.015736  -0.037085   0.128040   0.101935   0.239875
   54  C  7  X    0.008983  -0.010157   0.011625  -0.009289   0.026811
   55  C  7  Y   -0.009571  -0.011615   0.023785   0.023020   0.027535
   56  C  7  Z    0.002876  -0.007995   0.010352  -0.003455  -0.005812
   57  H  8  S    0.003923  -0.002805   0.022745   0.020898   0.057121
   58  H  8  S   -0.005917   0.006738  -0.008195  -0.004671   0.000501
   59  O  9  S   -0.010734   0.022313  -0.219593   0.025103   0.059020
   60  O  9  S    0.010770  -0.020841   0.209559  -0.023597  -0.055998
   61  O  9  X   -0.000057   0.001579  -0.029419   0.020874   0.031760
   62  O  9  Y    0.003636  -0.007364   0.055210   0.006128   0.018856
   63  O  9  Z    0.002599  -0.005070   0.054964  -0.008555  -0.014625
   64  O  9  S    0.029891  -0.071431   0.689828  -0.089837  -0.212814
   65  O  9  X   -0.002273   0.000255  -0.012872   0.014083   0.020184
   66  O  9  Y    0.003654  -0.008900   0.070665  -0.002531   0.005862
   67  O  9  Z    0.002184  -0.006100   0.056439  -0.006596  -0.013226
   68  C 10  S   -0.025049   0.032119  -0.009613   0.034690  -0.128777
   69  C 10  S    0.024452  -0.034870   0.007541  -0.024461   0.123385
   70  C 10  X    0.000800  -0.035963  -0.003039   0.007053  -0.007041
   71  C 10  Y    0.016107  -0.006524  -0.022333  -0.044927  -0.025820
   72  C 10  Z    0.004731   0.019675   0.008340   0.011682   0.049445
   73  C 10  S    0.056640  -0.060634   0.014758  -0.123708   0.334126
   74  C 10  X   -0.003257   0.008726  -0.010093  -0.016077   0.016449
   75  C 10  Y    0.006253   0.004275  -0.013603  -0.001604  -0.001012
   76  C 10  Z   -0.000449   0.002511  -0.006353  -0.001886   0.042653
   77  H 11  S    0.007422  -0.009118   0.003330  -0.017803   0.063015
   78  H 11  S   -0.002933   0.006744  -0.004111  -0.005886   0.005966
   79  O 12  S   -0.032469   0.129433   0.032455   0.057986   0.056803
   80  O 12  S    0.029608  -0.117028  -0.030410  -0.050111  -0.049254
   81  O 12  X   -0.010717  -0.002581  -0.003886   0.065507  -0.069817
   82  O 12  Y   -0.005585   0.032447   0.003107  -0.021069  -0.026513
   83  O 12  Z    0.004289  -0.017481  -0.004078  -0.014240   0.025741
   84  O 12  S    0.107016  -0.428692  -0.102159  -0.222705  -0.219591
   85  O 12  X   -0.003573  -0.013734  -0.004457   0.039032  -0.050694
   86  O 12  Y   -0.006883   0.050548   0.008362  -0.006499  -0.016254
   87  O 12  Z    0.002716  -0.026595  -0.002714  -0.015556   0.010383
   88  C 13  S   -0.058864  -0.033347  -0.002498   0.021774  -0.085955
   89  C 13  S    0.063381   0.035402   0.003881  -0.022506   0.092295
   90  C 13  X   -0.011294  -0.016390  -0.000096  -0.010455   0.027205
   91  C 13  Y    0.045560   0.040919  -0.003174   0.014269  -0.059660
   92  C 13  Z   -0.027532  -0.008823  -0.000353   0.011308  -0.022286
   93  C 13  S    0.098918   0.057213   0.004982  -0.048347   0.196546
   94  C 13  X    0.002306  -0.006350   0.002970  -0.004799  -0.007675
   95  C 13  Y   -0.001830  -0.007360   0.004249   0.002536  -0.018297
   96  C 13  Z    0.007960  -0.002231  -0.001919   0.008065   0.008740
   97  O 14  S   -0.168999  -0.126000  -0.001582  -0.017580   0.041181
   98  O 14  S    0.156225   0.116074   0.001817   0.015758  -0.037576
   99  O 14  X    0.048352   0.033947   0.000187   0.000137  -0.007102
  100  O 14  Y   -0.027417  -0.017513  -0.000553   0.010446  -0.035222
  101  O 14  Z   -0.005048  -0.003028   0.000315  -0.001671   0.014488
  102  O 14  S    0.530503   0.401078   0.003631   0.066601  -0.151764
  103  O 14  X    0.061023   0.044630  -0.000335   0.001947  -0.007258
  104  O 14  Y   -0.039585  -0.025315   0.000739   0.007489  -0.018846
  105  O 14  Z   -0.003040  -0.000392  -0.000414  -0.000319   0.008330
  106  H 15  S    0.029209  -0.012191  -0.012759  -0.049990  -0.022193
  107  H 15  S    0.007564  -0.004385  -0.000787  -0.030356  -0.015032
  108  H 16  S    0.003317  -0.007621   0.082454  -0.017854  -0.035509
  109  H 16  S    0.000605  -0.001143   0.017345  -0.012246  -0.013626
  110  H 17  S    0.017754   0.010026   0.001788  -0.009847   0.047750
  111  H 17  S   -0.003948  -0.001925   0.004263  -0.002385  -0.005289
  112  H 18  S    0.017674   0.009450   0.001627  -0.011499   0.050340
  113  H 18  S   -0.012038   0.007957  -0.001511  -0.005756   0.004589
  114  H 19  S    0.075784   0.055097   0.000401   0.008260  -0.031020
  115  H 19  S    0.014216   0.005447  -0.002188   0.000175  -0.028798
  116  H 20  S    0.001858   0.002065   0.000243   0.060265  -0.022715
  117  H 20  S   -0.004034   0.003716   0.000060   0.004217   0.001873
  118  H 21  S    0.002739   0.001301   0.000623   0.057018  -0.021217
  119  H 21  S    0.004024  -0.005915  -0.000398  -0.005769  -0.003478
  120  O 22  S   -0.042239  -0.018886  -0.006187   0.041645  -0.026519
  121  O 22  S    0.039165   0.016850   0.005375  -0.038200   0.024073
  122  O 22  X   -0.010882  -0.002374  -0.000860   0.019765  -0.005347
  123  O 22  Y   -0.007867  -0.003867  -0.000646  -0.037636   0.018619
  124  O 22  Z   -0.001084   0.001118  -0.000199   0.010064  -0.006887
  125  O 22  S    0.134126   0.063213   0.022006  -0.155062   0.100929
  126  O 22  X   -0.009948  -0.007317  -0.001864   0.015572  -0.005947
  127  O 22  Y   -0.013133  -0.004954  -0.001980  -0.020034   0.011652
  128  O 22  Z    0.000365  -0.001883   0.000127   0.005749  -0.006981
  129  H 23  S   -0.052001   0.063008   0.006211  -0.035995   0.009909
  130  H 23  S   -0.005716   0.012823  -0.000490  -0.036451   0.002069
  131  H 24  S    0.020146   0.005741   0.002148  -0.033381   0.014615
  132  H 24  S    0.005448  -0.004751  -0.000938  -0.030847   0.004443

                     21         22         23         24         25
                   -0.8074    -0.7144    -0.6547    -0.6283    -0.5781
                     A          A          A          A          A   
    1  O  1  S    0.004312   0.021160   0.006985   0.032697   0.035681
    2  O  1  S   -0.003558  -0.017911  -0.004844  -0.029147  -0.032713
    3  O  1  X    0.014774  -0.033696  -0.062637  -0.039564  -0.027673
    4  O  1  Y    0.016943  -0.003783   0.049781  -0.001400  -0.093230
    5  O  1  Z   -0.016088  -0.048931  -0.081502  -0.144252  -0.013309
    6  O  1  S   -0.020063  -0.092887  -0.034775  -0.142720  -0.149787
    7  O  1  X    0.008707  -0.028571  -0.059777  -0.037699  -0.029240
    8  O  1  Y    0.016735   0.001374   0.048945   0.002292  -0.090991
    9  O  1  Z   -0.013544  -0.033979  -0.073513  -0.133319  -0.015227
   10  C  2  S   -0.017147  -0.065837  -0.047646  -0.099637   0.002010
   11  C  2  S    0.018761   0.055045   0.041943   0.091915  -0.000847
   12  C  2  X    0.088973  -0.040974  -0.040880   0.043987  -0.024972
   13  C  2  Y    0.063742  -0.036450   0.130312  -0.016542  -0.073608
   14  C  2  Z   -0.055864   0.012696   0.004361   0.043554   0.086749
   15  C  2  S    0.045819   0.249208   0.196701   0.380475  -0.016079
   16  C  2  X    0.028931  -0.017019  -0.035633   0.048162  -0.011364
   17  C  2  Y   -0.006110  -0.030065   0.046781  -0.062542  -0.067528
   18  C  2  Z   -0.008469  -0.000031  -0.009946   0.001231   0.066371
   19  C  3  S   -0.126712   0.079166   0.006870   0.042505  -0.007879
   20  C  3  S    0.123685  -0.072948  -0.004037  -0.033431   0.006627
   21  C  3  X    0.005721  -0.060595  -0.051583  -0.070222   0.105133
   22  C  3  Y   -0.044070   0.005222   0.019256  -0.014794   0.030639
   23  C  3  Z    0.018167   0.032544   0.037037   0.092276  -0.011510
   24  C  3  S    0.386323  -0.274569  -0.036582  -0.183382   0.043854
   25  C  3  X   -0.007291  -0.018793  -0.020622  -0.013386   0.070939
   26  C  3  Y   -0.040987   0.024230   0.021899   0.021110   0.015904
   27  C  3  Z    0.011691   0.004966   0.018390   0.040783  -0.009317
   28  C  4  S    0.082510  -0.044527   0.075204   0.044412   0.021796
   29  C  4  S   -0.070981   0.041051  -0.058717  -0.032893  -0.023167
   30  C  4  X    0.047608   0.059804  -0.096872   0.070902   0.071669
   31  C  4  Y   -0.007136   0.041894   0.008467   0.113868   0.097645
   32  C  4  Z   -0.009022  -0.027978   0.072645   0.002931   0.159356
   33  C  4  S   -0.269136   0.139362  -0.330342  -0.202758  -0.093103
   34  C  4  X    0.022746   0.011645  -0.024990   0.043122   0.051213
   35  C  4  Y   -0.029375   0.007061  -0.031636   0.034694   0.080833
   36  C  4  Z   -0.001901  -0.007432   0.039820   0.018575   0.138677
   37  H  5  S   -0.043035   0.030692  -0.083651  -0.058564  -0.126927
   38  H  5  S    0.000036   0.009179  -0.046083  -0.026705  -0.069929
   39  O  6  S   -0.027464   0.009233  -0.012151  -0.021307  -0.019833
   40  O  6  S    0.023962  -0.007256   0.010882   0.020494   0.018168
   41  O  6  X    0.032566  -0.011908   0.016070   0.057968  -0.012577
   42  O  6  Y   -0.035752   0.048079  -0.117105   0.010894   0.207578
   43  O  6  Z    0.020322  -0.039352   0.091393   0.015940   0.018124
   44  O  6  S    0.114068  -0.042691   0.056084   0.088973   0.083411
   45  O  6  X    0.023744  -0.007395   0.011107   0.059042  -0.008923
   46  O  6  Y   -0.026276   0.041278  -0.111070   0.009680   0.210113
[...]
   16 H             0.554664                     0.426943
   17 H             0.004337                     0.003298
   18 H            -0.000106                     0.000046
   19 H             0.004167                     0.002760
   20 H             0.002629                     0.001849
   21 H             0.003241                     0.002573
   22 O             0.006162                     0.007979
   23 H             0.001976                     0.001647
   24 H             0.004262                     0.003365


          ********* ALL ELECTRONS ********

               ----- POPULATIONS IN EACH AO -----
                             MULLIKEN      LOWDIN
              1  O  1  S      1.98633     1.98040
              2  O  1  S      0.41157     0.57369
              3  O  1  X      0.78456     0.78831
              4  O  1  Y      0.71174     0.70989
              5  O  1  Z      0.58745     0.57907
              6  O  1  S      1.53044     1.04240
              7  O  1  X      0.98390     0.99108
              8  O  1  Y      0.93356     0.93321
              9  O  1  Z      0.78062     0.82227
             10  C  2  S      1.99043     1.97493
             11  C  2  S      0.36054     0.42877
             12  C  2  X      0.46648     0.46046
             13  C  2  Y      0.55949     0.54885
             14  C  2  Z      0.46496     0.45201
             15  C  2  S      0.86255     0.53898
             16  C  2  X      0.25940     0.44029
             17  C  2  Y      0.32220     0.48803
             18  C  2  Z      0.20024     0.43404
             19  C  3  S      1.98851     1.97571
             20  C  3  S      0.36492     0.42509
             21  C  3  X      0.57267     0.54400
             22  C  3  Y      0.43182     0.41998
             23  C  3  Z      0.55705     0.52546
             24  C  3  S      1.00502     0.56886
             25  C  3  X      0.45666     0.55843
             26  C  3  Y      0.23732     0.41703
             27  C  3  Z      0.43922     0.55458
             28  C  4  S      1.99039     1.97574
             29  C  4  S      0.35298     0.43053
             30  C  4  X      0.50363     0.49452
             31  C  4  Y      0.52441     0.51984
             32  C  4  Z      0.51741     0.49455
             33  C  4  S      1.01012     0.55800
             34  C  4  X      0.28783     0.46984
             35  C  4  Y      0.34162     0.49499
             36  C  4  Z      0.44392     0.52582
             37  H  5  S      0.47632     0.48885
             38  H  5  S      0.32007     0.44448
             39  O  6  S      1.98595     1.98007
             40  O  6  S      0.40907     0.56751
             41  O  6  X      0.72637     0.73190
             42  O  6  Y      0.60440     0.58868
             43  O  6  Z      0.75918     0.76423
             44  O  6  S      1.51074     1.04020
             45  O  6  X      0.96385     0.96960
             46  O  6  Y      0.78198     0.79336
             47  O  6  Z      0.97569     0.98486
             48  C  7  S      1.98995     1.97521
             49  C  7  S      0.34524     0.41430
             50  C  7  X      0.49889     0.48963
             51  C  7  Y      0.50681     0.49693
             52  C  7  Z      0.53851     0.50881
             53  C  7  S      0.95014     0.54983
             54  C  7  X      0.32926     0.50300
             55  C  7  Y      0.33829     0.50351
             56  C  7  Z      0.46360     0.55563
             57  H  8  S      0.47732     0.49497
             58  H  8  S      0.37745     0.46801
             59  O  9  S      1.98749     1.98221
             60  O  9  S      0.42149     0.62503
             61  O  9  X      0.63705     0.62995
             62  O  9  Y      0.63026     0.63031
             63  O  9  Z      0.79034     0.80261
             64  O  9  S      1.49418     1.10667
             65  O  9  X      0.80489     0.83467
             66  O  9  Y      0.86229     0.90317
             67  O  9  Z      1.01959     1.03140
             68  C 10  S      1.99060     1.97603
             69  C 10  S      0.35150     0.43373
             70  C 10  X      0.46914     0.45987
             71  C 10  Y      0.52436     0.51083
             72  C 10  Z      0.52720     0.50764
             73  C 10  S      1.03790     0.56726
             74  C 10  X      0.36767     0.48178
             75  C 10  Y      0.35208     0.50590
             76  C 10  Z      0.43114     0.53362
             77  H 11  S      0.47588     0.48690
             78  H 11  S      0.29890     0.43034
             79  O 12  S      1.98687     1.98088
             80  O 12  S      0.40815     0.58155
             81  O 12  X      0.53380     0.52455
             82  O 12  Y      0.74480     0.75301
             83  O 12  Z      0.78583     0.79594
             84  O 12  S      1.53691     1.03588
             85  O 12  X      0.70336     0.75302
             86  O 12  Y      0.97505     0.97942
             87  O 12  Z      1.00204     1.00242
             88  C 13  S      1.98844     1.97583
             89  C 13  S      0.36362     0.42447
             90  C 13  X      0.56994     0.53424
             91  C 13  Y      0.44296     0.43354
             92  C 13  Z      0.53938     0.51525
             93  C 13  S      1.00388     0.57198
             94  C 13  X      0.49429     0.56243
             95  C 13  Y      0.26850     0.43502
             96  C 13  Z      0.39846     0.53966
             97  O 14  S      1.98591     1.98042
             98  O 14  S      0.41335     0.57203
             99  O 14  X      0.68761     0.68326
            100  O 14  Y      0.63269     0.62840
            101  O 14  Z      0.75896     0.76130
            102  O 14  S      1.50973     1.05368
            103  O 14  X      0.91383     0.91912
            104  O 14  Y      0.83930     0.86488
            105  O 14  Z      0.95761     0.96519
            106  H 15  S      0.40351     0.42156
            107  H 15  S      0.21897     0.32799
            108  H 16  S      0.37778     0.41496
            109  H 16  S      0.72810     0.70714
            110  H 17  S      0.48035     0.48477
            111  H 17  S      0.33157     0.44481
            112  H 18  S      0.47822     0.48568
            113  H 18  S      0.32233     0.44454
            114  H 19  S      0.40792     0.42615
            115  H 19  S      0.22710     0.33674
            116  H 20  S      0.48070     0.48798
            117  H 20  S      0.35491     0.45747
            118  H 21  S      0.48146     0.48653
            119  H 21  S      0.32064     0.43861
            120  O 22  S      1.98591     1.98038
            121  O 22  S      0.41412     0.57160
            122  O 22  X      0.64071     0.62768
            123  O 22  Y      0.58082     0.57232
            124  O 22  Z      0.85842     0.87174
            125  O 22  S      1.50856     1.04949
            126  O 22  X      0.83603     0.84363
            127  O 22  Y      0.79367     0.83429
            128  O 22  Z      1.06891     1.06292
            129  H 23  S      0.39469     0.41092
            130  H 23  S      0.21174     0.33436
            131  H 24  S      0.40441     0.42195
            132  H 24  S      0.21823     0.33327

          ----- MULLIKEN ATOMIC OVERLAP POPULATIONS -----
          (OFF-DIAGONAL ELEMENTS NEED TO BE MULTIPLIED BY 2)

             1           2           3           4           5

    1    8.3616715
    2    0.2086713   5.3593240
    3   -0.0464921   0.1943570   5.1398066
    4   -0.0534185   0.0533844  -0.0689391   5.6409379
    5    0.0017480  -0.0663449  -0.0025236   0.3163648   0.6038626
    6   -0.0059879  -0.0435500   0.0008762   0.1824152  -0.0245694
    7    0.0006181  -0.1336944   0.0048925   0.1704537  -0.0433958
    8    0.0027782   0.0075806  -0.0000693  -0.0547816   0.0031673
    9    0.0000019   0.0012438  -0.0000103  -0.0702209   0.0084560
   10    0.0029069  -0.0953048   0.0052113  -0.0846963   0.0031495
   11   -0.0000579   0.0032040  -0.0000545  -0.0015800   0.0010880
   12   -0.0306384   0.2194126  -0.0522577  -0.0550158  -0.0008410
   13   -0.0034720   0.0008970  -0.0002661   0.0054609  -0.0001684
   14    0.0000044   0.0000814  -0.0000010  -0.0000448  -0.0000001
   15    0.0000530   0.0090699  -0.0001309  -0.0351197  -0.0056221
   16    0.0000017   0.0003779   0.0000014   0.0252975  -0.0043178
   17    0.0000576   0.0000455   0.0000012   0.0000468  -0.0000142
   18    0.0119717   0.0004678   0.0000778  -0.0002831  -0.0000104
   19   -0.0000234   0.0004162   0.0000075   0.0000751   0.0000031
   20    0.0017709  -0.0655712   0.3317995   0.0080258   0.0046137
   21    0.0018681  -0.0573320   0.3594652   0.0023102   0.0005019
   22    0.0000739  -0.0371812   0.2436693   0.0013300  -0.0000322
   23    0.2557879  -0.0657466   0.0031550  -0.0104697   0.0012264
   24    0.0002693  -0.0075215  -0.0593990   0.0007787   0.0000461

             6           7           8           9          10

    6    8.3551182
    7   -0.0323861   5.5403329
    8   -0.0000542   0.3245647   0.6517905
    9    0.0002203   0.1089328  -0.0569539   9.1312174
   10    0.0024075   0.1305627  -0.0611182  -0.0803700   5.6990599
   11   -0.0000085  -0.0249727   0.0022019   0.0076454   0.3707860
   12    0.0002684  -0.0722851   0.0042266   0.0001042   0.0907208
   13   -0.0000227  -0.0653811  -0.0003289   0.0006449   0.1635462
   14    0.0000000   0.0011613   0.0000484  -0.0000003  -0.0441383
   15    0.2507683  -0.0035248   0.0024255   0.0008624   0.0002333
   16   -0.0002837   0.0502542   0.0233319  -0.4034509   0.0492170
   17   -0.0000002  -0.0018885   0.0030598  -0.0007248  -0.0388193
   18   -0.0000018   0.0014375   0.0023896  -0.0000157  -0.0590782
   19   -0.0000001   0.0006775  -0.0000548   0.0000004  -0.0036230
   20   -0.0000590   0.0000675  -0.0000167  -0.0000004   0.0003276
   21    0.0012704   0.0000986  -0.0000117   0.0000000  -0.0000406
   22   -0.0000003  -0.0000519   0.0000006   0.0000000  -0.0000488
   23    0.0308016   0.0041094   0.0006046   0.0000044   0.0002472
   24   -0.0000015   0.0001107  -0.0000053   0.0000000   0.0004427

            11          12          13          14          15

   11    0.5033614
   12   -0.0312236   8.6003122
   13   -0.0480278  -0.0322315   5.2110541
   14    0.0001345  -0.0020786   0.2214111   8.3192963
   15   -0.0000102  -0.0000039   0.0000078   0.0000000   0.4038235
   16   -0.0085027   0.0004271  -0.0010153   0.0000093   0.0012839
   17   -0.0029305   0.0023481   0.3320741  -0.0245638   0.0000016
   18    0.0031506  -0.0006816   0.3484195  -0.0297237  -0.0000004
   19    0.0005094   0.0155738  -0.0629778   0.2574076  -0.0000000
   20    0.0000208   0.0018265  -0.0000061   0.0000000  -0.0000256
   21    0.0000012   0.0017550   0.0000018  -0.0000000  -0.0000724
   22   -0.0000015  -0.0032968   0.0000014   0.0000000   0.0000002
   23    0.0000170   0.0019428  -0.0000743  -0.0000004  -0.0015415
   24    0.0000326   0.0184418  -0.0000742  -0.0000199  -0.0000001

            16          17          18          19          20

   16    1.3685499
   17    0.0047312   0.5630014
   18    0.0000053  -0.0293276   0.5539168
   19   -0.0000083   0.0048288  -0.0019420   0.4235831
   20   -0.0000032  -0.0000002  -0.0000030   0.0000031   0.6194217
   21   -0.0000002  -0.0000001  -0.0000014  -0.0000001  -0.0319588
   22    0.0000000   0.0000000  -0.0000011  -0.0000285  -0.0343662
   23   -0.0000225  -0.0000119  -0.0002151   0.0000015  -0.0000629
   24   -0.0000002  -0.0000016   0.0000009   0.0005912  -0.0001973

            21          22          23          24

   21    0.5476131
   22   -0.0297926   8.2899995
   23    0.0009731  -0.0000339   0.3857448
   24    0.0054508   0.2569047  -0.0000099   0.4068056

          TOTAL MULLIKEN AND LOWDIN ATOMIC POPULATIONS
       ATOM         MULL.POP.    CHARGE          LOW.POP.     CHARGE
    1 O             8.710164   -0.710164         8.420316   -0.420316
    2 C             5.486287    0.513713         5.766363    0.233637
    3 C             6.053177   -0.053177         5.989145    0.010855
    4 C             5.972312    0.027688         5.963822    0.036178
    5 H             0.796387    0.203613         0.933329    0.066671
    6 O             8.717221   -0.717221         8.420402   -0.420402
    7 C             5.960694    0.039306         5.996857    0.003143
    8 H             0.854775    0.145225         0.962972    0.037028
    9 O             8.647587   -0.647587         8.546032   -0.546032
   10 C             6.051581   -0.051581         5.976672    0.023328
   11 H             0.774783    0.225217         0.917243    0.082757
   12 O             8.676806   -0.676806         8.406676   -0.406676
   13 C             6.069473   -0.069473         5.992431    0.007569
   14 O             8.698983   -0.698983         8.428274   -0.428274
   15 H             0.622478    0.377522         0.749554    0.250446
   16 H             1.105884   -0.105884         1.122094   -0.122094
   17 H             0.811914    0.188086         0.929579    0.070421
   18 H             0.800552    0.199448         0.930228    0.069772
   19 H             0.635021    0.364979         0.762894    0.237106
   20 H             0.835607    0.164393         0.945449    0.054551
   21 H             0.802100    0.197900         0.925139    0.074861
   22 O             8.687145   -0.687145         8.414035   -0.414035
   23 H             0.606427    0.393573         0.745273    0.254727
   24 H             0.622644    0.377356         0.755223    0.244777

          -------------------------------
          BOND ORDER AND VALENCE ANALYSIS     BOND ORDER THRESHOLD=0.050
          -------------------------------

                   BOND                       BOND                       BOND
  ATOM PAIR DIST  ORDER      ATOM PAIR DIST  ORDER      ATOM PAIR DIST  ORDER
    1   2  1.440  0.851        1  23  1.004  0.762        2   3  1.525  0.870
    2   4  1.531  0.814        2  12  1.454  0.855        3  20  1.101  0.894
    3  21  1.092  0.907        3  22  1.450  0.883        4   5  1.095  0.875
    4   6  1.454  0.804        4   7  1.539  0.888        6  15  0.994  0.794
    6  23  1.943  0.060        7   8  1.099  0.896        7   9  1.453  0.901
    7  10  1.548  0.888        7  16  2.004  0.066        9  16  0.995  0.513
   10  11  1.092  0.906       10  12  1.499  0.690       10  13  1.527  0.877
   10  16  2.807  0.109       13  14  1.453  0.853       13  17  1.094  0.909
   13  18  1.098  0.891       14  19  0.998  0.804       22  24  0.997  0.789

                       TOTAL       BONDED        FREE
      ATOM            VALENCE     VALENCE     VALENCE
    1 O                 1.725       1.725       0.000
    2 C                 3.390       3.388       0.002
    3 C                 3.561       3.561       0.000
    4 C                 3.431       3.429       0.002
    5 H                 0.908       0.907       0.000
    6 O                 1.721       1.721       0.000
    7 C                 3.640       3.618       0.022
    8 H                 0.946       0.945       0.000
    9 O                 1.552       1.511       0.041
   10 C                 3.487       3.477       0.011
   11 H                 0.911       0.911      -0.000
   12 O                 1.726       1.725       0.001
   13 C                 3.523       3.523       0.000
   14 O                 1.714       1.714       0.000
   15 H                 0.844       0.844       0.000
   16 H                 1.155       0.844       0.311
   17 H                 0.932       0.932       0.000
   18 H                 0.925       0.925       0.000
   19 H                 0.852       0.852       0.000
   20 H                 0.923       0.923       0.000
   21 H                 0.915       0.915       0.000
   22 O                 1.730       1.730       0.000
   23 H                 0.838       0.838       0.000
   24 H                 0.846       0.846       0.000

          -----------------------------------------
          ATOMIC SPIN DENSITY AT THE NUCLEUS (A.U.)
          -----------------------------------------
                            SPIN DENS    ALPHA DENS     BETA DENS
    1  O            8.0     0.0025574     116.77058     116.76802
    2  C            6.0     0.0141739      47.08186      47.06769
    3  C            6.0    -0.0034336      46.99790      47.00134
    4  C            6.0    -0.0190286      47.07995      47.09898
    5  H            1.0     0.0056598       0.18981       0.18415
    6  O            8.0     0.0178323     116.71633     116.69850
    7  C            6.0     0.0109219      47.04310      47.03218
    8  H            1.0    -0.0059098       0.18506       0.19097
    9  O            8.0     0.9537513     117.58961     116.63586
   10  C            6.0     0.0092444      47.10674      47.09749
   11  H            1.0     0.0006395       0.18696       0.18632
   12  O            8.0     0.1687785     116.95739     116.78861
   13  C            6.0     0.0010045      47.00112      47.00012
   14  O            8.0     0.0167998     116.74321     116.72641
   15  H            1.0    -0.0011778       0.16269       0.16387
   16  H            1.0     0.0162732       0.16248       0.14620
   17  H            1.0     0.0007725       0.18833       0.18756
   18  H            1.0     0.0001825       0.18742       0.18724
   19  H            1.0     0.0003239       0.16557       0.16525
   20  H            1.0    -0.0001297       0.18795       0.18808
   21  H            1.0     0.0005911       0.18884       0.18825
   22  O            8.0     0.0137778     116.73686     116.72308
   23  H            1.0     0.0006611       0.15984       0.15918
   24  H            1.0    -0.0005867       0.16353       0.16412

          ---------------------
          ELECTROSTATIC MOMENTS
          ---------------------

 POINT   1           X           Y           Z (BOHR)    CHARGE
                -0.404993   -0.066933   -0.497290       -1.00 (A.U.)
         DX          DY          DZ         /D/  (DEBYE)
     4.656560    0.961966   -0.466263    4.777691
 ...... END OF PROPERTY EVALUATION ......
 CPU     0: STEP CPU TIME=     0.07 TOTAL CPU TIME=          6.3 (      0.1 MIN)
 TOTAL WALL CLOCK TIME=         15.3 SECONDS, CPU UTILIZATION IS    41.35%
               580000  WORDS OF DYNAMIC MEMORY USED
 EXECUTION OF GAMESS TERMINATED NORMALLY Fri May 22 14:49:55 2020
 DDI: 263640 bytes (0.3 MB / 0 MWords) used by master data server.
Note: The following floating-point exceptions are signalling: IEEE_DENORMALNote: The following floating-point exceptions are signalling:
 ----------------------------------------
 CPU timing information for all processes
 ========================================
 0: 6.159 + 0.187 = 6.347
 1: 5.817 + 0.19 = 5.837
 2: 6.135 + 0.43 = 6.179
 3: 5.846 + 0.23 = 5.870
 4: 5.817 + 0.59 = 5.877
 5: 5.670 + 0.48 = 5.718
 6: 6.337 + 0.23 = 6.361
 7: 6.29 + 0.48 = 6.78
 ----------------------------------------
Note: The following floating-point exceptions are signalling: IEEE_DENORMALNote: The following floating-point exceptions are signalling:
Note: The following floating-point exceptions are signalling: IEEE_DENORMALNote: The following floating-point exceptions are signalling: IEEE_DENORMAL IEEE_DENORMAL
Note: The following floating-point exceptions are signalling: IEEE_DENORMAL
Note: The following floating-point exceptions are signalling: IEEE_DENORMAL
 IEEE_DENORMAL



 ddikick.x: exited gracefully.
unset echo
----- accounting info -----
Files used on the master node pietdev were:
-rwxr-xr-x 1 piet piet     1460 mei 22 14:49 /home/piet/scr/beta-d-fructofuranose_fukui_acid.F05*
-rw-r--r-- 1 piet piet 68812800 mei 22 14:49 /home/piet/scr/beta-d-fructofuranose_fukui_acid.F10
ls: No match.
ls: No match.
ls: No match.
vr 22 mei 2020 14:49:58 CEST
0.121u 0.021s 0:18.49 0.7%	0+0k 0+8io 0pf+0w
