----- GAMESS execution script 'rungms' -----
This job is running on host pietdev
under operating system Linux at zo 17 mei 2020 12:26:44 CEST
Available scratch disk space (Kbyte units) at beginning of the job is
Filesystem     1K-blocks     Used Available Use% Mounted on
/dev/sda2      244568380 30347236 201728088  14% /
GAMESS temporary binary files will be written to /home/piet/scr
GAMESS supplementary output files will be written to /home/piet/gamess/scr
Copying input file glutamaat_fukui_base.inp to your run's scratch directory...
cp glutamaat_fukui_base.inp /home/piet/scr/glutamaat_fukui_base.F05
unset echo
 
Assuming a single but multicore node.
 
/home/piet/gamess/ddikick.x /home/piet/gamess/gamess.03.x glutamaat_fukui_base -ddi 1 6 pietdev:cpus=6 -scr /home/piet/scr

 Distributed Data Interface kickoff program.
 Initiating 6 compute processes on 1 nodes to run the following command:
 /home/piet/gamess/gamess.03.x glutamaat_fukui_base 

          ******************************************************
          *         GAMESS VERSION = 30 SEP 2019 (R2)          *
          *             FROM IOWA STATE UNIVERSITY             *
          * M.W.SCHMIDT, K.K.BALDRIDGE, J.A.BOATZ, S.T.ELBERT, *
          *   M.S.GORDON, J.H.JENSEN, S.KOSEKI, N.MATSUNAGA,   *
          *          K.A.NGUYEN, S.J.SU, T.L.WINDUS,           *
          *       TOGETHER WITH M.DUPUIS, J.A.MONTGOMERY       *
          *         J.COMPUT.CHEM.  14, 1347-1363(1993)        *
          **************** 64 BIT LINUX VERSION ****************

  SINCE 1993, STUDENTS AND POSTDOCS WORKING AT IOWA STATE UNIVERSITY
  AND ALSO IN THEIR VARIOUS JOBS AFTER LEAVING ISU HAVE MADE IMPORTANT
  CONTRIBUTIONS TO THE CODE:
     IVANA ADAMOVIC, CHRISTINE AIKENS, YURI ALEXEEV, POOJA ARORA,
     ANDREY ASADCHEV, ROB BELL, PRADIPTA BANDYOPADHYAY, JONATHAN BENTZ,
     COLLEEN BERTONI, BRETT BODE, KURT BRORSEN, CALEB CARLIN, GALINA CHABAN,
     WEI CHEN, CHEOL HO CHOI, PAUL DAY, ALBERT DEFUSCO, NUWAN DESILVA,
     TIM DUDLEY, DMITRI FEDOROV, ALEX FINDLATER, GRAHAM FLETCHER, 
     MARK FREITAG, KURT GLAESEMANN, EMILIE B GUIDEZ, ANASTASIA GUNINA, 
     DAN KEMP, SAROM SOK LEANG, GRANT MERRILL,
     NORIYUKI MINEZAWA, JONATHAN MULLIN,
     TAKESHI NAGATA, SEAN NEDD, HEATHER NETZLOFF, BOSILJKA NJEGIC, RYAN OLSON,
     MIKE PAK, BUU PHAM, DAVID POOLE,
     SPENCER PRUITT, LUKE ROSKOP, TOSAPORN SATTASATHUCHANA,
     JIM SHOEMAKER, LYUDMILA SLIPCHENKO,
     TONY SMITH, JIE SONG, TETSUYA TAKETSUGU, SIMON WEBB,
     JORGE LUIS GALVEZ VALLEJO, PENG XU, SOOHAENG YOO,
     FEDERICO ZAHARIEV

  ADDITIONAL CODE HAS BEEN PROVIDED BY COLLABORATORS IN OTHER GROUPS:
     IOWA STATE UNIVERSITY:
          JOE IVANIC, AARON WEST, LAIMUTIS BYTAUTAS, KLAUS RUEDENBERG
     UNIVERSITY OF TOKYO: KIMIHIKO HIRAO, TAKAHITO NAKAJIMA,
          TAKAO TSUNEDA, MUNEAKI KAMIYA, SUSUMU YANAGISAWA,
          KIYOSHI YAGI, MAHITO CHIBA, SEIKEN TOKURA, NAOAKI KAWAKAMI
     UNIVERSITY OF AARHUS: FRANK JENSEN
     UNIVERSITY OF IOWA: VISVALDAS KAIRYS, HUI LI
     NATIONAL INST. OF STANDARDS AND TECHNOLOGY: WALT STEVENS, DAVID GARMER
     UNIVERSITY OF PISA: BENEDETTA MENNUCCI, JACOPO TOMASI
     UNIVERSITY OF MEMPHIS: HENRY KURTZ, PRAKASHAN KORAMBATH
     UNIVERSITY OF ALBERTA: TOBY ZENG, MARIUSZ KLOBUKOWSKI
     UNIVERSITY OF NEW ENGLAND: MARK SPACKMAN
     MIE UNIVERSITY: HIROAKI UMEDA
     NAT. INST. OF ADVANCED INDUSTRIAL SCIENCE AND TECHNOLOGY: KAZUO KITAURA
     MICHIGAN STATE UNIVERSITY:
          KAROL KOWALSKI, MARTA WLOCH, JEFFREY GOUR, JESSE LUTZ,
          WEI LI, JUN SHEN, J. EMILIANO DEUSTUA, PIOTR PIECUCH
     UNIVERSITY OF MINNESOTA:
          ANDREW SAND, PRACHI SHARMA, YINAN SHU
     UNIVERSITY OF SILESIA: MONIKA MUSIAL, STANISLAW KUCHARSKI
     FACULTES UNIVERSITAIRES NOTRE-DAME DE LA PAIX:
          OLIVIER QUINET, BENOIT CHAMPAGNE
     UNIVERSITY OF CALIFORNIA - SANTA BARBARA: BERNARD KIRTMAN
     INSTITUTE FOR MOLECULAR SCIENCE:
          KAZUYA ISHIMURA, MICHIO KATOUDA, AND SHIGERU NAGASE
     UNIVERSITY OF NOTRE DAME: ANNA POMOGAEVA, DAN CHIPMAN
     KYUSHU UNIVERSITY:
          HARUYUKI NAKANO,
          FENG LONG GU, JACEK KORCHOWIEC, MARCIN MAKOWSKI, AND YURIKO AOKI,
          HIROTOSHI MORI AND EISAKU MIYOSHI
     PENNSYLVANIA STATE UNIVERSITY:
          TZVETELIN IORDANOV, CHET SWALINA, JONATHAN SKONE,
          SHARON HAMMES-SCHIFFER
     WASEDA UNIVERSITY:
          MASATO KOBAYASHI, TOMOKO AKAMA, TSUGUKI TOUMA,
          TAKESHI YOSHIKAWA, YASUHIRO IKABATA, JUNJI SEINO,
          YUYA NAKAJIMA, HIROMI NAKAI
     NANJING UNIVERSITY: SHUHUA LI
     UNIVERSITY OF NEBRASKA:
          PEIFENG SU, DEJUN SI, NANDUN THELLAMUREGE, YALI WANG, HUI LI
     UNIVERSITY OF ZURICH: ROBERTO PEVERATI, KIM BALDRIDGE
     N. COPERNICUS UNIVERSITY AND JACKSON STATE UNIVERSITY:
          MARIA BARYSZ
     UNIVERSITY OF COPENHAGEN: Jimmy Kromann, CASPER STEINMANN
     TOKYO INSTITUTE OF TECHNOLOGY: HIROYA NAKATA
     NAGOYA UNIVERSITY: YOSHIO NISHIMOTO, STEPHAN IRLE
     MOSCOW STATE UNIVERSITY: VLADIMIR MIRONOV
     A.N.NESMEYANOV INSTITUTE OF ORGANOELEMENT COMPOUNDS OF RUSSIAN ACADEMY OF SCIENCES:
          IGOR S. GERASIMOV
     JOHANNES KEPLER UNIVERSITY LINZ:
          CHRISTIAN FRIEDL


 PARALLEL VERSION RUNNING ON        6 PROCESSORS IN        1 NODES.

 EXECUTION OF GAMESS BEGUN Sun May 17 12:26:44 2020

            ECHO OF THE FIRST FEW INPUT CARDS -
 INPUT CARD> $BASIS GBASIS=N21 NGAUSS=3 $END                                                
 INPUT CARD> $CONTRL SCFTYP=UHF MAXIT=60 MULT=2 ICHARG=1 $END                               
 INPUT CARD> $SYSTEM MEMDDI=1000 MWORDS=30 $END                                             
 INPUT CARD> $SCF DIRSCF=.TRUE. $END                                                        
 INPUT CARD> $STATPT OPTTOL=0.0001 NSTEP=999 $END                                           
 INPUT CARD> $DATA                                                                          
 INPUT CARD>                                                                                
 INPUT CARD>C1                                                                              
 INPUT CARD>C 6.0000000 1.1578927087 0.4656343449 0.4356959481                              
 INPUT CARD>H 1.0000000 1.2071208368 0.5566764538 1.5276152982                              
 INPUT CARD>C 6.0000000 -0.1568949435 -0.2113718528 0.0004690418                            
 INPUT CARD>C 6.0000000 -1.3913920547 0.5872878379 0.4480183962                             
 INPUT CARD>C 6.0000000 -2.6713764305 -0.0810582444 0.0005219824                            
 INPUT CARD>O 8.0000000 -2.7737379010 -1.1178836572 -0.6445685671                           
 INPUT CARD>O 8.0000000 -3.7692379822 0.6487863844 0.4215848032                             
 INPUT CARD>H 1.0000000 -0.1834244358 -0.3210318089 -1.0895682611                           
 INPUT CARD>H 1.0000000 -0.2184490105 -1.2226526579 0.4182037839                            
 INPUT CARD>H 1.0000000 -1.4246121562 0.6920897799 1.5401206851                             
 INPUT CARD>H 1.0000000 -1.3760519859 1.6050681378 0.0368904810                             
 INPUT CARD>H 1.0000000 2.0226213257 -0.1187700457 0.1029875038                             
 INPUT CARD>H 1.0000000 1.2385120950 1.4713597068 0.0058630860                              
 INPUT CARD>H 1.0000000 -4.5922500659 0.1793956214 0.1074558186                             
 INPUT CARD> $END                                                                           
   30000000 WORDS OF MEMORY AVAILABLE

     BASIS OPTIONS
     -------------
     GBASIS=N21          IGAUSS=       3      POLAR=NONE    
     NDFUNC=       0     NFFUNC=       0     DIFFSP=       F
     NPFUNC=       0      DIFFS=       F     BASNAM=        


     RUN TITLE
     ---------
                                                                                 

 THE POINT GROUP OF THE MOLECULE IS C1      
 THE ORDER OF THE PRINCIPAL AXIS IS     0

 ATOM      ATOMIC                      COORDINATES (BOHR)
           CHARGE         X                   Y                   Z
 C           6.0     2.1880999426        0.8799213223        0.8233459559
 H           1.0     2.2811276156        1.0519659615        2.8867743283
 C           6.0    -0.2964884521       -0.3994348833        0.0008863605
 C           6.0    -2.6293497249        1.1098130896        0.8466320063
 C           6.0    -5.0481694637       -0.1531778710        0.0009864037
 O           8.0    -5.2416045946       -2.1124937983       -1.2180579721
 O           8.0    -7.1228269689        1.2260284911        0.7966797586
 H           1.0    -0.3466219231       -0.6066621522       -2.0589854584
 H           1.0    -0.4128087721       -2.3104785016        0.7902905586
 H           1.0    -2.6921266140        1.3078600429        2.9104060829
 H           1.0    -2.6003611982        3.0331389721        0.0697129006
 H           1.0     3.8222000825       -0.2244428419        0.1946181623
 H           1.0     2.3404484920        2.7804666752        0.0110796260
 H           1.0    -8.6780942916        0.3390085678        0.2030620529

          INTERNUCLEAR DISTANCES (ANGS.)
          ------------------------------

                1 C          2 H          3 C          4 C          5 C     

   1 C       0.0000000    1.0968135 *  1.5415662 *  2.5522156 *  3.8924994  
   2 H       1.0968135 *  0.0000000    2.1869186 *  2.8140248 *  4.2168069  
   3 C       1.5415662 *  2.1869186 *  0.0000000    1.5369258 *  2.5178560 *
   4 C       2.5522156 *  2.8140248 *  1.5369258 *  0.0000000    1.5117207 *
   5 C       3.8924994    4.2168069    2.5178560 *  1.5117207 *  0.0000000  
   6 O       4.3740393    4.8342291    2.8435373 *  2.4519862 *  1.2254088 *
   7 O       4.9305538    5.0986209    3.7371423    2.3787879 *  1.3839317 *
   8 H       2.1781658 *  3.0908959    1.0958606 *  2.1560156 *  2.7268643 *
   9 H       2.1782873 *  2.5355582 *  1.0958924 *  2.1569814 *  2.7376174 *
  10 H       2.8178658 *  2.6352441 *  2.1894924 *  1.0976222 *  2.1266272 *
  11 H       2.8068186 *  3.1613553    2.1879499 *  1.0977879 *  2.1265489 *
  12 H       1.0954355 *  1.7750587 *  2.1838902 *  3.5032915    4.6952674  
  13 H       1.0966947 *  1.7757704 *  2.1860410 *  2.8095338 *  4.2068109  
  14 H       5.7666122    5.9826329    4.4538209    3.2446650    1.9413981 *

                6 O          7 O          8 H          9 H         10 H     

   1 C       4.3740393    4.9305538    2.1781658 *  2.1782873 *  2.8178658 *
   2 H       4.8342291    5.0986209    3.0908959    2.5355582 *  2.6352441 *
   3 C       2.8435373 *  3.7371423    1.0958606 *  1.0958924 *  2.1894924 *
   4 C       2.4519862 *  2.3787879 *  2.1560156 *  2.1569814 *  1.0976222 *
   5 C       1.2254088 *  1.3839317 *  2.7268643 *  2.7376174 *  2.1266272 *
   6 O       0.0000000    2.2910317 *  2.7464015 *  2.7694698 *  3.1414982  
   7 O       2.2910317 *  0.0000000    4.0102606    4.0137760    2.5981278 *
   8 H       2.7464015 *  4.0102606    0.0000000    1.7571350 *  3.0793224  
   9 H       2.7694698 *  4.0137760    1.7571350 *  0.0000000    2.5258198 *
  10 H       3.1414982    2.5981278 *  3.0793224    2.5258198 *  0.0000000  
  11 H       3.1356624    2.6057252 *  2.5300456 *  3.0791962    1.7594285 *
  12 H       4.9560196    5.8511778    2.5158969 *  2.5179981 *  3.8218142  
  13 H       4.8192730    5.0918574    2.5366396 *  3.0903824    3.1707158  
  14 H       2.3570025 *  0.9981751 *  4.5957630    4.6035247    3.5141591  

               11 H         12 H         13 H         14 H     

   1 C       2.8068186 *  1.0954355 *  1.0966947 *  5.7666122  
   2 H       3.1613553    1.7750587 *  1.7757704 *  5.9826329  
   3 C       2.1879499 *  2.1838902 *  2.1860410 *  4.4538209  
   4 C       1.0977879 *  3.5032915    2.8095338 *  3.2446650  
   5 C       2.1265489 *  4.6952674    4.2068109    1.9413981 *
   6 O       3.1356624    4.9560196    4.8192730    2.3570025 *
   7 O       2.6057252 *  5.8511778    5.0918574    0.9981751 *
   8 H       2.5300456 *  2.5158969 *  2.5366396 *  4.5957630  
   9 H       3.0791962    2.5179981 *  3.0903824    4.6035247  
  10 H       1.7594285 *  3.8218142    3.1707158    3.5141591  
  11 H       0.0000000    3.8114259    2.6181646 *  3.5187287  
  12 H       3.8114259    0.0000000    1.7756050 *  6.6215894  
  13 H       2.6181646 *  1.7756050 *  0.0000000    5.9730461  
  14 H       3.5187287    6.6215894    5.9730461    0.0000000  

  * ... LESS THAN  3.000


     ATOMIC BASIS SET
     ----------------
 THE CONTRACTED PRIMITIVE FUNCTIONS HAVE BEEN UNNORMALIZED
 THE CONTRACTED BASIS FUNCTIONS ARE NOW NORMALIZED TO UNITY

  SHELL TYPE  PRIMITIVE        EXPONENT          CONTRACTION COEFFICIENT(S)

 C         

      1   S       1           172.2560000    0.061766907377
      1   S       2            25.9109000    0.358794042852
      1   S       3             5.5333500    0.700713083689

      2   L       4             3.6649800   -0.395895162119    0.236459946619
      2   L       5             0.7705450    1.215834355681    0.860618805716

      3   L       6             0.1958570    1.000000000000    1.000000000000

 H         

      4   S       7             5.4471780    0.156284978695
      4   S       8             0.8245472    0.904690876670

      5   S       9             0.1831916    1.000000000000

 C         

      6   S      10           172.2560000    0.061766907377
      6   S      11            25.9109000    0.358794042852
      6   S      12             5.5333500    0.700713083689

      7   L      13             3.6649800   -0.395895162119    0.236459946619
      7   L      14             0.7705450    1.215834355681    0.860618805716

      8   L      15             0.1958570    1.000000000000    1.000000000000

 C         

      9   S      16           172.2560000    0.061766907377
      9   S      17            25.9109000    0.358794042852
      9   S      18             5.5333500    0.700713083689

     10   L      19             3.6649800   -0.395895162119    0.236459946619
     10   L      20             0.7705450    1.215834355681    0.860618805716

     11   L      21             0.1958570    1.000000000000    1.000000000000

 C         

     12   S      22           172.2560000    0.061766907377
     12   S      23            25.9109000    0.358794042852
     12   S      24             5.5333500    0.700713083689

     13   L      25             3.6649800   -0.395895162119    0.236459946619
     13   L      26             0.7705450    1.215834355681    0.860618805716

     14   L      27             0.1958570    1.000000000000    1.000000000000

 O         

     15   S      28           322.0370000    0.059239393389
     15   S      29            48.4308000    0.351499960776
     15   S      30            10.4206000    0.707657921031

     16   L      31             7.4029400   -0.404453583190    0.244586106967
     16   L      32             1.5762000    1.221561761397    0.853955373466

     17   L      33             0.3736840    1.000000000000    1.000000000000

 O         

     18   S      34           322.0370000    0.059239393389
     18   S      35            48.4308000    0.351499960776
     18   S      36            10.4206000    0.707657921031

     19   L      37             7.4029400   -0.404453583190    0.244586106967
     19   L      38             1.5762000    1.221561761397    0.853955373466

     20   L      39             0.3736840    1.000000000000    1.000000000000

 H         

     21   S      40             5.4471780    0.156284978695
     21   S      41             0.8245472    0.904690876670

     22   S      42             0.1831916    1.000000000000

 H         

     23   S      43             5.4471780    0.156284978695
     23   S      44             0.8245472    0.904690876670

     24   S      45             0.1831916    1.000000000000

 H         

     25   S      46             5.4471780    0.156284978695
     25   S      47             0.8245472    0.904690876670

     26   S      48             0.1831916    1.000000000000

 H         

     27   S      49             5.4471780    0.156284978695
     27   S      50             0.8245472    0.904690876670

     28   S      51             0.1831916    1.000000000000

 H         

     29   S      52             5.4471780    0.156284978695
     29   S      53             0.8245472    0.904690876670

     30   S      54             0.1831916    1.000000000000

 H         

     31   S      55             5.4471780    0.156284978695
     31   S      56             0.8245472    0.904690876670

     32   S      57             0.1831916    1.000000000000

 H         

     33   S      58             5.4471780    0.156284978695
     33   S      59             0.8245472    0.904690876670

     34   S      60             0.1831916    1.000000000000

 TOTAL NUMBER OF BASIS SET SHELLS             =   34
 NUMBER OF CARTESIAN GAUSSIAN BASIS FUNCTIONS =   70
 NUMBER OF ELECTRONS                          =   47
 CHARGE OF MOLECULE                           =    1
 SPIN MULTIPLICITY                            =    2
 NUMBER OF OCCUPIED ORBITALS (ALPHA)          =   24
 NUMBER OF OCCUPIED ORBITALS (BETA )          =   23
 TOTAL NUMBER OF ATOMS                        =   14
 THE NUCLEAR REPULSION ENERGY IS      236.4548771644

     $CONTRL OPTIONS
     ---------------
 SCFTYP=UHF          RUNTYP=ENERGY       EXETYP=RUN     
 MPLEVL=       0     CITYP =NONE         CCTYP =NONE         VBTYP =NONE    
 DFTTYP=NONE         TDDFT =NONE    
 MULT  =       2     ICHARG=       1     NZVAR =       0     COORD =UNIQUE  
 PP    =NONE         RELWFN=NONE         LOCAL =NONE         NUMGRD=       F
 ISPHER=      -1     NOSYM =       0     MAXIT =      60     UNITS =ANGS    
 PLTORB=       F     MOLPLT=       F     AIMPAC=       F     FRIEND=        
 NPRINT=       7     IREST =       0     GEOM  =INPUT   
 NORMF =       0     NORMP =       0     ITOL  =      20     ICUT  =       9
 INTTYP=BEST         GRDTYP=BEST         QMTTOL= 1.0E-06

     $SYSTEM OPTIONS
     ---------------
  REPLICATED MEMORY=    30000000 WORDS (ON EVERY NODE).
 DISTRIBUTED MEMDDI=        1000 MILLION WORDS IN AGGREGATE,
 MEMDDI DISTRIBUTED OVER   6 PROCESSORS IS   166666666 WORDS/PROCESSOR.
 TOTAL MEMORY REQUESTED ON EACH PROCESSOR=   196666666 WORDS.
 TIMLIM=      525600.00 MINUTES, OR     365.0 DAYS.
 PARALL= T  BALTYP=  DLB     KDIAG=    0  COREFL= F
 MXSEQ2=     300 MXSEQ3=     150  mem10=         0

          ----------------
          PROPERTIES INPUT
          ----------------

     MOMENTS            FIELD           POTENTIAL          DENSITY
 IEMOM =       1   IEFLD =       0   IEPOT =       0   IEDEN =       0
 WHERE =COMASS     WHERE =NUCLEI     WHERE =NUCLEI     WHERE =NUCLEI  
 OUTPUT=BOTH       OUTPUT=BOTH       OUTPUT=BOTH       OUTPUT=BOTH    
 IEMINT=       0   IEFINT=       0                     IEDINT=       0
                                                       MORB  =       0
          EXTRAPOLATION IN EFFECT
          SOSCF IN EFFECT
          DIIS or SOSCF will be reset if energy rises
 ORBITAL PRINTING OPTION: NPREO=     1    70     2     1

     -------------------------------
     INTEGRAL TRANSFORMATION OPTIONS
     -------------------------------
     NWORD  =            0
     CUTOFF = 1.0E-09     MPTRAN =       0
     DIRTRF =       T     AOINTS =DUP     

          ----------------------
          INTEGRAL INPUT OPTIONS
          ----------------------
 NOPK  =       1 NORDER=       0 SCHWRZ=       T

     ------------------------------------------
     THE POINT GROUP IS C1 , NAXIS= 0, ORDER= 1
     ------------------------------------------

     DIMENSIONS OF THE SYMMETRY SUBSPACES ARE
 A   =   70

 ..... DONE SETTING UP THE RUN .....
 CPU     0: STEP CPU TIME=     0.01 TOTAL CPU TIME=          0.0 (      0.0 MIN)
 TOTAL WALL CLOCK TIME=          0.0 SECONDS, CPU UTILIZATION IS    33.33%

          ********************
          1 ELECTRON INTEGRALS
          ********************
 ...... END OF ONE-ELECTRON INTEGRALS ......
 CPU     0: STEP CPU TIME=     0.01 TOTAL CPU TIME=          0.0 (      0.0 MIN)
 TOTAL WALL CLOCK TIME=          0.0 SECONDS, CPU UTILIZATION IS    66.67%

          -------------
          GUESS OPTIONS
          -------------
          GUESS =HUCKEL            NORB  =       0          NORDER=       0
          MIX   =       F          PRTMO =       F          PUNMO =       F
          TOLZ  = 1.0E-08          TOLE  = 1.0E-05
          SYMDEN=       F          PURIFY=       F

 INITIAL GUESS ORBITALS GENERATED BY HUCKEL   ROUTINE.
 HUCKEL GUESS REQUIRES     51590 WORDS.

 SYMMETRIES FOR INITIAL GUESS ORBITALS FOLLOW.  ALPHA SET(S).
    24 ORBITALS ARE OCCUPIED (    6 CORE ORBITALS).
     7=A        8=A        9=A       10=A       11=A       12=A       13=A   
    14=A       15=A       16=A       17=A       18=A       19=A       20=A   
    21=A       22=A       23=A       24=A       25=A       26=A       27=A   
    28=A       29=A       30=A       31=A       32=A       33=A       34=A   

 SYMMETRIES FOR INITIAL GUESS ORBITALS FOLLOW.   BETA SET(S).
    23 ORBITALS ARE OCCUPIED (    6 CORE ORBITALS).
     7=A        8=A        9=A       10=A       11=A       12=A       13=A   
    14=A       15=A       16=A       17=A       18=A       19=A       20=A   
    21=A       22=A       23=A       24=A       25=A       26=A       27=A   
    28=A       29=A       30=A       31=A       32=A       33=A   
 ...... END OF INITIAL ORBITAL SELECTION ......
 CPU     0: STEP CPU TIME=     0.03 TOTAL CPU TIME=          0.0 (      0.0 MIN)
 TOTAL WALL CLOCK TIME=          0.1 SECONDS, CPU UTILIZATION IS   100.00%

                    ----------------------
                    AO INTEGRAL TECHNOLOGY
                    ----------------------
     S,P,L SHELL ROTATED AXIS INTEGRALS, REPROGRAMMED BY
        KAZUYA ISHIMURA (IMS) AND JOSE SIERRA (SYNSTAR).
     S,P,D,L SHELL ROTATED AXIS INTEGRALS PROGRAMMED BY
        KAZUYA ISHIMURA (INSTITUTE FOR MOLECULAR SCIENCE).
     S,P,D,F,G SHELL TO TOTAL QUARTET ANGULAR MOMENTUM SUM 5,
        ERIC PROGRAM BY GRAHAM FLETCHER (ELORET AND NASA ADVANCED
        SUPERCOMPUTING DIVISION, AMES RESEARCH CENTER).
     S,P,D,F,G,L SHELL GENERAL RYS QUADRATURE PROGRAMMED BY
        MICHEL DUPUIS (PACIFIC NORTHWEST NATIONAL LABORATORY).

          --------------------
          2 ELECTRON INTEGRALS
          --------------------

 DIRECT SCF METHOD SKIPS INTEGRAL STORAGE ON DISK.
 DIRECT TRANSFORMATION SKIPS AO INTEGRAL STORAGE ON DISK.
  ...... END OF TWO-ELECTRON INTEGRALS .....
 CPU     0: STEP CPU TIME=     0.01 TOTAL CPU TIME=          0.1 (      0.0 MIN)
 TOTAL WALL CLOCK TIME=          0.1 SECONDS, CPU UTILIZATION IS   100.00%

          ---------------------------
                  UHF SCF CALCULATION
          ---------------------------

     NUCLEAR ENERGY =       236.4548771644
     MAXIT = 60     NPUNCH=  2     MULT=  2
     EXTRAP=T  DAMP=F  SHIFT=F  RSTRCT=F  DIIS=F  SOSCF=T
     DENSITY MATRIX CONV=  2.00E-05
     SOSCF WILL OPTIMIZE    1104 ALPHA AND    1081 BETA ROTATION ANGLES.
     SOGTOL= 2.500E-01
     MEMORY REQUIRED FOR UHF/ROHF ITERS=    110961 WORDS.

 DIRECT SCF CALCULATION, SCHWRZ=T   FDIFF=T
 SCHWARZ INEQUALITY OVERHEAD:      2395 INTEGRALS, T=        0.00

                                                                                NONZERO     BLOCKS
 ITER EX      TOTAL ENERGY        E CHANGE  DENSITY CHANGE    ORB. GRAD       INTEGRALS    SKIPPED
   1  0     -302.9063777873  -302.9063777873   0.863332713   0.000000000        2285540      58798
          ---------------START SECOND ORDER SCF---------------
   2  1     -303.6840619162    -0.7776841289   0.160533773   0.110014227        2279792      60893
   3  2     -303.7329063787    -0.0488444625   0.089860072   0.067707916        2263229      64734
   4  3     -303.8196681255    -0.0867617468   0.046622711   0.025445451        2259987      66438
   5  4     -303.8315440325    -0.0118759070   0.034841227   0.012761226        2248992      68365
   6  5     -303.8342497476    -0.0027057151   0.012141933   0.006013097        2235117      70029
   7  6     -303.8347928269    -0.0005430793   0.011057150   0.004112319        2191601      74597
   8  7     -303.8349862555    -0.0001934287   0.002647425   0.001298070        2178397      75955
   9  8     -303.8350205185    -0.0000342630   0.002201390   0.000434496        2123345      80309
  10  9     -303.8350295721    -0.0000090536   0.000720536   0.000141013        2096739      81796
  11 10     -303.8350304755    -0.0000009034   0.000401468   0.000070798        2016631      87660
  12 11     -303.8350307010    -0.0000002254   0.000164392   0.000036533        1950377      91429
  13 12     -303.8350307619    -0.0000000609   0.000079457   0.000019033        1900875      94712
  14 13     -303.8350307749    -0.0000000131   0.000025140   0.000014917        1829951      98713
  15 14     -303.8350307774    -0.0000000025   0.000012569   0.000006434        1756693     102570
  16 15     -303.8350307782    -0.0000000007   0.000005055   0.000002269        1658716     108512

          -----------------
          DENSITY CONVERGED
          -----------------
     TIME TO FORM FOCK OPERATORS=       0.4 SECONDS (       0.0 SEC/ITER)
     FOCK TIME ON FIRST ITERATION=       0.0, LAST ITERATION=       0.0
     TIME TO SOLVE SCF EQUATIONS=       0.1 SECONDS (       0.0 SEC/ITER)

 FINAL UHF ENERGY IS     -303.8350307782 AFTER  16 ITERATIONS

          --------------------
          SPIN SZ   =    0.500
          S-SQUARED =    0.767
          --------------------

  ----- ALPHA SET ----- 

          ------------
          EIGENVECTORS
          ------------

                      1          2          3          4          5
                  -20.9172   -20.8106   -11.6570   -11.4229   -11.3555
                     A          A          A          A          A   
    1  C  1  S    0.000061  -0.000099  -0.000459  -0.001216  -0.002643
    2  C  1  S    0.000226  -0.000537  -0.001206  -0.000890  -0.002640
    3  C  1  X    0.000432  -0.000232   0.000315   0.000799  -0.000538
    4  C  1  Y   -0.000024   0.000047  -0.000185  -0.000087  -0.000107
    5  C  1  Z   -0.000005   0.000019  -0.000109  -0.000034  -0.000074
    6  C  1  S   -0.003283   0.004274   0.004574   0.000449   0.021400
    7  C  1  X    0.000457  -0.001347  -0.003259  -0.000113  -0.010702
    8  C  1  Y    0.001077  -0.001529   0.000191   0.000277  -0.004913
    9  C  1  Z    0.000669  -0.000930   0.000053   0.000179  -0.003211
   10  H  2  S    0.000038  -0.000145  -0.000427   0.000080  -0.001342
   11  H  2  S    0.000063   0.000128  -0.000352  -0.000977   0.000532
   12  C  3  S   -0.000102  -0.000041  -0.000407  -0.002094   0.987955
   13  C  3  S   -0.000511  -0.000484  -0.000718  -0.002701   0.104387
   14  C  3  X   -0.000739   0.001083   0.001051  -0.000629  -0.000552
   15  C  3  Y   -0.000063   0.000191   0.000128  -0.000024   0.000346
   16  C  3  Z   -0.000053   0.000144   0.000103  -0.000024   0.000185
   17  C  3  S    0.006583  -0.002128  -0.000604   0.022416  -0.091813
   18  C  3  X    0.000968  -0.004601  -0.003985  -0.011201   0.000965
   19  C  3  Y    0.003292  -0.002666  -0.000656   0.006917  -0.005782
   20  C  3  Z    0.001959  -0.001698  -0.000464   0.003801  -0.003379
   21  C  4  S    0.000010   0.000053  -0.000955   0.988024   0.001222
   22  C  4  S    0.000112  -0.000097  -0.002448   0.105356  -0.002339
   23  C  4  X    0.000508   0.000062   0.000558  -0.000972   0.000409
   24  C  4  Y   -0.000328   0.000057   0.000399  -0.000593   0.000022
   25  C  4  Z   -0.000196   0.000048   0.000258  -0.000403   0.000030
   26  C  4  S    0.005171  -0.001155   0.021171  -0.097318   0.022341
   27  C  4  X   -0.009874   0.003719  -0.014772   0.002737   0.010707
   28  C  4  Y    0.004311  -0.001901  -0.005884   0.008041  -0.006993
   29  C  4  Z    0.002453  -0.001154  -0.004038   0.005056  -0.003967
   30  C  5  S    0.000225  -0.000462   0.986755   0.000240   0.000390
   31  C  5  S    0.001592  -0.000797   0.094521  -0.002551  -0.000478
   32  C  5  X   -0.000281  -0.001210  -0.000250   0.000038  -0.000651
   33  C  5  Y   -0.001497   0.000462  -0.001328  -0.000292   0.000011
   34  C  5  Z   -0.000936   0.000255  -0.000832  -0.000179  -0.000015
   35  C  5  S    0.015793   0.015490  -0.048226   0.026181  -0.001825
   36  C  5  X   -0.003837  -0.014138  -0.015749   0.016160   0.000334
   37  C  5  Y   -0.024173   0.010337  -0.011904   0.005188  -0.000161
   38  C  5  Z   -0.015082   0.006007  -0.007783   0.003637  -0.000085
   39  O  6  S    0.983500   0.000644   0.000193   0.000060  -0.000010
   40  O  6  S    0.101381  -0.000097   0.001740   0.000268  -0.000131
   41  O  6  X    0.000240  -0.000687  -0.000554   0.000326  -0.000079
   42  O  6  Y    0.004143   0.000005  -0.000293  -0.000142  -0.000080
   43  O  6  Z    0.002572  -0.000016  -0.000195  -0.000078  -0.000058
   44  O  6  S   -0.057793   0.001693  -0.004846  -0.001819   0.000386
   45  O  6  X   -0.000772   0.004325   0.002890  -0.002897  -0.000002
   46  O  6  Y   -0.013805  -0.000607  -0.004923  -0.000739   0.000365
   47  O  6  Z   -0.008571  -0.000256  -0.002979  -0.000539   0.000242
   48  O  7  S   -0.000672   0.983604   0.000045   0.000002  -0.000046
   49  O  7  S   -0.000309   0.098986   0.001235  -0.000309  -0.000460
   50  O  7  X   -0.000601   0.001126   0.000094  -0.000519  -0.000308
   51  O  7  Y   -0.000576  -0.003510  -0.000904   0.000094  -0.000069
   52  O  7  Z   -0.000375  -0.002142  -0.000557   0.000044  -0.000049
   53  O  7  S    0.002914  -0.049409   0.001853   0.000059   0.001336
   54  O  7  X    0.003703  -0.006001   0.001551   0.000691   0.001466
   55  O  7  Y    0.003277   0.008768   0.003712  -0.000570   0.000135
   56  O  7  Z    0.002138   0.005260   0.002338  -0.000333   0.000117
   57  H  8  S    0.000006  -0.000399  -0.000465  -0.001397   0.001009
   58  H  8  S    0.000094  -0.000337   0.000349   0.000861   0.014419
   59  H  9  S    0.000028  -0.000391  -0.000458  -0.001387   0.001000
   60  H  9  S    0.000096  -0.000374   0.000299   0.000910   0.014389
   61  H 10  S   -0.000570   0.000376  -0.001493   0.001133  -0.001311
   62  H 10  S   -0.001096   0.000112   0.002205   0.014203   0.000901
   63  H 11  S   -0.000531   0.000366  -0.001493   0.001149  -0.001317
   64  H 11  S   -0.001043   0.000022   0.002219   0.014241   0.000862
   65  H 12  S    0.000207  -0.000310  -0.000102  -0.000247  -0.001064
   66  H 12  S    0.000804  -0.000436   0.001072   0.001359   0.000030
   67  H 13  S    0.000035  -0.000141  -0.000419   0.000087  -0.001345
   68  H 13  S    0.000083   0.000138  -0.000362  -0.000991   0.000509
   69  H 14  S    0.001372   0.003282   0.000992   0.000114   0.000188
   70  H 14  S   -0.000618   0.003724   0.001049   0.001814   0.000486

                      6          7          8          9         10
                  -11.3095    -1.8608    -1.6887    -1.3101    -1.1775
                     A          A          A          A          A   
    1  C  1  S    0.987524  -0.000222   0.000414  -0.037831  -0.127137
    2  C  1  S    0.101687  -0.000330   0.002099   0.041556   0.121591
    3  C  1  X   -0.000458  -0.001225   0.000820  -0.027330  -0.038863
    4  C  1  Y    0.000038   0.000015  -0.000085  -0.007528  -0.019443
    5  C  1  Z    0.000012  -0.000020  -0.000021  -0.005164  -0.012578
    6  C  1  S   -0.080524   0.009844  -0.019948   0.067719   0.341628
    7  C  1  X    0.004729  -0.001831   0.007027   0.005700  -0.014571
    8  C  1  Y    0.001500  -0.003043   0.006482   0.003602  -0.004762
    9  C  1  Z    0.001012  -0.001894   0.004002   0.002265  -0.003096
   10  H  2  S    0.000345  -0.000089   0.000511   0.016977   0.061420
   11  H  2  S    0.014290  -0.000075  -0.000173  -0.000792  -0.001273
   12  C  3  S    0.001893  -0.001661   0.000048  -0.098903  -0.132130
   13  C  3  S   -0.001701   0.004306   0.000481   0.098590   0.119006
   14  C  3  X   -0.000005  -0.000800  -0.004022  -0.042525   0.052293
   15  C  3  Y   -0.000075   0.000488  -0.000438   0.025520   0.014566
   16  C  3  Z   -0.000044   0.000229  -0.000352   0.014044   0.009923
   17  C  3  S    0.018307  -0.023162   0.017692   0.216805   0.390791
   18  C  3  X    0.010328  -0.000795   0.018323   0.010934  -0.028142
   19  C  3  Y    0.005136  -0.013470   0.014279  -0.002485   0.011212
   20  C  3  Z    0.003289  -0.007910   0.008895  -0.001317   0.005891
   21  C  4  S    0.001158  -0.010024  -0.009184  -0.168310   0.029628
   22  C  4  S   -0.000647   0.008658   0.008109   0.161899  -0.025901
   23  C  4  X   -0.001013  -0.011914  -0.011366  -0.025777   0.121649
   24  C  4  Y   -0.000303  -0.007211  -0.000153  -0.037075  -0.006326
   25  C  4  Z   -0.000213  -0.004762  -0.000420  -0.023532  -0.000202
   26  C  4  S   -0.001269  -0.007767   0.027079   0.455255  -0.104203
   27  C  4  X    0.003474   0.040299  -0.029199  -0.009613  -0.002917
   28  C  4  Y    0.002715  -0.012714   0.014585  -0.021041   0.000913
   29  C  4  Z    0.001780  -0.006977   0.008451  -0.013383   0.000427
   30  C  5  S    0.000144  -0.110745  -0.040362  -0.081126   0.093123
   31  C  5  S   -0.001049   0.126241   0.053136   0.107673  -0.118093
   32  C  5  X   -0.000283  -0.029737  -0.081930   0.127485  -0.043640
   33  C  5  Y   -0.000024  -0.107013   0.096331   0.064291  -0.042808
   34  C  5  Z   -0.000029  -0.067128   0.057339   0.043231  -0.027492
   35  C  5  S    0.005098   0.051646   0.046690   0.152105  -0.239195
   36  C  5  X    0.004111   0.029875   0.020559   0.049688  -0.061919
   37  C  5  Y    0.000172   0.084863  -0.043964   0.027972  -0.051715
   38  C  5  Z    0.000239   0.053382  -0.026654   0.018615  -0.033574
   39  O  6  S    0.000009  -0.217628   0.074590   0.038577  -0.039618
   40  O  6  S    0.000020   0.214813  -0.074675  -0.041583   0.043175
   41  O  6  X   -0.000004   0.008386  -0.018411   0.067495  -0.038139
   42  O  6  Y   -0.000004   0.105622  -0.017738   0.025914  -0.075683
   43  O  6  Z   -0.000003   0.065646  -0.011504   0.017877  -0.047793
   44  O  6  S   -0.000626   0.712702  -0.264211  -0.138889   0.146999
   45  O  6  X   -0.000461   0.000961  -0.025866   0.052192  -0.024608
   46  O  6  Y   -0.000251   0.134985  -0.029284   0.017274  -0.063233
   47  O  6  Z   -0.000169   0.083633  -0.018860   0.012121  -0.039774
   48  O  7  S   -0.000019  -0.050447  -0.220283   0.028290  -0.029970
   49  O  7  S   -0.000193   0.046321   0.206496  -0.027186   0.029775
   50  O  7  X   -0.000063   0.012970   0.016873   0.066905  -0.125095
   51  O  7  Y    0.000043  -0.024470  -0.069019   0.014624   0.000883
   52  O  7  Z    0.000026  -0.014794  -0.042289   0.010900  -0.002916
   53  O  7  S    0.000735   0.141287   0.715460  -0.106110   0.118876
   54  O  7  X    0.000221   0.003258   0.038999   0.047511  -0.104573
   55  O  7  Y   -0.000304  -0.044743  -0.096615   0.012395   0.003108
   56  O  7  Z   -0.000187  -0.027627  -0.058749   0.009019  -0.000983
   57  H  8  S   -0.001112   0.000803   0.001284   0.045195   0.064951
   58  H  8  S    0.000955   0.000502   0.000026  -0.009982   0.002391
   59  H  9  S   -0.001112   0.000741   0.001272   0.045004   0.064973
   60  H  9  S    0.000979   0.000272   0.000275  -0.009934   0.002181
   61  H 10  S   -0.000182   0.004083   0.001316   0.075423  -0.017602
   62  H 10  S   -0.001297  -0.001643  -0.002981  -0.013944   0.004853
   63  H 11  S   -0.000188   0.003985   0.001355   0.075489  -0.017388
   64  H 11  S   -0.001269  -0.001858  -0.002751  -0.014018   0.004899
   65  H 12  S    0.000209  -0.000278   0.000913   0.014378   0.060213
   66  H 12  S    0.013577  -0.002764   0.002050  -0.006701   0.001788
   67  H 13  S    0.000344  -0.000088   0.000496   0.017015   0.061497
   68  H 13  S    0.014303  -0.000100  -0.000179  -0.000699  -0.001188
   69  H 14  S   -0.000110   0.012283   0.085887  -0.045187   0.073232
   70  H 14  S    0.000531   0.004754   0.005940  -0.018558   0.032634

                     11         12         13         14         15
                   -1.0942    -1.0581    -1.0256    -0.9812    -0.9752
                     A          A          A          A          A   
    1  C  1  S    0.080938   0.008130  -0.109857   0.084047  -0.003102
    2  C  1  S   -0.077147  -0.007664   0.099750  -0.076211   0.002782
    3  C  1  X   -0.001558  -0.000220   0.043314  -0.050939   0.001903
    4  C  1  Y    0.003829  -0.005319   0.014021  -0.049022  -0.001643
    5  C  1  Z    0.002236  -0.003244   0.009327  -0.030221   0.006964
    6  C  1  S   -0.233280  -0.022647   0.371781  -0.299364   0.011316
    7  C  1  X    0.000184   0.004119   0.003902  -0.003974   0.000143
    8  C  1  Y   -0.002289  -0.006082   0.000664  -0.024356   0.001040
    9  C  1  Z   -0.001294  -0.003485   0.000498  -0.014527   0.000198
   10  H  2  S   -0.045041  -0.006614   0.071468  -0.071059   0.005843
   11  H  2  S   -0.004131  -0.002183   0.015443  -0.025469   0.004307
   12  C  3  S    0.012754  -0.016895   0.055584  -0.113079   0.004110
   13  C  3  S   -0.015106   0.012280  -0.049015   0.093568  -0.003452
   14  C  3  X   -0.062958  -0.008696   0.087259  -0.026167   0.000162
   15  C  3  Y   -0.001920  -0.022880   0.005626  -0.096874  -0.010824
   16  C  3  Z   -0.002803  -0.014325   0.005100  -0.057626   0.025871
   17  C  3  S   -0.027142   0.073330  -0.190381   0.458312  -0.016423
   18  C  3  X   -0.036445  -0.021721   0.014843  -0.046302   0.000754
   19  C  3  Y   -0.003089  -0.016106   0.000585  -0.042590  -0.009427
   20  C  3  Z   -0.002604  -0.010616   0.000579  -0.026063   0.018656
   21  C  4  S   -0.059286   0.045405   0.059196   0.077202  -0.002729
   22  C  4  S    0.054752  -0.035339  -0.043074  -0.061806   0.002219
   23  C  4  X    0.006686   0.008291  -0.102683   0.029605  -0.003403
   24  C  4  Y    0.006796  -0.066780  -0.004861  -0.104368  -0.042491
   25  C  4  Z    0.004342  -0.040859  -0.006306  -0.058198   0.077455
   26  C  4  S    0.194100  -0.228915  -0.282452  -0.365417   0.012871
   27  C  4  X   -0.016893   0.042748  -0.018170   0.009814  -0.001605
   28  C  4  Y    0.012341  -0.026275   0.029870  -0.036745  -0.021576
   29  C  4  Z    0.006751  -0.015185   0.017505  -0.019444   0.038699
   30  C  5  S    0.091495  -0.031453  -0.025196  -0.014816   0.000453
   31  C  5  S   -0.128356   0.048819   0.021398   0.014124  -0.000383
   32  C  5  X    0.163052   0.113981   0.059630  -0.072070  -0.002396
   33  C  5  Y    0.068987  -0.190268   0.113612   0.075758  -0.118092
   34  C  5  Z    0.047181  -0.114573   0.071603   0.054215   0.184822
   35  C  5  S   -0.206769   0.074034   0.144793   0.093899  -0.003141
   36  C  5  X    0.078567   0.122255   0.129951   0.017225  -0.004902
   37  C  5  Y   -0.009886  -0.007577   0.072422   0.015297  -0.101059
   38  C  5  Z   -0.003879  -0.001301   0.048106   0.017876   0.162063
   39  O  6  S   -0.073407   0.065637  -0.024889  -0.008520   0.000252
   40  O  6  S    0.076455  -0.068327   0.023772   0.009934  -0.000318
   41  O  6  X    0.195207   0.335500   0.283829   0.058932  -0.011923
   42  O  6  Y   -0.235862   0.219102  -0.117514  -0.080487  -0.226616
   43  O  6  Z   -0.140775   0.145092  -0.065533  -0.030649   0.371271
   44  O  6  S    0.296485  -0.253388   0.115318   0.026591  -0.000648
   45  O  6  X    0.178781   0.303196   0.259782   0.056849  -0.011687
   46  O  6  Y   -0.202329   0.194051  -0.101922  -0.079634  -0.222455
   47  O  6  Z   -0.120483   0.128681  -0.056502  -0.030574   0.364652
   48  O  7  S   -0.048938  -0.015510  -0.021787  -0.007532   0.000209
   49  O  7  S    0.048794   0.010000   0.019008   0.003706  -0.000075
   50  O  7  X   -0.160314  -0.170991   0.163893   0.195584  -0.010439
   51  O  7  Y    0.080024   0.004346   0.074203   0.005603  -0.081929
   52  O  7  Z    0.044979  -0.002102   0.050358   0.015456   0.132110
   53  O  7  S    0.201182   0.076227   0.098526   0.045149  -0.001361
   54  O  7  X   -0.139066  -0.159914   0.162333   0.200066  -0.010487
   55  O  7  Y    0.074317  -0.009176   0.064284   0.001037  -0.079100
   56  O  7  Z    0.042039  -0.010161   0.044200   0.012524   0.127880
   57  H  8  S   -0.006925   0.018709  -0.036856   0.105640  -0.016817
   58  H  8  S    0.006156   0.002564  -0.002798   0.039288  -0.013710
   59  H  9  S   -0.007085   0.018209  -0.037156   0.106291   0.009033
   60  H  9  S    0.005366   0.002584  -0.003385   0.039718   0.010504
   61  H 10  S    0.036119  -0.049041  -0.038787  -0.086488   0.042981
   62  H 10  S    0.005710  -0.014274  -0.007435  -0.031508   0.023510
   63  H 11  S    0.036094  -0.048660  -0.038727  -0.089775  -0.036923
   64  H 11  S    0.005438  -0.014351  -0.007501  -0.033327  -0.021464
   65  H 12  S   -0.048024  -0.003328   0.076505  -0.055418   0.002090
   66  H 12  S   -0.007487  -0.002309   0.019704  -0.017724   0.000695
   67  H 13  S   -0.045038  -0.006587   0.071480  -0.071347  -0.000553
   68  H 13  S   -0.004032  -0.002157   0.015487  -0.025710  -0.002349
   69  H 14  S    0.078620   0.087028  -0.101379  -0.105747   0.003549
   70  H 14  S    0.051139   0.043627  -0.049605  -0.061706   0.002103

                     16         17         18         19         20
                   -0.8578    -0.8385    -0.8310    -0.8069    -0.7525
                     A          A          A          A          A   
    1  C  1  S    0.008857  -0.000133   0.021267   0.000102   0.003933
    2  C  1  S   -0.006736   0.000132  -0.017940  -0.000037  -0.003146
    3  C  1  X   -0.023969  -0.001208  -0.084948   0.000570   0.083519
    4  C  1  Y   -0.004148  -0.042037   0.013088   0.034233  -0.167339
    5  C  1  Z   -0.002370   0.070020   0.005470  -0.056063  -0.099725
    6  C  1  S   -0.036945   0.000422  -0.081265  -0.000731  -0.017525
    7  C  1  X   -0.006157  -0.000840  -0.051282   0.000512   0.070931
    8  C  1  Y   -0.006673  -0.030160   0.009349   0.022847  -0.132962
    9  C  1  Z   -0.003629   0.050423   0.004156  -0.037067  -0.079189
   10  H  2  S   -0.007379   0.041614  -0.011537  -0.033306  -0.074278
   11  H  2  S   -0.003037   0.027730  -0.003689  -0.026458  -0.054212
   12  C  3  S   -0.010570   0.000054  -0.012686   0.000058  -0.002394
   13  C  3  S    0.003306   0.000037   0.005303   0.000033   0.000671
   14  C  3  X    0.010367  -0.003777   0.019204   0.002038   0.170598
   15  C  3  Y    0.011527  -0.095455   0.080624   0.064591  -0.179669
   16  C  3  Z    0.009000   0.158979   0.048308  -0.105464  -0.105407
   17  C  3  S    0.072189  -0.000576   0.062046  -0.000840   0.056982
   18  C  3  X   -0.011579  -0.002147  -0.011021   0.002120   0.102890
   19  C  3  Y    0.015538  -0.063503   0.059785   0.047325  -0.131001
   20  C  3  Z    0.009934   0.106019   0.035289  -0.076651  -0.077464
   21  C  4  S    0.002159  -0.000246  -0.013135  -0.000081   0.006717
   22  C  4  S    0.003966   0.000190   0.011242   0.000007  -0.008129
   23  C  4  X    0.052408  -0.006705   0.199089   0.003568  -0.168402
   24  C  4  Y    0.044058  -0.142278   0.181670   0.045127   0.213895
   25  C  4  Z    0.030640   0.237737   0.114146  -0.075160   0.124405
   26  C  4  S   -0.079563   0.001780   0.083426   0.000657  -0.012747
   27  C  4  X    0.034793  -0.006737   0.103120   0.004115  -0.150984
   28  C  4  Y    0.056303  -0.138677   0.141870   0.061932   0.195362
   29  C  4  Z    0.037189   0.229990   0.086847  -0.103985   0.113412
   30  C  5  S    0.034585   0.000077   0.044032   0.000151   0.003853
   31  C  5  S   -0.042283   0.000013  -0.045090  -0.000159  -0.005825
   32  C  5  X    0.022367  -0.002477  -0.275380  -0.001981  -0.010389
   33  C  5  Y   -0.124985  -0.012203  -0.077261  -0.029256  -0.011807
   34  C  5  Z   -0.076793   0.019699  -0.055801   0.046778  -0.007748
   35  C  5  S   -0.125055  -0.001035  -0.222709  -0.000862  -0.025823
   36  C  5  X    0.044917  -0.001739  -0.166102  -0.002936  -0.005731
   37  C  5  Y    0.069683  -0.007500  -0.058051  -0.050182   0.003472
   38  C  5  Z    0.044306   0.010681  -0.040713   0.080686   0.002198
   39  O  6  S   -0.000446  -0.000063  -0.003146   0.000027  -0.001173
   40  O  6  S   -0.009112   0.000101   0.005192  -0.000030  -0.000515
   41  O  6  X   -0.111864   0.008926   0.273712   0.003897   0.028781
   42  O  6  Y    0.145462   0.116662   0.038003   0.090145   0.028460
   43  O  6  Z    0.085255  -0.188790   0.033738  -0.145474   0.018870
   44  O  6  S    0.071948   0.000072   0.014866  -0.000083   0.015286
   45  O  6  X   -0.108495   0.009687   0.306469   0.004817   0.031906
   46  O  6  Y    0.166588   0.128347   0.040600   0.108035   0.033499
   47  O  6  Z    0.098302  -0.207655   0.036507  -0.174368   0.022091
   48  O  7  S   -0.076066   0.000569  -0.005695  -0.000171   0.011549
   49  O  7  S    0.085227  -0.000667  -0.002890   0.000153  -0.009138
   50  O  7  X    0.053656  -0.003181   0.153542  -0.010009  -0.044802
   51  O  7  Y    0.367030  -0.075009  -0.084122  -0.234200  -0.012324
   52  O  7  Z    0.229260   0.114085  -0.049695   0.378843  -0.007162
   53  O  7  S    0.297920  -0.002131   0.059448   0.000798  -0.057935
   54  O  7  X    0.039432  -0.003490   0.177874  -0.011420  -0.055075
   55  O  7  Y    0.396897  -0.086028  -0.094547  -0.267587  -0.012010
   56  O  7  Z    0.247429   0.131236  -0.055776   0.432852  -0.006951
   57  H  8  S   -0.001029  -0.094029  -0.027031   0.063877   0.083369
   58  H  8  S   -0.006486  -0.060469  -0.011057   0.056699   0.073628
   59  H  9  S    0.000625   0.094174  -0.027401  -0.064809   0.081364
   60  H  9  S   -0.004965   0.060946  -0.011642  -0.056932   0.071744
   61  H 10  S    0.022952   0.141249   0.091203  -0.045785   0.094344
   62  H 10  S    0.025343   0.082554   0.062032  -0.000496   0.068021
   63  H 11  S    0.020986  -0.139640   0.093454   0.045639   0.094400
   64  H 11  S    0.023725  -0.081652   0.063518   0.000923   0.067944
   65  H 12  S   -0.015407   0.000227  -0.059900  -0.000532   0.118265
   66  H 12  S   -0.011334   0.000116  -0.038000  -0.000346   0.085183
   67  H 13  S   -0.007900  -0.041446  -0.010949   0.033527  -0.073484
   68  H 13  S   -0.003332  -0.027736  -0.003219   0.026647  -0.053656
   69  H 14  S   -0.127162   0.000784  -0.061941  -0.000496   0.027951
   70  H 14  S   -0.068127   0.000189  -0.074559  -0.000411   0.021528

                     21         22         23         24         25
                   -0.7278    -0.6717    -0.6550    -0.6430    -0.1300
                     A          A          A          A          A   
    1  C  1  S   -0.000123   0.005787   0.005195  -0.000061  -0.000011
    2  C  1  S    0.000101  -0.009821  -0.008286   0.000075  -0.000096
    3  C  1  X    0.005311   0.317564  -0.099875  -0.007835  -0.000547
    4  C  1  Y    0.122542   0.087177   0.253375  -0.140953  -0.007327
    5  C  1  Z   -0.202281   0.061969   0.147533   0.238044   0.011437
    6  C  1  S    0.000639   0.057511  -0.004593  -0.000159   0.000539
    7  C  1  X    0.003855   0.224544  -0.125012  -0.007304  -0.002128
    8  C  1  Y    0.091564   0.035099   0.233032  -0.138941  -0.018384
    9  C  1  Z   -0.151399   0.028578   0.134902   0.235243   0.029565
   10  H  2  S   -0.128857   0.053208   0.118336   0.176017   0.008331
   11  H  2  S   -0.107321   0.060556   0.115326   0.167880  -0.011245
   12  C  3  S    0.000215   0.029525   0.000896  -0.000110   0.000395
   13  C  3  S   -0.000246  -0.026813  -0.004299   0.000014  -0.000096
   14  C  3  X    0.002143  -0.287541   0.036071   0.006664   0.001046
   15  C  3  Y    0.098441  -0.140199  -0.178165   0.124042   0.004670
   16  C  3  Z   -0.164187  -0.091675  -0.103972  -0.207485  -0.008911
   17  C  3  S   -0.000974  -0.148062   0.040197   0.001200  -0.003843
   18  C  3  X    0.002784  -0.280859  -0.011398   0.006383   0.002328
   19  C  3  Y    0.108752  -0.162384  -0.151353   0.128654   0.040093
   20  C  3  Z   -0.181203  -0.104538  -0.089044  -0.213771  -0.069991
   21  C  4  S   -0.000212  -0.024616   0.029782   0.000187   0.000100
   22  C  4  S    0.000192   0.013173  -0.022802  -0.000094  -0.000139
   23  C  4  X   -0.004962   0.128338  -0.148154  -0.003331   0.001258
   24  C  4  Y   -0.121565  -0.007288   0.111549  -0.038810   0.021761
   25  C  4  Z    0.199426  -0.001876   0.062601   0.066164  -0.034946
   26  C  4  S    0.000957   0.152457  -0.157283  -0.001173  -0.000450
   27  C  4  X   -0.006254   0.099579  -0.136348  -0.003747  -0.001068
   28  C  4  Y   -0.138389  -0.024142   0.126055  -0.041574  -0.045078
   29  C  4  Z    0.227238  -0.013727   0.071695   0.072043   0.074672
   30  C  5  S    0.000318   0.034625  -0.005534  -0.000015  -0.000171
   31  C  5  S   -0.000328  -0.036604   0.003817  -0.000032   0.000014
   32  C  5  X   -0.001679  -0.115032   0.019643  -0.000357  -0.011287
   33  C  5  Y   -0.012176  -0.046613   0.009642  -0.008365  -0.252285
   34  C  5  Z    0.018620  -0.032124   0.006116   0.013670   0.407545
   35  C  5  S   -0.001588  -0.173082   0.037901   0.000249   0.001943
   36  C  5  X   -0.000521  -0.112573   0.025784   0.000529  -0.015533
   37  C  5  Y    0.004092  -0.048010   0.010580  -0.000675  -0.355653
   38  C  5  Z   -0.007904  -0.032825   0.007182   0.000304   0.574818
   39  O  6  S    0.000039   0.001601   0.001254   0.000081   0.000039
   40  O  6  S   -0.000044  -0.001191  -0.002627  -0.000082  -0.000029
   41  O  6  X    0.000669   0.016880  -0.012384  -0.000579   0.005649
   42  O  6  Y    0.012918   0.015258   0.010806  -0.000389   0.126081
   43  O  6  Z   -0.019958   0.009833   0.006512   0.001200  -0.203854
   44  O  6  S   -0.000184  -0.007206  -0.001756  -0.000513  -0.000329
   45  O  6  X    0.000866   0.036947  -0.015564  -0.000625   0.008389
   46  O  6  Y    0.014082   0.015180   0.011766   0.000452   0.188294
   47  O  6  Z   -0.021777   0.010332   0.007084  -0.000267  -0.304596
   48  O  7  S   -0.000025  -0.012565   0.008833   0.000108   0.000026
   49  O  7  S   -0.000019   0.009474  -0.006561  -0.000122  -0.000005
   50  O  7  X    0.002879   0.058581  -0.033031   0.000241   0.004599
   51  O  7  Y    0.056129  -0.003169   0.000303   0.013685   0.103157
   52  O  7  Z   -0.090916  -0.000099   0.000008  -0.022089  -0.166224
   53  O  7  S    0.000333   0.071198  -0.048096  -0.000359  -0.000258
   54  O  7  X    0.003513   0.075149  -0.042443   0.000384   0.006970
   55  O  7  Y    0.065321  -0.001800   0.001673   0.015646   0.157888
   56  O  7  Z   -0.105810   0.001229   0.000740  -0.025328  -0.254428
   57  H  8  S    0.109295   0.054893   0.093254   0.159586  -0.002672
   58  H  8  S    0.081289   0.056400   0.098738   0.163051  -0.045254
   59  H  9  S   -0.109693   0.053585   0.095012  -0.159268   0.002554
   60  H  9  S   -0.081250   0.054643   0.100420  -0.162217   0.046379
   61  H 10  S    0.135955   0.020448   0.035344   0.057889  -0.094488
   62  H 10  S    0.090099   0.027011   0.045372   0.069293  -0.270650
   63  H 11  S   -0.135792   0.022047   0.036185  -0.057206   0.095503
   64  H 11  S   -0.090053   0.027875   0.046610  -0.069133   0.273344
   65  H 12  S    0.000277   0.125995  -0.199369  -0.002450  -0.000009
   66  H 12  S    0.000230   0.109635  -0.164552  -0.002170   0.000351
   67  H 13  S    0.129769   0.050266   0.121270  -0.174594  -0.008544
   68  H 13  S    0.108129   0.058089   0.118166  -0.166840   0.011635
   69  H 14  S   -0.000127  -0.033141   0.019150   0.000224  -0.000000
   70  H 14  S   -0.000122  -0.041995   0.022415   0.000384   0.000132

                     26         27         28         29         30
                    0.0221     0.0755     0.1297     0.1329     0.1678
                     A          A          A          A          A   
    1  C  1  S    0.006551  -0.039489  -0.001903   0.064343  -0.069789
    2  C  1  S   -0.002831   0.016317   0.000956  -0.029339   0.012425
    3  C  1  X    0.017856   0.034955   0.001963   0.004772   0.042034
    4  C  1  Y    0.008577   0.047165   0.042018   0.062629   0.054415
    5  C  1  Z    0.005519   0.028425  -0.072789   0.033444   0.032003
    6  C  1  S   -0.063068   0.530213   0.021463  -0.757408   1.066185
    7  C  1  X    0.045840   0.252772   0.012038  -0.117283   0.086478
    8  C  1  Y    0.026748   0.194938   0.121297   0.257278   0.343440
    9  C  1  Z    0.016846   0.120299  -0.219029   0.135792   0.201020
   10  H  2  S   -0.005498   0.012969   0.010520  -0.015763  -0.022199
   11  H  2  S   -0.017739  -0.325188   0.329853   0.090809  -0.656202
   12  C  3  S   -0.020922  -0.080632  -0.001032   0.061004  -0.056033
   13  C  3  S    0.001181   0.019111  -0.000275  -0.001585   0.024124
   14  C  3  X   -0.049442  -0.032597   0.002367   0.051255  -0.042437
   15  C  3  Y    0.034632  -0.030794   0.075237   0.069956  -0.030085
   16  C  3  Z    0.019738  -0.019309  -0.128178   0.040321  -0.019910
   17  C  3  S    0.273201   1.134091   0.016948  -0.924079   0.752516
   18  C  3  X   -0.148941  -0.108746   0.001250   0.420698  -0.266312
   19  C  3  Y    0.141460  -0.219510   0.267878   0.151136  -0.260190
   20  C  3  Z    0.082040  -0.134794  -0.443013   0.096318  -0.161709
   21  C  4  S    0.030633  -0.106374   0.001030  -0.050331   0.061978
   22  C  4  S   -0.017678   0.051289  -0.000414   0.014232  -0.028737
   23  C  4  X    0.053226  -0.095877   0.002769   0.114569   0.071604
   24  C  4  Y    0.020791   0.080337   0.130103   0.152737   0.074090
   25  C  4  Z    0.014117   0.045401  -0.224933   0.085674   0.044226
   26  C  4  S   -0.327481   1.327482  -0.020372   0.853596  -0.619686
   27  C  4  X   -0.086671  -0.413378   0.002002   0.759796   0.168419
   28  C  4  Y    0.145461   0.545906   0.523097   0.576280   0.219777
   29  C  4  Z    0.086297   0.317899  -0.905130   0.328148   0.126416
   30  C  5  S   -0.029011   0.062125   0.003855  -0.089059  -0.133898
   31  C  5  S    0.005958   0.012527  -0.002752   0.076544   0.051716
   32  C  5  X   -0.086892  -0.033754  -0.000322   0.028737  -0.176654
   33  C  5  Y    0.072118   0.039880  -0.025486   0.073926   0.016636
   34  C  5  Z    0.042282   0.024632   0.034138   0.048893   0.005735
   35  C  5  S    0.218959  -0.845569  -0.045281   1.028720   1.565454
   36  C  5  X   -0.067932  -0.068548  -0.011211   0.229459  -0.394770
   37  C  5  Y    0.053737   0.139798  -0.152665   0.168614  -0.096504
   38  C  5  Z    0.031531   0.087714   0.232310   0.123031  -0.068119
   39  O  6  S    0.011053  -0.042789  -0.000916   0.016274   0.058980
   40  O  6  S   -0.018886   0.028597   0.000851  -0.015551  -0.039122
   41  O  6  X    0.078031   0.041856   0.001290  -0.004587   0.042623
   42  O  6  Y   -0.008631   0.086670   0.024725  -0.044164  -0.140512
   43  O  6  Z   -0.003153   0.053923  -0.035647  -0.028849  -0.086559
   44  O  6  S   -0.055343   0.426006   0.008063  -0.139025  -0.618178
   45  O  6  X    0.078082   0.055819   0.002475  -0.032719   0.078031
   46  O  6  Y   -0.022383   0.227313   0.046582  -0.098481  -0.348057
   47  O  6  Z   -0.011702   0.141167  -0.063981  -0.065101  -0.214332
   48  O  7  S    0.100343  -0.005583  -0.000816   0.015599   0.045065
   49  O  7  S   -0.056525   0.003149   0.000365  -0.006784  -0.032506
   50  O  7  X    0.137077   0.026931   0.006100  -0.085244  -0.223447
   51  O  7  Y    0.152088  -0.028674   0.024482   0.053454   0.111483
   52  O  7  Z    0.098157  -0.017046  -0.045523   0.028447   0.062267
   53  O  7  S   -0.869710   0.056885   0.007553  -0.144776  -0.378180
   54  O  7  X    0.338223   0.069006   0.013504  -0.210028  -0.509158
   55  O  7  Y    0.304694  -0.073311   0.034077   0.077082   0.246285
   56  O  7  Z    0.198362  -0.043837  -0.064611   0.038689   0.137406
   57  H  8  S    0.001404   0.003568  -0.063637   0.034060   0.003147
   58  H  8  S    0.018944  -0.534197  -0.742333   0.596955  -0.446849
   59  H  9  S    0.001249   0.003827   0.062228   0.036480   0.003331
   60  H  9  S    0.016598  -0.533237   0.725328   0.618202  -0.442524
   61  H 10  S   -0.025437  -0.023331   0.057210  -0.041891   0.007312
   62  H 10  S    0.008526  -0.956861   1.142353  -0.811038   0.141118
   63  H 11  S   -0.024859  -0.022419  -0.054136  -0.045377   0.006667
   64  H 11  S    0.010009  -0.954819  -1.091818  -0.891299   0.120447
   65  H 12  S    0.013864  -0.017631  -0.001339   0.025657   0.033173
   66  H 12  S    0.055503  -0.262535  -0.022090   0.634512  -0.166698
   67  H 13  S   -0.005541   0.012814  -0.009079  -0.015731  -0.022397
   68  H 13  S   -0.018057  -0.328037  -0.334229   0.062323  -0.669064
   69  H 14  S    0.131847   0.029861   0.001242  -0.018027  -0.067973
   70  H 14  S    1.225204   0.053678   0.007337  -0.098022  -0.408067

                     31         32         33         34         35
                    0.1804     0.1932     0.1955     0.2037     0.2233
                     A          A          A          A          A   
    1  C  1  S   -0.133639   0.049752   0.008337   0.025756  -0.000076
    2  C  1  S    0.031099   0.004626   0.000322  -0.015864  -0.000001
    3  C  1  X   -0.046473   0.038311   0.005324  -0.123319   0.005528
    4  C  1  Y    0.042924   0.024773  -0.044428   0.127960   0.131848
    5  C  1  Z    0.026640   0.003388   0.078706   0.072949  -0.224774
    6  C  1  S    1.824091  -0.820627  -0.132543  -0.277410   0.001256
    7  C  1  X   -0.180067   0.481928   0.067455  -0.690778   0.029953
    8  C  1  Y    0.044377  -0.057831  -0.154499   0.671536   0.737195
    9  C  1  Z    0.027634  -0.064764   0.239164   0.382170  -1.253905
   10  H  2  S   -0.009872   0.011692  -0.057929  -0.048166   0.049437
   11  H  2  S   -0.819919   0.304592  -0.430230  -0.418673   1.363147
   12  C  3  S    0.103757  -0.048851  -0.008849  -0.054863  -0.000324
   13  C  3  S   -0.038064   0.011051   0.002203   0.011184  -0.000085
   14  C  3  X   -0.050739  -0.092055  -0.014318  -0.105682  -0.003332
   15  C  3  Y    0.095107   0.184093  -0.098996   0.042457  -0.071494
   16  C  3  Z    0.062052   0.075638   0.208472   0.022871   0.118564
   17  C  3  S   -1.350329   0.531060   0.104748   0.757256   0.005382
   18  C  3  X   -0.599292  -0.127167  -0.025493  -0.477871  -0.026350
   19  C  3  Y    0.427332   1.130648  -0.475957  -0.019397  -0.477127
   20  C  3  Z    0.270741   0.510352   1.080606  -0.022372   0.799762
   21  C  4  S   -0.012064   0.016513   0.002782   0.094729   0.000638
   22  C  4  S   -0.008850   0.004731   0.000447  -0.030643  -0.000115
   23  C  4  X   -0.059258  -0.171437  -0.015273  -0.088476   0.000162
   24  C  4  Y    0.026475  -0.014721   0.102117   0.020759   0.011641
   25  C  4  Z    0.011652   0.014266  -0.172500   0.009360  -0.020492
   26  C  4  S    0.162970  -0.340864  -0.052773  -1.384340  -0.011619
   27  C  4  X   -0.518959  -1.095909  -0.102828  -0.040934  -0.000718
   28  C  4  Y    0.108153  -0.284491   0.541524   0.363716   0.073743
   29  C  4  Z    0.034676  -0.048746  -0.970336   0.218490  -0.120559
   30  C  5  S    0.048385   0.011632   0.001500   0.016949   0.000469
   31  C  5  S   -0.065194   0.007975   0.001895   0.001100  -0.000504
   32  C  5  X    0.000206  -0.266441  -0.032592   0.159535   0.000758
   33  C  5  Y   -0.045547   0.099722  -0.045877   0.064917  -0.019941
   34  C  5  Z   -0.026347   0.040454   0.098765   0.044765   0.031148
   35  C  5  S   -0.472119  -0.542622  -0.071072  -0.092342  -0.004094
   36  C  5  X    0.008603  -0.899241  -0.115104   0.631573   0.003112
   37  C  5  Y   -0.417800   0.360348  -0.096794   0.420003  -0.016438
   38  C  5  Z   -0.253399   0.160915   0.257411   0.278519   0.022676
   39  O  6  S    0.012188  -0.031357  -0.004038  -0.037697   0.000048
   40  O  6  S   -0.007266   0.017819   0.002066   0.019108  -0.000123
   41  O  6  X   -0.049805   0.105976   0.012489  -0.063144  -0.001199
   42  O  6  Y    0.027726   0.043811   0.015364   0.068812   0.000174
   43  O  6  Z    0.015814   0.032800  -0.011402   0.040443   0.000976
   44  O  6  S   -0.185557   0.371980   0.049742   0.452857  -0.000187
   45  O  6  X   -0.032174   0.226031   0.028471  -0.112576  -0.001189
   46  O  6  Y   -0.017379   0.141714   0.057285   0.206358   0.004474
   47  O  6  Z   -0.012750   0.103992  -0.048110   0.124342  -0.006061
   48  O  7  S   -0.019827   0.039035   0.004686  -0.013131  -0.000301
   49  O  7  S    0.006432  -0.023824  -0.002873   0.003886   0.000148
   50  O  7  X    0.064465  -0.182695  -0.020535   0.017944   0.001069
   51  O  7  Y   -0.024894   0.025785   0.030688  -0.082144   0.001625
   52  O  7  Z   -0.014293   0.018120  -0.044208  -0.050331  -0.004277
   53  O  7  S    0.230661  -0.361963  -0.043969   0.146136   0.003092
   54  O  7  X    0.201399  -0.428833  -0.049857   0.047129   0.002639
   55  O  7  Y   -0.052713   0.113602   0.048311  -0.166758   0.002279
   56  O  7  Z   -0.028037   0.067409  -0.050234  -0.102073  -0.006931
   57  H  8  S    0.004297   0.028860   0.035044   0.015334  -0.002529
   58  H  8  S    0.911506   0.420346   1.136643  -0.233651   0.714914
   59  H  9  S    0.002817   0.036865  -0.026709   0.014976   0.001952
   60  H  9  S    0.863173   0.679152  -1.041377  -0.234046  -0.721016
   61  H 10  S    0.009875  -0.029739   0.016706  -0.032241  -0.052446
   62  H 10  S   -0.100320   0.013360   0.964833   0.250890   0.029203
   63  H 11  S    0.010317  -0.024234  -0.023176  -0.031707   0.052415
   64  H 11  S   -0.118594   0.245914  -0.913840   0.248649  -0.018983
   65  H 12  S    0.011725  -0.008356  -0.001603   0.099915  -0.000529
   66  H 12  S   -0.373167  -0.022435  -0.003790   1.461296  -0.014286
   67  H 13  S   -0.007904  -0.003279   0.059280  -0.048550  -0.048859
   68  H 13  S   -0.804022   0.189999   0.516016  -0.431129  -1.344793
   69  H 14  S    0.003769   0.005535   0.001186   0.056986   0.000278
   70  H 14  S    0.079834  -0.408515  -0.049532   0.021524   0.001087

                     36         37         38         39         40
                    0.2530     0.2782     0.3581     0.6648     0.6943
                     A          A          A          A          A   
    1  C  1  S    0.003343   0.009158   0.069942  -0.000427   0.018664
    2  C  1  S    0.010390   0.015550  -0.002555   0.001118  -0.034974
    3  C  1  X    0.247933  -0.064523  -0.016266   0.000143  -0.124535
    4  C  1  Y    0.077381   0.174022   0.061043  -0.005113  -0.082647
    5  C  1  Z    0.051578   0.101459   0.035722   0.011381  -0.053932
    6  C  1  S   -0.014572  -0.329509  -1.115416   0.000231   0.006076
    7  C  1  X    1.258040  -0.119490   0.738355  -0.006146   0.392384
    8  C  1  Y    0.488445   0.907158   0.352075  -0.013173   0.223840
    9  C  1  Z    0.319448   0.529125   0.228409   0.012413   0.146209
   10  H  2  S   -0.033598   0.008852  -0.019615   0.058138  -0.083774
   11  H  2  S   -0.463192  -0.558612   0.077003  -0.019763  -0.007575
   12  C  3  S   -0.042217   0.039048  -0.093783   0.000476  -0.015618
   13  C  3  S    0.019296   0.007208  -0.004800   0.000134  -0.053410
   14  C  3  X    0.142480   0.161735   0.171993  -0.009573   0.432809
   15  C  3  Y    0.063151  -0.060575   0.116159  -0.070103   0.132909
   16  C  3  Z    0.039780  -0.030658   0.073488   0.107983   0.092695
   17  C  3  S    0.548622  -0.672675   1.728318  -0.008619   0.647886
   18  C  3  X    1.009278   1.394392   0.153052   0.009196  -0.298440
   19  C  3  Y    0.489138  -0.368784   0.853690   0.150243  -0.091258
   20  C  3  Z    0.308785  -0.176277   0.507165  -0.247188  -0.069344
   21  C  4  S    0.060380  -0.108141   0.011049  -0.000007   0.001395
   22  C  4  S   -0.003440   0.012894  -0.038007  -0.000088   0.034527
   23  C  4  X    0.146699  -0.034487  -0.099885  -0.003428  -0.059054
   24  C  4  Y   -0.003439  -0.194119   0.107735  -0.117873  -0.079547
   25  C  4  Z    0.005388  -0.118610   0.065946   0.196738  -0.047230
   26  C  4  S   -1.046619   1.786872   0.203889   0.002878  -0.673927
   27  C  4  X    0.701805  -0.033023  -1.361637   0.006196   0.112610
   28  C  4  Y   -0.165931  -1.310776   0.352360   0.103735   0.500168
   29  C  4  Z   -0.063209  -0.797860   0.185190  -0.180180   0.306167
   30  C  5  S   -0.020794   0.055717   0.016423  -0.000289   0.005193
   31  C  5  S    0.059579  -0.034310  -0.080006   0.001536   0.054706
   32  C  5  X    0.244563  -0.182743   0.201504  -0.019295  -0.755664
   33  C  5  Y    0.061744  -0.083286  -0.277909  -0.483598   0.441478
   34  C  5  Z    0.045850  -0.055735  -0.164457   0.781746   0.256848
   35  C  5  S    0.187659  -0.952435  -0.111428  -0.002459   0.018089
   36  C  5  X    0.726251  -1.090531  -0.071755   0.017320   1.460917
   37  C  5  Y    0.659890  -0.128900  -1.651288   0.474715  -0.436401
   38  C  5  Z    0.423651  -0.111975  -1.024806  -0.760627  -0.233469
   39  O  6  S   -0.041300  -0.003968   0.090108  -0.000107  -0.010739
   40  O  6  S    0.025186   0.008718  -0.040306   0.000035   0.008192
   41  O  6  X   -0.039392   0.118627  -0.028707  -0.001069  -0.126555
   42  O  6  Y    0.038581  -0.007880  -0.096406  -0.027033   0.091469
   43  O  6  Z    0.023668  -0.000830  -0.060711   0.042925   0.052838
   44  O  6  S    0.534080   0.036778  -1.274182   0.002080  -0.065490
   45  O  6  X   -0.120404   0.209727  -0.084859  -0.001866  -0.160420
   46  O  6  Y    0.190337   0.001883  -0.462900  -0.051230   0.116730
   47  O  6  Z    0.115764   0.007493  -0.289294   0.084345   0.068401
   48  O  7  S   -0.008926   0.007418  -0.050382   0.000047  -0.002859
   49  O  7  S    0.012187   0.012725   0.018896   0.000047  -0.042367
   50  O  7  X    0.045879   0.031082   0.111161  -0.001348  -0.084233
   51  O  7  Y   -0.063852   0.049105  -0.020241  -0.029198   0.069733
   52  O  7  Z   -0.037984   0.030891  -0.009085   0.047273   0.041442
   53  O  7  S    0.035071  -0.204524   0.603421  -0.001571   0.519808
   54  O  7  X    0.045000  -0.003099   0.428228  -0.003111   0.122619
   55  O  7  Y   -0.138700   0.131701  -0.046383  -0.059486  -0.093050
   56  O  7  Z   -0.083774   0.081526  -0.016461   0.096664  -0.053685
   57  H  8  S    0.058554  -0.009257  -0.003380  -0.201991  -0.148673
   58  H  8  S    0.208372   0.025481   0.003148  -0.029453  -0.063615
   59  H  9  S    0.057845  -0.008214  -0.001877   0.206882  -0.143202
   60  H  9  S    0.217129   0.009401   0.013904   0.029215  -0.058599
   61  H 10  S    0.005161   0.042358   0.025615   0.268663   0.042530
   62  H 10  S    0.376366   0.306106  -0.186748  -0.060498  -0.079298
   63  H 11  S    0.006076   0.043319   0.022644  -0.268661   0.036366
   64  H 11  S    0.399660   0.308120  -0.166974   0.060696  -0.076275
   65  H 12  S   -0.017393  -0.035458  -0.048188   0.000924  -0.064391
   66  H 12  S   -0.751527   0.873098   0.260712   0.000156   0.003578
   67  H 13  S   -0.034607   0.007702  -0.020077  -0.055002  -0.083740
   68  H 13  S   -0.466862  -0.578468   0.076672   0.019288  -0.006476
   69  H 14  S    0.058566  -0.051768  -0.047012   0.000205   0.021349
   70  H 14  S    0.118263  -0.012424   0.048848  -0.000646   0.250313

                     41         42         43         44         45
                    0.7302     0.7446     0.7472     0.8194     0.8699
                     A          A          A          A          A   
    1  C  1  S    0.003329   0.000093   0.001191   0.003256  -0.025710
    2  C  1  S   -0.064393   0.000177  -0.008954  -0.051485   0.098852
    3  C  1  X    0.372767   0.008182   0.077513   0.075932  -0.481268
    4  C  1  Y   -0.230206   0.191234  -0.099685  -0.084477  -0.408203
    5  C  1  Z   -0.135995  -0.330272  -0.012415  -0.051758  -0.234640
    6  C  1  S    0.246824  -0.001636   0.027016   0.311197  -0.017941
    7  C  1  X   -0.444825  -0.005854  -0.052181  -0.205362   0.539517
    8  C  1  Y    0.375849  -0.288375   0.138596   0.155981   0.517271
    9  C  1  Z    0.225201   0.493091   0.013807   0.095147   0.286870
   10  H  2  S   -0.205405  -0.367735  -0.036108  -0.007134  -0.187872
   11  H  2  S    0.005537   0.057007   0.006537  -0.045256  -0.031310
   12  C  3  S   -0.000385   0.000664   0.006613   0.002984   0.061636
   13  C  3  S    0.033189  -0.001252  -0.003217  -0.055265  -0.183366
   14  C  3  X    0.092699   0.009883   0.018340   0.009616   0.351981
   15  C  3  Y   -0.012739   0.195841  -0.063601   0.428180  -0.420510
   16  C  3  Z   -0.011691  -0.337005   0.009072   0.257606  -0.249470
   17  C  3  S   -0.356964  -0.010091  -0.197556   0.632384   0.491489
   18  C  3  X   -0.028199  -0.006016   0.038050  -0.307080  -0.425436
   19  C  3  Y   -0.235451  -0.208217   0.031905  -0.744422   0.716084
   20  C  3  Z   -0.136890   0.363044  -0.029528  -0.457637   0.426671
   21  C  4  S   -0.024828  -0.001449  -0.015293  -0.021121  -0.036933
   22  C  4  S    0.033500   0.007974   0.074934   0.010684   0.109346
   23  C  4  X   -0.682011  -0.016238  -0.281994   0.322394   0.384882
   24  C  4  Y   -0.237888   0.090114  -0.009092  -0.634439  -0.097358
   25  C  4  Z   -0.165988  -0.147777   0.006342  -0.371300  -0.065561
   26  C  4  S    0.446359  -0.089375  -0.800461   0.369285  -0.240026
   27  C  4  X    0.686679   0.055420   0.762931  -0.440450  -0.640021
   28  C  4  Y    0.243981  -0.198228   0.135925   1.285277   0.128264
   29  C  4  Z    0.170201   0.357784   0.057013   0.756861   0.094673
   30  C  5  S    0.043982  -0.004907  -0.044698   0.005125   0.006279
   31  C  5  S   -0.163259   0.035853   0.346840  -0.130824  -0.154309
   32  C  5  X    0.127408  -0.065864  -0.517668   0.061783   0.116340
   33  C  5  Y    0.163222  -0.301749  -0.748427  -0.198521  -0.056001
   34  C  5  Z    0.111801   0.307873  -0.526577  -0.121097  -0.022317
   35  C  5  S    0.329613   0.034167   0.349186   0.467506   0.015546
   36  C  5  X   -0.347534   0.137387   1.115256  -0.007651  -0.358465
   37  C  5  Y   -0.303555   0.428819   1.010183  -0.214767   0.031523
   38  C  5  Z   -0.206053  -0.459376   0.727721  -0.127154  -0.010621
   39  O  6  S    0.000248   0.001813   0.017056   0.022448  -0.002075
   40  O  6  S    0.014371  -0.002698  -0.028983  -0.024193   0.012302
   41  O  6  X    0.127228  -0.009885  -0.087174  -0.019830   0.039690
   42  O  6  Y    0.073414  -0.040971  -0.222934   0.007617   0.013331
   43  O  6  Z    0.049128   0.013826  -0.144173   0.001886   0.012428
   44  O  6  S   -0.222461   0.037659   0.388608  -0.279891  -0.019521
   45  O  6  X    0.012431  -0.017463  -0.136663   0.018543   0.032153
   46  O  6  Y   -0.013388  -0.059377  -0.146294  -0.157854  -0.015626
   47  O  6  Z   -0.006851   0.059047  -0.103904  -0.097266  -0.007187
   48  O  7  S   -0.016030   0.000645   0.005821   0.011289   0.012713
   49  O  7  S    0.041750  -0.001544  -0.010060  -0.036368  -0.021203
   50  O  7  X    0.030508   0.006399   0.081059  -0.053253  -0.023057
   51  O  7  Y    0.014859  -0.028671   0.006320  -0.055002  -0.028590
   52  O  7  Z    0.010694   0.046846  -0.000277  -0.034852  -0.015964
   53  O  7  S   -0.024481  -0.001306  -0.047060  -0.000876  -0.127461
   54  O  7  X   -0.019624  -0.005288  -0.050506   0.051567  -0.031756
   55  O  7  Y    0.035540  -0.048233  -0.116102   0.039272   0.047641
   56  O  7  Z    0.022300   0.048754  -0.080892   0.024739   0.030242
   57  H  8  S    0.096258   0.386527   0.024933  -0.172399   0.223277
   58  H  8  S   -0.074772  -0.167373   0.027393  -0.110632   0.141560
   59  H  9  S    0.087552  -0.376862   0.101449  -0.168312   0.220913
   60  H  9  S   -0.069621   0.171751  -0.007481  -0.110139   0.139812
   61  H 10  S   -0.148839  -0.210332   0.007864  -0.286962  -0.102468
   62  H 10  S   -0.035786   0.002295  -0.054055  -0.274205  -0.040769
   63  H 11  S   -0.148354   0.208934  -0.035201  -0.294502  -0.085855
   64  H 11  S   -0.037411  -0.013008  -0.053270  -0.273693  -0.034106
   65  H 12  S    0.350045   0.007188   0.124105  -0.081532   0.150136
   66  H 12  S   -0.142994  -0.007502  -0.086258   0.098982  -0.077456
   67  H 13  S   -0.196227   0.357914  -0.109846  -0.004431  -0.207240
   68  H 13  S    0.003978  -0.053846   0.017685  -0.043528  -0.033548
   69  H 14  S   -0.241495   0.010382   0.076010   0.179910   0.115800
   70  H 14  S    0.079344   0.021241   0.212635  -0.187295  -0.173724

                     46         47         48         49         50
                    0.8832     0.9075     0.9662     0.9923     1.0448
                     A          A          A          A          A   
    1  C  1  S    0.000504  -0.039915  -0.022416  -0.002227  -0.048904
    2  C  1  S   -0.003440   0.063405   0.052452   0.009872  -0.011218
    3  C  1  X   -0.003355  -0.497121  -0.264418   0.096241  -0.016251
    4  C  1  Y   -0.311798  -0.448990   0.254226  -0.124494   0.092725
    5  C  1  Z    0.529407  -0.289327   0.156216  -0.072130   0.061860
    6  C  1  S    0.010430   0.133254  -0.368582  -0.128667  -0.044881
    7  C  1  X    0.008480   0.678952   0.811610  -0.166032   0.502602
    8  C  1  Y    0.560940   0.821180  -0.512647   0.344733   0.025453
    9  C  1  Z   -0.943094   0.523062  -0.307371   0.201055   0.011758
   10  H  2  S    0.332447  -0.212686  -0.001821  -0.058228  -0.282373
   11  H  2  S    0.066694  -0.191841   0.105544  -0.049707   0.013439
   12  C  3  S   -0.001936   0.008866   0.015960  -0.004005  -0.024183
   13  C  3  S    0.005566  -0.002936  -0.059328   0.031474  -0.099115
   14  C  3  X   -0.002768  -0.506006  -0.397995  -0.153540  -0.290953
   15  C  3  Y    0.134748   0.367041  -0.327762   0.017821  -0.342714
   16  C  3  Z   -0.176093   0.211535  -0.211762   0.005161  -0.223118
   17  C  3  S   -0.012661   0.066014   0.591381  -0.184928   0.235003
   18  C  3  X    0.003849   0.929745   0.191567   0.472021   0.506211
   19  C  3  Y   -0.200393  -0.725048   0.988327  -0.123239   0.322747
   20  C  3  Z    0.242370  -0.417147   0.606728  -0.059029   0.228994
   21  C  4  S    0.001199   0.033898   0.015514  -0.001973  -0.041390
   22  C  4  S   -0.003664  -0.065291   0.063806  -0.089422   0.037897
   23  C  4  X   -0.000322  -0.227413  -0.167589  -0.116931  -0.129974
   24  C  4  Y    0.292815   0.097911  -0.550655   0.064587   0.223076
   25  C  4  Z   -0.475101   0.059218  -0.338423   0.034447   0.144965
   26  C  4  S    0.011205   0.394797  -0.274881   0.823374  -0.211189
   27  C  4  X    0.002278   0.739909  -0.269823  -0.109176   0.214232
   28  C  4  Y   -0.587947  -0.403876   1.113892  -0.430232   0.010640
   29  C  4  Z    0.962183  -0.238691   0.672529  -0.261964  -0.012644
   30  C  5  S   -0.000098  -0.012047  -0.021203  -0.005154   0.020072
   31  C  5  S    0.002015   0.144127   0.533359  -0.015129  -0.455264
   32  C  5  X   -0.007260   0.111970  -0.128047   0.052340  -0.126695
   33  C  5  Y   -0.154375  -0.018178   0.142960   0.103160  -0.020498
   34  C  5  Z    0.248894  -0.010676   0.082140   0.065513  -0.017605
   35  C  5  S    0.010099  -0.017614  -0.232859  -0.140804   0.693265
   36  C  5  X    0.023576  -0.073329   0.825498  -0.667808   0.269698
   37  C  5  Y    0.352694   0.324795  -0.882591  -0.499816  -0.085382
   38  C  5  Z   -0.561475   0.205278  -0.517877  -0.329278  -0.038127
   39  O  6  S    0.000116  -0.009264   0.020163   0.012307   0.007105
   40  O  6  S   -0.000477   0.011146   0.000153  -0.013447  -0.008282
   41  O  6  X   -0.002850   0.020884   0.130984   0.019248  -0.025321
   42  O  6  Y   -0.042262  -0.026520  -0.016963   0.011303   0.069209
   43  O  6  Z    0.068010  -0.016782  -0.006930   0.008110   0.042187
   44  O  6  S    0.000544   0.197912  -0.437136  -0.295352  -0.184451
   45  O  6  X   -0.001846   0.008869  -0.246537   0.067306  -0.021606
   46  O  6  Y   -0.034369   0.050005  -0.107612  -0.066234  -0.087001
   47  O  6  Z    0.054544   0.030789  -0.074449  -0.039330  -0.055686
   48  O  7  S   -0.000373  -0.007572  -0.026099   0.029326   0.001682
   49  O  7  S    0.000952   0.027962   0.010974  -0.050284   0.000791
   50  O  7  X   -0.000937   0.024308  -0.006707   0.190409  -0.003414
   51  O  7  Y   -0.039449   0.000119   0.081381   0.282100  -0.056326
   52  O  7  Z    0.063775  -0.000558   0.049853   0.179859  -0.036672
   53  O  7  S    0.000250  -0.105438   0.571226   0.072019  -0.005373
   54  O  7  X   -0.002251  -0.080502   0.251484   0.192316   0.010518
   55  O  7  Y   -0.028547  -0.022251  -0.127122   0.080237   0.049611
   56  O  7  Z    0.044011  -0.016287  -0.072107   0.055424   0.031069
   57  H  8  S    0.048444  -0.099647   0.201263  -0.022770  -0.361828
   58  H  8  S    0.019710  -0.091699   0.178435  -0.002243   0.252876
   59  H  9  S   -0.070477  -0.097897   0.199001  -0.023081  -0.356647
   60  H  9  S   -0.034428  -0.091741   0.176286  -0.004301   0.234687
   61  H 10  S   -0.291342   0.198920   0.081854   0.068326  -0.525459
   62  H 10  S   -0.132238   0.046044  -0.333857   0.027386   0.332466
   63  H 11  S    0.295777   0.190851   0.088534   0.069542  -0.518362
   64  H 11  S    0.132258   0.042664  -0.334630   0.027938   0.308587
   65  H 12  S   -0.007874  -0.184624  -0.259350   0.094824  -0.457429
   66  H 12  S    0.004661  -0.009937  -0.291230   0.097871   0.016009
   67  H 13  S   -0.325467  -0.205694  -0.006997  -0.058772  -0.281063
   68  H 13  S   -0.068951  -0.189753   0.101391  -0.051117   0.003559
   69  H 14  S   -0.006122  -0.223054   0.019106   1.236565   0.059194
   70  H 14  S    0.005753   0.164967   0.144073  -1.025005  -0.035004

                     51         52         53         54         55
                    1.0522     1.1527     1.1975     1.2088     1.2130
                     A          A          A          A          A   
    1  C  1  S   -0.000860   0.000116  -0.028176  -0.000906   0.004509
    2  C  1  S    0.000292   0.001535  -0.054342   0.000601  -0.002837
    3  C  1  X    0.006717   0.003036  -0.472906  -0.012854  -0.137491
    4  C  1  Y    0.212717  -0.025136   0.531405  -0.388910  -0.159695
    5  C  1  Z   -0.345567   0.038971   0.293823   0.689577  -0.041669
    6  C  1  S   -0.003620  -0.013134   1.041882  -0.011722   0.380382
    7  C  1  X   -0.004556   0.001687   0.510375   0.012227   0.249370
    8  C  1  Y   -0.458632   0.177703  -1.231642   0.584995  -0.227314
    9  C  1  Z    0.756457  -0.274493  -0.703566  -0.977761  -0.216046
   10  H  2  S    0.069289  -0.086547  -0.278444  -0.614923   0.389824
   11  H  2  S   -0.366749   0.206929   0.500422   1.141350  -0.263570
   12  C  3  S   -0.000248   0.000018   0.000411  -0.002805   0.049780
   13  C  3  S   -0.001619   0.000149   0.008187   0.009213  -0.184595
   14  C  3  X   -0.018090   0.009961   0.511686  -0.012340   0.186004
   15  C  3  Y   -0.326896   0.420372   0.141620  -0.165039   0.256220
   16  C  3  Z    0.531017  -0.706941   0.086640   0.248847   0.173329
   17  C  3  S    0.007414   0.003868  -0.545325  -0.005105   0.012558
   18  C  3  X    0.037380  -0.010613  -1.425243   0.012593  -0.401708
   19  C  3  Y    0.771903  -0.742379  -0.589158   0.053896  -0.349118
   20  C  3  Z   -1.258989   1.257064  -0.377637  -0.069818  -0.211524
   21  C  4  S   -0.000421   0.000086   0.019069   0.002089  -0.031575
   22  C  4  S    0.001123  -0.001148   0.075223  -0.017591   0.308221
   23  C  4  X    0.019878   0.018318  -0.418679   0.018475  -0.333310
   24  C  4  Y    0.447505   0.206577  -0.099918   0.001483   0.163860
   25  C  4  Z   -0.737539  -0.336591  -0.071982  -0.021960   0.087687
   26  C  4  S   -0.007373   0.008947  -0.704010   0.042094  -0.840182
   27  C  4  X   -0.042666  -0.023133   1.454879  -0.035874   0.932986
   28  C  4  Y   -0.885198  -0.050308   0.334469   0.100850  -0.070351
   29  C  4  Z    1.481751   0.057804   0.234334  -0.158504  -0.036614
   30  C  5  S    0.000156   0.000183  -0.011264  -0.000143   0.000847
[...]
    9             0.000005   0.001280   0.004561   0.049580   0.000782
   10             0.005016   0.010203   0.005415   0.030275   0.007945
   11             0.004967   0.010085   0.005407   0.032744   0.005936
   12             0.009205   0.000061   0.024998   0.013116   0.000019
   13             0.007453   0.000224   0.020835   0.023184   0.000010
   14             0.022489   0.025041   0.035425   0.038329   0.000043

                     16         17         18         19         20

                  1.000000   1.000000   1.000000   1.000000   1.000000

    1             0.002960   0.032452   0.036660   0.018678   0.191132
    2             0.000239   0.008328   0.000490   0.005447   0.023323
    3             0.002942   0.144041   0.040655   0.063719   0.256020
    4             0.021798   0.347441   0.291811   0.042017   0.299185
    5             0.060601   0.003744   0.211869   0.020057   0.001303
    6             0.101048   0.152699   0.198959   0.092546   0.004462
    7             0.756178   0.069152   0.106671   0.700980   0.007136
    8             0.000054   0.037280   0.002349   0.019969   0.032877
    9             0.000021   0.037549   0.002450   0.020496   0.031357
   10             0.003353   0.080408   0.035592   0.005283   0.033632
   11             0.002868   0.078626   0.037371   0.005289   0.033643
   12             0.001136   0.000000   0.016154   0.000001   0.060601
   13             0.000275   0.008279   0.000434   0.005518   0.022813
   14             0.046527   0.000001   0.018534   0.000001   0.002518

                     21         22         23         24

                  1.000000   1.000000   1.000000   1.000000

    1             0.220506   0.364946   0.366624   0.289065
    2             0.072175   0.015341   0.062025   0.131396
    3             0.165419   0.397720   0.129844   0.195869
    4             0.201370   0.049025   0.118186   0.016299
    5             0.000088   0.039966   0.001950   0.000417
    6             0.001696   0.002043   0.000714   0.000004
    7             0.036999   0.010385   0.003187   0.001930
    8             0.048937   0.013907   0.038156   0.103539
    9             0.049245   0.013238   0.039584   0.103073
   10             0.065288   0.002110   0.006663   0.014609
   11             0.065101   0.002370   0.007004   0.014358
   12             0.000000   0.070571   0.159524   0.000025
   13             0.073175   0.013911   0.065087   0.129417
   14             0.000000   0.004468   0.001451   0.000000

     ATOMIC MULLIKEN POPULATION IN EACH MOLECULAR ORBITAL
         BETA ORBITALS

                      1          2          3          4          5

                  1.000000   1.000000   1.000000   1.000000   1.000000

    1            -0.000000  -0.000000  -0.000000   0.000004   0.002308
    2            -0.000000  -0.000000   0.000000  -0.000001   0.000006
    3            -0.000003   0.000000   0.000050   0.002543   0.992238
    4             0.000026  -0.000048   0.002868   0.991367   0.002517
    5             0.003826   0.002237   0.998093   0.003199  -0.000002
    6             0.996156  -0.000003  -0.001017  -0.000004   0.000000
    7            -0.000002   0.997462  -0.000071   0.000001  -0.000000
    8             0.000000  -0.000000   0.000001   0.000010   0.001456
    9             0.000000  -0.000000   0.000001   0.000010   0.001452
   10            -0.000000   0.000000   0.000028   0.001434   0.000010
   11            -0.000000   0.000000   0.000028   0.001438   0.000009
   12             0.000000  -0.000000  -0.000000  -0.000000   0.000000
   13            -0.000000  -0.000000   0.000000  -0.000001   0.000005
   14            -0.000003   0.000352   0.000021   0.000001   0.000000

                      6          7          8          9         10

                  1.000000   1.000000   1.000000   1.000000   1.000000

    1             0.993582  -0.000034   0.000061   0.034450   0.306123
    2             0.001424   0.000000   0.000000   0.001166   0.012935
    3             0.002161  -0.001209   0.000502   0.206841   0.282029
    4             0.000037  -0.003532   0.007072   0.495196   0.061856
    5             0.000001   0.196205   0.046512   0.159641   0.147143
    6            -0.000000   0.542545   0.295537   0.025926   0.028818
    7             0.000000   0.257127   0.619031   0.028678   0.078242
    8             0.000011   0.000006  -0.000012   0.004517   0.014740
    9             0.000011   0.000005  -0.000016   0.004483   0.014678
   10            -0.000002  -0.000250  -0.000035   0.015008   0.002378
   11            -0.000002  -0.000258  -0.000025   0.015019   0.002333
   12             0.001352  -0.000002  -0.000002   0.000033   0.014234
   13             0.001425   0.000000   0.000000   0.001190   0.012991
   14             0.000000   0.009397   0.031374   0.007852   0.021501

                     11         12         13         14         15

                  1.000000   1.000000   1.000000   1.000000   1.000000

    1             0.217335   0.066829   0.140830   0.000509   0.024121
    2             0.018259   0.008727   0.023156   0.000252   0.000983
    3             0.046631   0.064921   0.232689   0.010530   0.028183
    4             0.101210   0.060496   0.085716   0.063955   0.201047
    5             0.124387   0.101188   0.054792   0.304387   0.345263
    6             0.143790   0.524900   0.066185   0.403387   0.039447
    7             0.227958   0.103670   0.180695   0.180743   0.275392
    8             0.001101   0.008510   0.044297   0.002814   0.001787
    9             0.001060   0.008556   0.044468   0.002411   0.001508
   10             0.009181   0.008045   0.018477   0.015668   0.036975
   11             0.009159   0.007984   0.019327   0.015173   0.036687
   12             0.022597   0.007224   0.014424   0.000002   0.007817
   13             0.018226   0.008741   0.023272   0.000168   0.001010
   14             0.059108   0.020208   0.051670   0.000002  -0.000220

                     16         17         18         19         20

                  1.000000   1.000000   1.000000   1.000000   1.000000

    1             0.015167   0.051508   0.001180   0.198333   0.218883
    2             0.000201   0.013776   0.000445   0.023419   0.071769
    3             0.020387   0.202791   0.004728   0.256597   0.160503
    4             0.114571   0.342728  -0.000100   0.286764   0.208665
    5             0.127137   0.002864   0.001066   0.001988  -0.000785
    6             0.100190   0.091468   0.311719   0.005231   0.005849
    7             0.524869   0.021794   0.674133   0.008658   0.028125
    8             0.001862   0.054211   0.002290   0.032388   0.047776
    9             0.001193   0.055873   0.002307   0.030894   0.048063
   10             0.017138   0.073669   0.000889   0.032732   0.069234
   11             0.015066   0.075642   0.000892   0.032784   0.069119
   12             0.007242   0.000009   0.000000   0.065108   0.000000
   13             0.000300   0.013646   0.000452   0.022891   0.072800
   14             0.054675   0.000020   0.000000   0.002214   0.000000

                     21         22         23

                  1.000000   1.000000   1.000000

    1             0.370794   0.361847   0.288843
    2             0.014992   0.061900   0.131351
    3             0.397320   0.134526   0.195880
    4             0.048528   0.119467   0.016479
    5             0.038682   0.001105   0.000427
    6             0.002615   0.000894   0.000012
    7             0.008231   0.002355   0.001986
    8             0.012932   0.039173   0.103498
    9             0.012399   0.040694   0.102777
   10             0.001257   0.007830   0.014972
   11             0.001486   0.008222   0.014598
   12             0.073191   0.155773   0.000024
   13             0.013674   0.065085   0.129152
   14             0.003899   0.001130   0.000000

     ATOMIC SPIN POPULATION (ALPHA MINUS BETA)
       ATOM         MULL.POP.                    LOW.POP.
    1 C            -0.001039                    -0.000632
    2 H             0.000135                     0.000123
    3 C            -0.009298                    -0.005339
    4 C             0.112412                     0.079221
    5 C            -0.237221                    -0.155092
    6 O             1.029068                     0.987931
    7 O             0.115734                     0.099392
    8 H             0.000486                     0.000351
    9 H             0.000526                     0.000365
   10 H            -0.004566                    -0.002623
   11 H            -0.004645                    -0.002687
   12 H             0.000551                     0.000543
   13 H             0.000114                     0.000104
   14 H            -0.002257                    -0.001658


          ********* ALL ELECTRONS ********

               ----- POPULATIONS IN EACH AO -----
                             MULLIKEN      LOWDIN
              1  C  1  S      1.98820     1.97638
              2  C  1  S      0.35119     0.41174
              3  C  1  X      0.51841     0.49594
              4  C  1  Y      0.54476     0.51369
              5  C  1  Z      0.54988     0.51742
              6  C  1  S      1.13568     0.58411
              7  C  1  X      0.40530     0.54610
              8  C  1  Y      0.53677     0.59894
              9  C  1  Z      0.55411     0.60599
             10  H  2  S      0.46272     0.46404
             11  H  2  S      0.30693     0.43035
             12  C  3  S      1.98920     1.97623
             13  C  3  S      0.34229     0.40982
             14  C  3  X      0.51319     0.50013
             15  C  3  Y      0.53978     0.51373
             16  C  3  Z      0.55351     0.52517
             17  C  3  S      1.13275     0.56713
             18  C  3  X      0.34858     0.52267
             19  C  3  Y      0.49595     0.57325
             20  C  3  Z      0.55714     0.59050
             21  C  4  S      1.98975     1.97640
             22  C  4  S      0.34866     0.42306
             23  C  4  X      0.49894     0.48399
             24  C  4  Y      0.55477     0.52870
             25  C  4  Z      0.56923     0.54364
             26  C  4  S      1.18595     0.57174
             27  C  4  X      0.23232     0.48056
             28  C  4  Y      0.52364     0.58019
             29  C  4  Z      0.62292     0.60552
             30  C  5  S      1.98748     1.97694
             31  C  5  S      0.45907     0.46120
             32  C  5  X      0.62919     0.60471
             33  C  5  Y      0.50121     0.47671
             34  C  5  Z      0.34662     0.32649
             35  C  5  S      0.57413     0.52004
             36  C  5  X      0.29670     0.44561
             37  C  5  Y      0.06650     0.38088
             38  C  5  Z      0.22059     0.37100
             39  O  6  S      1.98813     1.98299
             40  O  6  S      0.45869     0.61956
             41  O  6  X      0.51452     0.50921
             42  O  6  Y      0.73689     0.72532
             43  O  6  Z      0.76512     0.75723
             44  O  6  S      1.58648     1.04583
             45  O  6  X      0.49325     0.51616
             46  O  6  Y      0.79052     0.81777
             47  O  6  Z      0.86275     0.86710
             48  O  7  S      1.98674     1.98105
             49  O  7  S      0.43038     0.58978
             50  O  7  X      0.56743     0.54512
             51  O  7  Y      0.71355     0.70739
             52  O  7  Z      0.77413     0.77404
             53  O  7  S      1.53893     1.02406
             54  O  7  X      0.67809     0.71130
             55  O  7  Y      0.90205     0.91919
             56  O  7  Z      0.96258     0.96162
             57  H  8  S      0.46359     0.47353
             58  H  8  S      0.28362     0.42019
             59  H  9  S      0.46339     0.47328
             60  H  9  S      0.28279     0.41979
             61  H 10  S      0.44070     0.44411
             62  H 10  S      0.20401     0.37730
             63  H 11  S      0.44049     0.44397
             64  H 11  S      0.20423     0.37734
             65  H 12  S      0.45906     0.45854
             66  H 12  S      0.27954     0.41636
             67  H 13  S      0.46288     0.46419
             68  H 13  S      0.30729     0.43052
             69  H 14  S      0.38311     0.39511
             70  H 14  S      0.14104     0.27033

          ----- MULLIKEN ATOMIC OVERLAP POPULATIONS -----
          (OFF-DIAGONAL ELEMENTS NEED TO BE MULTIPLIED BY 2)

             1           2           3           4           5

    1    5.3413495
    2    0.3780674   0.4823104
    3    0.2306802  -0.0467626   5.5875889
    4   -0.0655013  -0.0020115   0.1544640   5.8270584
    5    0.0037334  -0.0000485  -0.0823967   0.1023557   4.6370666
    6    0.0000278   0.0000001   0.0031562  -0.0556708   0.2498559
    7   -0.0000085   0.0000000   0.0013230  -0.0527952   0.2765020
    8   -0.0324437   0.0024942   0.3846776  -0.0515784  -0.0019405
    9   -0.0323426  -0.0017386   0.3845518  -0.0511196  -0.0018365
   10    0.0005863   0.0018932  -0.0302148   0.3581079  -0.0358353
   11    0.0005505  -0.0000317  -0.0304807   0.3580912  -0.0358731
   12    0.3815443  -0.0201780  -0.0371026   0.0029506  -0.0000726
   13    0.3780627  -0.0243411  -0.0469578  -0.0020864  -0.0000493
   14    0.0000009  -0.0000000  -0.0001407   0.0039158  -0.0299668

             6           7           8           9          10

    6    8.0334940
    7   -0.0353257   8.1097402
    8    0.0006275  -0.0000099   0.4729354
    9    0.0005665  -0.0000109  -0.0250875   0.4714649
   10    0.0006794   0.0005718   0.0022833  -0.0015037   0.3590404
   11    0.0006609   0.0005366  -0.0014465   0.0022812  -0.0107744
   12   -0.0000002   0.0000000  -0.0015845  -0.0015429  -0.0000179
   13    0.0000001   0.0000000  -0.0017110   0.0024947  -0.0000294
   14   -0.0017162   0.2533516   0.0000025   0.0000023  -0.0000799

            11          12          13          14

   11    0.3593172
   12   -0.0000167   0.4347508
   13    0.0019880  -0.0201230   0.4829211
   14   -0.0000816  -0.0000000  -0.0000000   0.2988606

          TOTAL MULLIKEN AND LOWDIN ATOMIC POPULATIONS
       ATOM         MULL.POP.    CHARGE          LOW.POP.     CHARGE
    1 C             6.584307   -0.584307         6.250322   -0.250322
    2 H             0.769653    0.230347         0.894390    0.105610
    3 C             6.472386   -0.472386         6.178625   -0.178625
    4 C             6.526180   -0.526180         6.193802   -0.193802
    5 C             5.081494    0.918506         5.563583    0.436417
    6 O             8.196355   -0.196355         7.841159    0.158841
    7 O             8.553875   -0.553875         8.213542   -0.213542
    8 H             0.747218    0.252782         0.893726    0.106274
    9 H             0.746179    0.253821         0.893066    0.106934
   10 H             0.644707    0.355293         0.821412    0.178588
   11 H             0.644721    0.355279         0.821319    0.178681
   12 H             0.738607    0.261393         0.874903    0.125097
   13 H             0.770169    0.229831         0.894709    0.105291
   14 H             0.524149    0.475851         0.665442    0.334558

          -------------------------------
          BOND ORDER AND VALENCE ANALYSIS     BOND ORDER THRESHOLD=0.050
          -------------------------------

                   BOND                       BOND                       BOND
  ATOM PAIR DIST  ORDER      ATOM PAIR DIST  ORDER      ATOM PAIR DIST  ORDER
    1   2  1.097  0.915        1   3  1.542  0.912        1  12  1.095  0.910
    1  13  1.097  0.915        3   4  1.537  0.842        3   8  1.096  0.902
    3   9  1.096  0.902        4   5  1.512  0.802        4  10  1.098  0.833
    4  11  1.098  0.833        5   6  1.225  1.189        5   7  1.384  1.126
    6   7  2.291  0.076        7  14  0.998  0.731

                       TOTAL       BONDED        FREE
      ATOM            VALENCE     VALENCE     VALENCE
    1 C                 3.618       3.618       0.000
    2 H                 0.906       0.906       0.000
    3 C                 3.521       3.521       0.000
    4 C                 3.312       3.303       0.008
    5 C                 3.156       3.138       0.018
    6 O                 2.135       1.302       0.833
    7 O                 1.963       1.949       0.014
    8 H                 0.890       0.890       0.000
    9 H                 0.890       0.890       0.000
   10 H                 0.843       0.843       0.000
   11 H                 0.843       0.843       0.000
   12 H                 0.898       0.898       0.000
   13 H                 0.906       0.906       0.000
   14 H                 0.758       0.758       0.000

          -----------------------------------------
          ATOMIC SPIN DENSITY AT THE NUCLEUS (A.U.)
          -----------------------------------------
                            SPIN DENS    ALPHA DENS     BETA DENS
    1  C            6.0     0.0000110      46.98377      46.98376
    2  H            1.0     0.0001010       0.18110       0.18100
    3  C            6.0    -0.0027973      47.02736      47.03016
    4  C            6.0     0.0221682      47.08220      47.06003
    5  C            6.0    -0.0881340      46.98939      47.07753
    6  O            8.0     0.2143385     117.25806     117.04372
    7  O            8.0    -0.0168686     116.87109     116.88796
    8  H            1.0     0.0001952       0.18242       0.18222
    9  H            1.0     0.0001839       0.18232       0.18213
   10  H            1.0    -0.0006841       0.17174       0.17243
   11  H            1.0    -0.0007199       0.17165       0.17237
   12  H            1.0     0.0002378       0.17943       0.17919
   13  H            1.0     0.0000879       0.18116       0.18107
   14  H            1.0    -0.0024979       0.15246       0.15496

          ---------------------
          ELECTROSTATIC MOMENTS
          ---------------------

 POINT   1           X           Y           Z (BOHR)    CHARGE
                -3.106494    0.096300    0.208608        1.00 (A.U.)
         DX          DY          DZ         /D/  (DEBYE)
    -3.533694   -0.318433   -0.299104    3.560598
 ...... END OF PROPERTY EVALUATION ......
 CPU     0: STEP CPU TIME=     0.03 TOTAL CPU TIME=          0.6 (      0.0 MIN)
 TOTAL WALL CLOCK TIME=          0.6 SECONDS, CPU UTILIZATION IS    96.72%
               580000  WORDS OF DYNAMIC MEMORY USED
 EXECUTION OF GAMESS TERMINATED NORMALLY Sun May 17 12:26:45 2020
 DDI: 263640 bytes (0.3 MB / 0 MWords) used by master data server.
Note: The following floating-point exceptions are signalling:Note: The following floating-point exceptions are signalling:Note: The following floating-point exceptions are signalling: IEEE_DENORMALNote: The following floating-point exceptions are signalling: IEEE_DENORMAL IEEE_DENORMAL
 ----------------------------------------
 CPU timing information for all processes
 ========================================
 0: 0.510 + 0.91 = 0.602
 1: 0.481 + 0.04 = 0.485
 2: 0.476 + 0.19 = 0.496
 3: 0.482 + 0.11 = 0.494
 4: 0.469 + 0.15 = 0.484
 5: 0.469 + 0.19 = 0.488
 ----------------------------------------
 IEEE_DENORMAL



Note: The following floating-point exceptions are signalling: IEEE_DENORMALNote: The following floating-point exceptions are signalling: IEEE_DENORMAL

 ddikick.x: exited gracefully.
unset echo
----- accounting info -----
Files used on the master node pietdev were:
-rwxr-xr-x 1 piet piet      931 mei 17 12:26 /home/piet/scr/glutamaat_fukui_base.F05*
-rw-r--r-- 1 piet piet 68812800 mei 17 12:26 /home/piet/scr/glutamaat_fukui_base.F10
ls: No match.
ls: No match.
ls: No match.
zo 17 mei 2020 12:26:48 CEST
0.107u 0.024s 0:03.76 3.1%	0+0k 0+8io 0pf+0w
