----- GAMESS execution script 'rungms' -----
This job is running on host pietdev
under operating system Linux at zo 17 mei 2020 12:25:36 CEST
Available scratch disk space (Kbyte units) at beginning of the job is
Filesystem     1K-blocks     Used Available Use% Mounted on
/dev/sda2      244568380 30347224 201728100  14% /
GAMESS temporary binary files will be written to /home/piet/scr
GAMESS supplementary output files will be written to /home/piet/gamess/scr
Copying input file glutamaat_charge_chelpg.inp to your run's scratch directory...
cp glutamaat_charge_chelpg.inp /home/piet/scr/glutamaat_charge_chelpg.F05
unset echo
 
Assuming a single but multicore node.
 
/home/piet/gamess/ddikick.x /home/piet/gamess/gamess.03.x glutamaat_charge_chelpg -ddi 1 6 pietdev:cpus=6 -scr /home/piet/scr

 Distributed Data Interface kickoff program.
 Initiating 6 compute processes on 1 nodes to run the following command:
 /home/piet/gamess/gamess.03.x glutamaat_charge_chelpg 

          ******************************************************
          *         GAMESS VERSION = 30 SEP 2019 (R2)          *
          *             FROM IOWA STATE UNIVERSITY             *
          * M.W.SCHMIDT, K.K.BALDRIDGE, J.A.BOATZ, S.T.ELBERT, *
          *   M.S.GORDON, J.H.JENSEN, S.KOSEKI, N.MATSUNAGA,   *
          *          K.A.NGUYEN, S.J.SU, T.L.WINDUS,           *
          *       TOGETHER WITH M.DUPUIS, J.A.MONTGOMERY       *
          *         J.COMPUT.CHEM.  14, 1347-1363(1993)        *
          **************** 64 BIT LINUX VERSION ****************

  SINCE 1993, STUDENTS AND POSTDOCS WORKING AT IOWA STATE UNIVERSITY
  AND ALSO IN THEIR VARIOUS JOBS AFTER LEAVING ISU HAVE MADE IMPORTANT
  CONTRIBUTIONS TO THE CODE:
     IVANA ADAMOVIC, CHRISTINE AIKENS, YURI ALEXEEV, POOJA ARORA,
     ANDREY ASADCHEV, ROB BELL, PRADIPTA BANDYOPADHYAY, JONATHAN BENTZ,
     COLLEEN BERTONI, BRETT BODE, KURT BRORSEN, CALEB CARLIN, GALINA CHABAN,
     WEI CHEN, CHEOL HO CHOI, PAUL DAY, ALBERT DEFUSCO, NUWAN DESILVA,
     TIM DUDLEY, DMITRI FEDOROV, ALEX FINDLATER, GRAHAM FLETCHER, 
     MARK FREITAG, KURT GLAESEMANN, EMILIE B GUIDEZ, ANASTASIA GUNINA, 
     DAN KEMP, SAROM SOK LEANG, GRANT MERRILL,
     NORIYUKI MINEZAWA, JONATHAN MULLIN,
     TAKESHI NAGATA, SEAN NEDD, HEATHER NETZLOFF, BOSILJKA NJEGIC, RYAN OLSON,
     MIKE PAK, BUU PHAM, DAVID POOLE,
     SPENCER PRUITT, LUKE ROSKOP, TOSAPORN SATTASATHUCHANA,
     JIM SHOEMAKER, LYUDMILA SLIPCHENKO,
     TONY SMITH, JIE SONG, TETSUYA TAKETSUGU, SIMON WEBB,
     JORGE LUIS GALVEZ VALLEJO, PENG XU, SOOHAENG YOO,
     FEDERICO ZAHARIEV

  ADDITIONAL CODE HAS BEEN PROVIDED BY COLLABORATORS IN OTHER GROUPS:
     IOWA STATE UNIVERSITY:
          JOE IVANIC, AARON WEST, LAIMUTIS BYTAUTAS, KLAUS RUEDENBERG
     UNIVERSITY OF TOKYO: KIMIHIKO HIRAO, TAKAHITO NAKAJIMA,
          TAKAO TSUNEDA, MUNEAKI KAMIYA, SUSUMU YANAGISAWA,
          KIYOSHI YAGI, MAHITO CHIBA, SEIKEN TOKURA, NAOAKI KAWAKAMI
     UNIVERSITY OF AARHUS: FRANK JENSEN
     UNIVERSITY OF IOWA: VISVALDAS KAIRYS, HUI LI
     NATIONAL INST. OF STANDARDS AND TECHNOLOGY: WALT STEVENS, DAVID GARMER
     UNIVERSITY OF PISA: BENEDETTA MENNUCCI, JACOPO TOMASI
     UNIVERSITY OF MEMPHIS: HENRY KURTZ, PRAKASHAN KORAMBATH
     UNIVERSITY OF ALBERTA: TOBY ZENG, MARIUSZ KLOBUKOWSKI
     UNIVERSITY OF NEW ENGLAND: MARK SPACKMAN
     MIE UNIVERSITY: HIROAKI UMEDA
     NAT. INST. OF ADVANCED INDUSTRIAL SCIENCE AND TECHNOLOGY: KAZUO KITAURA
     MICHIGAN STATE UNIVERSITY:
          KAROL KOWALSKI, MARTA WLOCH, JEFFREY GOUR, JESSE LUTZ,
          WEI LI, JUN SHEN, J. EMILIANO DEUSTUA, PIOTR PIECUCH
     UNIVERSITY OF MINNESOTA:
          ANDREW SAND, PRACHI SHARMA, YINAN SHU
     UNIVERSITY OF SILESIA: MONIKA MUSIAL, STANISLAW KUCHARSKI
     FACULTES UNIVERSITAIRES NOTRE-DAME DE LA PAIX:
          OLIVIER QUINET, BENOIT CHAMPAGNE
     UNIVERSITY OF CALIFORNIA - SANTA BARBARA: BERNARD KIRTMAN
     INSTITUTE FOR MOLECULAR SCIENCE:
          KAZUYA ISHIMURA, MICHIO KATOUDA, AND SHIGERU NAGASE
     UNIVERSITY OF NOTRE DAME: ANNA POMOGAEVA, DAN CHIPMAN
     KYUSHU UNIVERSITY:
          HARUYUKI NAKANO,
          FENG LONG GU, JACEK KORCHOWIEC, MARCIN MAKOWSKI, AND YURIKO AOKI,
          HIROTOSHI MORI AND EISAKU MIYOSHI
     PENNSYLVANIA STATE UNIVERSITY:
          TZVETELIN IORDANOV, CHET SWALINA, JONATHAN SKONE,
          SHARON HAMMES-SCHIFFER
     WASEDA UNIVERSITY:
          MASATO KOBAYASHI, TOMOKO AKAMA, TSUGUKI TOUMA,
          TAKESHI YOSHIKAWA, YASUHIRO IKABATA, JUNJI SEINO,
          YUYA NAKAJIMA, HIROMI NAKAI
     NANJING UNIVERSITY: SHUHUA LI
     UNIVERSITY OF NEBRASKA:
          PEIFENG SU, DEJUN SI, NANDUN THELLAMUREGE, YALI WANG, HUI LI
     UNIVERSITY OF ZURICH: ROBERTO PEVERATI, KIM BALDRIDGE
     N. COPERNICUS UNIVERSITY AND JACKSON STATE UNIVERSITY:
          MARIA BARYSZ
     UNIVERSITY OF COPENHAGEN: Jimmy Kromann, CASPER STEINMANN
     TOKYO INSTITUTE OF TECHNOLOGY: HIROYA NAKATA
     NAGOYA UNIVERSITY: YOSHIO NISHIMOTO, STEPHAN IRLE
     MOSCOW STATE UNIVERSITY: VLADIMIR MIRONOV
     A.N.NESMEYANOV INSTITUTE OF ORGANOELEMENT COMPOUNDS OF RUSSIAN ACADEMY OF SCIENCES:
          IGOR S. GERASIMOV
     JOHANNES KEPLER UNIVERSITY LINZ:
          CHRISTIAN FRIEDL


 PARALLEL VERSION RUNNING ON        6 PROCESSORS IN        1 NODES.

 EXECUTION OF GAMESS BEGUN Sun May 17 12:25:36 2020

            ECHO OF THE FIRST FEW INPUT CARDS -
 INPUT CARD> $BASIS GBASIS=N21 NGAUSS=3 $END                                                
 INPUT CARD> $CONTRL SCFTYP=RHF DFTTYP=B3LYP MAXIT=60 MULT=1 ICHARG=0 $END                  
 INPUT CARD> $SYSTEM MEMDDI=1000 MWORDS=30 $END                                             
 INPUT CARD> $SCF DIRSCF=.TRUE. $END                                                        
 INPUT CARD> $ELPOT  IEPOT=1 WHERE=PDC $END                                                 
 INPUT CARD> $PDC PTSEL=CHELPG CONSTR=CHARGE $END                                           
 INPUT CARD> $DATA                                                                          
 INPUT CARD>                                                                                
 INPUT CARD>C1                                                                              
 INPUT CARD>C 6.0000000 1.1578927087 0.4656343449 0.4356959481                              
 INPUT CARD>H 1.0000000 1.2071208368 0.5566764538 1.5276152982                              
 INPUT CARD>C 6.0000000 -0.1568949435 -0.2113718528 0.0004690418                            
 INPUT CARD>C 6.0000000 -1.3913920547 0.5872878379 0.4480183962                             
 INPUT CARD>C 6.0000000 -2.6713764305 -0.0810582444 0.0005219824                            
 INPUT CARD>O 8.0000000 -2.7737379010 -1.1178836572 -0.6445685671                           
 INPUT CARD>O 8.0000000 -3.7692379822 0.6487863844 0.4215848032                             
 INPUT CARD>H 1.0000000 -0.1834244358 -0.3210318089 -1.0895682611                           
 INPUT CARD>H 1.0000000 -0.2184490105 -1.2226526579 0.4182037839                            
 INPUT CARD>H 1.0000000 -1.4246121562 0.6920897799 1.5401206851                             
 INPUT CARD>H 1.0000000 -1.3760519859 1.6050681378 0.0368904810                             
 INPUT CARD>H 1.0000000 2.0226213257 -0.1187700457 0.1029875038                             
 INPUT CARD>H 1.0000000 1.2385120950 1.4713597068 0.0058630860                              
 INPUT CARD>H 1.0000000 -4.5922500659 0.1793956214 0.1074558186                             
 INPUT CARD> $END                                                                           
   30000000 WORDS OF MEMORY AVAILABLE

     BASIS OPTIONS
     -------------
     GBASIS=N21          IGAUSS=       3      POLAR=NONE    
     NDFUNC=       0     NFFUNC=       0     DIFFSP=       F
     NPFUNC=       0      DIFFS=       F     BASNAM=        


     RUN TITLE
     ---------
                                                                                 

 THE POINT GROUP OF THE MOLECULE IS C1      
 THE ORDER OF THE PRINCIPAL AXIS IS     0

 ATOM      ATOMIC                      COORDINATES (BOHR)
           CHARGE         X                   Y                   Z
 C           6.0     2.1880999426        0.8799213223        0.8233459559
 H           1.0     2.2811276156        1.0519659615        2.8867743283
 C           6.0    -0.2964884521       -0.3994348833        0.0008863605
 C           6.0    -2.6293497249        1.1098130896        0.8466320063
 C           6.0    -5.0481694637       -0.1531778710        0.0009864037
 O           8.0    -5.2416045946       -2.1124937983       -1.2180579721
 O           8.0    -7.1228269689        1.2260284911        0.7966797586
 H           1.0    -0.3466219231       -0.6066621522       -2.0589854584
 H           1.0    -0.4128087721       -2.3104785016        0.7902905586
 H           1.0    -2.6921266140        1.3078600429        2.9104060829
 H           1.0    -2.6003611982        3.0331389721        0.0697129006
 H           1.0     3.8222000825       -0.2244428419        0.1946181623
 H           1.0     2.3404484920        2.7804666752        0.0110796260
 H           1.0    -8.6780942916        0.3390085678        0.2030620529

          INTERNUCLEAR DISTANCES (ANGS.)
          ------------------------------

                1 C          2 H          3 C          4 C          5 C     

   1 C       0.0000000    1.0968135 *  1.5415662 *  2.5522156 *  3.8924994  
   2 H       1.0968135 *  0.0000000    2.1869186 *  2.8140248 *  4.2168069  
   3 C       1.5415662 *  2.1869186 *  0.0000000    1.5369258 *  2.5178560 *
   4 C       2.5522156 *  2.8140248 *  1.5369258 *  0.0000000    1.5117207 *
   5 C       3.8924994    4.2168069    2.5178560 *  1.5117207 *  0.0000000  
   6 O       4.3740393    4.8342291    2.8435373 *  2.4519862 *  1.2254088 *
   7 O       4.9305538    5.0986209    3.7371423    2.3787879 *  1.3839317 *
   8 H       2.1781658 *  3.0908959    1.0958606 *  2.1560156 *  2.7268643 *
   9 H       2.1782873 *  2.5355582 *  1.0958924 *  2.1569814 *  2.7376174 *
  10 H       2.8178658 *  2.6352441 *  2.1894924 *  1.0976222 *  2.1266272 *
  11 H       2.8068186 *  3.1613553    2.1879499 *  1.0977879 *  2.1265489 *
  12 H       1.0954355 *  1.7750587 *  2.1838902 *  3.5032915    4.6952674  
  13 H       1.0966947 *  1.7757704 *  2.1860410 *  2.8095338 *  4.2068109  
  14 H       5.7666122    5.9826329    4.4538209    3.2446650    1.9413981 *

                6 O          7 O          8 H          9 H         10 H     

   1 C       4.3740393    4.9305538    2.1781658 *  2.1782873 *  2.8178658 *
   2 H       4.8342291    5.0986209    3.0908959    2.5355582 *  2.6352441 *
   3 C       2.8435373 *  3.7371423    1.0958606 *  1.0958924 *  2.1894924 *
   4 C       2.4519862 *  2.3787879 *  2.1560156 *  2.1569814 *  1.0976222 *
   5 C       1.2254088 *  1.3839317 *  2.7268643 *  2.7376174 *  2.1266272 *
   6 O       0.0000000    2.2910317 *  2.7464015 *  2.7694698 *  3.1414982  
   7 O       2.2910317 *  0.0000000    4.0102606    4.0137760    2.5981278 *
   8 H       2.7464015 *  4.0102606    0.0000000    1.7571350 *  3.0793224  
   9 H       2.7694698 *  4.0137760    1.7571350 *  0.0000000    2.5258198 *
  10 H       3.1414982    2.5981278 *  3.0793224    2.5258198 *  0.0000000  
  11 H       3.1356624    2.6057252 *  2.5300456 *  3.0791962    1.7594285 *
  12 H       4.9560196    5.8511778    2.5158969 *  2.5179981 *  3.8218142  
  13 H       4.8192730    5.0918574    2.5366396 *  3.0903824    3.1707158  
  14 H       2.3570025 *  0.9981751 *  4.5957630    4.6035247    3.5141591  

               11 H         12 H         13 H         14 H     

   1 C       2.8068186 *  1.0954355 *  1.0966947 *  5.7666122  
   2 H       3.1613553    1.7750587 *  1.7757704 *  5.9826329  
   3 C       2.1879499 *  2.1838902 *  2.1860410 *  4.4538209  
   4 C       1.0977879 *  3.5032915    2.8095338 *  3.2446650  
   5 C       2.1265489 *  4.6952674    4.2068109    1.9413981 *
   6 O       3.1356624    4.9560196    4.8192730    2.3570025 *
   7 O       2.6057252 *  5.8511778    5.0918574    0.9981751 *
   8 H       2.5300456 *  2.5158969 *  2.5366396 *  4.5957630  
   9 H       3.0791962    2.5179981 *  3.0903824    4.6035247  
  10 H       1.7594285 *  3.8218142    3.1707158    3.5141591  
  11 H       0.0000000    3.8114259    2.6181646 *  3.5187287  
  12 H       3.8114259    0.0000000    1.7756050 *  6.6215894  
  13 H       2.6181646 *  1.7756050 *  0.0000000    5.9730461  
  14 H       3.5187287    6.6215894    5.9730461    0.0000000  

  * ... LESS THAN  3.000


     ATOMIC BASIS SET
     ----------------
 THE CONTRACTED PRIMITIVE FUNCTIONS HAVE BEEN UNNORMALIZED
 THE CONTRACTED BASIS FUNCTIONS ARE NOW NORMALIZED TO UNITY

  SHELL TYPE  PRIMITIVE        EXPONENT          CONTRACTION COEFFICIENT(S)

 C         

      1   S       1           172.2560000    0.061766907377
      1   S       2            25.9109000    0.358794042852
      1   S       3             5.5333500    0.700713083689

      2   L       4             3.6649800   -0.395895162119    0.236459946619
      2   L       5             0.7705450    1.215834355681    0.860618805716

      3   L       6             0.1958570    1.000000000000    1.000000000000

 H         

      4   S       7             5.4471780    0.156284978695
      4   S       8             0.8245472    0.904690876670

      5   S       9             0.1831916    1.000000000000

 C         

      6   S      10           172.2560000    0.061766907377
      6   S      11            25.9109000    0.358794042852
      6   S      12             5.5333500    0.700713083689

      7   L      13             3.6649800   -0.395895162119    0.236459946619
      7   L      14             0.7705450    1.215834355681    0.860618805716

      8   L      15             0.1958570    1.000000000000    1.000000000000

 C         

      9   S      16           172.2560000    0.061766907377
      9   S      17            25.9109000    0.358794042852
      9   S      18             5.5333500    0.700713083689

     10   L      19             3.6649800   -0.395895162119    0.236459946619
     10   L      20             0.7705450    1.215834355681    0.860618805716

     11   L      21             0.1958570    1.000000000000    1.000000000000

 C         

     12   S      22           172.2560000    0.061766907377
     12   S      23            25.9109000    0.358794042852
     12   S      24             5.5333500    0.700713083689

     13   L      25             3.6649800   -0.395895162119    0.236459946619
     13   L      26             0.7705450    1.215834355681    0.860618805716

     14   L      27             0.1958570    1.000000000000    1.000000000000

 O         

     15   S      28           322.0370000    0.059239393389
     15   S      29            48.4308000    0.351499960776
     15   S      30            10.4206000    0.707657921031

     16   L      31             7.4029400   -0.404453583190    0.244586106967
     16   L      32             1.5762000    1.221561761397    0.853955373466

     17   L      33             0.3736840    1.000000000000    1.000000000000

 O         

     18   S      34           322.0370000    0.059239393389
     18   S      35            48.4308000    0.351499960776
     18   S      36            10.4206000    0.707657921031

     19   L      37             7.4029400   -0.404453583190    0.244586106967
     19   L      38             1.5762000    1.221561761397    0.853955373466

     20   L      39             0.3736840    1.000000000000    1.000000000000

 H         

     21   S      40             5.4471780    0.156284978695
     21   S      41             0.8245472    0.904690876670

     22   S      42             0.1831916    1.000000000000

 H         

     23   S      43             5.4471780    0.156284978695
     23   S      44             0.8245472    0.904690876670

     24   S      45             0.1831916    1.000000000000

 H         

     25   S      46             5.4471780    0.156284978695
     25   S      47             0.8245472    0.904690876670

     26   S      48             0.1831916    1.000000000000

 H         

     27   S      49             5.4471780    0.156284978695
     27   S      50             0.8245472    0.904690876670

     28   S      51             0.1831916    1.000000000000

 H         

     29   S      52             5.4471780    0.156284978695
     29   S      53             0.8245472    0.904690876670

     30   S      54             0.1831916    1.000000000000

 H         

     31   S      55             5.4471780    0.156284978695
     31   S      56             0.8245472    0.904690876670

     32   S      57             0.1831916    1.000000000000

 H         

     33   S      58             5.4471780    0.156284978695
     33   S      59             0.8245472    0.904690876670

     34   S      60             0.1831916    1.000000000000

 TOTAL NUMBER OF BASIS SET SHELLS             =   34
 NUMBER OF CARTESIAN GAUSSIAN BASIS FUNCTIONS =   70
 NUMBER OF ELECTRONS                          =   48
 CHARGE OF MOLECULE                           =    0
 SPIN MULTIPLICITY                            =    1
 NUMBER OF OCCUPIED ORBITALS (ALPHA)          =   24
 NUMBER OF OCCUPIED ORBITALS (BETA )          =   24
 TOTAL NUMBER OF ATOMS                        =   14
 THE NUCLEAR REPULSION ENERGY IS      236.4548771644

 SELECTED MURRAY-HANDY-LAMING RADIAL GRID

 LEGACY BECKE'S FUZZY CELL METHOD

 SELECTED ORIGINAL BECKE'S PARTITION FUNCTION

     LEBEDEV GRID-BASED DFT OPTIONS
     ------------------------------
     DFTTYP=B3LYP   
     NRAD  =      96     NLEB  =     302
     NRAD0 =      24     NLEB0 =     110
     SWOFF =    5.00E-03 (PURE SCF -> DFT)
     SWITCH=    3.00E-04 (COARSE -> TIGHT GRID)
     THRESH=    0.00E+00 GTHRE=    1.00E+00

 GRIMME'S EMPIRICAL DISPERSION CORRECTION= F

     $CONTRL OPTIONS
     ---------------
 SCFTYP=RHF          RUNTYP=ENERGY       EXETYP=RUN     
 MPLEVL=       0     CITYP =NONE         CCTYP =NONE         VBTYP =NONE    
 DFTTYP=B3LYP        TDDFT =NONE    
 MULT  =       1     ICHARG=       0     NZVAR =       0     COORD =UNIQUE  
 PP    =NONE         RELWFN=NONE         LOCAL =NONE         NUMGRD=       F
 ISPHER=      -1     NOSYM =       0     MAXIT =      60     UNITS =ANGS    
 PLTORB=       F     MOLPLT=       F     AIMPAC=       F     FRIEND=        
 NPRINT=       7     IREST =       0     GEOM  =INPUT   
 NORMF =       0     NORMP =       0     ITOL  =      20     ICUT  =       9
 INTTYP=BEST         GRDTYP=BEST         QMTTOL= 1.0E-06

     $SYSTEM OPTIONS
     ---------------
  REPLICATED MEMORY=    30000000 WORDS (ON EVERY NODE).
 DISTRIBUTED MEMDDI=        1000 MILLION WORDS IN AGGREGATE,
 MEMDDI DISTRIBUTED OVER   6 PROCESSORS IS   166666666 WORDS/PROCESSOR.
 TOTAL MEMORY REQUESTED ON EACH PROCESSOR=   196666666 WORDS.
 TIMLIM=      525600.00 MINUTES, OR     365.0 DAYS.
 PARALL= T  BALTYP=  DLB     KDIAG=    0  COREFL= F
 MXSEQ2=     300 MXSEQ3=     150  mem10=         0

     INPUT FOR POTENTIAL-DERIVED CHARGES 
     -----------------------------------
     VDWSCL=    1.00   RMAX=    3.00   DELR=    0.80
     VDWINC=    0.20 PTDENS=    0.28
     LAYER =       4  NFREQ=      30 MAXPDC=   10000
     CONSTR=CHARGE    UNITS=ANGS      PTSEL=CHELPG  
     CENTER=  0.0000  0.0000  0.0000
     DPOLE =  0.0000  0.0000  0.0000
     QPOLE =  0.0000  0.0000  0.0000  0.0000  0.0000  0.0000


          ----------------
          PROPERTIES INPUT
          ----------------

     MOMENTS            FIELD           POTENTIAL          DENSITY
 IEMOM =       1   IEFLD =       0   IEPOT =       1   IEDEN =       0
 WHERE =COMASS     WHERE =NUCLEI     WHERE =PDC        WHERE =NUCLEI  
 OUTPUT=BOTH       OUTPUT=BOTH       OUTPUT=BOTH       OUTPUT=BOTH    
 IEMINT=       0   IEFINT=       0                     IEDINT=       0
                                                       MORB  =       0
          EXTRAPOLATION IN EFFECT
          DIIS IN EFFECT
 ORBITAL PRINTING OPTION: NPREO=     1    70     2     1

     -------------------------------
     INTEGRAL TRANSFORMATION OPTIONS
     -------------------------------
     NWORD  =            0
     CUTOFF = 1.0E-09     MPTRAN =       0
     DIRTRF =       T     AOINTS =DUP     

          ----------------------
          INTEGRAL INPUT OPTIONS
          ----------------------
 NOPK  =       1 NORDER=       0 SCHWRZ=       T

     ------------------------------------------
     THE POINT GROUP IS C1 , NAXIS= 0, ORDER= 1
     ------------------------------------------

     DIMENSIONS OF THE SYMMETRY SUBSPACES ARE
 A   =   70

 ..... DONE SETTING UP THE RUN .....
 CPU     0: STEP CPU TIME=     0.02 TOTAL CPU TIME=          0.0 (      0.0 MIN)
 TOTAL WALL CLOCK TIME=          0.0 SECONDS, CPU UTILIZATION IS   100.00%

          ********************
          1 ELECTRON INTEGRALS
          ********************
 ...... END OF ONE-ELECTRON INTEGRALS ......
 CPU     0: STEP CPU TIME=     0.01 TOTAL CPU TIME=          0.0 (      0.0 MIN)
 TOTAL WALL CLOCK TIME=          0.0 SECONDS, CPU UTILIZATION IS    75.00%

          -------------
          GUESS OPTIONS
          -------------
          GUESS =HUCKEL            NORB  =       0          NORDER=       0
          MIX   =       F          PRTMO =       F          PUNMO =       F
          TOLZ  = 1.0E-08          TOLE  = 1.0E-05
          SYMDEN=       F          PURIFY=       F

 INITIAL GUESS ORBITALS GENERATED BY HUCKEL   ROUTINE.
 HUCKEL GUESS REQUIRES     51590 WORDS.

 SYMMETRIES FOR INITIAL GUESS ORBITALS FOLLOW.   BOTH SET(S).
    24 ORBITALS ARE OCCUPIED (    6 CORE ORBITALS).
     7=A        8=A        9=A       10=A       11=A       12=A       13=A   
    14=A       15=A       16=A       17=A       18=A       19=A       20=A   
    21=A       22=A       23=A       24=A       25=A       26=A       27=A   
    28=A       29=A       30=A       31=A       32=A       33=A       34=A   
 ...... END OF INITIAL ORBITAL SELECTION ......
 CPU     0: STEP CPU TIME=     0.02 TOTAL CPU TIME=          0.0 (      0.0 MIN)
 TOTAL WALL CLOCK TIME=          0.0 SECONDS, CPU UTILIZATION IS   100.00%

                    ----------------------
                    AO INTEGRAL TECHNOLOGY
                    ----------------------
     S,P,L SHELL ROTATED AXIS INTEGRALS, REPROGRAMMED BY
        KAZUYA ISHIMURA (IMS) AND JOSE SIERRA (SYNSTAR).
     S,P,D,L SHELL ROTATED AXIS INTEGRALS PROGRAMMED BY
        KAZUYA ISHIMURA (INSTITUTE FOR MOLECULAR SCIENCE).
     S,P,D,F,G SHELL TO TOTAL QUARTET ANGULAR MOMENTUM SUM 5,
        ERIC PROGRAM BY GRAHAM FLETCHER (ELORET AND NASA ADVANCED
        SUPERCOMPUTING DIVISION, AMES RESEARCH CENTER).
     S,P,D,F,G,L SHELL GENERAL RYS QUADRATURE PROGRAMMED BY
        MICHEL DUPUIS (PACIFIC NORTHWEST NATIONAL LABORATORY).

          --------------------
          2 ELECTRON INTEGRALS
          --------------------

 DIRECT SCF METHOD SKIPS INTEGRAL STORAGE ON DISK.
 DIRECT TRANSFORMATION SKIPS AO INTEGRAL STORAGE ON DISK.
  ...... END OF TWO-ELECTRON INTEGRALS .....
 CPU     0: STEP CPU TIME=     0.01 TOTAL CPU TIME=          0.1 (      0.0 MIN)
 TOTAL WALL CLOCK TIME=          0.1 SECONDS, CPU UTILIZATION IS   100.00%

          --------------------------
             R-B3LYP SCF CALCULATION
          --------------------------

     NUCLEAR ENERGY =       236.4548771644
     MAXIT =   60     NPUNCH=    2
     EXTRAP=T  DAMP=F  SHIFT=F  RSTRCT=F  DIIS=T  DEM=F  SOSCF=F
         DENSITY MATRIX CONVERGENCE THRESHOLD=  2.00E-05
     COARSE -> FINE DFT GRID SWITCH THRESHOLD=  3.00E-04 (SWITCH IN $DFT)
                   HF -> DFT SWITCH THRESHOLD=  5.00E-03 (SWOFF IN $DFT)
     MEMORY REQUIRED FOR RHF ITERS=    552986 WORDS.

 DIRECT SCF CALCULATION, SCHWRZ=T   FDIFF=T,  DIRTHR=  0.00E+00 NITDIR=10
 SCHWARZ INEQUALITY OVERHEAD:      2395 INTEGRALS, T=        0.00

 DFT CODE IS SWITCHING FROM THE FINE GRID NRAD= 96,  NLEB=  302
                      TO THE COARSE GRID NRAD0= 24, NLEB0=  110

     EXCHANGE FUNCTIONAL   =B88&HFX   
     CORRELATION FUNCTIONAL=LYP88&VWN5
     DFT THRESHOLD         =.985E-08
     GRID CHANGE THRESHOLD =.300E-03
 FOR AN EULER-MACLAURIN QUADRATURE USING  96 RADIAL POINTS:
 SMALLEST GAUSSIAN PRIMITIVE EXPONENT=        0.1831915800 OF TYPE -S-
 ON ATOM NUMBER   2 HAS RADIAL NORMALIZATION=  1.000000
  LARGEST GAUSSIAN PRIMITIVE EXPONENT=      322.0370000000 OF TYPE -S-
 ON ATOM NUMBER   6 HAS RADIAL NORMALIZATION=  1.000000
 DFT IS SWITCHED OFF, PERFORMING PURE SCF UNTIL SWOFF THRESHOLD IS REACHED.

                                                                                   NONZERO     BLOCKS
 ITER EX DEM     TOTAL ENERGY        E CHANGE  DENSITY CHANGE    DIIS ERROR      INTEGRALS    SKIPPED
   1  0  0     -303.3837984680  -303.3837984680   0.758005234   0.563381117        2288162      57125
          * * *   INITIATING DIIS PROCEDURE   * * *
   2  1  0     -304.0795161505    -0.6957176825   0.141194110   0.158611829        2284411      59187
   3  2  0     -304.1271436623    -0.0476275118   0.085686249   0.137376773        2271191      62944
   4  3  0     -304.1716642230    -0.0445205607   0.026772846   0.011936170        2250877      67011
   5  4  0     -304.1726326447    -0.0009684217   0.004581488   0.003636817        2216557      70636
 CONVERGED TO SWOFF, SO DFT CALCULATION IS NOW SWITCHED ON.
          * * *   INITIATING DIIS PROCEDURE   * * *
   6  5  0     -305.8081079146    -1.6354752699   0.085469331   0.079910193        2288912      56444
   7  6  0     -305.8278369640    -0.0197290494   0.092355794   0.045083182        2272240      63099
   8  7  0     -305.8280758482    -0.0002388842   0.048555623   0.059144789        2256914      65154
   9  8  0     -305.8362634352    -0.0081875869   0.010273568   0.024745852        2239385      68292
  10  9  0     -305.8370474861    -0.0007840510   0.002642567   0.006524468        2206627      72007
  11 10  0     -305.8371065629    -0.0000590767   0.000496398   0.000550053        2121586      79535
  12 11  0     -305.8371074518    -0.0000008889   0.000210766   0.000173473        2038687      84260
 DFT CODE IS SWITCHING BACK TO THE FINE GRID
          * * *   INITIATING DIIS PROCEDURE   * * *
  13 12  0     -305.8409891789    -0.0038817271   0.001861773   0.001602626        2289287      56111
  14 13  0     -305.8410038091    -0.0000146302   0.000893441   0.001073901        2145127      76942
  15 14  0     -305.8410031805     0.0000006285   0.000473361   0.001296635        2063471      83557
  16 15  0     -305.8410054314    -0.0000022509   0.000159138   0.000263320        2028434      86676
  17 16  0     -305.8410055543    -0.0000001229   0.000047963   0.000078102        1936363      92450
  18 17  0     -305.8410055682    -0.0000000139   0.000008819   0.000012391        1837434      98256
  19 18  0     -305.8410055687    -0.0000000005   0.000004070   0.000002405        1708695     105567

          -----------------
          DENSITY CONVERGED
          -----------------
     TIME TO FORM FOCK OPERATORS=       6.2 SECONDS (       0.3 SEC/ITER)
     FOCK TIME ON FIRST ITERATION=       0.0, LAST ITERATION=       0.8
     TIME TO SOLVE SCF EQUATIONS=       0.1 SECONDS (       0.0 SEC/ITER)

 FINAL R-B3LYP ENERGY IS     -305.8410055687 AFTER  19 ITERATIONS
 DFT EXCHANGE + CORRELATION ENERGY =       -33.5907871722
 TOTAL ELECTRON NUMBER             =        48.0002752760

          ------------
          EIGENVECTORS
          ------------

                      1          2          3          4          5
                  -19.0726   -19.0264   -10.2532   -10.1321   -10.1178
                     A          A          A          A          A   
    1  C  1  S   -0.000109   0.000067  -0.000990  -0.006271  -0.037626
    2  C  1  S   -0.000590   0.000249  -0.001414  -0.001585  -0.007021
    3  C  1  X   -0.000257   0.000477   0.000356   0.000939  -0.000335
    4  C  1  Y    0.000053  -0.000027  -0.000204  -0.000121   0.000003
    5  C  1  Z    0.000022  -0.000006  -0.000120  -0.000051  -0.000003
    6  C  1  S    0.004713  -0.003623   0.005220   0.000647   0.027057
    7  C  1  X   -0.001478   0.000503  -0.003657  -0.000138  -0.012196
    8  C  1  Y   -0.001698   0.001190   0.000170   0.000541  -0.005628
    9  C  1  Z   -0.001032   0.000739   0.000034   0.000338  -0.003675
   10  H  2  S   -0.000158   0.000041  -0.000476   0.000087  -0.001477
   11  H  2  S    0.000143   0.000070  -0.000401  -0.001233   0.000087
   12  C  3  S   -0.000047  -0.000113  -0.000966  -0.024924   0.985809
   13  C  3  S   -0.000538  -0.000564  -0.000938  -0.005703   0.115154
   14  C  3  X    0.001199  -0.000818   0.001190  -0.000484  -0.000115
   15  C  3  Y    0.000210  -0.000070   0.000151  -0.000187   0.000263
   16  C  3  Z    0.000159  -0.000059   0.000121  -0.000118   0.000150
   17  C  3  S   -0.002317   0.007267  -0.000299   0.027025  -0.103639
   18  C  3  X   -0.005103   0.001064  -0.004743  -0.012579   0.000076
   19  C  3  Y   -0.002928   0.003632  -0.000690   0.007862  -0.006452
   20  C  3  Z   -0.001865   0.002162  -0.000502   0.004326  -0.003800
   21  C  4  S    0.000060   0.000009  -0.003785   0.986593   0.023860
   22  C  4  S   -0.000090   0.000126  -0.003050   0.116243  -0.000036
   23  C  4  X    0.000074   0.000555   0.000949  -0.000296   0.000269
   24  C  4  Y    0.000061  -0.000375   0.000615  -0.000220   0.000167
   25  C  4  Z    0.000052  -0.000224   0.000402  -0.000154   0.000114
   26  C  4  S   -0.001461   0.005730   0.023584  -0.110088   0.022289
   27  C  4  X    0.004144  -0.010904  -0.016825   0.002237   0.011999
   28  C  4  Y   -0.002042   0.004751  -0.006536   0.008806  -0.007676
   29  C  4  Z   -0.001239   0.002702  -0.004496   0.005515  -0.004347
   30  C  5  S   -0.000499   0.000250   0.985295   0.003152   0.000979
   31  C  5  S   -0.000981   0.001654   0.104721  -0.002665  -0.000493
   32  C  5  X   -0.001222  -0.000292   0.000245  -0.000178  -0.000698
   33  C  5  Y    0.000449  -0.001534  -0.000518  -0.000425   0.000004
   34  C  5  Z    0.000246  -0.000960  -0.000317  -0.000267  -0.000021
   35  C  5  S    0.016872   0.017262  -0.054156   0.028720  -0.001484
   36  C  5  X   -0.015307  -0.004249  -0.018393   0.017963   0.000626
   37  C  5  Y    0.011571  -0.026590  -0.013920   0.005666   0.000058
   38  C  5  Z    0.006738  -0.016591  -0.009101   0.003981   0.000058
   39  O  6  S   -0.001603   0.982799   0.000417   0.000062  -0.000012
   40  O  6  S   -0.000392   0.107657   0.001829   0.000312  -0.000145
   41  O  6  X   -0.000762   0.000188  -0.000699   0.000388  -0.000072
   42  O  6  Y    0.000001   0.004019  -0.000723  -0.000148  -0.000094
   43  O  6  Z   -0.000020   0.002494  -0.000465  -0.000080  -0.000067
   44  O  6  S    0.002202  -0.064211  -0.006051  -0.002029   0.000466
   45  O  6  X    0.004710  -0.000816   0.003384  -0.003226  -0.000065
   46  O  6  Y   -0.000575  -0.014963  -0.005694  -0.000839   0.000409
   47  O  6  Z   -0.000226  -0.009290  -0.003444  -0.000611   0.000269
   48  O  7  S    0.982600   0.001561   0.000189  -0.000004  -0.000046
   49  O  7  S    0.106124  -0.000106   0.001405  -0.000333  -0.000498
   50  O  7  X    0.000999  -0.000658  -0.000116  -0.000558  -0.000358
   51  O  7  Y   -0.003244  -0.000654  -0.000889   0.000107  -0.000077
   52  O  7  Z   -0.001981  -0.000425  -0.000553   0.000051  -0.000055
   53  O  7  S   -0.054949   0.003138   0.001546   0.000140   0.001392
   54  O  7  X   -0.006515   0.004081   0.001459   0.000785   0.001618
   55  O  7  Y    0.009315   0.003615   0.004546  -0.000657   0.000159
   56  O  7  Z    0.005585   0.002358   0.002851  -0.000384   0.000135
   57  H  8  S   -0.000444   0.000005  -0.000550  -0.001535   0.000736
   58  H  8  S   -0.000367   0.000106   0.000361   0.000657   0.016202
   59  H  9  S   -0.000435   0.000030  -0.000541  -0.001525   0.000726
   60  H  9  S   -0.000408   0.000108   0.000306   0.000711   0.016172
   61  H 10  S    0.000420  -0.000632  -0.001659   0.000885  -0.001427
   62  H 10  S    0.000123  -0.001211   0.002589   0.016099   0.001449
   63  H 11  S    0.000409  -0.000590  -0.001659   0.000904  -0.001432
   64  H 11  S    0.000023  -0.001153   0.002605   0.016141   0.001405
   65  H 12  S   -0.000345   0.000229  -0.000125  -0.000241  -0.001189
   66  H 12  S   -0.000486   0.000889   0.001196   0.001562  -0.000402
   67  H 13  S   -0.000154   0.000039  -0.000466   0.000095  -0.001481
   68  H 13  S    0.000155   0.000092  -0.000413  -0.001249   0.000061
   69  H 14  S    0.003413   0.001524   0.001247   0.000110   0.000221
   70  H 14  S    0.004167  -0.000677   0.001047   0.002043   0.000570

                      6          7          8          9         10
                  -10.1088    -1.0951    -1.0117    -0.7980    -0.7167
                     A          A          A          A          A   
    1  C  1  S    0.985585  -0.000201  -0.000992  -0.084723  -0.147815
    2  C  1  S    0.112090   0.001355  -0.001268   0.085955   0.141002
    3  C  1  X   -0.000131  -0.000891  -0.001837  -0.040522  -0.012384
    4  C  1  Y    0.000154  -0.000070  -0.000101  -0.013374  -0.013725
    5  C  1  Z    0.000090  -0.000060  -0.000115  -0.008975  -0.008507
    6  C  1  S   -0.090033  -0.003713   0.022668   0.187757   0.415840
    7  C  1  X    0.004641   0.003470  -0.007139   0.001573  -0.004963
    8  C  1  Y    0.001435   0.000979  -0.007010   0.003107  -0.005575
    9  C  1  Z    0.000970   0.000634  -0.004339   0.001881  -0.003381
   10  H  2  S   -0.000064   0.000400  -0.000261   0.039974   0.077900
   11  H  2  S    0.016099  -0.000078   0.000083   0.001234   0.006319
   12  C  3  S    0.036790  -0.003616  -0.003912  -0.137321  -0.071708
   13  C  3  S    0.002045   0.005136   0.005399   0.133185   0.065287
   14  C  3  X   -0.000223  -0.005226   0.000100  -0.021465   0.095027
   15  C  3  Y   -0.000193   0.000374   0.000822   0.032428   0.004139
   16  C  3  Z   -0.000119   0.000051   0.000439   0.018775   0.004805
   17  C  3  S    0.016758  -0.000071  -0.023919   0.327704   0.210708
   18  C  3  X    0.011487   0.007303  -0.015013   0.009005  -0.001386
   19  C  3  Y    0.005530  -0.001602  -0.020131   0.007359   0.006384
   20  C  3  Z    0.003551  -0.000723  -0.012245   0.004535   0.003714
   21  C  4  S    0.007097  -0.018739  -0.003029  -0.148922   0.108202
   22  C  4  S   -0.000134   0.016772   0.003012   0.142801  -0.100583
   23  C  4  X   -0.001114  -0.018664   0.001447   0.012469   0.091004
   24  C  4  Y   -0.000337  -0.008925  -0.008848  -0.027266  -0.000237
   25  C  4  Z   -0.000237  -0.006019  -0.005411  -0.016368   0.002552
   26  C  4  S   -0.001074   0.013101  -0.011763   0.390116  -0.333334
   27  C  4  X    0.004319   0.014334   0.046725  -0.013049   0.012841
   28  C  4  Y    0.002786   0.001908  -0.019925  -0.013429   0.005081
   29  C  4  Z    0.001850   0.001491  -0.011326  -0.008703   0.003537
   30  C  5  S    0.000695  -0.127804  -0.042653  -0.040146   0.069986
   31  C  5  S   -0.001146   0.143904   0.044608   0.051230  -0.081901
   32  C  5  X   -0.000349  -0.068817   0.055959   0.084050  -0.079450
   33  C  5  Y   -0.000030  -0.048522  -0.162580   0.062824  -0.087113
   34  C  5  Z   -0.000036  -0.032019  -0.099117   0.041181  -0.055966
   35  C  5  S    0.005731   0.133585   0.056053   0.055062  -0.155443
   36  C  5  X    0.004683   0.036604  -0.001028   0.008054  -0.038180
   37  C  5  Y    0.000202   0.034179   0.051191   0.014876  -0.044003
   38  C  5  Z    0.000275   0.022167   0.031655   0.009397  -0.028225
   39  O  6  S    0.000011  -0.131552  -0.165820   0.031874  -0.030854
   40  O  6  S    0.000020   0.122341   0.157083  -0.032309   0.031942
   41  O  6  X   -0.000007   0.001534   0.016926   0.018426  -0.019385
   42  O  6  Y   -0.000009   0.088251   0.094618  -0.008920  -0.001383
   43  O  6  Z   -0.000007   0.054696   0.059077  -0.005023  -0.001345
   44  O  6  S   -0.000701   0.402453   0.529165  -0.103010   0.100839
   45  O  6  X   -0.000528  -0.010441   0.018500   0.016769  -0.012973
   46  O  6  Y   -0.000274   0.087949   0.091150  -0.007473  -0.002843
   47  O  6  Z   -0.000185   0.054180   0.056972  -0.004171  -0.002107
   48  O  7  S   -0.000022  -0.157167   0.160368   0.017497  -0.024756
   49  O  7  S   -0.000234   0.145305  -0.150410  -0.016245   0.023597
   50  O  7  X   -0.000086   0.018725   0.001979   0.042625  -0.100638
   51  O  7  Y    0.000045  -0.070473   0.054631   0.013505  -0.015409
   52  O  7  Z    0.000027  -0.043136   0.033908   0.009547  -0.012346
   53  O  7  S    0.000875   0.476246  -0.524472  -0.064669   0.095364
   54  O  7  X    0.000315   0.020091  -0.019629   0.027914  -0.075920
   55  O  7  Y   -0.000333  -0.087398   0.056734   0.013283  -0.013992
   56  O  7  Z   -0.000204  -0.053577   0.034600   0.009023  -0.010789
   57  H  8  S   -0.001213   0.002071   0.000954   0.062565   0.035301
   58  H  8  S    0.001679   0.001008   0.000855  -0.005818   0.003503
   59  H  9  S   -0.001214   0.002003   0.000911   0.062520   0.035418
   60  H  9  S    0.001705   0.000936   0.000458  -0.005662   0.003512
   61  H 10  S   -0.000249   0.005829   0.002431   0.069699  -0.059811
   62  H 10  S   -0.001331  -0.004223  -0.000518  -0.002702  -0.000243
   63  H 11  S   -0.000256   0.005787   0.002376   0.069820  -0.059603
   64  H 11  S   -0.001302  -0.004287  -0.000806  -0.002656  -0.000107
   65  H 12  S   -0.000222   0.000329  -0.000616   0.036708   0.081248
   66  H 12  S    0.015354  -0.001422  -0.003480  -0.003816   0.012533
   67  H 13  S   -0.000065   0.000394  -0.000249   0.040041   0.077922
   68  H 13  S    0.016112  -0.000079   0.000088   0.001337   0.006305
   69  H 14  S   -0.000113   0.065311  -0.079263  -0.029524   0.063229
   70  H 14  S    0.000627   0.016275  -0.015741  -0.019040   0.037266

                     11         12         13         14         15
                   -0.6195    -0.5658    -0.4873    -0.4811    -0.4524
                     A          A          A          A          A   
    1  C  1  S   -0.115481   0.041931  -0.022587  -0.000864  -0.001971
    2  C  1  S    0.108236  -0.037265   0.019232   0.000710  -0.000791
    3  C  1  X    0.072045  -0.043674   0.105896   0.002103   0.049033
    4  C  1  Y    0.034645  -0.062431  -0.001319  -0.058442  -0.045790
    5  C  1  Z    0.022377  -0.038190  -0.002229   0.097744  -0.027217
    6  C  1  S    0.387983  -0.169968   0.102543   0.004109   0.023326
    7  C  1  X    0.021470  -0.000348   0.068289   0.001221   0.026871
    8  C  1  Y    0.013499  -0.031931  -0.012087  -0.039239  -0.042169
    9  C  1  Z    0.008541  -0.019017  -0.008176   0.064631  -0.025198
   10  H  2  S    0.085130  -0.051124   0.016365   0.057603  -0.017045
   11  H  2  S    0.026525  -0.028541   0.005494   0.048769  -0.013071
   12  C  3  S    0.105991  -0.096695   0.024238   0.001019   0.001225
   13  C  3  S   -0.095959   0.087213  -0.020650  -0.000880  -0.007114
   14  C  3  X    0.077754   0.025003  -0.035787  -0.005636   0.039011
   15  C  3  Y    0.031890  -0.099069  -0.074628  -0.103706  -0.072807
   16  C  3  Z    0.020841  -0.058378  -0.053235   0.167144  -0.044153
   17  C  3  S   -0.365822   0.373869  -0.095407  -0.004110   0.031302
   18  C  3  X    0.033435   0.014822  -0.030286  -0.004347  -0.026029
   19  C  3  Y    0.006203  -0.036889  -0.062131  -0.074274  -0.039807
   20  C  3  Z    0.004479  -0.021779  -0.043419   0.118781  -0.025169
   21  C  4  S    0.018154   0.094021   0.019370   0.000124   0.007998
   22  C  4  S   -0.015123  -0.083764  -0.010949   0.000076  -0.001990
   23  C  4  X   -0.117924  -0.016476  -0.163690  -0.011460  -0.082761
   24  C  4  Y    0.036353  -0.092785  -0.167313  -0.137231   0.024079
   25  C  4  Z    0.018376  -0.055851  -0.114977   0.216025   0.012170
   26  C  4  S   -0.055846  -0.369848  -0.135424  -0.002103  -0.075914
   27  C  4  X   -0.025239  -0.017198  -0.048068  -0.006312  -0.099804
   28  C  4  Y    0.021316  -0.038115  -0.104442  -0.098303   0.059848
   29  C  4  Z    0.012167  -0.022670  -0.071106   0.155737   0.033204
   30  C  5  S   -0.078399  -0.063387  -0.060998  -0.001354   0.071498
   31  C  5  S    0.091320   0.075718   0.072609   0.001577  -0.104055
   32  C  5  X   -0.043584  -0.108291   0.282947   0.004036   0.114114
   33  C  5  Y    0.091863   0.064370  -0.033241  -0.094705   0.148681
   34  C  5  Z    0.055356   0.037625  -0.017598   0.151444   0.094477
   35  C  5  S    0.221616   0.203319   0.206264   0.004702  -0.156026
   36  C  5  X    0.005758  -0.014706   0.224489   0.002743   0.096151
   37  C  5  Y    0.065681   0.035003   0.044146  -0.076998   0.046460
   38  C  5  Z    0.040593   0.021735   0.029504   0.127690   0.030902
   39  O  6  S    0.021236   0.030759   0.051465   0.000936  -0.106048
   40  O  6  S   -0.022394  -0.028939  -0.049069  -0.000943   0.090875
   41  O  6  X   -0.014220  -0.016864   0.159159   0.001586   0.057494
   42  O  6  Y    0.018200   0.026581   0.073563  -0.057352  -0.245988
   43  O  6  Z    0.010751   0.016360   0.047016   0.095953  -0.151344
   44  O  6  S   -0.070178  -0.123097  -0.192976  -0.003176   0.453868
   45  O  6  X   -0.015139  -0.014932   0.129806   0.001123   0.056250
   46  O  6  Y    0.018846   0.019253   0.067060  -0.050571  -0.216753
   47  O  6  Z    0.011178   0.011829   0.042545   0.085008  -0.133255
   48  O  7  S    0.024283   0.011786  -0.005741  -0.000240  -0.062209
   49  O  7  S   -0.022922  -0.013047   0.002917   0.000186   0.058051
   50  O  7  X    0.219899   0.249045  -0.167591  -0.007870   0.053806
   51  O  7  Y   -0.003088  -0.026714   0.053963  -0.055180   0.193190
   52  O  7  Z    0.004221  -0.009179   0.025762   0.093752   0.120610
   53  O  7  S   -0.099971  -0.040249   0.023291   0.000827   0.265896
   54  O  7  X    0.180799   0.217388  -0.159654  -0.007570   0.058202
   55  O  7  Y   -0.003464  -0.030204   0.042526  -0.053761   0.197446
   56  O  7  Z    0.002906  -0.012262   0.019025   0.090914   0.123361
   57  H  8  S   -0.076197   0.097461   0.018732  -0.093494   0.027808
   58  H  8  S   -0.022409   0.038916   0.015158  -0.070369   0.040631
   59  H  9  S   -0.076270   0.097722   0.012269   0.094363   0.026477
   60  H  9  S   -0.022376   0.039573   0.010569   0.071454   0.037971
   61  H 10  S    0.000446  -0.097765  -0.088759   0.124179   0.003223
   62  H 10  S    0.003775  -0.045529  -0.066539   0.096608   0.008564
   63  H 11  S    0.000418  -0.098584  -0.082078  -0.128088   0.002961
   64  H 11  S    0.003892  -0.045935  -0.061715  -0.099808   0.007801
   65  H 12  S    0.087035  -0.023222   0.066041   0.002487   0.044484
   66  H 12  S    0.028841  -0.009699   0.040605   0.001575   0.037417
   67  H 13  S    0.085111  -0.051352   0.019391  -0.056053  -0.016465
   68  H 13  S    0.026482  -0.028767   0.008045  -0.048064  -0.012463
   69  H 14  S   -0.124583  -0.134230   0.078357   0.002360  -0.072768
   70  H 14  S   -0.086449  -0.105004   0.072091   0.002304  -0.034299

                     16         17         18         19         20
                   -0.4264    -0.4142    -0.3770    -0.3746    -0.3476
                     A          A          A          A          A   
    1  C  1  S    0.000062  -0.002758  -0.005842  -0.000190   0.023304
    2  C  1  S   -0.000033   0.001579   0.006473   0.000213  -0.022254
    3  C  1  X   -0.002111  -0.141845  -0.165008   0.000423   0.253770
    4  C  1  Y   -0.117655   0.214381  -0.103401   0.116640   0.107086
    5  C  1  Z    0.188776   0.130720  -0.059793  -0.195466   0.070546
    6  C  1  S   -0.000497   0.023536   0.021916   0.000703  -0.089699
    7  C  1  X   -0.001514  -0.104063  -0.120288   0.000785   0.195787
    8  C  1  Y   -0.088942   0.155596  -0.083001   0.092448   0.078315
    9  C  1  Z    0.142888   0.095176  -0.047676  -0.155190   0.051950
   10  H  2  S    0.117259   0.096830  -0.047338  -0.133233   0.047499
   11  H  2  S    0.101058   0.081379  -0.049693  -0.123990   0.067364
   12  C  3  S    0.000089  -0.011693  -0.009927  -0.000278   0.007664
   13  C  3  S   -0.000045   0.007968   0.004620   0.000109  -0.012769
   14  C  3  X   -0.001202  -0.120631   0.192404   0.002712  -0.230875
   15  C  3  Y   -0.095830   0.126984   0.075296  -0.014087  -0.136776
   16  C  3  Z    0.154148   0.076836   0.049541   0.026321  -0.087621
   17  C  3  S   -0.000422   0.058291   0.057210   0.001697  -0.001276
   18  C  3  X   -0.000783  -0.117649   0.105946   0.001286  -0.177351
   19  C  3  Y   -0.076259   0.097390   0.053343  -0.006681  -0.107877
   20  C  3  Z    0.123499   0.058464   0.034302   0.013838  -0.069381
   21  C  4  S   -0.000101   0.020280   0.025467   0.000781  -0.005295
   22  C  4  S    0.000008  -0.009032  -0.013847  -0.000424   0.002237
   23  C  4  X   -0.001461   0.107078   0.004599  -0.005840   0.152218
   24  C  4  Y    0.027891  -0.149206   0.101868  -0.122507   0.059194
   25  C  4  Z   -0.040674  -0.089050   0.054994   0.206982   0.038108
   26  C  4  S    0.000996  -0.161273  -0.218113  -0.006816  -0.004981
   27  C  4  X   -0.001224   0.080039   0.044837  -0.004591   0.113246
   28  C  4  Y    0.011500  -0.077014   0.108696  -0.120019   0.044910
   29  C  4  Z   -0.015801  -0.045554   0.059798   0.203115   0.028118
   30  C  5  S   -0.000314   0.006507  -0.011862  -0.000294   0.031410
   31  C  5  S    0.000389  -0.012831   0.015345   0.000425  -0.031200
   32  C  5  X    0.005839   0.042850   0.043932   0.004058  -0.122095
   33  C  5  Y    0.116144   0.019006  -0.165826   0.067231  -0.143713
   34  C  5  Z   -0.188586   0.010144  -0.096585  -0.120160  -0.091982
   35  C  5  S    0.000707   0.023361   0.050798   0.001121  -0.138047
   36  C  5  X    0.005297   0.073124   0.110501   0.006785  -0.077150
   37  C  5  Y    0.113877   0.031516   0.075014   0.089473  -0.008177
   38  C  5  Z   -0.184003   0.018725   0.055351  -0.139541  -0.006545
   39  O  6  S    0.000281  -0.013351   0.035945   0.001159   0.022475
   40  O  6  S   -0.000239   0.010618  -0.035650  -0.001138  -0.020437
   41  O  6  X    0.003906   0.062136   0.095887   0.006322  -0.022988
   42  O  6  Y    0.093407  -0.039355   0.194846   0.092493   0.136683
   43  O  6  Z   -0.148643  -0.025020   0.129021  -0.135061   0.084975
   44  O  6  S   -0.001199   0.065543  -0.093564  -0.003141  -0.068430
   45  O  6  X    0.003468   0.058329   0.093805   0.006153  -0.007632
   46  O  6  Y    0.085051  -0.034684   0.207408   0.089964   0.141542
   47  O  6  Z   -0.135297  -0.022057   0.136527  -0.130133   0.088453
   48  O  7  S    0.000433  -0.037843  -0.055513  -0.001526  -0.043834
   49  O  7  S   -0.000371   0.033011   0.049873   0.001374   0.039204
   50  O  7  X    0.003131   0.070207   0.004290   0.004712   0.069891
   51  O  7  Y    0.102919   0.093180   0.234933   0.110469   0.139206
   52  O  7  Z   -0.167472   0.056886   0.152547  -0.163010   0.088840
   53  O  7  S   -0.002045   0.171553   0.231603   0.006304   0.195254
   54  O  7  X    0.003179   0.067046  -0.020090   0.004219   0.058557
   55  O  7  Y    0.104509   0.089186   0.237980   0.115421   0.146741
   56  O  7  Z   -0.169944   0.054240   0.154070  -0.170753   0.093168
   57  H  8  S   -0.091352  -0.047427  -0.034628  -0.016616   0.069883
   58  H  8  S   -0.066018  -0.042186  -0.040110  -0.009325   0.067430
   59  H  9  S    0.093640  -0.044163  -0.034643   0.015758   0.069575
   60  H  9  S    0.068239  -0.040044  -0.039390   0.008333   0.068071
   61  H 10  S   -0.024695  -0.085010   0.028246   0.142786   0.042289
   62  H 10  S   -0.027554  -0.062507   0.043451   0.113931   0.063899
   63  H 11  S    0.026805  -0.083189   0.035175  -0.141435   0.045171
   64  H 11  S    0.029024  -0.061174   0.047856  -0.111370   0.066193
   65  H 12  S    0.002434  -0.178554  -0.034795  -0.001645   0.070755
   66  H 12  S    0.002089  -0.162754  -0.040239  -0.001848   0.084985
   67  H 13  S   -0.119957   0.092336  -0.053075   0.132669   0.046662
   68  H 13  S   -0.103227   0.077479  -0.054911   0.123094   0.066676
   69  H 14  S    0.001045  -0.065931  -0.084154  -0.002353  -0.093181
   70  H 14  S    0.000955  -0.054651  -0.067624  -0.001861  -0.094799

                     21         22         23         24         25
                   -0.3415    -0.3310    -0.2968    -0.2619     0.0169
                     A          A          A          A          A   
    1  C  1  S   -0.003643   0.000010   0.000056   0.003260   0.000080
    2  C  1  S    0.004880  -0.000034   0.000036  -0.007384  -0.000115
    3  C  1  X    0.109644   0.004960   0.000746   0.017757  -0.000766
    4  C  1  Y   -0.181479   0.094118   0.011154  -0.012232  -0.009963
    5  C  1  Z   -0.104724  -0.160869  -0.018343  -0.007450   0.015436
    6  C  1  S    0.015620   0.000186  -0.000925   0.030689  -0.000865
    7  C  1  X    0.100159   0.003825   0.000939  -0.010798  -0.003113
    8  C  1  Y   -0.145922   0.073699   0.006951  -0.028041  -0.029030
    9  C  1  Z   -0.083984  -0.126267  -0.010825  -0.017243   0.046474
   10  H  2  S   -0.089449  -0.129627  -0.015016  -0.010038   0.008424
   11  H  2  S   -0.103773  -0.153569  -0.021622  -0.004121  -0.031497
   12  C  3  S   -0.005536   0.000047   0.000025   0.008985   0.000581
   13  C  3  S    0.007344   0.000014   0.000160  -0.010935  -0.000134
   14  C  3  X   -0.138154  -0.006915  -0.001243   0.000681   0.000887
   15  C  3  Y    0.212637  -0.143025  -0.021264   0.011320   0.002878
   16  C  3  Z    0.121550   0.242500   0.035340   0.008244  -0.006034
   17  C  3  S    0.003914  -0.000652  -0.001071  -0.054598  -0.006652
   18  C  3  X   -0.092028  -0.005726   0.000122  -0.088017   0.003319
   19  C  3  Y    0.162393  -0.119395  -0.022645  -0.015310   0.049016
   20  C  3  Z    0.093129   0.201724   0.039259  -0.009187  -0.084140
   21  C  4  S   -0.030845  -0.000218  -0.000022   0.023513   0.000175
   22  C  4  S    0.027497   0.000196  -0.000041  -0.010252  -0.000203
   23  C  4  X    0.206925   0.005093   0.000165   0.117751   0.000463
   24  C  4  Y   -0.161305   0.081317   0.001375   0.095610  -0.000844
   25  C  4  Z   -0.089370  -0.138766  -0.002797   0.061972   0.001505
   26  C  4  S    0.139064   0.001199   0.000373  -0.225390  -0.001472
   27  C  4  X    0.147206   0.004075   0.001175   0.159680  -0.003480
   28  C  4  Y   -0.135316   0.067351   0.014290   0.141309  -0.119007
   29  C  4  Z   -0.075649  -0.115288  -0.026727   0.090461   0.192892
   30  C  5  S    0.013278  -0.000099   0.000005   0.013649  -0.000221
   31  C  5  S   -0.013527   0.000069  -0.000003  -0.018622  -0.000013
   32  C  5  X   -0.027557   0.000504   0.002364  -0.057940  -0.011179
   33  C  5  Y   -0.005408  -0.011718   0.051240  -0.025026  -0.250229
   34  C  5  Z   -0.005050   0.021090  -0.082677  -0.017120   0.404383
   35  C  5  S   -0.056158   0.000579  -0.000335   0.001631   0.002671
   36  C  5  X   -0.035349  -0.000958   0.001233   0.161088  -0.011919
   37  C  5  Y   -0.007432  -0.022105   0.036161  -0.047448  -0.277046
   38  C  5  Z   -0.007102   0.036629  -0.057967  -0.024881   0.448420
   39  O  6  S   -0.006165  -0.000341  -0.000017  -0.001799   0.000056
   40  O  6  S    0.006367   0.000307  -0.000005   0.004493  -0.000048
   41  O  6  X   -0.019107  -0.002629   0.007866   0.468155   0.007797
   42  O  6  Y   -0.018989  -0.044777   0.177885  -0.040657   0.175514
   43  O  6  Z   -0.014303   0.069442  -0.287294  -0.012209  -0.283803
   44  O  6  S    0.024624   0.001397   0.000208  -0.009466  -0.000405
   45  O  6  X   -0.015518  -0.002866   0.008891   0.495835   0.010553
   46  O  6  Y   -0.018754  -0.048508   0.199604  -0.047393   0.238349
   47  O  6  Z   -0.014139   0.075490  -0.322267  -0.015639  -0.385623
   48  O  7  S   -0.021152  -0.000121  -0.000022  -0.011076   0.000024
   49  O  7  S    0.018734   0.000157   0.000041  -0.003297   0.000010
   50  O  7  X    0.059830  -0.000322  -0.009831   0.092222   0.004665
   51  O  7  Y    0.029327  -0.010220  -0.215084  -0.173086   0.105197
   52  O  7  Z    0.017965   0.017166   0.347451  -0.104535  -0.169322
   53  O  7  S    0.100234   0.000312  -0.000037   0.149016  -0.000370
   54  O  7  X    0.059957  -0.000366  -0.011527   0.129906   0.006050
   55  O  7  Y    0.028891  -0.008261  -0.251197  -0.221474   0.139797
   56  O  7  Z    0.017614   0.014153   0.405868  -0.133441  -0.224974
   57  H  8  S   -0.102069  -0.183663  -0.025294  -0.009877  -0.002180
   58  H  8  S   -0.112985  -0.201261  -0.000267   0.029622  -0.031574
   59  H  9  S   -0.104748   0.182176   0.025628  -0.008848   0.002069
   60  H  9  S   -0.116277   0.199743   0.001567   0.027638   0.034624
   61  H 10  S   -0.059066  -0.116163   0.001004   0.038351  -0.095128
   62  H 10  S   -0.078086  -0.139857   0.040927   0.047380  -0.346642
   63  H 11  S   -0.061667   0.114219  -0.001204   0.038277   0.096136
   64  H 11  S   -0.081351   0.137724  -0.040182   0.047125   0.351555
   65  H 12  S    0.176653   0.002089   0.000159   0.017869   0.000060
   66  H 12  S    0.181232   0.002253   0.000163   0.025839   0.001015
   67  H 13  S   -0.091906   0.127695   0.015096  -0.009379  -0.008576
   68  H 13  S   -0.106592   0.151452   0.021695  -0.003047   0.033529
   69  H 14  S   -0.045485  -0.000161  -0.000046  -0.000697  -0.000055
   70  H 14  S   -0.051170  -0.000154  -0.000067  -0.071831   0.000095

                     26         27         28         29         30
                    0.0943     0.1179     0.1600     0.1606     0.1808
                     A          A          A          A          A   
    1  C  1  S    0.014036  -0.091627  -0.001157   0.087603  -0.117233
    2  C  1  S   -0.007845   0.042818   0.000478  -0.045896   0.045064
    3  C  1  X    0.008696   0.084094   0.004697  -0.072409  -0.056363
    4  C  1  Y    0.013066   0.070063   0.100568   0.112164   0.152284
    5  C  1  Z    0.008011   0.043517  -0.165121   0.063480   0.093780
    6  C  1  S   -0.145787   1.213012   0.015191  -1.070657   1.557531
    7  C  1  X    0.004507   0.353088   0.014899  -0.266175  -0.317431
    8  C  1  Y    0.037564   0.271067   0.290939   0.383209   0.463999
    9  C  1  Z    0.022418   0.169019  -0.481926   0.214892   0.282782
   10  H  2  S   -0.010220  -0.006991   0.046332  -0.008976  -0.056035
   11  H  2  S    0.001094  -0.656388   0.676137   0.109900  -1.052977
   12  C  3  S   -0.016196  -0.082212   0.001166   0.033881   0.080062
   13  C  3  S    0.000877   0.033146  -0.000519  -0.008555  -0.028795
   14  C  3  X   -0.049521  -0.020769   0.004559   0.064849  -0.080747
   15  C  3  Y    0.048837  -0.062684   0.109528   0.077478   0.097845
   16  C  3  Z    0.028543  -0.036719  -0.178303   0.050278   0.058821
   17  C  3  S    0.210180   1.123877  -0.015335  -0.491996  -1.072057
   18  C  3  X   -0.154433  -0.163089   0.010840   0.401968  -0.362488
   19  C  3  Y    0.162874  -0.285100   0.311910   0.088688   0.282206
   20  C  3  Z    0.095395  -0.171097  -0.502358   0.072485   0.166778
   21  C  4  S    0.047715  -0.077644  -0.000334  -0.081511   0.051480
   22  C  4  S   -0.023667   0.043742   0.000064   0.029836  -0.036615
   23  C  4  X    0.066593  -0.046842   0.005654   0.037208  -0.016851
   24  C  4  Y    0.031171   0.116764   0.118094   0.156289   0.016326
   25  C  4  Z    0.020765   0.069406  -0.192767   0.095780   0.009551
   26  C  4  S   -0.557222   0.947967   0.003555   1.185962  -0.562340
   27  C  4  X   -0.000800  -0.291453   0.014232   0.376243  -0.084982
   28  C  4  Y    0.175479   0.513988   0.337617   0.511198  -0.024258
   29  C  4  Z    0.106729   0.303537  -0.553400   0.320016  -0.016722
   30  C  5  S   -0.028458   0.031793   0.000477  -0.036586  -0.023474
   31  C  5  S    0.010686   0.004782  -0.000371   0.048319  -0.010677
   32  C  5  X   -0.059159  -0.045219  -0.001186   0.035615  -0.015946
   33  C  5  Y    0.067810  -0.000103  -0.029091   0.065778   0.006680
   34  C  5  Z    0.040387   0.000438   0.045738   0.042489   0.003565
   35  C  5  S    0.237023  -0.405195  -0.005314   0.334434   0.313752
   36  C  5  X    0.125117  -0.030058  -0.004350   0.162438  -0.030977
   37  C  5  Y    0.098625  -0.017938  -0.102399   0.145966  -0.077715
   38  C  5  Z    0.064640  -0.009013   0.162400   0.096496  -0.049285
   39  O  6  S    0.008759  -0.018391  -0.000184  -0.005593   0.020320
   40  O  6  S   -0.017044   0.013864   0.000225   0.000452  -0.015652
   41  O  6  X    0.084282   0.048778   0.001943   0.001798  -0.042331
   42  O  6  Y   -0.002656   0.045713   0.029846   0.006057  -0.023916
   43  O  6  Z    0.000794   0.028167  -0.048150   0.003812  -0.015421
   44  O  6  S   -0.013586   0.148952   0.000967   0.064658  -0.186070
   45  O  6  X    0.076263   0.059770   0.002539  -0.015381  -0.032684
   46  O  6  Y   -0.002480   0.096783   0.044492   0.022549  -0.081388
   47  O  6  Z    0.000652   0.059614  -0.071127   0.013261  -0.050777
   48  O  7  S    0.096587   0.002379  -0.000077   0.002897   0.002963
   49  O  7  S   -0.066012  -0.004025   0.000009   0.000074  -0.004234
   50  O  7  X    0.193868   0.030108   0.002108  -0.048241  -0.056030
   51  O  7  Y    0.152817  -0.001690   0.024225   0.019366   0.008183
   52  O  7  Z    0.100226  -0.000422  -0.040217   0.010466   0.003544
   53  O  7  S   -0.783964   0.003467   0.000949  -0.026910  -0.006915
   54  O  7  X    0.380889   0.073220   0.003501  -0.097169  -0.097707
   55  O  7  Y    0.262364  -0.017258   0.031280   0.006715   0.026109
   56  O  7  Z    0.173369  -0.009152  -0.052015   0.001171   0.013466
   57  H  8  S    0.004299  -0.005365  -0.086956   0.035394   0.042803
   58  H  8  S    0.067145  -0.574685  -0.801216   0.410321   0.701448
   59  H  9  S    0.003994  -0.005480   0.088359   0.034117   0.040629
   60  H  9  S    0.063634  -0.581687   0.827825   0.393485   0.686682
   61  H 10  S   -0.023139  -0.012939   0.038831  -0.064844   0.008535
   62  H 10  S    0.064379  -0.738213   0.735263  -0.937888   0.239175
   63  H 11  S   -0.022623  -0.011573  -0.038513  -0.064442   0.008817
   64  H 11  S    0.064812  -0.733312  -0.740127  -0.939996   0.241299
   65  H 12  S    0.022955  -0.024552  -0.000518   0.039917   0.060162
   66  H 12  S    0.142709  -0.553158  -0.008320   1.027143   0.221850
   67  H 13  S   -0.010190  -0.006967  -0.046641  -0.009062  -0.054500
   68  H 13  S    0.000775  -0.657013  -0.691344   0.096161  -1.032546
   69  H 14  S    0.165455   0.024051   0.000386  -0.003592  -0.018578
   70  H 14  S    1.210059   0.107790   0.001674  -0.056891  -0.129646

                     31         32         33         34         35
                    0.1998     0.2072     0.2276     0.2362     0.2383
                     A          A          A          A          A   
    1  C  1  S    0.045817  -0.001753  -0.001142   0.030291  -0.055157
    2  C  1  S   -0.020044   0.000653   0.000468  -0.013963   0.006056
    3  C  1  X   -0.154979   0.006738  -0.012578   0.250253  -0.036192
    4  C  1  Y    0.142408   0.144344  -0.047821   0.038066  -0.017092
    5  C  1  Z    0.076288  -0.247520   0.076680   0.032691  -0.012169
    6  C  1  S   -0.574990   0.023436   0.011059  -0.296304   0.843111
    7  C  1  X   -0.596188   0.024226  -0.049787   0.944447  -0.584558
    8  C  1  Y    0.667761   0.587980  -0.288486   0.291282   0.060407
    9  C  1  Z    0.366373  -1.010010   0.455227   0.221949   0.021803
   10  H  2  S   -0.031105   0.087040   0.021038  -0.036788   0.004719
   11  H  2  S   -0.228528   1.171210  -0.356104  -0.173347  -0.234063
   12  C  3  S   -0.106273   0.001642   0.003087  -0.070321   0.096637
   13  C  3  S    0.047791  -0.000708  -0.001573   0.036968  -0.023077
   14  C  3  X   -0.051182  -0.003512  -0.000915   0.152269   0.104833
   15  C  3  Y   -0.083606  -0.035802   0.154951   0.059739  -0.238054
   16  C  3  Z   -0.052880   0.062704  -0.260110   0.023911  -0.142071
   17  C  3  S    1.391482  -0.022057  -0.037648   0.842021  -1.272236
   18  C  3  X   -0.142212  -0.018241  -0.004573   0.694723   0.405179
   19  C  3  Y   -0.463567  -0.168733   0.668396   0.259222  -1.161264
   20  C  3  Z   -0.284266   0.297828  -1.128102   0.107117  -0.692789
   21  C  4  S    0.078519   0.000285  -0.003346   0.069314  -0.047036
   22  C  4  S   -0.038070  -0.000025   0.001585  -0.027353   0.004851
   23  C  4  X   -0.076116  -0.004760  -0.014705   0.185319   0.267860
   24  C  4  Y   -0.029566  -0.102365  -0.137875   0.058799  -0.069985
   25  C  4  Z   -0.019167   0.169644   0.225229   0.053778  -0.033347
   26  C  4  S   -0.924578  -0.005520   0.040150  -0.836460   0.760828
   27  C  4  X   -0.022839  -0.020837  -0.055927   0.644472   1.365405
   28  C  4  Y    0.021766  -0.357881  -0.540397  -0.002855  -0.188204
   29  C  4  Z    0.017586   0.592850   0.903008   0.068279  -0.069037
   30  C  5  S   -0.018855  -0.000553   0.005721  -0.148537  -0.045452
   31  C  5  S    0.011561  -0.000207  -0.003598   0.093278   0.009906
   32  C  5  X    0.026765  -0.000665   0.002326  -0.048261   0.134112
   33  C  5  Y    0.020501   0.030422   0.068425   0.118338  -0.035934
   34  C  5  Z    0.012820  -0.048170  -0.118214   0.066101  -0.021535
   35  C  5  S    0.244262   0.007290  -0.060334   1.566714   0.794806
   36  C  5  X    0.082654   0.001730   0.004230   0.011970   0.391381
   37  C  5  Y    0.147766   0.095965   0.129580   0.313764  -0.079959
   38  C  5  Z    0.092223  -0.158120  -0.230638   0.180897  -0.042730
   39  O  6  S   -0.005360   0.000413  -0.001598   0.028725   0.034093
   40  O  6  S    0.003561  -0.000295   0.001350  -0.021625  -0.023923
   41  O  6  X    0.001488  -0.000823  -0.000243   0.046956  -0.070360
   42  O  6  Y   -0.011691  -0.018138  -0.012108  -0.118801  -0.078566
   43  O  6  Z   -0.007720   0.028625   0.030311  -0.070501  -0.050052
   44  O  6  S    0.061022  -0.003930   0.012679  -0.242670  -0.316121
   45  O  6  X   -0.012321  -0.001090  -0.000836   0.039833  -0.139476
   46  O  6  Y    0.001741  -0.035953  -0.035270  -0.213783  -0.172719
   47  O  6  Z    0.000648   0.054535   0.077732  -0.127000  -0.109514
   48  O  7  S    0.004030   0.000274  -0.001442   0.045818  -0.011456
   49  O  7  S   -0.004917  -0.000182   0.001041  -0.033089   0.016012
   50  O  7  X   -0.057265  -0.002517   0.005792  -0.216492   0.101932
   51  O  7  Y   -0.017658  -0.023094  -0.035330   0.088527   0.035328
   52  O  7  Z   -0.012153   0.039457   0.051079   0.051363   0.025356
   53  O  7  S   -0.024656  -0.002160   0.012649  -0.393296   0.033657
   54  O  7  X   -0.111750  -0.004124   0.013574  -0.452926   0.153942
   55  O  7  Y   -0.018845  -0.026538  -0.043928   0.167058   0.028314
   56  O  7  Z   -0.014433   0.046536   0.058905   0.094051   0.022773
   57  H  8  S   -0.024275   0.005404  -0.036534   0.022154  -0.038054
   58  H  8  S   -0.864099   0.296394  -1.124990  -0.141652  -0.379558
   59  H  9  S   -0.022799  -0.004847   0.034970   0.024606  -0.037959
   60  H  9  S   -0.853831  -0.271453   1.144828  -0.046391  -0.365460
   61  H 10  S    0.002348  -0.070766   0.002551  -0.005534   0.018759
   62  H 10  S    0.391233  -0.748898  -0.904793   0.188665  -0.039631
   63  H 11  S    0.003371   0.070636  -0.002959  -0.006426   0.018485
   64  H 11  S    0.399214   0.749926   0.867953   0.258625  -0.038073
   65  H 12  S    0.096140  -0.000726   0.001179  -0.021613   0.001146
   66  H 12  S    1.383568  -0.023837   0.025979  -0.531161   0.029307
   67  H 13  S   -0.034131  -0.086700  -0.018291  -0.038412   0.004741
   68  H 13  S   -0.269967  -1.168862   0.365613  -0.142509  -0.239669
   69  H 14  S   -0.002990  -0.000489   0.001641  -0.039785  -0.027450
   70  H 14  S   -0.124714  -0.001855   0.009596  -0.256635   0.234403

                     36         37         38         39         40
                    0.2740     0.3381     0.4262     0.6754     0.6798
                     A          A          A          A          A   
    1  C  1  S    0.041440   0.000077  -0.034846  -0.001025   0.010469
    2  C  1  S   -0.001642   0.018291   0.009326   0.006471  -0.074866
    3  C  1  X    0.108351  -0.108547   0.082935  -0.031000   0.387988
    4  C  1  Y    0.172474   0.090214  -0.019879  -0.112350  -0.277270
    5  C  1  Z    0.104440   0.051577  -0.009468   0.235019  -0.135936
    6  C  1  S   -0.665390  -0.195424   0.518668  -0.024224   0.288781
    7  C  1  X    0.731362  -0.142833  -0.417499   0.040474  -0.543354
    8  C  1  Y    0.754579   0.243670  -0.114874   0.156287   0.478039
    9  C  1  Z    0.461784   0.138749  -0.079473  -0.343419   0.244294
   10  H  2  S   -0.030728   0.042987   0.007674   0.284509  -0.192673
   11  H  2  S   -0.390336  -0.124461  -0.078131  -0.040273  -0.004356
   12  C  3  S   -0.016970   0.036702   0.055176   0.000390  -0.000634
   13  C  3  S   -0.002031  -0.008652   0.002901  -0.000984   0.019194
   14  C  3  X    0.286880   0.074265  -0.182949  -0.033229   0.259403
   15  C  3  Y    0.057678  -0.052381  -0.082564  -0.167630   0.041748
   16  C  3  Z    0.041999  -0.028188  -0.054006   0.261541   0.058519
   17  C  3  S    0.262010  -0.596514  -1.133117   0.011153  -0.285331
   18  C  3  X    1.329228   0.694886   0.188521   0.032794  -0.208402
   19  C  3  Y    0.288617  -0.234949  -0.511134   0.265347  -0.367355
   20  C  3  Z    0.204521  -0.117018  -0.296845  -0.372216  -0.268033
   21  C  4  S   -0.031373  -0.118054  -0.002685   0.002286  -0.030194
   22  C  4  S    0.009631   0.042994   0.034099  -0.003797   0.045333
   23  C  4  X    0.005621  -0.043689   0.079894   0.044507  -0.664556
   24  C  4  Y   -0.157623  -0.164820  -0.132238  -0.105523  -0.256821
   25  C  4  Z   -0.091012  -0.102336  -0.080625   0.221802  -0.153300
   26  C  4  S    0.357778   1.787655  -0.344065   0.000449   0.081928
   27  C  4  X    0.033231  -0.472680   1.135014  -0.051994   0.832694
   28  C  4  Y   -0.728564  -1.036763  -0.359784   0.126204   0.432979
   29  C  4  Z   -0.425464  -0.650023  -0.191362  -0.297097   0.256256
   30  C  5  S    0.092346   0.026196   0.007935  -0.002377   0.028186
   31  C  5  S   -0.038848  -0.025597   0.081435   0.005183  -0.050915
   32  C  5  X    0.216203  -0.508450  -0.128654   0.012446  -0.275116
   33  C  5  Y   -0.090771  -0.052611   0.308630  -0.285287  -0.014187
   34  C  5  Z   -0.049892  -0.046302   0.186428   0.459390   0.033453
   35  C  5  S   -1.139759  -0.649283  -0.293499  -0.034696   0.421543
   36  C  5  X    0.181071  -1.484784   0.150861  -0.026113   0.376147
   37  C  5  Y    0.014199  -0.255533   1.753641   0.256178  -0.050663
   38  C  5  Z    0.009285  -0.199123   1.089597  -0.394983  -0.063762
   39  O  6  S   -0.039644   0.018548  -0.122680  -0.000471   0.005634
   40  O  6  S    0.032002  -0.009829   0.059379  -0.000256   0.000904
   41  O  6  X   -0.022604   0.206232   0.046905  -0.003434   0.037808
   42  O  6  Y    0.078213  -0.051282   0.153339  -0.018913   0.016306
   43  O  6  Z    0.049040  -0.025657   0.096662   0.026479   0.013662
   44  O  6  S    0.377970  -0.197709   1.547342   0.010725  -0.112494
   45  O  6  X   -0.059092   0.390698   0.091018   0.003308  -0.044569
   46  O  6  Y    0.195650  -0.116563   0.591749  -0.025493  -0.038186
   47  O  6  Z    0.121145  -0.061249   0.369450   0.048454  -0.019973
   48  O  7  S   -0.043827   0.042989   0.044113   0.000777  -0.010058
   49  O  7  S    0.040852  -0.027398  -0.017823  -0.000941   0.016269
   50  O  7  X    0.206395  -0.096232  -0.104250  -0.002526   0.028074
   51  O  7  Y   -0.095641   0.132133  -0.021717  -0.020545   0.036918
   52  O  7  Z   -0.053074   0.078644  -0.016733   0.026646   0.026836
   53  O  7  S    0.313531  -0.441016  -0.522337  -0.009277   0.081881
   54  O  7  X    0.381072  -0.225076  -0.362950  -0.002602   0.003969
   55  O  7  Y   -0.173478   0.278111  -0.022303  -0.030680  -0.016895
   56  O  7  Z   -0.095867   0.165601  -0.024097   0.053418  -0.004838
   57  H  8  S    0.012105  -0.042908   0.032183  -0.369297   0.010516
   58  H  8  S    0.176321   0.036949   0.027599   0.069351  -0.103462
   59  H  9  S    0.012429  -0.041095   0.030892   0.369676   0.067782
   60  H  9  S    0.173371   0.027141   0.020016  -0.053329  -0.110686
   61  H 10  S    0.031050   0.045933  -0.046557   0.333824  -0.103218
   62  H 10  S    0.365703   0.100743   0.225226  -0.053101  -0.116233
   63  H 11  S    0.032268   0.046172  -0.043326  -0.313987  -0.157254
   64  H 11  S    0.391983   0.095010   0.213201   0.071553  -0.108221
   65  H 12  S   -0.049199  -0.062903   0.046886  -0.023813   0.345109
   66  H 12  S    0.196926   0.379774  -0.120286   0.002384  -0.025921
   67  H 13  S   -0.032541   0.042226   0.007769  -0.250260  -0.232384
   68  H 13  S   -0.402798  -0.129720  -0.078954   0.040116   0.002081
   69  H 14  S    0.045724  -0.076810   0.084970   0.010189  -0.140192
   70  H 14  S    0.238234  -0.133533  -0.051805  -0.013511   0.166693

                     41         42         43         44         45
                    0.7145     0.7150     0.7683     0.7954     0.8131
                     A          A          A          A          A   
    1  C  1  S   -0.000413  -0.001709  -0.033182   0.022749  -0.023560
    2  C  1  S    0.000016   0.003148   0.112784  -0.014768   0.029468
    3  C  1  X   -0.159534  -0.402501  -0.504396   0.207136  -0.197846
    4  C  1  Y   -0.291576  -0.088044  -0.398959   0.379662  -0.169696
    5  C  1  Z    0.331908  -0.254632  -0.244273   0.232178  -0.108895
    6  C  1  S    0.072754   0.181304  -0.219996  -0.226504  -0.079342
    7  C  1  X    0.242331   0.610571   0.799036  -0.187375   0.430816
    8  C  1  Y    0.468760   0.079385   0.619107  -0.710441   0.454425
    9  C  1  Z   -0.578737   0.390352   0.377671  -0.430634   0.285328
   10  H  2  S    0.278148  -0.193770  -0.227574   0.103224  -0.117494
   11  H  2  S    0.011939  -0.057975  -0.082013   0.201231  -0.128657
   12  C  3  S    0.002572   0.007540   0.051363  -0.018588  -0.014365
   13  C  3  S   -0.035373  -0.095570  -0.124459   0.073968   0.062814
   14  C  3  X    0.158956   0.420032  -0.007288   0.336487  -0.472573
   15  C  3  Y   -0.066738   0.114009  -0.489653  -0.470012   0.173874
   16  C  3  Z    0.191507  -0.003104  -0.296413  -0.273409   0.092707
   17  C  3  S    0.287942   0.767001   0.138566  -0.591646  -0.289557
   18  C  3  X   -0.211354  -0.553517   0.318362  -0.400322   1.056010
   19  C  3  Y    0.061186  -0.000927   0.857658   0.875933  -0.408729
   20  C  3  Z   -0.109153   0.029234   0.528095   0.516852  -0.219112
   21  C  4  S    0.002719   0.006603  -0.022076   0.005637   0.038213
   22  C  4  S    0.012155   0.034381   0.087742   0.023845  -0.108267
   23  C  4  X    0.090677   0.235489   0.026647  -0.180318  -0.434740
   24  C  4  Y    0.009674  -0.122043   0.144546   0.455465   0.283982
   25  C  4  Z   -0.097364  -0.024749   0.084159   0.270390   0.159416
   26  C  4  S   -0.257436  -0.685932  -0.256937  -0.653849   0.725233
   27  C  4  X   -0.088534  -0.241020  -0.003026   0.064415   0.709325
   28  C  4  Y    0.211450   0.570803  -0.492387  -0.742391  -0.837247
   29  C  4  Z    0.132272   0.336257  -0.290683  -0.444670  -0.486942
   30  C  5  S    0.001657   0.004107  -0.011228   0.006246   0.018213
   31  C  5  S    0.011195   0.031244   0.030811   0.051384  -0.005472
   32  C  5  X   -0.165762  -0.491178   0.110380  -0.209541   0.215455
   33  C  5  Y    0.518207   0.258960  -0.228565   0.264188   0.486704
   34  C  5  Z   -0.502926   0.462855  -0.138476   0.156858   0.306469
   35  C  5  S   -0.033709  -0.089782  -0.049328  -0.393092  -0.268926
   36  C  5  X    0.389675   1.097318  -0.309136   0.278968  -0.409202
   37  C  5  Y   -0.541674  -0.169826   0.423958  -0.012510  -0.336665
   38  C  5  Z    0.613253  -0.435191   0.250533  -0.002406  -0.220477
   39  O  6  S   -0.006325  -0.016658  -0.004726  -0.019627  -0.020913
   40  O  6  S    0.005547   0.015581   0.009752   0.014580   0.026831
   41  O  6  X   -0.043761  -0.116349   0.063534  -0.030188   0.075441
   42  O  6  Y    0.062361   0.095661  -0.068991   0.038510   0.112647
   43  O  6  Z   -0.013336   0.075074  -0.039402   0.024224   0.072306
   44  O  6  S    0.005326   0.008804   0.190780   0.172246  -0.024436
   45  O  6  X   -0.052243  -0.148165   0.032918  -0.042166   0.050216
   46  O  6  Y    0.111499   0.118685  -0.019794   0.142988   0.143866
   47  O  6  Z   -0.060946   0.118802  -0.011124   0.087523   0.090567
   48  O  7  S    0.000350   0.000674   0.005250  -0.007663  -0.020986
   49  O  7  S   -0.015343  -0.040650   0.009652   0.013017   0.051769
   50  O  7  X   -0.033104  -0.092787   0.045029   0.017910   0.021697
   51  O  7  Y    0.052825   0.025594  -0.012402   0.054076   0.049158
   52  O  7  Z   -0.052457   0.046276  -0.006704   0.033540   0.030137
   53  O  7  S    0.151540   0.406288  -0.213973   0.131070   0.037587
   54  O  7  X    0.044552   0.113508  -0.094500   0.013655  -0.002848
   55  O  7  Y    0.018431  -0.102796   0.013632  -0.043672   0.014969
   56  O  7  Z   -0.098335  -0.017848   0.006319  -0.026152   0.009519
   57  H  8  S   -0.200315  -0.057335   0.270192   0.078481  -0.088860
   58  H  8  S    0.108313  -0.039372   0.197542   0.174839  -0.059651
   59  H  9  S    0.111557  -0.167862   0.266875   0.075810  -0.089510
   60  H  9  S   -0.107838   0.046741   0.193919   0.176029  -0.059408
   61  H 10  S   -0.037665   0.072318   0.020959   0.147895   0.243315
   62  H 10  S   -0.011499  -0.123874   0.108272   0.196649   0.160913
   63  H 11  S    0.075480   0.022518   0.027816   0.151585   0.243067
   64  H 11  S   -0.072547  -0.097028   0.107968   0.196042   0.160595
   65  H 12  S   -0.048528  -0.128044   0.150566   0.160807  -0.179533
   66  H 12  S   -0.012306  -0.037322  -0.193906  -0.167153   0.016375
   67  H 13  S   -0.338256   0.036521  -0.231237   0.103398  -0.116732
   68  H 13  S   -0.046206  -0.032312  -0.085690   0.200721  -0.128050
   69  H 14  S    0.031396   0.083308  -0.010049  -0.054349  -0.298895
   70  H 14  S    0.044786   0.119829  -0.034927   0.125769   0.171869

                     46         47         48         49         50
                    0.8182     0.8401     0.9137     0.9567     0.9602
                     A          A          A          A          A   
    1  C  1  S   -0.007666  -0.000272  -0.038173   0.034620  -0.024173
    2  C  1  S   -0.003919   0.001301   0.025690  -0.002299   0.021435
    3  C  1  X   -0.067437   0.009815  -0.175981  -0.088432   0.197672
    4  C  1  Y    0.003815   0.316313   0.397172  -0.014039  -0.105466
    5  C  1  Z    0.002470  -0.529484   0.243791   0.009869  -0.055948
    6  C  1  S   -0.017186  -0.007314  -0.258292  -0.147951  -0.148098
    7  C  1  X    0.249433  -0.016711   0.856774  -0.013685  -0.190487
    8  C  1  Y    0.081851  -0.630824  -0.730216  -0.067171   0.400073
    9  C  1  Z    0.050939   1.060273  -0.436736  -0.083189   0.228028
   10  H  2  S   -0.036508  -0.167589  -0.203666   0.217514  -0.201034
   11  H  2  S   -0.041939  -0.296847   0.289440   0.001365  -0.028741
   12  C  3  S   -0.014623   0.000490  -0.001162   0.022337  -0.019560
   13  C  3  S    0.038144  -0.001301  -0.092365   0.052661  -0.007351
   14  C  3  X   -0.264389  -0.014153  -0.330930  -0.040599  -0.123310
   15  C  3  Y    0.164361  -0.229389  -0.382183   0.158524  -0.160338
   16  C  3  Z    0.093654   0.370703  -0.245057   0.062875  -0.106561
   17  C  3  S   -0.262924   0.002543   0.616024  -0.028478  -0.055177
   18  C  3  X    0.592003   0.025749   0.022450   0.057695   0.411977
   19  C  3  Y   -0.363004   0.414010   0.934362   0.020665   0.047581
   20  C  3  Z   -0.204589  -0.664299   0.576007   0.087054   0.055347
   21  C  4  S    0.023526  -0.000007   0.003497   0.036582  -0.028791
   22  C  4  S   -0.018033   0.000392   0.049239  -0.056283  -0.059845
   23  C  4  X   -0.300455  -0.008856  -0.235302  -0.075005  -0.008476
   24  C  4  Y    0.267784  -0.232546  -0.496962  -0.330707   0.184170
   25  C  4  Z    0.151606   0.384086  -0.300689  -0.162766   0.117575
   26  C  4  S   -0.745662  -0.003056  -0.453740   0.408297   0.752615
   27  C  4  X    1.137756   0.018900  -0.013902  -0.074618  -0.404713
   28  C  4  Y   -0.340055   0.456041   1.303166   0.235082  -0.438184
   29  C  4  Z   -0.167255  -0.757861   0.778542   0.056594  -0.292102
   30  C  5  S   -0.057263  -0.000347  -0.013870  -0.030799   0.018182
   31  C  5  S    0.344672   0.002663   0.207227   0.376924  -0.270258
   32  C  5  X   -0.566691   0.007740  -0.160567   0.052270   0.073880
   33  C  5  Y   -0.519536   0.216972   0.084047   0.109674   0.129088
   34  C  5  Z   -0.334662  -0.355843   0.042803   0.065132   0.081150
   35  C  5  S    0.321294  -0.005542   0.387627  -0.292077  -0.047541
   36  C  5  X    1.353471  -0.016449   0.920486  -0.141381  -0.789825
   37  C  5  Y    1.033620  -0.403295  -0.692975  -0.428721  -0.588504
   38  C  5  Z    0.670593   0.663865  -0.391456  -0.248219  -0.382213
   39  O  6  S    0.003413  -0.000103   0.021970   0.008395   0.012983
   40  O  6  S   -0.024115  -0.000013   0.002010   0.003896  -0.010599
   41  O  6  X   -0.142661   0.001108   0.068115   0.058713   0.000319
   42  O  6  Y   -0.202409   0.035800   0.008271  -0.040233   0.066658
   43  O  6  Z   -0.128562  -0.060916   0.006158  -0.024392   0.041423
   44  O  6  S    0.485114   0.004126  -0.462329  -0.195194  -0.369143
   45  O  6  X   -0.175610   0.002273  -0.191130  -0.025616   0.105365
   46  O  6  Y   -0.039100   0.055182  -0.134638  -0.031822  -0.076233
   47  O  6  Z   -0.028095  -0.087762  -0.090416  -0.023596  -0.045047
   48  O  7  S    0.003067   0.000132  -0.020891   0.004150   0.025440
   49  O  7  S   -0.007353  -0.000298   0.007196  -0.017527  -0.048210
   50  O  7  X    0.095263   0.002456  -0.018326   0.123038   0.136003
   51  O  7  Y    0.044252   0.049896   0.034772   0.230092   0.213286
   52  O  7  Z    0.030306  -0.079686   0.019927   0.142015   0.134982
   53  O  7  S    0.056131  -0.000287   0.441324   0.212590   0.049852
   54  O  7  X   -0.044239   0.001535   0.183572   0.119985   0.138005
   55  O  7  Y   -0.137414   0.033961  -0.091889  -0.045159   0.095972
   56  O  7  Z   -0.085440  -0.055851  -0.052718  -0.024927   0.063301
   57  H  8  S   -0.108740  -0.113159   0.007647   0.367993  -0.265484
   58  H  8  S   -0.052380  -0.160215   0.238996  -0.144320   0.181673
   59  H  9  S   -0.109805   0.120808   0.010282   0.383713  -0.260632
   60  H  9  S   -0.050489   0.165476   0.228712  -0.206104   0.165796
   61  H 10  S    0.140915   0.269741  -0.096905   0.453474  -0.237085
   62  H 10  S    0.076316   0.089278  -0.325628  -0.334822   0.220351
   63  H 11  S    0.141699  -0.266735  -0.092136   0.475071  -0.234897
   64  H 11  S    0.077490  -0.088149  -0.336475  -0.412923   0.208985
   65  H 12  S   -0.163719   0.002849  -0.396752   0.348269  -0.149972
   66  H 12  S   -0.026644  -0.002777  -0.384686  -0.219000   0.312113
   67  H 13  S   -0.038479   0.162889  -0.202228   0.236323  -0.197669
   68  H 13  S   -0.042901   0.296432   0.278678  -0.043021  -0.037792
   69  H 14  S    0.162818   0.002344  -0.029821   0.611044   1.046565
   70  H 14  S    0.161378  -0.000751   0.160042  -0.497460  -0.975849

                     51         52         53         54         55
                    0.9621     1.0608     1.0707     1.0785     1.1224
                     A          A          A          A          A   
    1  C  1  S    0.000816   0.000112   0.009316   0.000049  -0.012372
    2  C  1  S    0.000344  -0.000986   0.008176  -0.002311   0.041500
    3  C  1  X    0.002626  -0.004325   0.395025  -0.004108  -0.265122
    4  C  1  Y    0.191864  -0.194940  -0.518672   0.311599   0.180982
[...]
    461    1.35150    7.16434   -2.59785        -5.346506       5.351679       0.005173
    462    1.35150    7.16434   -1.08607        -5.625937       5.632138       0.006202
    463    1.35150    7.16434    0.42571        -5.737615       5.743511       0.005895
    464    1.35150    7.16434    1.93749        -5.641462       5.646055       0.004594
    465    1.35150    7.16434    3.44927        -5.368937       5.372538       0.003600
    466    2.86329   -6.44168   -1.08607        -5.350140       5.347455      -0.002685
    467    2.86329   -6.44168    0.42571        -5.412808       5.411228      -0.001580
    468    2.86329   -6.44168    1.93749        -5.305291       5.304634      -0.000658
    469    2.86329   -4.92990   -2.59785        -5.821511       5.818604      -0.002908
    470    2.86329   -4.92990   -1.08607        -6.166147       6.164260      -0.001887
    471    2.86329   -4.92990    0.42571        -6.281160       6.280713      -0.000447
    472    2.86329   -4.92990    1.93749        -6.113452       6.113904       0.000452
    473    2.86329   -4.92990    3.44927        -5.730185       5.730959       0.000774
    474    2.86329   -3.41812   -5.62141        -5.263437       5.261177      -0.002259
    475    2.86329   -3.41812   -4.10963        -5.918917       5.916901      -0.002015
    476    2.86329   -3.41812   -2.59785        -6.611067       6.609455      -0.001612
    477    2.86329   -3.41812   -1.08607        -7.201591       7.201205      -0.000386
    478    2.86329   -3.41812    0.42571        -7.436889       7.437742       0.000852
    479    2.86329   -3.41812    1.93749        -7.154577       7.155177       0.000600
    480    2.86329   -3.41812    3.44927        -6.527177       6.528122       0.000945
    481    2.86329   -3.41812    4.96105        -5.816119       5.817887       0.001768
    482    2.86329   -1.90634   -5.62141        -5.578049       5.577166      -0.000884
    483    2.86329   -1.90634   -4.10963        -6.419548       6.419331      -0.000216
    484    2.86329   -1.90634   -2.59785        -7.428905       7.429381       0.000476
    485    2.86329   -1.90634    3.44927        -7.437322       7.437750       0.000428
    486    2.86329   -1.90634    4.96105        -6.374036       6.377162       0.003126
    487    2.86329   -1.90634    6.47283        -5.503097       5.506512       0.003414
    488    2.86329   -0.39456   -5.62141        -5.745446       5.745708       0.000262
    489    2.86329   -0.39456   -4.10963        -6.716260       6.717073       0.000813
    490    2.86329   -0.39456   -2.59785        -8.015480       8.016769       0.001290
    491    2.86329   -0.39456    6.47283        -5.730622       5.736229       0.005607
    492    2.86329   -0.39456    7.98461        -4.946149       4.949943       0.003795
    493    2.86329    1.11722   -5.62141        -5.715033       5.715961       0.000928
    494    2.86329    1.11722   -4.10963        -6.681576       6.682474       0.000898
    495    2.86329    1.11722   -2.59785        -8.013917       8.013706      -0.000212
    496    2.86329    1.11722    6.47283        -5.756368       5.763618       0.007249
    497    2.86329    1.11722    7.98461        -4.954336       4.958687       0.004350
    498    2.86329    2.62900   -5.62141        -5.497654       5.499219       0.001564
    499    2.86329    2.62900   -4.10963        -6.334127       6.336195       0.002068
    500    2.86329    2.62900    6.47283        -5.553645       5.559758       0.006113
    501    2.86329    2.62900    7.98461        -4.829756       4.833870       0.004114
    502    2.86329    4.14078   -4.10963        -5.806232       5.809768       0.003536
    503    2.86329    4.14078   -2.59785        -6.558630       6.566466       0.007837
    504    2.86329    4.14078    3.44927        -6.704936       6.707422       0.002486
    505    2.86329    4.14078    4.96105        -5.905507       5.910045       0.004538
    506    2.86329    4.14078    6.47283        -5.195059       5.199340       0.004280
    507    2.86329    5.65256   -4.10963        -5.233979       5.237756       0.003777
    508    2.86329    5.65256   -2.59785        -5.722196       5.728355       0.006160
    509    2.86329    5.65256   -1.08607        -6.136621       6.146428       0.009807
    510    2.86329    5.65256    0.42571        -6.321365       6.330730       0.009364
    511    2.86329    5.65256    1.93749        -6.173578       6.178004       0.004426
    512    2.86329    5.65256    3.44927        -5.779654       5.782716       0.003062
    513    2.86329    5.65256    4.96105        -5.281050       5.284323       0.003273
    514    2.86329    7.16434   -2.59785        -5.018773       5.023201       0.004428
    515    2.86329    7.16434   -1.08607        -5.260542       5.265866       0.005324
    516    2.86329    7.16434    0.42571        -5.357916       5.362973       0.005057
    517    2.86329    7.16434    1.93749        -5.276740       5.280654       0.003914
    518    2.86329    7.16434    3.44927        -5.043243       5.046357       0.003114
    519    4.37507   -4.92990   -2.59785        -5.232090       5.231180      -0.000911
    520    4.37507   -4.92990   -1.08607        -5.490308       5.490245      -0.000062
    521    4.37507   -4.92990    0.42571        -5.580172       5.580676       0.000505
    522    4.37507   -4.92990    1.93749        -5.466749       5.467352       0.000603
    523    4.37507   -3.41812   -4.10963        -5.306145       5.305625      -0.000521
    524    4.37507   -3.41812   -2.59785        -5.809159       5.809927       0.000769
    525    4.37507   -3.41812   -1.08607        -6.223039       6.225934       0.002895
    526    4.37507   -3.41812    0.42571        -6.391780       6.395194       0.003414
    527    4.37507   -3.41812    1.93749        -6.216046       6.217442       0.001396
    528    4.37507   -3.41812    3.44927        -5.787972       5.788841       0.000870
    529    4.37507   -3.41812    4.96105        -5.265833       5.267191       0.001358
    530    4.37507   -1.90634   -4.10963        -5.677460       5.678004       0.000544
    531    4.37507   -1.90634   -2.59785        -6.378048       6.381301       0.003253
    532    4.37507   -1.90634    3.44927        -6.431346       6.431455       0.000109
    533    4.37507   -1.90634    4.96105        -5.689081       5.691077       0.001996
    534    4.37507   -1.90634    6.47283        -5.029337       5.031842       0.002506
    535    4.37507   -0.39456   -4.10963        -5.900790       5.901670       0.000881
    536    4.37507   -0.39456   -2.59785        -6.781576       6.785356       0.003780
    537    4.37507   -0.39456    4.96105        -5.999241       6.003373       0.004132
    538    4.37507   -0.39456    6.47283        -5.207334       5.211065       0.003731
    539    4.37507    1.11722   -4.10963        -5.892825       5.893582       0.000757
    540    4.37507    1.11722   -2.59785        -6.800196       6.800184      -0.000012
    541    4.37507    1.11722    4.96105        -6.053704       6.060630       0.006926
    542    4.37507    1.11722    6.47283        -5.226628       5.231240       0.004612
    543    4.37507    1.11722    7.98461        -4.592181       4.595509       0.003328
    544    4.37507    2.62900   -4.10963        -5.652364       5.653832       0.001467
    545    4.37507    2.62900   -2.59785        -6.417036       6.418202       0.001165
    546    4.37507    2.62900    1.93749        -7.481327       7.486223       0.004896
    547    4.37507    2.62900    4.96105        -5.789885       5.794896       0.005011
    548    4.37507    2.62900    6.47283        -5.070136       5.074321       0.004185
    549    4.37507    4.14078   -4.10963        -5.260236       5.262758       0.002522
    550    4.37507    4.14078   -2.59785        -5.819606       5.823626       0.004021
    551    4.37507    4.14078    1.93749        -6.426739       6.428169       0.001430
    552    4.37507    4.14078    3.44927        -5.928967       5.930675       0.001708
    553    4.37507    4.14078    4.96105        -5.342100       5.345266       0.003166
    554    4.37507    4.14078    6.47283        -4.786872       4.790141       0.003269
    555    4.37507    5.65256   -4.10963        -4.813672       4.816530       0.002859
    556    4.37507    5.65256   -2.59785        -5.197924       5.202086       0.004162
    557    4.37507    5.65256   -1.08607        -5.510518       5.516066       0.005548
    558    4.37507    5.65256    0.42571        -5.647200       5.652216       0.005016
    559    4.37507    5.65256    1.93749        -5.542925       5.545960       0.003035
    560    4.37507    5.65256    3.44927        -5.246758       5.249211       0.002453
    561    4.37507    5.65256    4.96105        -4.855865       4.858504       0.002638
    562    4.37507    7.16434   -2.59785        -4.641768       4.645160       0.003392
    563    4.37507    7.16434   -1.08607        -4.836728       4.840655       0.003928
    564    4.37507    7.16434    0.42571        -4.914833       4.918579       0.003746
    565    4.37507    7.16434    1.93749        -4.851221       4.854284       0.003062
    566    5.88685   -4.92990   -1.08607        -4.867847       4.868590       0.000743
    567    5.88685   -4.92990    0.42571        -4.933438       4.934496       0.001058
    568    5.88685   -4.92990    1.93749        -4.857043       4.857976       0.000933
    569    5.88685   -3.41812   -2.59785        -5.088391       5.089932       0.001541
    570    5.88685   -3.41812   -1.08607        -5.361644       5.364832       0.003188
    571    5.88685   -3.41812    0.42571        -5.469589       5.473113       0.003524
    572    5.88685   -3.41812    1.93749        -5.362637       5.364757       0.002120
    573    5.88685   -3.41812    3.44927        -5.084015       5.085276       0.001261
    574    5.88685   -1.90634   -4.10963        -5.000702       5.001780       0.001079
    575    5.88685   -1.90634   -2.59785        -5.460408       5.463816       0.003408
    576    5.88685   -1.90634   -1.08607        -5.862472       5.871244       0.008772
    577    5.88685   -1.90634    1.93749        -5.888766       5.892694       0.003928
    578    5.88685   -1.90634    3.44927        -5.493177       5.494513       0.001336
    579    5.88685   -1.90634    4.96105        -5.015401       5.016990       0.001590
    580    5.88685   -0.39456   -4.10963        -5.156389       5.157744       0.001354
    581    5.88685   -0.39456   -2.59785        -5.703818       5.707591       0.003773
    582    5.88685   -0.39456    3.44927        -5.790711       5.791612       0.000901
    583    5.88685   -0.39456    4.96105        -5.211821       5.213845       0.002024
    584    5.88685   -0.39456    6.47283        -4.674406       4.676772       0.002367
    585    5.88685    1.11722   -4.10963        -5.154353       5.155538       0.001185
    586    5.88685    1.11722   -2.59785        -5.713295       5.715057       0.001761
    587    5.88685    1.11722   -1.08607        -6.260330       6.264615       0.004285
    588    5.88685    1.11722    1.93749        -6.359849       6.360442       0.000593
    589    5.88685    1.11722    3.44927        -5.835313       5.836068       0.000755
    590    5.88685    1.11722    4.96105        -5.236411       5.238862       0.002451
    591    5.88685    1.11722    6.47283        -4.685810       4.688540       0.002729
    592    5.88685    2.62900   -4.10963        -4.991975       4.993320       0.001345
    593    5.88685    2.62900   -2.59785        -5.481292       5.482574       0.001283
    594    5.88685    2.62900   -1.08607        -5.927971       5.928634       0.000663
    595    5.88685    2.62900    0.42571        -6.153880       6.153751      -0.000128
    596    5.88685    2.62900    1.93749        -6.008730       6.008370      -0.000360
    597    5.88685    2.62900    3.44927        -5.584837       5.585848       0.001011
    598    5.88685    2.62900    4.96105        -5.068299       5.070715       0.002416
    599    5.88685    2.62900    6.47283        -4.571844       4.574519       0.002676
    600    5.88685    4.14078   -4.10963        -4.714732       4.716545       0.001813
    601    5.88685    4.14078   -2.59785        -5.098476       5.100676       0.002200
    602    5.88685    4.14078   -1.08607        -5.418378       5.420654       0.002275
    603    5.88685    4.14078    0.42571        -5.564921       5.566567       0.001646
    604    5.88685    4.14078    1.93749        -5.463351       5.464437       0.001086
    605    5.88685    4.14078    3.44927        -5.161814       5.163358       0.001543
    606    5.88685    4.14078    4.96105        -4.767294       4.769506       0.002213
    607    5.88685    5.65256   -2.59785        -4.666981       4.669585       0.002604
    608    5.88685    5.65256   -1.08607        -4.884277       4.887196       0.002919
    609    5.88685    5.65256    0.42571        -4.975507       4.978156       0.002649
    610    5.88685    5.65256    1.93749        -4.906750       4.908879       0.002129
    611    5.88685    7.16434    0.42571        -4.457150       4.459751       0.002601
    612    7.39863   -3.41812   -2.59785        -4.472418       4.473723       0.001305
    613    7.39863   -3.41812   -1.08607        -4.649043       4.651187       0.002143
    614    7.39863   -3.41812    0.42571        -4.715678       4.718012       0.002334
    615    7.39863   -3.41812    1.93749        -4.649962       4.651755       0.001794
    616    7.39863   -1.90634   -2.59785        -4.710980       4.713238       0.002257
    617    7.39863   -1.90634   -1.08607        -4.940459       4.944190       0.003731
    618    7.39863   -1.90634    0.42571        -5.034507       5.038468       0.003961
    619    7.39863   -1.90634    1.93749        -4.952644       4.955219       0.002575
    620    7.39863   -1.90634    3.44927        -4.726288       4.727881       0.001593
    621    7.39863   -0.39456   -4.10963        -4.519438       4.520725       0.001287
    622    7.39863   -0.39456   -2.59785        -4.855068       4.857543       0.002475
    623    7.39863   -0.39456   -1.08607        -5.127687       5.131776       0.004089
    624    7.39863   -0.39456    0.42571        -5.247099       5.251367       0.004268
    625    7.39863   -0.39456    1.93749        -5.153628       5.156091       0.002462
    626    7.39863   -0.39456    3.44927        -4.890503       4.892044       0.001540
    627    7.39863    1.11722   -2.59785        -4.859019       4.860873       0.001854
    628    7.39863    1.11722   -1.08607        -5.137998       5.140472       0.002473
    629    7.39863    1.11722    0.42571        -5.263289       5.265592       0.002303
    630    7.39863    1.11722    1.93749        -5.172784       5.174226       0.001441
    631    7.39863    1.11722    3.44927        -4.906970       4.908289       0.001318
    632    7.39863    1.11722    4.96105        -4.556419       4.558100       0.001681
    633    7.39863    2.62900   -2.59785        -4.718999       4.720472       0.001473
    634    7.39863    2.62900   -1.08607        -4.965424       4.966890       0.001466
    635    7.39863    2.62900    0.42571        -5.074033       5.075231       0.001197
    636    7.39863    2.62900    1.93749        -4.997339       4.998364       0.001025
    637    7.39863    2.62900    3.44927        -4.764125       4.765424       0.001299
    638    7.39863    4.14078   -1.08607        -4.671397       4.673027       0.001630
    639    7.39863    4.14078    0.42571        -4.754182       4.755632       0.001450
    640    7.39863    4.14078    1.93749        -4.693563       4.694900       0.001337
    641    8.91041   -1.90634   -1.08607        -4.259046       4.260970       0.001923
    642    8.91041   -1.90634    0.42571        -4.312444       4.314471       0.002027
    643    8.91041   -1.90634    1.93749        -4.263874       4.265571       0.001697
    644    8.91041   -0.39456   -1.08607        -4.365025       4.367093       0.002069
    645    8.91041   -0.39456    0.42571        -4.427261       4.429381       0.002121
    646    8.91041   -0.39456    1.93749        -4.375198       4.376943       0.001746
    647    8.91041    1.11722   -1.08607        -4.368953       4.370685       0.001732
    648    8.91041    1.11722    0.42571        -4.433534       4.435255       0.001722
    649    8.91041    1.11722    1.93749        -4.382461       4.383956       0.001495

 NET CHARGES:
 -------------------------------------
 ATOM                CHARGE    E.S.D.
 -------------------------------------
 C                  -0.1327    0.2966
 H                   0.0336    0.0209
 C                   0.0892    0.3390
 C                  -0.2511    0.2719
 C                   0.7382    0.0573
 O                  -0.5184    0.0084
 O                  -0.6479    0.0195
 H                  -0.0008    0.0252
 H                   0.0040    0.0244
 H                   0.0888    0.0200
 H                   0.0890    0.0191
 H                   0.0337    0.0214
 H                   0.0373    0.0201
 H                   0.4369    0.0075
 -------------------------------------

 RMS DEVIATION IS            0.902 KCAL/MOLE
 RELATIVE RMS DEVIATION IS  12.603 %

 MULTIPOLE MOMENTS:
 ---------------------------------------------------------
 STATUS  ACTUAL VALUE       QUANTITY        FITTED VALUE 
 ---------------------------------------------------------
 FIXED       0.0000       TOTAL CHARGE         0.0000
             1.2138 D    DIPOLE MOMENT         1.2377 D
 FREE       -0.0347 D          DX             -0.0550 D
 FREE        1.0337 D          DY              1.0509 D
 FREE        0.6352 D          DZ              0.6515 D
 FREE        0.0000 BU         QXX             7.6190 BU
 FREE        0.0000 BU         QYY            -5.6976 BU
 FREE        0.0000 BU         QZZ            -1.9214 BU
 FREE        0.0000 BU         QXY             0.5269 BU
 FREE        0.0000 BU         QXZ             0.4995 BU
 FREE        0.0000 BU         QYZ            -3.8933 BU
 ---------------------------------------------------------
 ...... END OF PROPERTY EVALUATION ......
 CPU     0: STEP CPU TIME=     0.10 TOTAL CPU TIME=          6.8 (      0.1 MIN)
 TOTAL WALL CLOCK TIME=          9.3 SECONDS, CPU UTILIZATION IS    72.89%
               580000  WORDS OF DYNAMIC MEMORY USED
 EXECUTION OF GAMESS TERMINATED NORMALLY Sun May 17 12:25:46 2020
 DDI: 263640 bytes (0.3 MB / 0 MWords) used by master data server.
Note: The following floating-point exceptions are signalling: IEEE_UNDERFLOW_FLAGNote: The following floating-point exceptions are signalling: IEEE_UNDERFLOW_FLAGNote: The following floating-point exceptions are signalling: IEEE_UNDERFLOW_FLAGNote: The following floating-point exceptions are signalling: IEEE_UNDERFLOW_FLAG IEEE_DENORMAL

 ----------------------------------------
 CPU timing information for all processes
 ========================================
 0: 6.524 + 0.236 = 6.761
 1: 6.89 + 0.48 = 6.138
 2: 5.612 + 0.25 = 5.637
 3: 6.317 + 0.64 = 6.382
 4: 5.658 + 0.21 = 5.680
 5: 5.395 + 0.17 = 5.412
 ----------------------------------------
 IEEE_DENORMALNote: The following floating-point exceptions are signalling: IEEE_DENORMAL IEEE_DENORMAL
Note: The following floating-point exceptions are signalling: IEEE_UNDERFLOW_FLAG
 IEEE_UNDERFLOW_FLAG IEEE_DENORMAL
 IEEE_DENORMAL

 ddikick.x: exited gracefully.
unset echo
----- accounting info -----
Files used on the master node pietdev were:
-rwxr-xr-x 1 piet piet      976 mei 17 12:25 /home/piet/scr/glutamaat_charge_chelpg.F05*
-rw-r--r-- 1 piet piet 50790400 mei 17 12:25 /home/piet/scr/glutamaat_charge_chelpg.F10
ls: No match.
ls: No match.
ls: No match.
zo 17 mei 2020 12:25:49 CEST
0.114u 0.025s 0:12.42 1.0%	0+0k 0+8io 0pf+0w
