----- GAMESS execution script 'rungms' -----
This job is running on host pietdev
under operating system Linux at zo 17 mei 2020 12:26:12 CEST
Available scratch disk space (Kbyte units) at beginning of the job is
Filesystem     1K-blocks     Used Available Use% Mounted on
/dev/sda2      244568380 30347228 201728096  14% /
GAMESS temporary binary files will be written to /home/piet/scr
GAMESS supplementary output files will be written to /home/piet/gamess/scr
Copying input file glutamaat_fukui_acid.inp to your run's scratch directory...
cp glutamaat_fukui_acid.inp /home/piet/scr/glutamaat_fukui_acid.F05
unset echo
 
Assuming a single but multicore node.
 
/home/piet/gamess/ddikick.x /home/piet/gamess/gamess.03.x glutamaat_fukui_acid -ddi 1 6 pietdev:cpus=6 -scr /home/piet/scr

 Distributed Data Interface kickoff program.
 Initiating 6 compute processes on 1 nodes to run the following command:
 /home/piet/gamess/gamess.03.x glutamaat_fukui_acid 

          ******************************************************
          *         GAMESS VERSION = 30 SEP 2019 (R2)          *
          *             FROM IOWA STATE UNIVERSITY             *
          * M.W.SCHMIDT, K.K.BALDRIDGE, J.A.BOATZ, S.T.ELBERT, *
          *   M.S.GORDON, J.H.JENSEN, S.KOSEKI, N.MATSUNAGA,   *
          *          K.A.NGUYEN, S.J.SU, T.L.WINDUS,           *
          *       TOGETHER WITH M.DUPUIS, J.A.MONTGOMERY       *
          *         J.COMPUT.CHEM.  14, 1347-1363(1993)        *
          **************** 64 BIT LINUX VERSION ****************

  SINCE 1993, STUDENTS AND POSTDOCS WORKING AT IOWA STATE UNIVERSITY
  AND ALSO IN THEIR VARIOUS JOBS AFTER LEAVING ISU HAVE MADE IMPORTANT
  CONTRIBUTIONS TO THE CODE:
     IVANA ADAMOVIC, CHRISTINE AIKENS, YURI ALEXEEV, POOJA ARORA,
     ANDREY ASADCHEV, ROB BELL, PRADIPTA BANDYOPADHYAY, JONATHAN BENTZ,
     COLLEEN BERTONI, BRETT BODE, KURT BRORSEN, CALEB CARLIN, GALINA CHABAN,
     WEI CHEN, CHEOL HO CHOI, PAUL DAY, ALBERT DEFUSCO, NUWAN DESILVA,
     TIM DUDLEY, DMITRI FEDOROV, ALEX FINDLATER, GRAHAM FLETCHER, 
     MARK FREITAG, KURT GLAESEMANN, EMILIE B GUIDEZ, ANASTASIA GUNINA, 
     DAN KEMP, SAROM SOK LEANG, GRANT MERRILL,
     NORIYUKI MINEZAWA, JONATHAN MULLIN,
     TAKESHI NAGATA, SEAN NEDD, HEATHER NETZLOFF, BOSILJKA NJEGIC, RYAN OLSON,
     MIKE PAK, BUU PHAM, DAVID POOLE,
     SPENCER PRUITT, LUKE ROSKOP, TOSAPORN SATTASATHUCHANA,
     JIM SHOEMAKER, LYUDMILA SLIPCHENKO,
     TONY SMITH, JIE SONG, TETSUYA TAKETSUGU, SIMON WEBB,
     JORGE LUIS GALVEZ VALLEJO, PENG XU, SOOHAENG YOO,
     FEDERICO ZAHARIEV

  ADDITIONAL CODE HAS BEEN PROVIDED BY COLLABORATORS IN OTHER GROUPS:
     IOWA STATE UNIVERSITY:
          JOE IVANIC, AARON WEST, LAIMUTIS BYTAUTAS, KLAUS RUEDENBERG
     UNIVERSITY OF TOKYO: KIMIHIKO HIRAO, TAKAHITO NAKAJIMA,
          TAKAO TSUNEDA, MUNEAKI KAMIYA, SUSUMU YANAGISAWA,
          KIYOSHI YAGI, MAHITO CHIBA, SEIKEN TOKURA, NAOAKI KAWAKAMI
     UNIVERSITY OF AARHUS: FRANK JENSEN
     UNIVERSITY OF IOWA: VISVALDAS KAIRYS, HUI LI
     NATIONAL INST. OF STANDARDS AND TECHNOLOGY: WALT STEVENS, DAVID GARMER
     UNIVERSITY OF PISA: BENEDETTA MENNUCCI, JACOPO TOMASI
     UNIVERSITY OF MEMPHIS: HENRY KURTZ, PRAKASHAN KORAMBATH
     UNIVERSITY OF ALBERTA: TOBY ZENG, MARIUSZ KLOBUKOWSKI
     UNIVERSITY OF NEW ENGLAND: MARK SPACKMAN
     MIE UNIVERSITY: HIROAKI UMEDA
     NAT. INST. OF ADVANCED INDUSTRIAL SCIENCE AND TECHNOLOGY: KAZUO KITAURA
     MICHIGAN STATE UNIVERSITY:
          KAROL KOWALSKI, MARTA WLOCH, JEFFREY GOUR, JESSE LUTZ,
          WEI LI, JUN SHEN, J. EMILIANO DEUSTUA, PIOTR PIECUCH
     UNIVERSITY OF MINNESOTA:
          ANDREW SAND, PRACHI SHARMA, YINAN SHU
     UNIVERSITY OF SILESIA: MONIKA MUSIAL, STANISLAW KUCHARSKI
     FACULTES UNIVERSITAIRES NOTRE-DAME DE LA PAIX:
          OLIVIER QUINET, BENOIT CHAMPAGNE
     UNIVERSITY OF CALIFORNIA - SANTA BARBARA: BERNARD KIRTMAN
     INSTITUTE FOR MOLECULAR SCIENCE:
          KAZUYA ISHIMURA, MICHIO KATOUDA, AND SHIGERU NAGASE
     UNIVERSITY OF NOTRE DAME: ANNA POMOGAEVA, DAN CHIPMAN
     KYUSHU UNIVERSITY:
          HARUYUKI NAKANO,
          FENG LONG GU, JACEK KORCHOWIEC, MARCIN MAKOWSKI, AND YURIKO AOKI,
          HIROTOSHI MORI AND EISAKU MIYOSHI
     PENNSYLVANIA STATE UNIVERSITY:
          TZVETELIN IORDANOV, CHET SWALINA, JONATHAN SKONE,
          SHARON HAMMES-SCHIFFER
     WASEDA UNIVERSITY:
          MASATO KOBAYASHI, TOMOKO AKAMA, TSUGUKI TOUMA,
          TAKESHI YOSHIKAWA, YASUHIRO IKABATA, JUNJI SEINO,
          YUYA NAKAJIMA, HIROMI NAKAI
     NANJING UNIVERSITY: SHUHUA LI
     UNIVERSITY OF NEBRASKA:
          PEIFENG SU, DEJUN SI, NANDUN THELLAMUREGE, YALI WANG, HUI LI
     UNIVERSITY OF ZURICH: ROBERTO PEVERATI, KIM BALDRIDGE
     N. COPERNICUS UNIVERSITY AND JACKSON STATE UNIVERSITY:
          MARIA BARYSZ
     UNIVERSITY OF COPENHAGEN: Jimmy Kromann, CASPER STEINMANN
     TOKYO INSTITUTE OF TECHNOLOGY: HIROYA NAKATA
     NAGOYA UNIVERSITY: YOSHIO NISHIMOTO, STEPHAN IRLE
     MOSCOW STATE UNIVERSITY: VLADIMIR MIRONOV
     A.N.NESMEYANOV INSTITUTE OF ORGANOELEMENT COMPOUNDS OF RUSSIAN ACADEMY OF SCIENCES:
          IGOR S. GERASIMOV
     JOHANNES KEPLER UNIVERSITY LINZ:
          CHRISTIAN FRIEDL


 PARALLEL VERSION RUNNING ON        6 PROCESSORS IN        1 NODES.

 EXECUTION OF GAMESS BEGUN Sun May 17 12:26:12 2020

            ECHO OF THE FIRST FEW INPUT CARDS -
 INPUT CARD> $BASIS GBASIS=N21 NGAUSS=3 $END                                                
 INPUT CARD> $CONTRL SCFTYP=UHF MAXIT=60 MULT=2 ICHARG=-1 $END                              
 INPUT CARD> $SYSTEM MEMDDI=1000 MWORDS=30 $END                                             
 INPUT CARD> $SCF DIRSCF=.TRUE. $END                                                        
 INPUT CARD> $STATPT OPTTOL=0.0001 NSTEP=999 $END                                           
 INPUT CARD> $DATA                                                                          
 INPUT CARD>                                                                                
 INPUT CARD>C1                                                                              
 INPUT CARD>C 6.0000000 1.1578927087 0.4656343449 0.4356959481                              
 INPUT CARD>H 1.0000000 1.2071208368 0.5566764538 1.5276152982                              
 INPUT CARD>C 6.0000000 -0.1568949435 -0.2113718528 0.0004690418                            
 INPUT CARD>C 6.0000000 -1.3913920547 0.5872878379 0.4480183962                             
 INPUT CARD>C 6.0000000 -2.6713764305 -0.0810582444 0.0005219824                            
 INPUT CARD>O 8.0000000 -2.7737379010 -1.1178836572 -0.6445685671                           
 INPUT CARD>O 8.0000000 -3.7692379822 0.6487863844 0.4215848032                             
 INPUT CARD>H 1.0000000 -0.1834244358 -0.3210318089 -1.0895682611                           
 INPUT CARD>H 1.0000000 -0.2184490105 -1.2226526579 0.4182037839                            
 INPUT CARD>H 1.0000000 -1.4246121562 0.6920897799 1.5401206851                             
 INPUT CARD>H 1.0000000 -1.3760519859 1.6050681378 0.0368904810                             
 INPUT CARD>H 1.0000000 2.0226213257 -0.1187700457 0.1029875038                             
 INPUT CARD>H 1.0000000 1.2385120950 1.4713597068 0.0058630860                              
 INPUT CARD>H 1.0000000 -4.5922500659 0.1793956214 0.1074558186                             
 INPUT CARD> $END                                                                           
   30000000 WORDS OF MEMORY AVAILABLE

     BASIS OPTIONS
     -------------
     GBASIS=N21          IGAUSS=       3      POLAR=NONE    
     NDFUNC=       0     NFFUNC=       0     DIFFSP=       F
     NPFUNC=       0      DIFFS=       F     BASNAM=        


     RUN TITLE
     ---------
                                                                                 

 THE POINT GROUP OF THE MOLECULE IS C1      
 THE ORDER OF THE PRINCIPAL AXIS IS     0

 ATOM      ATOMIC                      COORDINATES (BOHR)
           CHARGE         X                   Y                   Z
 C           6.0     2.1880999426        0.8799213223        0.8233459559
 H           1.0     2.2811276156        1.0519659615        2.8867743283
 C           6.0    -0.2964884521       -0.3994348833        0.0008863605
 C           6.0    -2.6293497249        1.1098130896        0.8466320063
 C           6.0    -5.0481694637       -0.1531778710        0.0009864037
 O           8.0    -5.2416045946       -2.1124937983       -1.2180579721
 O           8.0    -7.1228269689        1.2260284911        0.7966797586
 H           1.0    -0.3466219231       -0.6066621522       -2.0589854584
 H           1.0    -0.4128087721       -2.3104785016        0.7902905586
 H           1.0    -2.6921266140        1.3078600429        2.9104060829
 H           1.0    -2.6003611982        3.0331389721        0.0697129006
 H           1.0     3.8222000825       -0.2244428419        0.1946181623
 H           1.0     2.3404484920        2.7804666752        0.0110796260
 H           1.0    -8.6780942916        0.3390085678        0.2030620529

          INTERNUCLEAR DISTANCES (ANGS.)
          ------------------------------

                1 C          2 H          3 C          4 C          5 C     

   1 C       0.0000000    1.0968135 *  1.5415662 *  2.5522156 *  3.8924994  
   2 H       1.0968135 *  0.0000000    2.1869186 *  2.8140248 *  4.2168069  
   3 C       1.5415662 *  2.1869186 *  0.0000000    1.5369258 *  2.5178560 *
   4 C       2.5522156 *  2.8140248 *  1.5369258 *  0.0000000    1.5117207 *
   5 C       3.8924994    4.2168069    2.5178560 *  1.5117207 *  0.0000000  
   6 O       4.3740393    4.8342291    2.8435373 *  2.4519862 *  1.2254088 *
   7 O       4.9305538    5.0986209    3.7371423    2.3787879 *  1.3839317 *
   8 H       2.1781658 *  3.0908959    1.0958606 *  2.1560156 *  2.7268643 *
   9 H       2.1782873 *  2.5355582 *  1.0958924 *  2.1569814 *  2.7376174 *
  10 H       2.8178658 *  2.6352441 *  2.1894924 *  1.0976222 *  2.1266272 *
  11 H       2.8068186 *  3.1613553    2.1879499 *  1.0977879 *  2.1265489 *
  12 H       1.0954355 *  1.7750587 *  2.1838902 *  3.5032915    4.6952674  
  13 H       1.0966947 *  1.7757704 *  2.1860410 *  2.8095338 *  4.2068109  
  14 H       5.7666122    5.9826329    4.4538209    3.2446650    1.9413981 *

                6 O          7 O          8 H          9 H         10 H     

   1 C       4.3740393    4.9305538    2.1781658 *  2.1782873 *  2.8178658 *
   2 H       4.8342291    5.0986209    3.0908959    2.5355582 *  2.6352441 *
   3 C       2.8435373 *  3.7371423    1.0958606 *  1.0958924 *  2.1894924 *
   4 C       2.4519862 *  2.3787879 *  2.1560156 *  2.1569814 *  1.0976222 *
   5 C       1.2254088 *  1.3839317 *  2.7268643 *  2.7376174 *  2.1266272 *
   6 O       0.0000000    2.2910317 *  2.7464015 *  2.7694698 *  3.1414982  
   7 O       2.2910317 *  0.0000000    4.0102606    4.0137760    2.5981278 *
   8 H       2.7464015 *  4.0102606    0.0000000    1.7571350 *  3.0793224  
   9 H       2.7694698 *  4.0137760    1.7571350 *  0.0000000    2.5258198 *
  10 H       3.1414982    2.5981278 *  3.0793224    2.5258198 *  0.0000000  
  11 H       3.1356624    2.6057252 *  2.5300456 *  3.0791962    1.7594285 *
  12 H       4.9560196    5.8511778    2.5158969 *  2.5179981 *  3.8218142  
  13 H       4.8192730    5.0918574    2.5366396 *  3.0903824    3.1707158  
  14 H       2.3570025 *  0.9981751 *  4.5957630    4.6035247    3.5141591  

               11 H         12 H         13 H         14 H     

   1 C       2.8068186 *  1.0954355 *  1.0966947 *  5.7666122  
   2 H       3.1613553    1.7750587 *  1.7757704 *  5.9826329  
   3 C       2.1879499 *  2.1838902 *  2.1860410 *  4.4538209  
   4 C       1.0977879 *  3.5032915    2.8095338 *  3.2446650  
   5 C       2.1265489 *  4.6952674    4.2068109    1.9413981 *
   6 O       3.1356624    4.9560196    4.8192730    2.3570025 *
   7 O       2.6057252 *  5.8511778    5.0918574    0.9981751 *
   8 H       2.5300456 *  2.5158969 *  2.5366396 *  4.5957630  
   9 H       3.0791962    2.5179981 *  3.0903824    4.6035247  
  10 H       1.7594285 *  3.8218142    3.1707158    3.5141591  
  11 H       0.0000000    3.8114259    2.6181646 *  3.5187287  
  12 H       3.8114259    0.0000000    1.7756050 *  6.6215894  
  13 H       2.6181646 *  1.7756050 *  0.0000000    5.9730461  
  14 H       3.5187287    6.6215894    5.9730461    0.0000000  

  * ... LESS THAN  3.000


     ATOMIC BASIS SET
     ----------------
 THE CONTRACTED PRIMITIVE FUNCTIONS HAVE BEEN UNNORMALIZED
 THE CONTRACTED BASIS FUNCTIONS ARE NOW NORMALIZED TO UNITY

  SHELL TYPE  PRIMITIVE        EXPONENT          CONTRACTION COEFFICIENT(S)

 C         

      1   S       1           172.2560000    0.061766907377
      1   S       2            25.9109000    0.358794042852
      1   S       3             5.5333500    0.700713083689

      2   L       4             3.6649800   -0.395895162119    0.236459946619
      2   L       5             0.7705450    1.215834355681    0.860618805716

      3   L       6             0.1958570    1.000000000000    1.000000000000

 H         

      4   S       7             5.4471780    0.156284978695
      4   S       8             0.8245472    0.904690876670

      5   S       9             0.1831916    1.000000000000

 C         

      6   S      10           172.2560000    0.061766907377
      6   S      11            25.9109000    0.358794042852
      6   S      12             5.5333500    0.700713083689

      7   L      13             3.6649800   -0.395895162119    0.236459946619
      7   L      14             0.7705450    1.215834355681    0.860618805716

      8   L      15             0.1958570    1.000000000000    1.000000000000

 C         

      9   S      16           172.2560000    0.061766907377
      9   S      17            25.9109000    0.358794042852
      9   S      18             5.5333500    0.700713083689

     10   L      19             3.6649800   -0.395895162119    0.236459946619
     10   L      20             0.7705450    1.215834355681    0.860618805716

     11   L      21             0.1958570    1.000000000000    1.000000000000

 C         

     12   S      22           172.2560000    0.061766907377
     12   S      23            25.9109000    0.358794042852
     12   S      24             5.5333500    0.700713083689

     13   L      25             3.6649800   -0.395895162119    0.236459946619
     13   L      26             0.7705450    1.215834355681    0.860618805716

     14   L      27             0.1958570    1.000000000000    1.000000000000

 O         

     15   S      28           322.0370000    0.059239393389
     15   S      29            48.4308000    0.351499960776
     15   S      30            10.4206000    0.707657921031

     16   L      31             7.4029400   -0.404453583190    0.244586106967
     16   L      32             1.5762000    1.221561761397    0.853955373466

     17   L      33             0.3736840    1.000000000000    1.000000000000

 O         

     18   S      34           322.0370000    0.059239393389
     18   S      35            48.4308000    0.351499960776
     18   S      36            10.4206000    0.707657921031

     19   L      37             7.4029400   -0.404453583190    0.244586106967
     19   L      38             1.5762000    1.221561761397    0.853955373466

     20   L      39             0.3736840    1.000000000000    1.000000000000

 H         

     21   S      40             5.4471780    0.156284978695
     21   S      41             0.8245472    0.904690876670

     22   S      42             0.1831916    1.000000000000

 H         

     23   S      43             5.4471780    0.156284978695
     23   S      44             0.8245472    0.904690876670

     24   S      45             0.1831916    1.000000000000

 H         

     25   S      46             5.4471780    0.156284978695
     25   S      47             0.8245472    0.904690876670

     26   S      48             0.1831916    1.000000000000

 H         

     27   S      49             5.4471780    0.156284978695
     27   S      50             0.8245472    0.904690876670

     28   S      51             0.1831916    1.000000000000

 H         

     29   S      52             5.4471780    0.156284978695
     29   S      53             0.8245472    0.904690876670

     30   S      54             0.1831916    1.000000000000

 H         

     31   S      55             5.4471780    0.156284978695
     31   S      56             0.8245472    0.904690876670

     32   S      57             0.1831916    1.000000000000

 H         

     33   S      58             5.4471780    0.156284978695
     33   S      59             0.8245472    0.904690876670

     34   S      60             0.1831916    1.000000000000

 TOTAL NUMBER OF BASIS SET SHELLS             =   34
 NUMBER OF CARTESIAN GAUSSIAN BASIS FUNCTIONS =   70
 NUMBER OF ELECTRONS                          =   49
 CHARGE OF MOLECULE                           =   -1
 SPIN MULTIPLICITY                            =    2
 NUMBER OF OCCUPIED ORBITALS (ALPHA)          =   25
 NUMBER OF OCCUPIED ORBITALS (BETA )          =   24
 TOTAL NUMBER OF ATOMS                        =   14
 THE NUCLEAR REPULSION ENERGY IS      236.4548771644

     $CONTRL OPTIONS
     ---------------
 SCFTYP=UHF          RUNTYP=ENERGY       EXETYP=RUN     
 MPLEVL=       0     CITYP =NONE         CCTYP =NONE         VBTYP =NONE    
 DFTTYP=NONE         TDDFT =NONE    
 MULT  =       2     ICHARG=      -1     NZVAR =       0     COORD =UNIQUE  
 PP    =NONE         RELWFN=NONE         LOCAL =NONE         NUMGRD=       F
 ISPHER=      -1     NOSYM =       0     MAXIT =      60     UNITS =ANGS    
 PLTORB=       F     MOLPLT=       F     AIMPAC=       F     FRIEND=        
 NPRINT=       7     IREST =       0     GEOM  =INPUT   
 NORMF =       0     NORMP =       0     ITOL  =      20     ICUT  =       9
 INTTYP=BEST         GRDTYP=BEST         QMTTOL= 1.0E-06

     $SYSTEM OPTIONS
     ---------------
  REPLICATED MEMORY=    30000000 WORDS (ON EVERY NODE).
 DISTRIBUTED MEMDDI=        1000 MILLION WORDS IN AGGREGATE,
 MEMDDI DISTRIBUTED OVER   6 PROCESSORS IS   166666666 WORDS/PROCESSOR.
 TOTAL MEMORY REQUESTED ON EACH PROCESSOR=   196666666 WORDS.
 TIMLIM=      525600.00 MINUTES, OR     365.0 DAYS.
 PARALL= T  BALTYP=  DLB     KDIAG=    0  COREFL= F
 MXSEQ2=     300 MXSEQ3=     150  mem10=         0

          ----------------
          PROPERTIES INPUT
          ----------------

     MOMENTS            FIELD           POTENTIAL          DENSITY
 IEMOM =       1   IEFLD =       0   IEPOT =       0   IEDEN =       0
 WHERE =COMASS     WHERE =NUCLEI     WHERE =NUCLEI     WHERE =NUCLEI  
 OUTPUT=BOTH       OUTPUT=BOTH       OUTPUT=BOTH       OUTPUT=BOTH    
 IEMINT=       0   IEFINT=       0                     IEDINT=       0
                                                       MORB  =       0
          EXTRAPOLATION IN EFFECT
          SOSCF IN EFFECT
          DIIS or SOSCF will be reset if energy rises
 ORBITAL PRINTING OPTION: NPREO=     1    70     2     1

     -------------------------------
     INTEGRAL TRANSFORMATION OPTIONS
     -------------------------------
     NWORD  =            0
     CUTOFF = 1.0E-09     MPTRAN =       0
     DIRTRF =       T     AOINTS =DUP     

          ----------------------
          INTEGRAL INPUT OPTIONS
          ----------------------
 NOPK  =       1 NORDER=       0 SCHWRZ=       T

     ------------------------------------------
     THE POINT GROUP IS C1 , NAXIS= 0, ORDER= 1
     ------------------------------------------

     DIMENSIONS OF THE SYMMETRY SUBSPACES ARE
 A   =   70

 ..... DONE SETTING UP THE RUN .....
 CPU     0: STEP CPU TIME=     0.02 TOTAL CPU TIME=          0.0 (      0.0 MIN)
 TOTAL WALL CLOCK TIME=          0.0 SECONDS, CPU UTILIZATION IS    66.67%

          ********************
          1 ELECTRON INTEGRALS
          ********************
 ...... END OF ONE-ELECTRON INTEGRALS ......
 CPU     0: STEP CPU TIME=     0.00 TOTAL CPU TIME=          0.0 (      0.0 MIN)
 TOTAL WALL CLOCK TIME=          0.0 SECONDS, CPU UTILIZATION IS    50.00%

          -------------
          GUESS OPTIONS
          -------------
          GUESS =HUCKEL            NORB  =       0          NORDER=       0
          MIX   =       F          PRTMO =       F          PUNMO =       F
          TOLZ  = 1.0E-08          TOLE  = 1.0E-05
          SYMDEN=       F          PURIFY=       F

 INITIAL GUESS ORBITALS GENERATED BY HUCKEL   ROUTINE.
 HUCKEL GUESS REQUIRES     51590 WORDS.

 SYMMETRIES FOR INITIAL GUESS ORBITALS FOLLOW.  ALPHA SET(S).
    25 ORBITALS ARE OCCUPIED (    6 CORE ORBITALS).
     7=A        8=A        9=A       10=A       11=A       12=A       13=A   
    14=A       15=A       16=A       17=A       18=A       19=A       20=A   
    21=A       22=A       23=A       24=A       25=A       26=A       27=A   
    28=A       29=A       30=A       31=A       32=A       33=A       34=A   
    35=A   

 SYMMETRIES FOR INITIAL GUESS ORBITALS FOLLOW.   BETA SET(S).
    24 ORBITALS ARE OCCUPIED (    6 CORE ORBITALS).
     7=A        8=A        9=A       10=A       11=A       12=A       13=A   
    14=A       15=A       16=A       17=A       18=A       19=A       20=A   
    21=A       22=A       23=A       24=A       25=A       26=A       27=A   
    28=A       29=A       30=A       31=A       32=A       33=A       34=A   
 ...... END OF INITIAL ORBITAL SELECTION ......
 CPU     0: STEP CPU TIME=     0.03 TOTAL CPU TIME=          0.0 (      0.0 MIN)
 TOTAL WALL CLOCK TIME=          0.1 SECONDS, CPU UTILIZATION IS    83.33%

                    ----------------------
                    AO INTEGRAL TECHNOLOGY
                    ----------------------
     S,P,L SHELL ROTATED AXIS INTEGRALS, REPROGRAMMED BY
        KAZUYA ISHIMURA (IMS) AND JOSE SIERRA (SYNSTAR).
     S,P,D,L SHELL ROTATED AXIS INTEGRALS PROGRAMMED BY
        KAZUYA ISHIMURA (INSTITUTE FOR MOLECULAR SCIENCE).
     S,P,D,F,G SHELL TO TOTAL QUARTET ANGULAR MOMENTUM SUM 5,
        ERIC PROGRAM BY GRAHAM FLETCHER (ELORET AND NASA ADVANCED
        SUPERCOMPUTING DIVISION, AMES RESEARCH CENTER).
     S,P,D,F,G,L SHELL GENERAL RYS QUADRATURE PROGRAMMED BY
        MICHEL DUPUIS (PACIFIC NORTHWEST NATIONAL LABORATORY).

          --------------------
          2 ELECTRON INTEGRALS
          --------------------

 DIRECT SCF METHOD SKIPS INTEGRAL STORAGE ON DISK.
 DIRECT TRANSFORMATION SKIPS AO INTEGRAL STORAGE ON DISK.
  ...... END OF TWO-ELECTRON INTEGRALS .....
 CPU     0: STEP CPU TIME=     0.01 TOTAL CPU TIME=          0.1 (      0.0 MIN)
 TOTAL WALL CLOCK TIME=          0.1 SECONDS, CPU UTILIZATION IS    85.71%

          ---------------------------
                  UHF SCF CALCULATION
          ---------------------------

     NUCLEAR ENERGY =       236.4548771644
     MAXIT = 60     NPUNCH=  2     MULT=  2
     EXTRAP=T  DAMP=F  SHIFT=F  RSTRCT=F  DIIS=F  SOSCF=T
     DENSITY MATRIX CONV=  2.00E-05
     SOSCF WILL OPTIMIZE    1125 ALPHA AND    1104 BETA ROTATION ANGLES.
     SOGTOL= 2.500E-01
     MEMORY REQUIRED FOR UHF/ROHF ITERS=    111269 WORDS.

 DIRECT SCF CALCULATION, SCHWRZ=T   FDIFF=T
 SCHWARZ INEQUALITY OVERHEAD:      2395 INTEGRALS, T=        0.00

                                                                                NONZERO     BLOCKS
 ITER EX      TOTAL ENERGY        E CHANGE  DENSITY CHANGE    ORB. GRAD       INTEGRALS    SKIPPED
   1  0     -303.2513745265  -303.2513745265   0.725878632   0.000000000        2285164      58783
          ---------------START SECOND ORDER SCF---------------
   2  1     -303.9777766583    -0.7264021318   0.155885080   0.081585904        2279147      61020
   3  2     -304.0233361487    -0.0455594905   0.098835596   0.054973550        2260861      64889
   4  3     -304.0437216862    -0.0203855374   0.024881899   0.003998833        2241580      68252
   5  4     -304.0442835376    -0.0005618514   0.009611116   0.002338635        2204489      71858
   6  5     -304.0443826552    -0.0000991177   0.004012487   0.000879498        2163361      75292
   7  6     -304.0444027615    -0.0000201062   0.002835050   0.000298264        2109233      79476
   8  7     -304.0444078619    -0.0000051004   0.001300409   0.000186600        2073840      81260
   9  8     -304.0444090754    -0.0000012135   0.000503366   0.000107928        2020136      85174
  10  9     -304.0444093338    -0.0000002584   0.000180807   0.000047939        1962516      89042
  11 10     -304.0444093698    -0.0000000360   0.000065127   0.000014962        1895919      92742
  12 11     -304.0444093765    -0.0000000067   0.000035303   0.000006047        1823577      97540
  13 12     -304.0444093779    -0.0000000015   0.000020139   0.000003046        1745565     101741
  14 13     -304.0444093781    -0.0000000002   0.000007801   0.000002072        1672573     105478
  15 14     -304.0444093782    -0.0000000001   0.000002085   0.000000504        1599329     109720

          -----------------
          DENSITY CONVERGED
          -----------------
     TIME TO FORM FOCK OPERATORS=       0.5 SECONDS (       0.0 SEC/ITER)
     FOCK TIME ON FIRST ITERATION=       0.0, LAST ITERATION=       0.0
     TIME TO SOLVE SCF EQUATIONS=       0.1 SECONDS (       0.0 SEC/ITER)

 FINAL UHF ENERGY IS     -304.0444093782 AFTER  15 ITERATIONS

          --------------------
          SPIN SZ   =    0.500
          S-SQUARED =    0.763
          --------------------

  ----- ALPHA SET ----- 

          ------------
          EIGENVECTORS
          ------------

                      1          2          3          4          5
                  -20.2088   -20.0903   -11.0186   -10.9953   -10.9614
                     A          A          A          A          A   
    1  C  1  S   -0.000099   0.000061   0.987527   0.003898   0.002374
    2  C  1  S   -0.000538   0.000227   0.101700  -0.001930  -0.000592
    3  C  1  X   -0.000232   0.000435   0.000121  -0.000535   0.000851
    4  C  1  Y    0.000048  -0.000025   0.000189  -0.000086  -0.000107
    5  C  1  Z    0.000019  -0.000006   0.000118  -0.000061  -0.000045
    6  C  1  S    0.004277  -0.003302  -0.080854   0.021000   0.000275
    7  C  1  X   -0.001345   0.000454   0.004504  -0.010730  -0.000352
    8  C  1  Y   -0.001534   0.001085   0.001506  -0.005055   0.000412
    9  C  1  Z   -0.000933   0.000674   0.001009  -0.003295   0.000252
   10  H  2  S   -0.000144   0.000037   0.000325  -0.001334   0.000038
   11  H  2  S    0.000127   0.000064   0.014357   0.000689  -0.000944
   12  C  3  S   -0.000040  -0.000103  -0.004665   0.987957   0.002893
   13  C  3  S   -0.000480  -0.000519  -0.002454   0.104373  -0.002104
   14  C  3  X    0.001083  -0.000741   0.000020   0.000304  -0.000658
   15  C  3  Y    0.000191  -0.000064  -0.000069   0.000245  -0.000035
   16  C  3  Z    0.000144  -0.000054  -0.000040   0.000152  -0.000032
   17  C  3  S   -0.002140   0.006630   0.019012  -0.092050   0.021964
   18  C  3  X   -0.004600   0.000964   0.010334   0.000580  -0.011014
   19  C  3  Y   -0.002665   0.003313   0.005179  -0.005810   0.006982
   20  C  3  Z   -0.001697   0.001972   0.003315  -0.003411   0.003848
   21  C  4  S    0.000055   0.000009  -0.002443  -0.003810   0.988036
   22  C  4  S   -0.000087   0.000106  -0.000980  -0.002946   0.105000
   23  C  4  X    0.000060   0.000510  -0.000991   0.000405   0.000358
   24  C  4  Y    0.000060  -0.000336  -0.000299   0.000008  -0.000044
   25  C  4  Z    0.000050  -0.000201  -0.000210   0.000022  -0.000024
   26  C  4  S   -0.001232   0.005233  -0.001149   0.022910  -0.097643
   27  C  4  X    0.003748  -0.009956   0.003201   0.010856   0.002257
   28  C  4  Y   -0.001893   0.004332   0.002728  -0.007015   0.007722
   29  C  4  Z   -0.001149   0.002464   0.001781  -0.003978   0.004843
   30  C  5  S   -0.000461   0.000216  -0.001522  -0.002294  -0.013653
   31  C  5  S   -0.000822   0.001576  -0.001180  -0.000684  -0.003920
   32  C  5  X   -0.001169  -0.000273  -0.000283  -0.000613   0.000035
   33  C  5  Y    0.000446  -0.001468  -0.000020   0.000008  -0.000246
   34  C  5  Z    0.000246  -0.000918  -0.000027  -0.000016  -0.000151
   35  C  5  S    0.015284   0.015697   0.004977  -0.001896   0.026503
   36  C  5  X   -0.013958  -0.003868   0.004043   0.000079   0.016435
   37  C  5  Y    0.010373  -0.024261   0.000077   0.000046   0.005329
   38  C  5  Z    0.006034  -0.015138   0.000178   0.000035   0.003732
   39  O  6  S   -0.000588   0.983624   0.000010  -0.000014   0.000055
   40  O  6  S   -0.000238   0.100915   0.000029  -0.000163   0.000246
   41  O  6  X   -0.000684   0.000209  -0.000004  -0.000078   0.000354
   42  O  6  Y    0.000001   0.003864  -0.000002  -0.000080  -0.000130
   43  O  6  Z   -0.000018   0.002398  -0.000002  -0.000058  -0.000070
   44  O  6  S    0.001845  -0.057785  -0.000667   0.000567  -0.001705
   45  O  6  X    0.004295  -0.000760  -0.000453   0.000036  -0.003012
   46  O  6  Y   -0.000563  -0.013726  -0.000254   0.000421  -0.000660
   47  O  6  Z   -0.000230  -0.008522  -0.000171   0.000278  -0.000493
   48  O  7  S    0.983562   0.000555  -0.000019  -0.000041   0.000001
   49  O  7  S    0.099068  -0.000200  -0.000198  -0.000430  -0.000324
   50  O  7  X    0.000778  -0.000604  -0.000059  -0.000301  -0.000493
   51  O  7  Y   -0.003075  -0.000582   0.000045  -0.000070   0.000126
   52  O  7  Z   -0.001883  -0.000378   0.000028  -0.000050   0.000065
   53  O  7  S   -0.049260   0.002914   0.000762   0.001176   0.000075
   54  O  7  X   -0.005826   0.003732   0.000221   0.001399   0.000595
   55  O  7  Y    0.008557   0.003289  -0.000315   0.000159  -0.000697
   56  O  7  Z    0.005135   0.002146  -0.000194   0.000130  -0.000415
   57  H  8  S   -0.000398   0.000004  -0.001122   0.000994  -0.001364
   58  H  8  S   -0.000336   0.000098   0.000809   0.014455   0.000956
   59  H  9  S   -0.000390   0.000026  -0.001122   0.000985  -0.001355
   60  H  9  S   -0.000373   0.000099   0.000834   0.014429   0.001003
   61  H 10  S    0.000379  -0.000575  -0.000160  -0.001322   0.001101
   62  H 10  S    0.000124  -0.001104  -0.001358   0.000763   0.014372
   63  H 11  S    0.000369  -0.000537  -0.000165  -0.001328   0.001118
   64  H 11  S    0.000033  -0.001051  -0.001330   0.000722   0.014407
   65  H 12  S   -0.000311   0.000209   0.000170  -0.001091  -0.000229
   66  H 12  S   -0.000439   0.000814   0.013754   0.000128   0.001552
   67  H 13  S   -0.000140   0.000034   0.000324  -0.001337   0.000045
   68  H 13  S    0.000138   0.000084   0.014369   0.000667  -0.000959
   69  H 14  S    0.003214   0.001381  -0.000116   0.000193   0.000051
   70  H 14  S    0.003827  -0.000612   0.000519   0.000442   0.001822

                      6          7          8          9         10
                  -10.9485    -1.1464    -1.0418    -0.8900    -0.7723
                     A          A          A          A          A   
    1  C  1  S    0.001252  -0.000698  -0.002839  -0.136763  -0.135036
    2  C  1  S   -0.001040   0.002368   0.001036   0.136019   0.122547
    3  C  1  X    0.000318  -0.001189  -0.002841  -0.040788   0.035323
    4  C  1  Y   -0.000181  -0.000193  -0.000589  -0.017524   0.004469
    5  C  1  Z   -0.000106  -0.000139  -0.000432  -0.011446   0.003502
    6  C  1  S    0.004500  -0.006095   0.023297   0.339586   0.433504
    7  C  1  X   -0.003232   0.004964  -0.005877   0.005463   0.006392
    8  C  1  Y    0.000148   0.001919  -0.005619   0.000857  -0.002998
    9  C  1  Z    0.000028   0.001224  -0.003488   0.000630  -0.001571
   10  H  2  S   -0.000418   0.000781   0.000641   0.069649   0.081894
   11  H  2  S   -0.000347  -0.000190  -0.000059   0.005902   0.018186
   12  C  3  S    0.002306  -0.005016  -0.008793  -0.148394   0.028025
   13  C  3  S   -0.000530   0.006521   0.010416   0.142099  -0.028574
   14  C  3  X    0.001036  -0.006194  -0.002436   0.016707   0.111132
   15  C  3  Y    0.000129   0.000888   0.001594   0.031230  -0.005380
   16  C  3  Z    0.000104   0.000337   0.000814   0.019035  -0.000541
   17  C  3  S   -0.000173   0.008377  -0.009591   0.376059  -0.076920
   18  C  3  X   -0.004314   0.009168  -0.012744   0.015199  -0.000091
   19  C  3  Y   -0.000488   0.001777  -0.017457   0.012458  -0.002985
   20  C  3  Z   -0.000375   0.001320  -0.010566   0.007788  -0.001788
   21  C  4  S    0.012996  -0.020627  -0.011232  -0.092613   0.149227
   22  C  4  S   -0.000799   0.019887   0.009971   0.090718  -0.136547
   23  C  4  X    0.000718  -0.018010  -0.002938   0.040526   0.021384
   24  C  4  Y    0.000478  -0.008093  -0.010801  -0.019585   0.011516
   25  C  4  Z    0.000311  -0.005483  -0.006735  -0.010779   0.007569
   26  C  4  S    0.019215   0.016735   0.009543   0.222447  -0.433427
   27  C  4  X   -0.014752   0.008402   0.039254  -0.008906  -0.009721
   28  C  4  Y   -0.005692   0.005059  -0.018423  -0.007602   0.010844
   29  C  4  Z   -0.003918   0.003346  -0.010569  -0.004918   0.006331
   30  C  5  S    0.986120  -0.111953  -0.064720  -0.011115   0.049770
   31  C  5  S    0.096196   0.121520   0.067137   0.017770  -0.057806
   32  C  5  X    0.000265  -0.059781   0.035539   0.037283  -0.077509
   33  C  5  Y   -0.000068  -0.015529  -0.138515   0.028809  -0.061351
   34  C  5  Z   -0.000043  -0.011333  -0.084812   0.018890  -0.040077
   35  C  5  S   -0.046531   0.123008   0.084578   0.000982  -0.097833
   36  C  5  X   -0.016203   0.042605   0.000402  -0.011988  -0.016015
   37  C  5  Y   -0.012343   0.026144   0.046359   0.001373  -0.026211
   38  C  5  Z   -0.008064   0.017364   0.028707   0.000495  -0.016669
   39  O  6  S    0.000252  -0.102073  -0.191503   0.025946  -0.037526
   40  O  6  S    0.001861   0.093034   0.176297  -0.024131   0.035045
   41  O  6  X   -0.000581  -0.000847   0.013953   0.007707  -0.018313
   42  O  6  Y   -0.000344   0.053268   0.075465  -0.005984  -0.001538
   43  O  6  Z   -0.000227   0.032971   0.047147  -0.003486  -0.001446
   44  O  6  S   -0.005700   0.315503   0.616745  -0.085343   0.129204
   45  O  6  X    0.002988  -0.013000   0.014456   0.008672  -0.014448
   46  O  6  Y   -0.005084   0.057252   0.080886  -0.007009   0.001046
   47  O  6  Z   -0.003077   0.035089   0.050488  -0.004100   0.000245
   48  O  7  S    0.000107  -0.187262   0.130457   0.007868  -0.022136
   49  O  7  S    0.001502   0.171054  -0.119237  -0.005951   0.018353
   50  O  7  X    0.000109   0.014896   0.010592   0.011016  -0.048476
   51  O  7  Y   -0.000943  -0.054751   0.020326   0.004633  -0.008627
   52  O  7  Z   -0.000580  -0.033505   0.012897   0.003173  -0.006693
   53  O  7  S    0.000991   0.585490  -0.442975  -0.031196   0.088957
   54  O  7  X    0.001094   0.017672  -0.008089   0.003682  -0.031874
   55  O  7  Y    0.004167  -0.076867   0.024983   0.006123  -0.009837
   56  O  7  Z    0.002606  -0.047140   0.015266   0.003912  -0.006988
   57  H  8  S   -0.000509   0.002868   0.003591   0.069206  -0.017912
   58  H  8  S    0.000393   0.001103   0.002161  -0.002618  -0.001698
   59  H  9  S   -0.000501   0.002805   0.003529   0.069243  -0.017859
   60  H  9  S    0.000346   0.001069   0.001679  -0.002404  -0.001874
   61  H 10  S   -0.001470   0.006875   0.004672   0.044064  -0.081304
   62  H 10  S    0.002567  -0.002609  -0.002252   0.002690  -0.011596
   63  H 11  S   -0.001471   0.006832   0.004630   0.044182  -0.081125
   64  H 11  S    0.002583  -0.002620  -0.002473   0.002783  -0.011543
   65  H 12  S   -0.000118   0.000630   0.000353   0.067946   0.090756
   66  H 12  S    0.001100  -0.001182  -0.003123   0.003097   0.029806
   67  H 13  S   -0.000409   0.000774   0.000652   0.069695   0.081835
   68  H 13  S   -0.000358  -0.000195  -0.000053   0.005929   0.018059
   69  H 14  S    0.001132   0.076492  -0.063574  -0.008805   0.034810
   70  H 14  S    0.000842   0.024319  -0.016949  -0.009389   0.025363

                     11         12         13         14         15
                   -0.6511    -0.5308    -0.4698    -0.4279    -0.4075
                     A          A          A          A          A   
    1  C  1  S    0.078029  -0.000944  -0.000019   0.001941   0.000183
    2  C  1  S   -0.068140   0.002053   0.000008  -0.003579  -0.000146
    3  C  1  X   -0.093923   0.033380  -0.003765   0.239323  -0.055875
    4  C  1  Y   -0.066793  -0.063440  -0.116093  -0.160374  -0.167980
    5  C  1  Z   -0.042051  -0.036948   0.193762  -0.090959  -0.102203
    6  C  1  S   -0.304694  -0.014358   0.000127   0.002179  -0.004995
    7  C  1  X   -0.035046   0.034597  -0.002967   0.183233  -0.055583
    8  C  1  Y   -0.030913  -0.039501  -0.091587  -0.134756  -0.137450
    9  C  1  Z   -0.019228  -0.022720   0.152619  -0.076760  -0.083778
   10  H  2  S   -0.078830  -0.025367   0.126319  -0.070957  -0.084914
   11  H  2  S   -0.041392  -0.024667   0.113383  -0.063607  -0.081975
   12  C  3  S   -0.141019  -0.024425   0.000140   0.026378  -0.005143
   13  C  3  S    0.120940   0.022919  -0.000117  -0.021136   0.002175
   14  C  3  X   -0.001244   0.050763  -0.004859  -0.023450   0.165419
   15  C  3  Y   -0.071020  -0.104305  -0.119696  -0.110895   0.022728
   16  C  3  Z   -0.042312  -0.061189   0.199740  -0.067786   0.017977
   17  C  3  S    0.521597   0.105541  -0.000723  -0.111051   0.017649
   18  C  3  X    0.005165   0.054906  -0.003850  -0.018171   0.107594
   19  C  3  Y   -0.017293  -0.062114  -0.091858  -0.091631   0.020307
   20  C  3  Z   -0.010201  -0.036041   0.153632  -0.055932   0.015245
   21  C  4  S    0.071660   0.066645  -0.000249  -0.032931  -0.001116
   22  C  4  S   -0.063517  -0.056788   0.000197   0.027125  -0.002418
   23  C  4  X    0.101186  -0.129550  -0.003638  -0.092311   0.030433
   24  C  4  Y   -0.049184  -0.085693  -0.080196  -0.000207   0.184772
   25  C  4  Z   -0.026569  -0.055337   0.134403  -0.002001   0.111740
   26  C  4  S   -0.252452  -0.257166   0.001167   0.122532   0.042772
   27  C  4  X    0.010858  -0.061978  -0.002631  -0.040702  -0.012163
   28  C  4  Y   -0.014678  -0.055142  -0.053903   0.001289   0.146136
   29  C  4  Z   -0.008372  -0.034699   0.090269   0.000036   0.087449
   30  C  5  S    0.063681  -0.115753   0.000325   0.021216   0.047321
   31  C  5  S   -0.069293   0.124805  -0.000373  -0.025878  -0.056601
   32  C  5  X   -0.037665  -0.027476  -0.002831   0.141435  -0.156758
   33  C  5  Y   -0.060594   0.078887  -0.044887  -0.008291   0.068430
   34  C  5  Z   -0.038191   0.048640   0.072730  -0.000933   0.034556
   35  C  5  S   -0.156678   0.340321  -0.001000  -0.046445  -0.140068
   36  C  5  X   -0.024343   0.030536  -0.002219   0.090525  -0.121850
   37  C  5  Y   -0.037913   0.070946  -0.033365   0.009095  -0.026188
   38  C  5  Z   -0.023989   0.045063   0.053231   0.008363  -0.022500
   39  O  6  S   -0.022854   0.054271  -0.000389  -0.011041  -0.050746
   40  O  6  S    0.021359  -0.048352   0.000344   0.008063   0.045195
   41  O  6  X   -0.004874   0.008516  -0.001823   0.068928  -0.107336
   42  O  6  Y   -0.015229   0.058508  -0.023399  -0.031273  -0.089852
   43  O  6  Z   -0.009437   0.036683   0.037004  -0.017311  -0.060929
   44  O  6  S    0.084427  -0.216626   0.001495   0.057653   0.201514
   45  O  6  X   -0.000536   0.000920  -0.001571   0.064336  -0.099006
   46  O  6  Y   -0.013260   0.051603  -0.020241  -0.028634  -0.092165
   47  O  6  Z   -0.008144   0.032188   0.031948  -0.015815  -0.061940
   48  O  7  S   -0.022676   0.022401   0.000021  -0.009478  -0.010684
   49  O  7  S    0.019431  -0.020789  -0.000005   0.010444   0.009258
   50  O  7  X   -0.092598   0.244365  -0.000846  -0.147616   0.154475
   51  O  7  Y   -0.001619  -0.031165  -0.024415   0.067013   0.013822
   52  O  7  Z   -0.003531  -0.012166   0.039513   0.037462   0.010286
   53  O  7  S    0.093543  -0.094622  -0.000081   0.034315   0.058036
   54  O  7  X   -0.077017   0.227641  -0.000801  -0.156650   0.171764
   55  O  7  Y   -0.001310  -0.039234  -0.024381   0.074983   0.020333
   56  O  7  Z   -0.002909  -0.017643   0.039583   0.042164   0.014641
   57  H  8  S    0.112484   0.059053  -0.120554   0.031894  -0.013431
   58  H  8  S    0.044873   0.035084  -0.093631   0.036745  -0.008331
   59  H  9  S    0.112769   0.059103   0.120677   0.031032  -0.012882
   60  H  9  S    0.045198   0.035873   0.094382   0.035728  -0.008400
   61  H 10  S   -0.063125  -0.084987   0.084443   0.024887   0.087543
   62  H 10  S   -0.028490  -0.058142   0.077999   0.013489   0.087858
   63  H 11  S   -0.063170  -0.085823  -0.083260   0.023684   0.088899
   64  H 11  S   -0.028623  -0.058735  -0.077040   0.012158   0.089350
   65  H 12  S   -0.066096   0.046327   0.000076   0.219571   0.059113
   66  H 12  S   -0.031309   0.037737   0.000013   0.222589   0.063527
   67  H 13  S   -0.078876  -0.025829  -0.126036  -0.071409  -0.084748
   68  H 13  S   -0.041405  -0.025166  -0.112947  -0.063927  -0.081563
   69  H 14  S    0.058491  -0.137907  -0.000163   0.067586  -0.092112
   70  H 14  S    0.043037  -0.121486  -0.000112   0.074342  -0.083352

                     16         17         18         19         20
                   -0.4012    -0.3794    -0.3396    -0.3271    -0.2933
                     A          A          A          A          A   
    1  C  1  S   -0.000063   0.001500  -0.000576   0.028995  -0.007786
    2  C  1  S    0.000044  -0.003504   0.000441  -0.022870   0.005533
    3  C  1  X    0.003986  -0.005306  -0.008037   0.201313  -0.128244
    4  C  1  Y    0.110636   0.103112  -0.098805   0.148805   0.057704
    5  C  1  Z   -0.184312   0.063471   0.154450   0.098440   0.031400
    6  C  1  S    0.000404   0.006697   0.002926  -0.149778   0.038289
    7  C  1  X    0.003425  -0.008013  -0.007544   0.184807  -0.132349
    8  C  1  Y    0.096080   0.081680  -0.090766   0.145255   0.053807
    9  C  1  Z   -0.160016   0.050419   0.141778   0.095477   0.029049
   10  H  2  S   -0.129356   0.052792   0.120405   0.070879   0.038790
   11  H  2  S   -0.125464   0.056247   0.133953   0.099446   0.052182
   12  C  3  S    0.000001  -0.002057  -0.000146   0.002190   0.021873
   13  C  3  S   -0.000037  -0.004327   0.000093  -0.000511  -0.017770
   14  C  3  X    0.000085  -0.030353   0.007889  -0.164560   0.238122
   15  C  3  Y    0.003148  -0.054287   0.108256  -0.186088  -0.180001
   16  C  3  Z   -0.005113  -0.034163  -0.169237  -0.121644  -0.100803
   17  C  3  S    0.000145   0.048815   0.000076   0.017377  -0.106855
   18  C  3  X   -0.000255  -0.063043   0.005988  -0.079705   0.213266
   19  C  3  Y    0.000702  -0.035814   0.108118  -0.148314  -0.182936
   20  C  3  Z   -0.001054  -0.023568  -0.171969  -0.097284  -0.103529
   21  C  4  S   -0.000018   0.015206   0.000018  -0.007902   0.020380
   22  C  4  S   -0.000001  -0.006523   0.000142  -0.002458  -0.015278
   23  C  4  X   -0.003992  -0.043165   0.002711   0.037920  -0.229895
   24  C  4  Y   -0.095615  -0.027964   0.046208   0.075935   0.169458
   25  C  4  Z    0.159869  -0.018845  -0.079202   0.044436   0.093816
   26  C  4  S    0.000331  -0.110117  -0.001480   0.115685  -0.084202
   27  C  4  X   -0.003717  -0.070518   0.002290   0.015135  -0.143935
   28  C  4  Y   -0.075357   0.014786   0.036065   0.046481   0.131868
   29  C  4  Z    0.126135   0.006138  -0.060896   0.026808   0.073615
   30  C  5  S    0.000819   0.055097  -0.000341   0.032643  -0.025891
   31  C  5  S   -0.000999  -0.075541   0.000283  -0.031933   0.029208
   32  C  5  X   -0.006549   0.099271  -0.001737  -0.145156   0.079816
   33  C  5  Y   -0.112935   0.100675  -0.082352   0.059828  -0.044654
   34  C  5  Z    0.184843   0.063798   0.131974   0.035798  -0.024395
   35  C  5  S   -0.002132  -0.099459   0.001737  -0.129851   0.085160
   36  C  5  X   -0.005642   0.079523  -0.001670  -0.155710   0.100755
   37  C  5  Y   -0.098994   0.048030  -0.086266  -0.051765   0.001972
   38  C  5  Z    0.159482   0.030829   0.141239  -0.033255   0.005779
   39  O  6  S   -0.000871  -0.066577   0.000160  -0.019177   0.019137
   40  O  6  S    0.000761   0.054135  -0.000166   0.019072  -0.016625
   41  O  6  X   -0.004386   0.076261  -0.001647  -0.115732   0.058338
   42  O  6  Y   -0.077299  -0.166663  -0.078220  -0.078166   0.071596
   43  O  6  Z    0.120897  -0.102183   0.127484  -0.048701   0.048001
   44  O  6  S    0.003616   0.304917  -0.000400   0.064071  -0.083523
   45  O  6  X   -0.003962   0.083899  -0.001526  -0.114824   0.052790
   46  O  6  Y   -0.070558  -0.166948  -0.075049  -0.090046   0.079415
   47  O  6  Z    0.109960  -0.102099   0.122609  -0.056106   0.052730
   48  O  7  S   -0.000360  -0.065587  -0.000525   0.023105   0.017173
   49  O  7  S    0.000341   0.060853   0.000471  -0.021459  -0.015064
   50  O  7  X   -0.002533   0.089276  -0.006105   0.062815  -0.113438
   51  O  7  Y   -0.096110   0.250336  -0.127082  -0.148255   0.007381
   52  O  7  Z    0.157574   0.156096   0.210378  -0.084621   0.005415
   53  O  7  S    0.001670   0.293556   0.002353  -0.099160  -0.078154
   54  O  7  X   -0.002624   0.089276  -0.007020   0.085060  -0.129653
   55  O  7  Y   -0.101891   0.284176  -0.141786  -0.164744   0.005052
   56  O  7  Z    0.167377   0.176927   0.234652  -0.093533   0.004123
   57  H  8  S    0.001853   0.028004   0.119442   0.106340   0.070783
   58  H  8  S   -0.001008   0.040061   0.106676   0.111121   0.084860
   59  H  9  S   -0.001999   0.027029  -0.125039   0.099715   0.072294
   60  H  9  S    0.001061   0.037886  -0.113115   0.105531   0.087330
   61  H 10  S    0.103642  -0.025238  -0.057730   0.045099   0.077175
   62  H 10  S    0.100560  -0.010605  -0.055456   0.051583   0.100450
   63  H 11  S   -0.102485  -0.024829   0.056239   0.048347   0.079478
   64  H 11  S   -0.099228  -0.010978   0.053704   0.055470   0.103270
   65  H 12  S    0.000153  -0.065940   0.000147   0.011230  -0.121203
   66  H 12  S    0.000177  -0.069865  -0.000032   0.028099  -0.155204
   67  H 13  S    0.129267   0.051007  -0.124505   0.065303   0.039652
   68  H 13  S    0.125142   0.054405  -0.139077   0.092990   0.053425
   69  H 14  S   -0.001389  -0.125822  -0.000685   0.014349   0.061908
   70  H 14  S   -0.001180  -0.094127  -0.000474  -0.001203   0.074985

                     21         22         23         24         25
                   -0.2891    -0.2583    -0.2399    -0.1301     0.0769
                     A          A          A          A          A   
    1  C  1  S   -0.000355   0.017738   0.000058   0.003583   0.000041
    2  C  1  S    0.000331  -0.013359   0.000035  -0.007882  -0.000080
    3  C  1  X   -0.004084   0.094401   0.000552   0.012598  -0.000503
    4  C  1  Y   -0.035463   0.028406   0.005400  -0.006505  -0.007206
    5  C  1  Z    0.059649   0.019868  -0.008752  -0.003831   0.011176
    6  C  1  S    0.001409  -0.087383  -0.000852   0.032906  -0.000335
    7  C  1  X   -0.003424   0.095430   0.000918  -0.015547  -0.002438
    8  C  1  Y   -0.029470   0.025988   0.004249  -0.026761  -0.025541
    9  C  1  Z    0.049677   0.018435  -0.006429  -0.016319   0.041429
   10  H  2  S    0.056832   0.006838  -0.006990  -0.008146   0.007693
   11  H  2  S    0.087881   0.022157  -0.010523  -0.002399  -0.023309
   12  C  3  S    0.000026  -0.004743  -0.000043   0.006080   0.000482
   13  C  3  S   -0.000028  -0.000686   0.000171  -0.008997  -0.000042
   14  C  3  X    0.007059  -0.079246  -0.001017  -0.002207   0.000816
   15  C  3  Y    0.109088  -0.034808  -0.009775   0.016320   0.001485
   16  C  3  Z   -0.183327  -0.024892   0.016658   0.010706  -0.003613
   17  C  3  S    0.000068   0.046989  -0.000405  -0.040636  -0.005516
   18  C  3  X    0.006819  -0.070434  -0.000192  -0.109791   0.003369
   19  C  3  Y    0.106477  -0.035128  -0.015791  -0.010677   0.047975
   20  C  3  Z   -0.178779  -0.025641   0.028330  -0.007010  -0.082276
   21  C  4  S    0.000037   0.016171  -0.000001   0.030347   0.000166
   22  C  4  S    0.000008  -0.012887  -0.000036  -0.012422  -0.000185
   23  C  4  X   -0.008650   0.154604  -0.000040   0.121484   0.000998
   24  C  4  Y   -0.123128   0.090719  -0.010094   0.087337   0.011185
   25  C  4  Z    0.204973   0.060924   0.016112   0.057172  -0.017827
   26  C  4  S    0.000153  -0.130054   0.000072  -0.280227  -0.001325
   27  C  4  X   -0.007929   0.172190   0.000849   0.182158  -0.002752
   28  C  4  Y   -0.120036   0.084031   0.005588   0.154845  -0.099176
   29  C  4  Z    0.199881   0.056940  -0.011526   0.099306   0.161284
   30  C  5  S   -0.000217  -0.002748   0.000005   0.011817  -0.000203
   31  C  5  S    0.000230   0.015037   0.000026  -0.015934  -0.000027
   32  C  5  X    0.001623  -0.105846   0.002640  -0.062566  -0.011196
   33  C  5  Y    0.025533  -0.228901   0.061040  -0.025750  -0.249905
   34  C  5  Z   -0.040458  -0.144650  -0.099501  -0.017777   0.403801
   35  C  5  S    0.000721  -0.023653  -0.000408   0.013730   0.002623
   36  C  5  X    0.003031  -0.058142   0.002026   0.157237  -0.013067
   37  C  5  Y    0.045613   0.013824   0.053061  -0.034484  -0.303911
   38  C  5  Z   -0.074858   0.006712  -0.085538  -0.017049   0.491669
   39  O  6  S    0.000143   0.043705   0.000080  -0.000616   0.000049
   40  O  6  S   -0.000071  -0.041110  -0.000101   0.002022  -0.000032
   41  O  6  X    0.003111  -0.015122   0.008812   0.442702   0.007186
   42  O  6  Y    0.059657   0.256492   0.197111  -0.029112   0.160327
   43  O  6  Z   -0.096390   0.158769  -0.317307  -0.005730  -0.259245
   44  O  6  S   -0.000984  -0.160395  -0.000208  -0.006435  -0.000413
   45  O  6  X    0.002971  -0.002424   0.010108   0.534048   0.010815
   46  O  6  Y    0.061073   0.299729   0.224616  -0.035698   0.242554
   47  O  6  Z   -0.098921   0.185975  -0.361452  -0.007292  -0.392429
   48  O  7  S    0.000595  -0.042393  -0.000104  -0.018652   0.000027
   49  O  7  S   -0.000565   0.038316   0.000109  -0.001130   0.000009
   50  O  7  X    0.002438   0.052116  -0.008388   0.095280   0.004293
   51  O  7  Y    0.083649   0.198529  -0.185820  -0.140204   0.096904
   52  O  7  Z   -0.138962   0.123158   0.300862  -0.084155  -0.156019
   53  O  7  S   -0.002521   0.188714   0.000406   0.179255  -0.000356
   54  O  7  X    0.002999   0.033204  -0.010470   0.146527   0.006353
   55  O  7  Y    0.094645   0.234678  -0.230444  -0.207066   0.146305
   56  O  7  Z   -0.157563   0.144769   0.373161  -0.124145  -0.235522
   57  H  8  S    0.143135   0.028956  -0.011318  -0.010930  -0.004422
   58  H  8  S    0.164550   0.020113   0.013838   0.030968  -0.036202
   59  H  9  S   -0.143164   0.026352   0.011467  -0.010295   0.004363
   60  H  9  S   -0.164963   0.018610  -0.012909   0.027969   0.038675
   61  H 10  S    0.168987   0.046123   0.018723   0.032877  -0.091315
   62  H 10  S    0.198336   0.081334   0.062088   0.054179  -0.327948
   63  H 11  S   -0.168110   0.044930  -0.019015   0.032661   0.092302
   64  H 11  S   -0.198079   0.079201  -0.061791   0.053541   0.332282
   65  H 12  S   -0.001826   0.032204   0.000180   0.012885   0.000042
   66  H 12  S   -0.002545   0.049063   0.000206   0.025511   0.000641
   67  H 13  S   -0.056081   0.005757   0.007046  -0.007833  -0.007894
   68  H 13  S   -0.087436   0.020532   0.010523  -0.001617   0.024298
   69  H 14  S    0.001488  -0.112461  -0.000231  -0.007252  -0.000029
   70  H 14  S    0.001602  -0.119202  -0.000294  -0.080490   0.000118

                     26         27         28         29         30
                    0.4134     0.4642     0.4649     0.4832     0.4915
                     A          A          A          A          A   
    1  C  1  S   -0.133951   0.004524   0.000912   0.034165   0.100359
    2  C  1  S    0.026414  -0.005223  -0.000098  -0.009051  -0.020945
    3  C  1  X    0.107071  -0.119200  -0.005064  -0.063696   0.007037
    4  C  1  Y    0.047192   0.190797  -0.127791   0.050245  -0.041617
    5  C  1  Z    0.031085   0.112084   0.211197   0.028108  -0.030972
    6  C  1  S    1.893793  -0.016391  -0.013278  -0.476825  -1.367600
    7  C  1  X    0.489658  -0.601900  -0.021934  -0.279565   0.190026
    8  C  1  Y    0.261157   0.920121  -0.568849   0.275488  -0.036615
    9  C  1  Z    0.169201   0.538056   0.945374   0.154958  -0.052415
   10  H  2  S    0.002436  -0.026621  -0.043733   0.006319   0.006620
   11  H  2  S   -0.918716  -0.731094  -1.185900   0.017346   0.672764
   12  C  3  S   -0.056033   0.008730  -0.001340   0.009545  -0.115716
   13  C  3  S    0.010500   0.002415   0.000196   0.003752   0.015803
   14  C  3  X   -0.009644  -0.011015  -0.002678   0.064467   0.056433
   15  C  3  Y   -0.057272   0.050884  -0.065540  -0.036041  -0.069720
   16  C  3  Z   -0.033703   0.031941   0.105867  -0.018910  -0.036184
   17  C  3  S    0.840724  -0.123691   0.019121  -0.146686   1.678219
   18  C  3  X   -0.178677   0.037215  -0.006415   0.370420   0.239823
   19  C  3  Y   -0.275388  -0.013640  -0.206992  -0.335514  -0.422173
   20  C  3  Z   -0.166938   0.000699   0.328719  -0.186604  -0.224010
   21  C  4  S   -0.041212  -0.002402   0.000357  -0.087531  -0.047471
   22  C  4  S    0.013305  -0.017580   0.000012   0.011969   0.015248
   23  C  4  X   -0.009499  -0.008432  -0.002714  -0.036566   0.017015
   24  C  4  Y    0.058971   0.076721  -0.054206   0.029405   0.060437
   25  C  4  Z    0.035192   0.046228   0.087255   0.017588   0.038872
   26  C  4  S    0.503590   0.231234  -0.004391   1.268955   0.639980
   27  C  4  X   -0.188965   0.078213  -0.009188   0.178564   0.061566
   28  C  4  Y    0.310324   0.372129  -0.189300   0.066172   0.440038
   29  C  4  Z    0.181958   0.228109   0.305474   0.047339   0.274003
   30  C  5  S    0.019107  -0.024160  -0.000041   0.010526  -0.002225
   31  C  5  S   -0.000847   0.014963   0.000190   0.005097   0.025700
   32  C  5  X   -0.029376   0.001923   0.000602   0.052289  -0.011773
   33  C  5  Y   -0.017665   0.041371   0.012860  -0.030416   0.021082
   34  C  5  Z   -0.010661   0.026076  -0.020485  -0.017341   0.013357
   35  C  5  S   -0.208671   0.230776  -0.000115  -0.080996  -0.045688
   36  C  5  X   -0.037651   0.163787   0.001838  -0.125016   0.155746
   37  C  5  Y   -0.066430   0.082865   0.052342  -0.036318   0.089639
   38  C  5  Z   -0.040144   0.056921  -0.083537  -0.026095   0.059807
   39  O  6  S   -0.006588   0.002140   0.000088  -0.010393  -0.014101
   40  O  6  S    0.006392  -0.006568  -0.000137   0.014090   0.006045
   41  O  6  X    0.019111   0.016123  -0.000998  -0.047069   0.063235
   42  O  6  Y    0.018183   0.003338  -0.013857   0.003824   0.014419
   43  O  6  Z    0.010965   0.002486   0.022640   0.001010   0.010325
   44  O  6  S    0.032623   0.009994  -0.000134   0.036120   0.134023
   45  O  6  X    0.032857   0.003299  -0.001471  -0.046194   0.059464
   46  O  6  Y    0.036511   0.006947  -0.022748   0.011790   0.060412
   47  O  6  Z    0.022182   0.004199   0.037194   0.005994   0.038598
   48  O  7  S   -0.006387   0.035224   0.000136  -0.076193   0.026990
   49  O  7  S    0.000389  -0.016889  -0.000049   0.035614  -0.013397
   50  O  7  X    0.002438   0.041274  -0.000267  -0.157208   0.066946
   51  O  7  Y   -0.010304   0.048564  -0.008941  -0.094185   0.035235
   52  O  7  Z   -0.006443   0.031257   0.015108  -0.062736   0.024051
   53  O  7  S    0.073147  -0.294976  -0.001351   0.658051  -0.228392
   54  O  7  X    0.014420   0.115791  -0.000278  -0.402663   0.174194
   55  O  7  Y   -0.027630   0.094036  -0.015302  -0.215513   0.056848
   56  O  7  Z   -0.017048   0.061459   0.026059  -0.144796   0.040527
   57  H  8  S    0.007989   0.021486   0.055710  -0.003329  -0.014570
   58  H  8  S   -0.473999   0.207522   0.616239  -0.130897  -0.914155
   59  H  9  S    0.008152   0.020459  -0.056312  -0.003564  -0.013973
   60  H  9  S   -0.478571   0.192136  -0.644628  -0.140213  -0.947913
   61  H 10  S    0.021307  -0.028779   0.006263   0.009089  -0.015422
   62  H 10  S   -0.372502  -0.389142  -0.387409  -0.543535  -0.577916
   63  H 11  S    0.022093  -0.028210  -0.006387   0.008963  -0.013475
   64  H 11  S   -0.369906  -0.388275   0.395540  -0.539207  -0.562929
   65  H 12  S   -0.004042   0.047801   0.000076  -0.012697  -0.028444
   66  H 12  S   -0.958847   1.445518   0.005549   0.624157   0.251890
   67  H 13  S    0.002420  -0.026283   0.043835   0.006403   0.005246
   68  H 13  S   -0.914420  -0.732389   1.198860   0.011490   0.619185
   69  H 14  S   -0.000439   0.028784   0.000011  -0.055772   0.027043
   70  H 14  S   -0.042459   0.455127   0.001722  -1.129666   0.474044

                     31         32         33         34         35
                    0.5141     0.5187     0.5712     0.5889     0.6223
                     A          A          A          A          A   
    1  C  1  S    0.006341  -0.002404   0.002327   0.078088  -0.007013
    2  C  1  S   -0.009227   0.000574  -0.000312  -0.007108  -0.017911
    3  C  1  X    0.095042   0.002500   0.004842   0.136573   0.119519
    4  C  1  Y   -0.047363   0.075555   0.002166   0.098888   0.027770
    5  C  1  Z   -0.025565  -0.126835   0.003341   0.062331   0.018457
    6  C  1  S   -0.069015   0.033271  -0.034819  -1.199417   0.202291
    7  C  1  X    0.539963   0.010872   0.043054   1.385552   0.139950
    8  C  1  Y   -0.388535   0.530142   0.103367   0.695527   0.413612
    9  C  1  Z   -0.220937  -0.892833  -0.125276   0.451429   0.249056
   10  H  2  S    0.010942   0.026923  -0.043138  -0.058226  -0.017938
   11  H  2  S    0.263487   0.874169  -0.001010  -0.199379  -0.304578
   12  C  3  S    0.079017   0.001812  -0.003142  -0.109898   0.062453
   13  C  3  S   -0.019710  -0.000199   0.000249   0.008002  -0.004186
   14  C  3  X    0.047025  -0.007114   0.002912   0.191267   0.190577
   15  C  3  Y    0.105440  -0.112075  -0.082122   0.165342  -0.099865
   16  C  3  Z    0.067935   0.187509   0.145111   0.098330  -0.056681
   17  C  3  S   -1.102236  -0.027370   0.044283   1.591695  -0.996459
   18  C  3  X    0.268284  -0.036046   0.012921   1.010640   1.326017
   19  C  3  Y    0.554229  -0.581310  -0.532115   1.043010  -0.847576
   20  C  3  Z    0.355598   0.980202   0.941537   0.613630  -0.482529
   21  C  4  S   -0.100353   0.002349   0.002022   0.056183  -0.029313
   22  C  4  S    0.017642  -0.000556  -0.000434  -0.003640  -0.010387
   23  C  4  X    0.066471  -0.004021   0.007256  -0.036470   0.245965
   24  C  4  Y    0.110046  -0.064051   0.149257   0.009176  -0.109096
   25  C  4  Z    0.069514   0.100131  -0.247829   0.015394  -0.056533
   26  C  4  S    1.347420  -0.032477  -0.027714  -0.821239   0.549256
   27  C  4  X    0.105826  -0.014225   0.035415  -0.405596   1.669949
   28  C  4  Y    0.425441  -0.241670   0.756019  -0.279423  -0.628262
   29  C  4  Z    0.263172   0.368738  -1.279752  -0.124741  -0.319773
   30  C  5  S   -0.005490  -0.000340  -0.001081  -0.025694  -0.066528
   31  C  5  S    0.015144  -0.000590   0.000856   0.022022   0.010123
   32  C  5  X   -0.021278   0.000655  -0.001444   0.015005   0.082416
   33  C  5  Y    0.018888   0.008342  -0.070378   0.024555   0.019787
   34  C  5  Z    0.011841  -0.013858   0.114808   0.012839   0.012311
   35  C  5  S   -0.018069   0.005961   0.004951   0.045698   0.964721
   36  C  5  X    0.049956  -0.001398  -0.012430  -0.096824   0.303651
   37  C  5  Y   -0.017818   0.059669  -0.196518   0.123592   0.233760
   38  C  5  Z   -0.008398  -0.098341   0.326458   0.060587   0.146144
   39  O  6  S   -0.000882   0.000629   0.000092  -0.011383   0.019681
   40  O  6  S   -0.001454  -0.000440  -0.000136   0.010708  -0.014456
   41  O  6  X    0.017776  -0.002808   0.000579   0.043829  -0.016650
   42  O  6  Y    0.015646  -0.014612   0.018245  -0.006480  -0.071589
   43  O  6  Z    0.010711   0.022855  -0.031087  -0.001170  -0.043742
   44  O  6  S    0.008856  -0.004734   0.000372   0.091269  -0.130461
   45  O  6  X    0.022042  -0.003455   0.002427   0.065468  -0.076130
   46  O  6  Y    0.025138  -0.026977   0.056899   0.007246  -0.147226
   47  O  6  Z    0.016543   0.039369  -0.094268   0.010363  -0.091012
   48  O  7  S    0.011313  -0.000286   0.000087   0.006820   0.006630
   49  O  7  S   -0.003636   0.000186  -0.000121  -0.008010   0.012580
   50  O  7  X    0.032398  -0.002431  -0.000687  -0.078261   0.044431
   51  O  7  Y    0.032816  -0.013167   0.033693  -0.012228   0.045014
   52  O  7  Z    0.021242   0.020612  -0.055876  -0.007884   0.029580
   53  O  7  S   -0.098095   0.002120  -0.000713  -0.036306  -0.169735
   54  O  7  X    0.086058  -0.005823  -0.003353  -0.185087   0.028296
   55  O  7  Y    0.047578  -0.019149   0.052212  -0.008230   0.082663
   56  O  7  Z    0.031896   0.030696  -0.085393  -0.007117   0.053207
   57  H  8  S    0.012982   0.025048   0.001152   0.031463  -0.033673
   58  H  8  S    0.920909   1.092397   0.859910   0.204347  -0.192615
   59  H  9  S    0.011216  -0.024499   0.000817   0.031521  -0.034088
   60  H  9  S    0.888268  -1.070395  -0.857013   0.248227  -0.182339
   61  H 10  S   -0.012083  -0.048058  -0.015077  -0.002267   0.000694
   62  H 10  S   -0.941350  -0.570767   1.319815   0.340182   0.272228
   63  H 11  S   -0.011356   0.048179   0.014990  -0.003412   0.000365
   64  H 11  S   -0.934644   0.616255  -1.280421   0.426462   0.284648
   65  H 12  S   -0.043362   0.001279  -0.001435  -0.049606  -0.018877
   66  H 12  S   -0.780450  -0.008977  -0.003938  -0.087700  -0.135136
   67  H 13  S    0.011764  -0.027386   0.039863  -0.061532  -0.018235
   68  H 13  S    0.271097  -0.894821  -0.008787  -0.201075  -0.310527
   69  H 14  S    0.007009  -0.000619   0.000252   0.017214  -0.039129
   70  H 14  S    0.231591  -0.009446  -0.008252  -0.228063   0.217303

                     36         37         38         39         40
                    0.7051     0.8204     0.8872     1.0610     1.1149
                     A          A          A          A          A   
    1  C  1  S   -0.005809   0.005311  -0.020207  -0.000007   0.001866
    2  C  1  S   -0.029311  -0.025082   0.001153  -0.000004  -0.025828
    3  C  1  X    0.103350   0.098311   0.169261   0.007232   0.212038
    4  C  1  Y   -0.096801  -0.068207   0.027936   0.255574  -0.425315
    5  C  1  Z   -0.055646  -0.039516   0.021759  -0.426709  -0.249980
    6  C  1  S    0.369269   0.094207   0.320493  -0.000200   0.148151
    7  C  1  X   -0.086296   0.109930  -0.483848  -0.009717  -0.434061
    8  C  1  Y   -0.312518   0.009526  -0.125889  -0.405604   0.797495
    9  C  1  Z   -0.183583   0.010470  -0.088250   0.678678   0.468346
   10  H  2  S   -0.047885  -0.077083   0.034855  -0.454182  -0.291462
   11  H  2  S    0.155771   0.026603  -0.039353   0.066523  -0.018387
   12  C  3  S   -0.032607  -0.011123   0.033710  -0.000113   0.018435
   13  C  3  S    0.026062  -0.010332   0.031996  -0.000393  -0.010186
   14  C  3  X   -0.092793   0.049388  -0.252951   0.008235   0.256343
   15  C  3  Y    0.006411   0.016970  -0.045110   0.168469  -0.039079
   16  C  3  Z   -0.000690   0.010924  -0.033741  -0.279371  -0.017309
   17  C  3  S    0.390814   0.303632  -1.047961   0.004725  -0.304930
   18  C  3  X   -0.847472  -0.297666   0.287174  -0.007657   0.028031
   19  C  3  Y   -0.003935   0.123644  -0.446206  -0.188323  -0.234519
   20  C  3  Z   -0.030276   0.063834  -0.256075   0.316048  -0.139866
   21  C  4  S    0.110654   0.067001  -0.010679  -0.000306  -0.056742
   22  C  4  S   -0.026764  -0.001490   0.034638   0.000533   0.041304
   23  C  4  X    0.055574  -0.065106   0.001816   0.001564  -0.522509
   24  C  4  Y    0.162093  -0.003170  -0.090779   0.053401  -0.188366
   25  C  4  Z    0.099387  -0.003478  -0.057016  -0.092383  -0.130041
   26  C  4  S   -1.549585  -1.404263  -0.155457   0.000566   0.674010
   27  C  4  X    0.725243   0.642240   0.972273  -0.008394   0.333251
   28  C  4  Y    1.040231   0.786570  -0.498265  -0.103437  -0.084363
   29  C  4  Z    0.652699   0.502605  -0.280493   0.171681  -0.045291
   30  C  5  S   -0.167433   0.036586   0.004130   0.000318   0.045012
   31  C  5  S    0.028492   0.031961   0.085555  -0.001092  -0.079569
   32  C  5  X    0.021108   0.411196  -0.125332  -0.001209  -0.188342
   33  C  5  Y    0.136843   0.013690   0.158781   0.037834  -0.024589
   34  C  5  Z    0.084452   0.019822   0.094152  -0.061821  -0.022062
   35  C  5  S    2.331039  -0.100866  -0.370375  -0.000939  -0.085011
   36  C  5  X    0.487949   1.781964  -0.232050   0.000685  -0.381672
   37  C  5  Y    0.356845   0.367426   1.902520   0.007104  -0.131667
   38  C  5  Z    0.234399   0.276474   1.171112  -0.017588  -0.089310
   39  O  6  S    0.041677  -0.049205  -0.116531  -0.000038   0.003531
   40  O  6  S   -0.023719   0.020297   0.024115   0.000362   0.004390
   41  O  6  X   -0.032519  -0.172730   0.075124   0.001095   0.079433
   42  O  6  Y   -0.097208   0.087174   0.089734   0.003238   0.015368
   43  O  6  Z   -0.061462   0.049038   0.057975  -0.004768   0.011580
   44  O  6  S   -0.384238   0.551593   1.619822  -0.001484  -0.094210
   45  O  6  X   -0.105459  -0.455877   0.192077   0.000284   0.103426
   46  O  6  Y   -0.273328   0.298455   0.579288  -0.005310  -0.024821
   47  O  6  Z   -0.172371   0.172203   0.364441   0.007666  -0.013068
   48  O  7  S    0.046190  -0.067751   0.052812   0.000033  -0.002345
   49  O  7  S   -0.033667   0.038177  -0.012877  -0.000156   0.014733
   50  O  7  X   -0.203706   0.154778  -0.089120  -0.000378   0.019787
   51  O  7  Y    0.061895  -0.134594  -0.013164  -0.003316   0.032232
   52  O  7  Z    0.032880  -0.078736  -0.011013   0.005641   0.020212
   53  O  7  S   -0.363267   0.683122  -0.699432   0.000725  -0.072452
   54  O  7  X   -0.532742   0.429136  -0.457653  -0.000039  -0.031599
   55  O  7  Y    0.138773  -0.405284   0.024446  -0.000273   0.054332
   56  O  7  Z    0.071087  -0.238687   0.002147   0.000671   0.032298
   57  H  8  S    0.048057   0.045238   0.046001   0.391107   0.082362
   58  H  8  S   -0.149618   0.003711   0.011166  -0.140107  -0.029358
   59  H  9  S    0.045940   0.042838   0.045406  -0.394271   0.084129
   60  H  9  S   -0.137158   0.007976   0.004196   0.141329  -0.031148
   61  H 10  S   -0.067550  -0.057097  -0.062343  -0.205170  -0.086637
   62  H 10  S   -0.195956  -0.039771   0.216654   0.016085  -0.058608
   63  H 11  S   -0.068077  -0.056887  -0.058552   0.204157  -0.089428
   64  H 11  S   -0.201488  -0.035146   0.205512  -0.014607  -0.061638
   65  H 12  S    0.112670   0.093075   0.085181  -0.001118   0.480814
   66  H 12  S   -0.355840  -0.207618  -0.064743  -0.000460  -0.012635
   67  H 13  S   -0.046682  -0.075783   0.034075   0.452588  -0.292337
   68  H 13  S    0.162949   0.027686  -0.039816  -0.066865  -0.018993
   69  H 14  S   -0.012012   0.085740   0.081188  -0.000344  -0.144252
   70  H 14  S   -0.300282   0.275393  -0.116005   0.000184   0.060842

                     41         42         43         44         45
                    1.1576     1.1702     1.2024     1.2713     1.2826
                     A          A          A          A          A   
    1  C  1  S   -0.044032  -0.002648  -0.009745  -0.037380  -0.000775
    2  C  1  S    0.073541   0.005593   0.091550   0.068132   0.001810
    3  C  1  X   -0.752346  -0.032223  -0.246720  -0.130702   0.005351
    4  C  1  Y   -0.470307   0.190064   0.057620  -0.243402   0.245647
    5  C  1  Z   -0.272249  -0.372802   0.035417  -0.136705  -0.417829
    6  C  1  S    0.299715   0.009389  -0.377233  -0.259183  -0.008697
    7  C  1  X    0.966937   0.037103   0.418031   0.283965  -0.009139
    8  C  1  Y    0.662688  -0.377754  -0.204356   0.585150  -0.503701
    9  C  1  Z    0.369400   0.709496  -0.125899   0.330495   0.865393
   10  H  2  S   -0.202696  -0.213760  -0.019242  -0.147389  -0.110363
   11  H  2  S   -0.155433  -0.097006   0.089001  -0.120335  -0.248994
   12  C  3  S    0.044636   0.002955   0.034849   0.005532   0.000145
   13  C  3  S   -0.146784  -0.008753  -0.048284  -0.000828   0.000441
   14  C  3  X    0.035255  -0.009046   0.139881  -0.813605  -0.026096
   15  C  3  Y    0.043981  -0.085057  -0.709901   0.094955  -0.246130
   16  C  3  Z    0.019441   0.132577  -0.426970   0.024383   0.406518
   17  C  3  S    0.535891   0.026058  -0.319461  -0.110591  -0.007907
   18  C  3  X    0.002065   0.019151  -0.007942   1.321939   0.048422
   19  C  3  Y   -0.164387   0.221640   1.261961  -0.222613   0.445396
   20  C  3  Z   -0.075784  -0.366897   0.767329  -0.076646  -0.735484
   21  C  4  S    0.003520  -0.000007  -0.009821   0.019234   0.000959
   22  C  4  S    0.046692   0.003111   0.077306  -0.091802  -0.002329
   23  C  4  X    0.278684   0.008103   0.043102  -0.244637  -0.011208
   24  C  4  Y   -0.052895  -0.164176   0.365123   0.138064  -0.123260
   25  C  4  Z   -0.043820   0.262708   0.218842   0.070257   0.226022
   26  C  4  S   -0.453076  -0.022290  -0.519199   0.910415   0.009311
   27  C  4  X    0.152993   0.016360  -0.084614   0.306642   0.024014
   28  C  4  Y    0.167877   0.202628  -0.793914  -0.579750   0.241957
   29  C  4  Z    0.130286  -0.320646  -0.474871  -0.331662  -0.454867
   30  C  5  S   -0.016434  -0.001029  -0.012560  -0.003895  -0.000387
   31  C  5  S    0.041662   0.003529   0.054578  -0.015367   0.001834
   32  C  5  X   -0.234750  -0.028887   0.097164   0.538634   0.024085
   33  C  5  Y    0.157883  -0.371022  -0.059177  -0.267268   0.372488
   34  C  5  Z    0.049338   0.616015  -0.033234  -0.139432  -0.606536
   35  C  5  S    0.080883   0.000899  -0.240394   0.055561  -0.005682
   36  C  5  X    0.501315   0.040539  -0.208761  -0.829691  -0.036858
   37  C  5  Y    0.386724   0.358722   0.296661  -0.028939  -0.527973
   38  C  5  Z    0.289325  -0.532497   0.171667  -0.058169   0.873759
   39  O  6  S   -0.027280  -0.001483  -0.010323   0.020521  -0.000149
   40  O  6  S    0.012556   0.000815   0.008656  -0.007500  -0.000192
   41  O  6  X   -0.045035  -0.002408   0.033766   0.088250   0.001590
   42  O  6  Y    0.030146  -0.009436  -0.036487  -0.056488   0.026824
   43  O  6  Z    0.016337   0.018022  -0.019992  -0.031208  -0.046123
   44  O  6  S    0.355599   0.018943   0.206051  -0.192906   0.005844
   45  O  6  X   -0.054918  -0.004994   0.018531   0.098786   0.005485
   46  O  6  Y    0.157162  -0.040388   0.031173  -0.164450   0.084515
   47  O  6  Z    0.090753   0.083571   0.020772  -0.096445  -0.135024
   48  O  7  S    0.017641   0.000870  -0.000745  -0.016759  -0.000164
   49  O  7  S   -0.034269  -0.001750   0.018930   0.054746   0.000977
   50  O  7  X   -0.062615  -0.004094   0.047017   0.094392   0.003826
   51  O  7  Y    0.010023  -0.018732   0.006267  -0.031412   0.045952
   52  O  7  Z    0.002589   0.031774   0.004994  -0.015983  -0.074083
   53  O  7  S   -0.022671  -0.000760  -0.123237  -0.185753  -0.005178
   54  O  7  X   -0.090222  -0.006452  -0.047264   0.016711   0.001453
   55  O  7  Y   -0.021831  -0.050363  -0.002429   0.038562   0.063099
   56  O  7  Z   -0.021343   0.078354  -0.001896   0.026446  -0.101125
   57  H  8  S   -0.059139  -0.150190   0.328689   0.057667  -0.162039
   58  H  8  S    0.045009  -0.057465   0.224480  -0.040029  -0.114037
   59  H  9  S   -0.072410   0.152516   0.321670   0.048776   0.167441
   60  H  9  S    0.038669   0.063847   0.221933  -0.047545   0.116513
   61  H 10  S    0.016908   0.345307   0.147928   0.042615   0.201829
   62  H 10  S   -0.002526  -0.109559   0.145056   0.096584  -0.020084
   63  H 11  S    0.052770  -0.341919   0.158396   0.052610  -0.189453
   64  H 11  S   -0.015191   0.110314   0.142788   0.094511   0.029839
   65  H 12  S   -0.217034  -0.008314   0.169217  -0.110105   0.000031
   66  H 12  S   -0.074160  -0.005785  -0.222486   0.057535  -0.001403
   67  H 13  S   -0.225941   0.190283  -0.022331  -0.152216   0.101875
   68  H 13  S   -0.162643   0.079375   0.084789  -0.132477   0.244799
   69  H 14  S    0.069064   0.003534  -0.024750  -0.098525  -0.002221
   70  H 14  S    0.011469   0.000904   0.019985  -0.048332   0.000648

                     46         47         48         49         50
                    1.3013     1.3598     1.4123     1.4417     1.4434
                     A          A          A          A          A   
    1  C  1  S   -0.004912  -0.052651  -0.021573  -0.003577   0.035682
    2  C  1  S   -0.035728   0.002865   0.008883   0.003760  -0.044272
    3  C  1  X    0.009536  -0.121796   0.155422   0.037218  -0.305498
    4  C  1  Y    0.078963   0.363752   0.012204   0.247345   0.157650
    5  C  1  Z    0.049597   0.219068   0.010228  -0.438150   0.033008
    6  C  1  S    0.103956   0.027346  -0.031849   0.004649  -0.002186
    7  C  1  X    0.129553   0.687478  -0.106987  -0.051028   0.408734
    8  C  1  Y   -0.068788  -0.677425   0.091227  -0.398087  -0.410719
    9  C  1  Z   -0.044096  -0.396049   0.054083   0.730640  -0.146791
   10  H  2  S   -0.055713  -0.279245  -0.177539   0.381077   0.265809
   11  H  2  S    0.013865   0.255325   0.050643  -0.705912  -0.038084
   12  C  3  S   -0.038409   0.002783  -0.012845  -0.003017   0.032628
   13  C  3  S    0.114578  -0.124596  -0.042924   0.000312  -0.003345
   14  C  3  X   -0.127058  -0.204532  -0.054739  -0.001632  -0.076787
   15  C  3  Y    0.129592  -0.378550  -0.106855  -0.316295   0.212318
   16  C  3  Z    0.073107  -0.233624  -0.060403   0.474921   0.189511
   17  C  3  S   -0.555978   0.472671   0.000740  -0.011289   0.121502
   18  C  3  X    0.370211  -0.189766   0.127007   0.015925   0.009435
   19  C  3  Y   -0.341610   0.712666   0.009498   0.651332   0.006328
   20  C  3  Z   -0.191872   0.423912   0.000996  -1.069902  -0.137090
   21  C  4  S    0.047486  -0.014660  -0.027678  -0.003159   0.030839
   22  C  4  S   -0.082292   0.066699   0.020333  -0.003314   0.052333
   23  C  4  X   -0.577188  -0.330611  -0.012149   0.031595  -0.167022
   24  C  4  Y    0.472697  -0.467102   0.182437   0.414221  -0.361054
   25  C  4  Z    0.266466  -0.289287   0.107172  -0.603091  -0.305739
   26  C  4  S   -0.432316  -0.373230  -0.528333   0.049879  -0.581483
   27  C  4  X    1.196886   0.140474   0.239021  -0.091621   0.616816
   28  C  4  Y   -0.761403   1.177676  -0.047251  -0.842437   0.578389
   29  C  4  Z   -0.419444   0.713649  -0.015242   1.270828   0.541662
   30  C  5  S   -0.013354   0.005555  -0.032710   0.005303  -0.052707
   31  C  5  S    0.185740   0.075601   0.042530  -0.047656   0.475177
   32  C  5  X   -0.426445  -0.185606  -0.458334   0.028211  -0.287919
   33  C  5  Y    0.253701   0.164980  -0.749783  -0.050966  -0.356466
   34  C  5  Z    0.154539   0.090997  -0.475721   0.157228  -0.212356
   35  C  5  S   -0.063511   0.423783   0.504903  -0.023700   0.368033
   36  C  5  X    0.837913   0.692853   0.751235  -0.084769   1.015675
   37  C  5  Y    0.434119  -0.581819   0.704482   0.242281   0.384160
   38  C  5  Z    0.275477  -0.328839   0.453865  -0.471158   0.208771
   39  O  6  S   -0.028543   0.010732   0.034364  -0.001916   0.019325
   40  O  6  S    0.005575   0.017169  -0.047190   0.001783  -0.012837
   41  O  6  X   -0.060891   0.071143  -0.108631   0.001148   0.003350
   42  O  6  Y    0.008275   0.041272  -0.167298  -0.004731  -0.135832
   43  O  6  Z    0.004535   0.026667  -0.106439   0.036970  -0.080610
   44  O  6  S    0.425947  -0.378136   0.099911  -0.007258   0.053496
   45  O  6  X   -0.106911  -0.118955  -0.112354   0.014585  -0.172219
   46  O  6  Y    0.201268  -0.068126  -0.266989  -0.025975  -0.163043
   47  O  6  Z    0.124325  -0.047395  -0.167947   0.075043  -0.097297
   48  O  7  S   -0.009707  -0.016033   0.017331   0.000679  -0.010187
   49  O  7  S    0.019909   0.000855  -0.032474  -0.000000   0.006751
   50  O  7  X    0.011986  -0.044670   0.083062  -0.005370   0.030617
   51  O  7  Y    0.065468   0.014423   0.009114  -0.036841   0.018458
   52  O  7  Z    0.041536   0.006978   0.008379   0.050832   0.019287
   53  O  7  S    0.119753   0.329071  -0.065854  -0.015587   0.146559
   54  O  7  X   -0.069366   0.093386   0.003713  -0.000634  -0.024503
   55  O  7  Y   -0.086107  -0.056740  -0.034845  -0.008469  -0.126640
   56  O  7  Z   -0.053159  -0.033916  -0.021191   0.039713  -0.074965
   57  H  8  S   -0.171963  -0.034282  -0.187866   0.207590   0.430793
   58  H  8  S   -0.038459   0.169335   0.084888  -0.650668  -0.309271
   59  H  9  S   -0.174751  -0.031883  -0.190395  -0.282989   0.381070
   60  H  9  S   -0.036877   0.168237   0.091928   0.698029  -0.176364
   61  H 10  S    0.307695  -0.199066  -0.201396   0.001479   0.324753
   62  H 10  S    0.140282  -0.230605   0.081540  -0.550562  -0.389211
   63  H 11  S    0.309356  -0.200289  -0.203587  -0.069185   0.318745
   64  H 11  S    0.139897  -0.231522   0.086741   0.609819  -0.277640
   65  H 12  S   -0.151250  -0.482155  -0.157117  -0.034414   0.303466
   66  H 12  S   -0.046170  -0.276293   0.146895   0.050660  -0.520084
   67  H 13  S   -0.057851  -0.278566  -0.178441  -0.421838   0.187636
   68  H 13  S    0.011866   0.253153   0.051931   0.698503   0.097222
   69  H 14  S   -0.229795  -0.160961   0.390306   0.006041  -0.158982
   70  H 14  S    0.339001   0.189802  -0.123361  -0.022830   0.291991

                     51         52         53         54         55
                    1.4833     1.4966     1.5081     1.5467     1.5821
                     A          A          A          A          A   
    1  C  1  S    0.001400   0.006762   0.000020   0.000638   0.078385
    2  C  1  S    0.016088   0.009737  -0.000544  -0.004154  -0.372993
    3  C  1  X   -0.013512   0.375999   0.006797  -0.004051  -0.281148
    4  C  1  Y    0.106914  -0.543925   0.331927   0.072808  -0.180023
    5  C  1  Z    0.059174  -0.326552  -0.540410  -0.118343  -0.112215
    6  C  1  S   -0.277451  -0.193089   0.003946   0.009170   0.007017
    7  C  1  X    0.014671  -0.292069  -0.006319   0.005317   0.729996
    8  C  1  Y    0.066527   0.548014  -0.308741  -0.076014   0.480749
    9  C  1  Z    0.044193   0.331427   0.497591   0.119923   0.298519
   10  H  2  S   -0.150174   0.477909   0.557016   0.280471   0.447180
   11  H  2  S    0.154591  -0.624886  -0.850991  -0.352083  -0.566140
   12  C  3  S   -0.006661   0.011111   0.000059  -0.000484  -0.060756
   13  C  3  S    0.032033  -0.006174  -0.000916   0.001814   0.246730
   14  C  3  X   -0.195265  -0.000900   0.015573  -0.007173  -0.320107
   15  C  3  Y   -0.032396  -0.165889   0.380516  -0.196459  -0.380716
   16  C  3  Z   -0.024361  -0.106391  -0.630175   0.328156  -0.238470
   17  C  3  S    0.024236   0.058422  -0.000893  -0.003233   0.159993
   18  C  3  X    0.464208   0.019043  -0.025618   0.006003   0.848138
   19  C  3  Y    0.090394   0.496219  -0.619114   0.200010   0.691955
   20  C  3  Z    0.063922   0.307466   1.019120  -0.347070   0.440730
   21  C  4  S    0.013770   0.007175  -0.000394  -0.000451  -0.002225
   22  C  4  S   -0.129271  -0.027127   0.002003   0.000750  -0.068528
   23  C  4  X   -0.023761  -0.134424  -0.002432  -0.025815  -0.043261
   24  C  4  Y   -0.119678  -0.102668  -0.051818  -0.402522  -0.097166
   25  C  4  Z   -0.082794  -0.061421   0.092124   0.662862  -0.066716
   26  C  4  S    0.883740  -0.092648  -0.003695   0.002736   0.104706
   27  C  4  X   -0.388451  -0.150228   0.015535   0.037376  -0.160500
   28  C  4  Y   -0.103184   0.131877   0.217675   0.505446   0.301660
   29  C  4  Z   -0.056336   0.070197  -0.367432  -0.824531   0.187330
   30  C  5  S   -0.010083  -0.006639   0.000078   0.000005  -0.001144
   31  C  5  S    0.099330   0.140663  -0.001062  -0.002213   0.084635
[...]
   13             0.030745   0.004005   0.076949   0.022263   0.031974
   14             0.015262   0.082091   0.000000   0.019747   0.032533

                     16         17         18         19         20

                  1.000000   1.000000   1.000000   1.000000   1.000000

    1             0.182737   0.051873   0.116388   0.252317   0.069782
    2             0.074127   0.012711   0.062584   0.027307   0.007019
    3             0.000083   0.022489   0.158815   0.229478   0.326688
    4             0.147926   0.016295   0.032217   0.029224   0.273991
    5             0.201771   0.089532   0.102815   0.093110   0.029209
    6             0.079535   0.249787   0.082149   0.091819   0.046419
    7             0.136087   0.455700   0.228083   0.133761   0.046611
    8             0.000011   0.005439   0.058826   0.050571   0.024092
    9             0.000012   0.004987   0.064881   0.044811   0.025200
   10             0.052526   0.001775   0.013412   0.010325   0.030518
   11             0.051245   0.001735   0.012603   0.011787   0.032304
   12             0.000000   0.019007   0.000000   0.001467   0.064452
   13             0.073933   0.011873   0.067224   0.023647   0.007349
   14             0.000007   0.056797   0.000002   0.000377   0.016366

                     21         22         23         24         25

                  1.000000   1.000000   1.000000   1.000000   1.000000

    1             0.013612   0.033171   0.000251   0.000429   0.000116
    2             0.016754   0.000772   0.000196   0.000111   0.000288
    3             0.151468   0.022829   0.001501   0.004305   0.000507
    4             0.213170   0.121924   0.000243   0.102933   0.008796
    5             0.012134   0.140577   0.041566   0.024152   0.557229
    6             0.046512   0.370396   0.507883   0.725072   0.261091
    7             0.093142   0.230442   0.440817   0.120074   0.080960
    8             0.089754   0.002811   0.000203   0.000939   0.000371
    9             0.089826   0.002353   0.000206   0.000804   0.000439
   10             0.129078   0.012934   0.003450   0.004948   0.044339
   11             0.128024   0.012274   0.003487   0.004883   0.045547
   12             0.000016   0.005330   0.000000   0.000908   0.000000
   13             0.016500   0.000657   0.000198   0.000103   0.000320
   14             0.000008   0.043528   0.000000   0.010339   0.000000

     ATOMIC MULLIKEN POPULATION IN EACH MOLECULAR ORBITAL
         BETA ORBITALS

                      1          2          3          4          5

                  1.000000   1.000000   1.000000   1.000000   1.000000

    1            -0.000000  -0.000000   0.993533   0.002342   0.000013
    2            -0.000000  -0.000000   0.001429   0.000007  -0.000002
    3             0.000000  -0.000003   0.002184   0.992170   0.002539
    4            -0.000049   0.000027   0.000042   0.002544   0.991291
    5             0.002224   0.003849  -0.000001  -0.000002   0.003229
    6            -0.000003   0.996131   0.000000  -0.000000  -0.000003
    7             0.997470  -0.000002  -0.000000  -0.000000   0.000001
    8            -0.000000   0.000000   0.000009   0.001459   0.000012
    9            -0.000000   0.000000   0.000009   0.001456   0.000012
   10             0.000000  -0.000000  -0.000002   0.000008   0.001452
   11             0.000000  -0.000000  -0.000002   0.000008   0.001456
   12            -0.000000   0.000000   0.001368   0.000001   0.000001
   13            -0.000000  -0.000000   0.001430   0.000007  -0.000002
   14             0.000358  -0.000002  -0.000000  -0.000000   0.000000

                      6          7          8          9         10

                  1.000000   1.000000   1.000000   1.000000   1.000000

    1             0.000003  -0.000116   0.001257   0.330233   0.318608
    2            -0.000000  -0.000000   0.000011   0.018786   0.030007
    3             0.000055   0.000167   0.002850   0.397325   0.052035
    4             0.002947   0.008581   0.009250   0.162589   0.401243
    5             0.997912   0.090038   0.114126  -0.000164   0.045026
    6            -0.000925   0.121696   0.694237   0.012290   0.015041
    7            -0.000075   0.729448   0.165158   0.000709   0.010938
    8             0.000001   0.000057   0.000384   0.014832   0.001594
    9             0.000001   0.000055   0.000331   0.014946   0.001604
   10             0.000031  -0.000095  -0.000023   0.006186   0.024321
   11             0.000031  -0.000095  -0.000034   0.006220   0.024139
   12             0.000000   0.000001  -0.000036   0.016866   0.041515
   13            -0.000000  -0.000000   0.000011   0.018821   0.029901
   14             0.000020   0.050262   0.012477   0.000361   0.004028

                     11         12         13         14         15

                  1.000000   1.000000   1.000000   1.000000   1.000000

    1             0.145351   0.041365   0.262704   0.362410   0.216409
    2             0.029665   0.004092   0.090572   0.022009   0.044831
    3             0.332873   0.077659   0.259988   0.077542   0.142188
    4             0.172565   0.145288   0.088796   0.038084   0.222106
    5             0.049999   0.159567   0.004678   0.057280   0.099735
    6             0.003728   0.036430   0.001394   0.019512   0.080661
    7             0.032774   0.341095   0.001829   0.126911   0.039544
    8             0.061961   0.013017   0.072431   0.005613   0.004279
    9             0.062337   0.013157   0.072843   0.005335   0.004071
   10             0.025528   0.017691   0.027716   0.002422   0.039133
   11             0.025534   0.018148   0.026852   0.002207   0.038576
   12             0.016922   0.018021   0.000000   0.230484   0.018642
   13             0.029723   0.004260   0.090196   0.022411   0.042155
   14             0.011040   0.110210   0.000000   0.027780   0.007672

                     16         17         18         19         20

                  1.000000   1.000000   1.000000   1.000000   1.000000

    1             0.229593   0.014907   0.212353   0.043986   0.080971
    2             0.101420   0.003210   0.024649   0.035224   0.005003
    3             0.042641   0.007821   0.214499   0.202289   0.305600
    4             0.241495   0.020708   0.069196   0.059119   0.271337
    5             0.034656   0.071672   0.096191   0.072140   0.044072
    6             0.010752   0.262340   0.116393   0.021878   0.068586
    7             0.035927   0.543382   0.094881   0.260151   0.056732
    8             0.014396   0.002985   0.053521   0.099735   0.017813
    9             0.015425   0.002415   0.054016   0.100457   0.016034
   10             0.084442   0.000598   0.018564   0.035025   0.022108
   11             0.084342   0.000751   0.020676   0.034962   0.019978
   12             0.000001   0.011317   0.000243   0.000003   0.065255
   13             0.104906   0.002453   0.024677   0.035031   0.004635
   14             0.000004   0.055442   0.000141   0.000000   0.021876

                     21         22         23         24

                  1.000000   1.000000   1.000000   1.000000

    1             0.002111   0.030216   0.000122   0.000451
    2             0.004068   0.000822   0.000090   0.000115
    3             0.050645   0.018862   0.001038   0.003981
    4             0.155654   0.136802   0.002425   0.114484
    5             0.054940   0.131458   0.180224   0.025453
    6             0.023429   0.416517   0.642962   0.729755
    7             0.496916   0.194049   0.157824   0.102866
    8             0.033487   0.003302   0.000618   0.001211
    9             0.034701   0.002832   0.000648   0.000982
   10             0.069138   0.013436   0.006712   0.005130
   11             0.070712   0.012762   0.007236   0.004605
   12             0.000000   0.004305   0.000000   0.000850
   13             0.004197   0.000715   0.000098   0.000100
   14             0.000001   0.033921   0.000004   0.010017

     ATOMIC SPIN POPULATION (ALPHA MINUS BETA)
       ATOM         MULL.POP.                    LOW.POP.
    1 C            -0.002794                    -0.002220
    2 H             0.000395                     0.000355
    3 C             0.014836                     0.009017
    4 C            -0.193119                    -0.098991
    5 C             0.761784                     0.662302
    6 O             0.278264                     0.293422
    7 O            -0.001831                     0.024875
    8 H            -0.002659                    -0.002070
    9 H            -0.002548                    -0.002017
   10 H             0.074180                     0.057949
   11 H             0.075938                     0.059309
   12 H            -0.000496                    -0.000349
   13 H             0.000413                     0.000374
   14 H            -0.002363                    -0.001955


          ********* ALL ELECTRONS ********

               ----- POPULATIONS IN EACH AO -----
                             MULLIKEN      LOWDIN
              1  C  1  S      1.98833     1.97657
              2  C  1  S      0.35255     0.41598
              3  C  1  X      0.54012     0.51775
              4  C  1  Y      0.53168     0.49949
              5  C  1  Z      0.53111     0.49785
              6  C  1  S      1.11303     0.58389
              7  C  1  X      0.46048     0.57254
              8  C  1  Y      0.52125     0.59684
              9  C  1  Z      0.53630     0.60043
             10  H  2  S      0.46958     0.47398
             11  H  2  S      0.36282     0.45708
             12  C  3  S      1.98920     1.97623
             13  C  3  S      0.34562     0.41013
             14  C  3  X      0.51767     0.50140
             15  C  3  Y      0.53666     0.50962
             16  C  3  Z      0.54176     0.51239
             17  C  3  S      1.10515     0.56290
             18  C  3  X      0.32662     0.51295
             19  C  3  Y      0.48591     0.57374
             20  C  3  Z      0.54016     0.58691
             21  C  4  S      1.98955     1.97615
             22  C  4  S      0.34689     0.41561
             23  C  4  X      0.54631     0.53582
             24  C  4  Y      0.52841     0.50110
             25  C  4  Z      0.52498     0.49338
             26  C  4  S      1.11745     0.56616
             27  C  4  X      0.36395     0.53952
             28  C  4  Y      0.49655     0.57871
             29  C  4  Z      0.52585     0.58729
             30  C  5  S      1.98573     1.97425
             31  C  5  S      0.38616     0.40045
             32  C  5  X      0.44190     0.43322
             33  C  5  Y      0.56802     0.55523
             34  C  5  Z      0.59411     0.59506
             35  C  5  S      0.49831     0.50230
             36  C  5  X      0.25263     0.44556
             37  C  5  Y      0.20689     0.49486
             38  C  5  Z      0.50464     0.61273
             39  O  6  S      1.98665     1.98086
             40  O  6  S      0.40737     0.56591
             41  O  6  X      0.75961     0.76401
             42  O  6  Y      0.65527     0.65625
             43  O  6  Z      0.69900     0.70808
             44  O  6  S      1.54068     1.05165
             45  O  6  X      0.99960     1.03564
             46  O  6  Y      0.85666     0.87750
             47  O  6  Z      0.91904     0.92389
             48  O  7  S      1.98613     1.98011
             49  O  7  S      0.40619     0.56827
             50  O  7  X      0.54255     0.52368
             51  O  7  Y      0.75083     0.75846
             52  O  7  Z      0.81457     0.82892
             53  O  7  S      1.51672     1.02836
             54  O  7  X      0.70528     0.73609
             55  O  7  Y      1.00143     0.98980
             56  O  7  Z      1.05153     1.03565
             57  H  8  S      0.46861     0.47880
             58  H  8  S      0.33416     0.44078
             59  H  9  S      0.46888     0.47907
             60  H  9  S      0.33590     0.44153
             61  H 10  S      0.47445     0.48991
             62  H 10  S      0.39877     0.47773
             63  H 11  S      0.47445     0.49014
             64  H 11  S      0.39961     0.47835
             65  H 12  S      0.47328     0.47874
             66  H 12  S      0.37775     0.46379
             67  H 13  S      0.46957     0.47394
             68  H 13  S      0.36229     0.45682
             69  H 14  S      0.41526     0.43332
             70  H 14  S      0.27360     0.35784

          ----- MULLIKEN ATOMIC OVERLAP POPULATIONS -----
          (OFF-DIAGONAL ELEMENTS NEED TO BE MULTIPLIED BY 2)

             1           2           3           4           5

    1    5.4136639
    2    0.3713208   0.5599299
    3    0.2171687  -0.0417643   5.4492724
    4   -0.0800172  -0.0008899   0.2120650   5.7184872
    5    0.0050831  -0.0000853  -0.0659766   0.2125444   4.9179417
    6    0.0001504   0.0000002   0.0132941  -0.1075640   0.4183480
    7   -0.0000047  -0.0000000   0.0018442  -0.0945960   0.1192545
    8   -0.0459199   0.0031465   0.3858631  -0.0440329   0.0021678
    9   -0.0460788  -0.0019865   0.3856039  -0.0434725   0.0021837
   10   -0.0018899   0.0032590  -0.0405364   0.3279482  -0.0664854
   11   -0.0019234  -0.0002465  -0.0420327   0.3270666  -0.0672118
   12    0.3718547  -0.0305717  -0.0438677   0.0036599  -0.0000588
   13    0.3714459  -0.0297024  -0.0419462  -0.0009453  -0.0000852
   14    0.0000010   0.0000000  -0.0002535   0.0096781  -0.0392356

             6           7           8           9          10

    6    8.5381211
    7   -0.0536976   8.5401948
    8    0.0029256   0.0000329   0.5288214
    9    0.0024546   0.0000273  -0.0271935   0.5312890
   10    0.0020973   0.0054855   0.0039069  -0.0038458   0.7203240
   11    0.0021056   0.0054231  -0.0036556   0.0039452  -0.0765504
   12    0.0000006   0.0000000  -0.0013476  -0.0013062  -0.0000226
   13    0.0000004  -0.0000000  -0.0019414   0.0031684  -0.0002515
   14    0.0056332   0.2512622  -0.0000027  -0.0000022  -0.0002202

            11          12          13          14

   11    0.7239465
   12   -0.0000144   0.5831188
   13    0.0034300  -0.0304206   0.5591113
   14   -0.0002163  -0.0000000  -0.0000000   0.4622167

          TOTAL MULLIKEN AND LOWDIN ATOMIC POPULATIONS
       ATOM         MULL.POP.    CHARGE          LOW.POP.     CHARGE
    1 C             6.574855   -0.574855         6.261341   -0.261341
    2 H             0.832410    0.167590         0.931063    0.068937
    3 C             6.388734   -0.388734         6.146271   -0.146271
    4 C             6.439931   -0.439931         6.193752   -0.193752
    5 C             5.438385    0.561615         6.013664   -0.013664
    6 O             8.823870   -0.823870         8.563793   -0.563793
    7 O             8.775226   -0.775226         8.449343   -0.449343
    8 H             0.802771    0.197229         0.919580    0.080420
    9 H             0.804787    0.195213         0.920599    0.079401
   10 H             0.873219    0.126781         0.967648    0.032352
   11 H             0.874066    0.125934         0.968492    0.031508
   12 H             0.851024    0.148976         0.942536    0.057464
   13 H             0.831863    0.168137         0.930759    0.069241
   14 H             0.688861    0.311139         0.791158    0.208842

          -------------------------------
          BOND ORDER AND VALENCE ANALYSIS     BOND ORDER THRESHOLD=0.050
          -------------------------------

                   BOND                       BOND                       BOND
  ATOM PAIR DIST  ORDER      ATOM PAIR DIST  ORDER      ATOM PAIR DIST  ORDER
    1   2  1.097  0.936        1   3  1.542  0.902        1  12  1.095  0.943
    1  13  1.097  0.936        3   4  1.537  0.902        3   8  1.096  0.925
    3   9  1.096  0.926        4   5  1.512  0.900        4  10  1.098  0.899
    4  11  1.098  0.898        5   6  1.225  1.505        5   7  1.384  0.694
    7  14  0.998  0.848

                       TOTAL       BONDED        FREE
      ATOM            VALENCE     VALENCE     VALENCE
    1 C                 3.689       3.689       0.000
    2 H                 0.927       0.927       0.000
    3 C                 3.615       3.615       0.000
    4 C                 3.599       3.584       0.015
    5 C                 3.489       3.086       0.403
    6 O                 1.716       1.621       0.096
    7 O                 1.603       1.599       0.004
    8 H                 0.919       0.919       0.000
    9 H                 0.919       0.919       0.000
   10 H                 0.920       0.915       0.006
   11 H                 0.920       0.914       0.006
   12 H                 0.929       0.929       0.000
   13 H                 0.927       0.927       0.000
   14 H                 0.892       0.892       0.000

          -----------------------------------------
          ATOMIC SPIN DENSITY AT THE NUCLEUS (A.U.)
          -----------------------------------------
                            SPIN DENS    ALPHA DENS     BETA DENS
    1  C            6.0    -0.0031057      46.99560      46.99870
    2  H            1.0     0.0001193       0.18428       0.18416
    3  C            6.0     0.0044897      47.02801      47.02352
    4  C            6.0    -0.0708782      47.00947      47.08035
    5  C            6.0     0.1592682      46.94751      46.78824
    6  O            8.0     0.1397665     116.85928     116.71951
    7  O            8.0     0.0241272     116.74418     116.72005
    8  H            1.0    -0.0008337       0.18389       0.18472
    9  H            1.0    -0.0008376       0.18399       0.18483
   10  H            1.0     0.0190525       0.19681       0.17776
   11  H            1.0     0.0194152       0.19702       0.17760
   12  H            1.0    -0.0000903       0.18582       0.18591
   13  H            1.0     0.0001169       0.18427       0.18416
   14  H            1.0    -0.0007705       0.16768       0.16845

          ---------------------
          ELECTROSTATIC MOMENTS
          ---------------------

 POINT   1           X           Y           Z (BOHR)    CHARGE
                -3.106494    0.096300    0.208608       -1.00 (A.U.)
         DX          DY          DZ         /D/  (DEBYE)
     3.529554    1.592845    1.082839    4.020876
 ...... END OF PROPERTY EVALUATION ......
 CPU     0: STEP CPU TIME=     0.03 TOTAL CPU TIME=          0.7 (      0.0 MIN)
 TOTAL WALL CLOCK TIME=          0.8 SECONDS, CPU UTILIZATION IS    77.38%
               580000  WORDS OF DYNAMIC MEMORY USED
 EXECUTION OF GAMESS TERMINATED NORMALLY Sun May 17 12:26:13 2020
 DDI: 263640 bytes (0.3 MB / 0 MWords) used by master data server.
Note: The following floating-point exceptions are signalling: IEEE_DENORMALNote: The following floating-point exceptions are signalling: IEEE_DENORMALNote: The following floating-point exceptions are signalling: IEEE_DENORMAL
Note: The following floating-point exceptions are signalling:Note: The following floating-point exceptions are signalling: IEEE_DENORMAL

 ----------------------------------------
 CPU timing information for all processes
 ========================================
 0: 0.552 + 0.103 = 0.655
 1: 0.541 + 0.04 = 0.546
 2: 0.481 + 0.13 = 0.495
 3: 0.556 + 0.08 = 0.564
 4: 0.508 + 0.11 = 0.519
 5: 0.520 + 0.06 = 0.526
 ----------------------------------------

 IEEE_DENORMAL

Note: The following floating-point exceptions are signalling: IEEE_DENORMAL
 ddikick.x: exited gracefully.
unset echo
----- accounting info -----
Files used on the master node pietdev were:
-rwxr-xr-x 1 piet piet      932 mei 17 12:26 /home/piet/scr/glutamaat_fukui_acid.F05*
-rw-r--r-- 1 piet piet 68812800 mei 17 12:26 /home/piet/scr/glutamaat_fukui_acid.F10
ls: No match.
ls: No match.
ls: No match.
zo 17 mei 2020 12:26:16 CEST
0.101u 0.031s 0:03.98 3.2%	0+0k 0+8io 0pf+0w
