----- GAMESS execution script 'rungms' -----
This job is running on host pietdev
under operating system Linux at do 21 mei 2020 19:59:53 CEST
Available scratch disk space (Kbyte units) at beginning of the job is
Filesystem     1K-blocks     Used Available Use% Mounted on
/dev/sda2      244568380 30779344 201295980  14% /
GAMESS temporary binary files will be written to /home/piet/scr
GAMESS supplementary output files will be written to /home/piet/gamess/scr
Copying input file d-mannose_charge_chelpg.inp to your run's scratch directory...
cp d-mannose_charge_chelpg.inp /home/piet/scr/d-mannose_charge_chelpg.F05
unset echo
 
Assuming a single but multicore node.
 
/home/piet/gamess/ddikick.x /home/piet/gamess/gamess.03.x d-mannose_charge_chelpg -ddi 1 8 pietdev:cpus=8 -scr /home/piet/scr

 Distributed Data Interface kickoff program.
 Initiating 8 compute processes on 1 nodes to run the following command:
 /home/piet/gamess/gamess.03.x d-mannose_charge_chelpg 

          ******************************************************
          *         GAMESS VERSION = 30 SEP 2019 (R2)          *
          *             FROM IOWA STATE UNIVERSITY             *
          * M.W.SCHMIDT, K.K.BALDRIDGE, J.A.BOATZ, S.T.ELBERT, *
          *   M.S.GORDON, J.H.JENSEN, S.KOSEKI, N.MATSUNAGA,   *
          *          K.A.NGUYEN, S.J.SU, T.L.WINDUS,           *
          *       TOGETHER WITH M.DUPUIS, J.A.MONTGOMERY       *
          *         J.COMPUT.CHEM.  14, 1347-1363(1993)        *
          **************** 64 BIT LINUX VERSION ****************

  SINCE 1993, STUDENTS AND POSTDOCS WORKING AT IOWA STATE UNIVERSITY
  AND ALSO IN THEIR VARIOUS JOBS AFTER LEAVING ISU HAVE MADE IMPORTANT
  CONTRIBUTIONS TO THE CODE:
     IVANA ADAMOVIC, CHRISTINE AIKENS, YURI ALEXEEV, POOJA ARORA,
     ANDREY ASADCHEV, ROB BELL, PRADIPTA BANDYOPADHYAY, JONATHAN BENTZ,
     COLLEEN BERTONI, BRETT BODE, KURT BRORSEN, CALEB CARLIN, GALINA CHABAN,
     WEI CHEN, CHEOL HO CHOI, PAUL DAY, ALBERT DEFUSCO, NUWAN DESILVA,
     TIM DUDLEY, DMITRI FEDOROV, ALEX FINDLATER, GRAHAM FLETCHER, 
     MARK FREITAG, KURT GLAESEMANN, EMILIE B GUIDEZ, ANASTASIA GUNINA, 
     DAN KEMP, SAROM SOK LEANG, GRANT MERRILL,
     NORIYUKI MINEZAWA, JONATHAN MULLIN,
     TAKESHI NAGATA, SEAN NEDD, HEATHER NETZLOFF, BOSILJKA NJEGIC, RYAN OLSON,
     MIKE PAK, BUU PHAM, DAVID POOLE,
     SPENCER PRUITT, LUKE ROSKOP, TOSAPORN SATTASATHUCHANA,
     JIM SHOEMAKER, LYUDMILA SLIPCHENKO,
     TONY SMITH, JIE SONG, TETSUYA TAKETSUGU, SIMON WEBB,
     JORGE LUIS GALVEZ VALLEJO, PENG XU, SOOHAENG YOO,
     FEDERICO ZAHARIEV

  ADDITIONAL CODE HAS BEEN PROVIDED BY COLLABORATORS IN OTHER GROUPS:
     IOWA STATE UNIVERSITY:
          JOE IVANIC, AARON WEST, LAIMUTIS BYTAUTAS, KLAUS RUEDENBERG
     UNIVERSITY OF TOKYO: KIMIHIKO HIRAO, TAKAHITO NAKAJIMA,
          TAKAO TSUNEDA, MUNEAKI KAMIYA, SUSUMU YANAGISAWA,
          KIYOSHI YAGI, MAHITO CHIBA, SEIKEN TOKURA, NAOAKI KAWAKAMI
     UNIVERSITY OF AARHUS: FRANK JENSEN
     UNIVERSITY OF IOWA: VISVALDAS KAIRYS, HUI LI
     NATIONAL INST. OF STANDARDS AND TECHNOLOGY: WALT STEVENS, DAVID GARMER
     UNIVERSITY OF PISA: BENEDETTA MENNUCCI, JACOPO TOMASI
     UNIVERSITY OF MEMPHIS: HENRY KURTZ, PRAKASHAN KORAMBATH
     UNIVERSITY OF ALBERTA: TOBY ZENG, MARIUSZ KLOBUKOWSKI
     UNIVERSITY OF NEW ENGLAND: MARK SPACKMAN
     MIE UNIVERSITY: HIROAKI UMEDA
     NAT. INST. OF ADVANCED INDUSTRIAL SCIENCE AND TECHNOLOGY: KAZUO KITAURA
     MICHIGAN STATE UNIVERSITY:
          KAROL KOWALSKI, MARTA WLOCH, JEFFREY GOUR, JESSE LUTZ,
          WEI LI, JUN SHEN, J. EMILIANO DEUSTUA, PIOTR PIECUCH
     UNIVERSITY OF MINNESOTA:
          ANDREW SAND, PRACHI SHARMA, YINAN SHU
     UNIVERSITY OF SILESIA: MONIKA MUSIAL, STANISLAW KUCHARSKI
     FACULTES UNIVERSITAIRES NOTRE-DAME DE LA PAIX:
          OLIVIER QUINET, BENOIT CHAMPAGNE
     UNIVERSITY OF CALIFORNIA - SANTA BARBARA: BERNARD KIRTMAN
     INSTITUTE FOR MOLECULAR SCIENCE:
          KAZUYA ISHIMURA, MICHIO KATOUDA, AND SHIGERU NAGASE
     UNIVERSITY OF NOTRE DAME: ANNA POMOGAEVA, DAN CHIPMAN
     KYUSHU UNIVERSITY:
          HARUYUKI NAKANO,
          FENG LONG GU, JACEK KORCHOWIEC, MARCIN MAKOWSKI, AND YURIKO AOKI,
          HIROTOSHI MORI AND EISAKU MIYOSHI
     PENNSYLVANIA STATE UNIVERSITY:
          TZVETELIN IORDANOV, CHET SWALINA, JONATHAN SKONE,
          SHARON HAMMES-SCHIFFER
     WASEDA UNIVERSITY:
          MASATO KOBAYASHI, TOMOKO AKAMA, TSUGUKI TOUMA,
          TAKESHI YOSHIKAWA, YASUHIRO IKABATA, JUNJI SEINO,
          YUYA NAKAJIMA, HIROMI NAKAI
     NANJING UNIVERSITY: SHUHUA LI
     UNIVERSITY OF NEBRASKA:
          PEIFENG SU, DEJUN SI, NANDUN THELLAMUREGE, YALI WANG, HUI LI
     UNIVERSITY OF ZURICH: ROBERTO PEVERATI, KIM BALDRIDGE
     N. COPERNICUS UNIVERSITY AND JACKSON STATE UNIVERSITY:
          MARIA BARYSZ
     UNIVERSITY OF COPENHAGEN: Jimmy Kromann, CASPER STEINMANN
     TOKYO INSTITUTE OF TECHNOLOGY: HIROYA NAKATA
     NAGOYA UNIVERSITY: YOSHIO NISHIMOTO, STEPHAN IRLE
     MOSCOW STATE UNIVERSITY: VLADIMIR MIRONOV
     A.N.NESMEYANOV INSTITUTE OF ORGANOELEMENT COMPOUNDS OF RUSSIAN ACADEMY OF SCIENCES:
          IGOR S. GERASIMOV
     JOHANNES KEPLER UNIVERSITY LINZ:
          CHRISTIAN FRIEDL


 PARALLEL VERSION RUNNING ON        8 PROCESSORS IN        1 NODES.

 EXECUTION OF GAMESS BEGUN Thu May 21 19:59:53 2020

            ECHO OF THE FIRST FEW INPUT CARDS -
 INPUT CARD> $BASIS GBASIS=N21 NGAUSS=3 $END                                                
 INPUT CARD> $CONTRL SCFTYP=RHF DFTTYP=B3LYP MAXIT=60 MULT=1 ICHARG=0 $END                  
 INPUT CARD> $SYSTEM MEMDDI=1000 MWORDS=30 $END                                             
 INPUT CARD> $SCF DIRSCF=.TRUE. $END                                                        
 INPUT CARD> $ELPOT  IEPOT=1 WHERE=PDC $END                                                 
 INPUT CARD> $PDC PTSEL=CHELPG CONSTR=CHARGE $END                                           
 INPUT CARD> $DATA                                                                          
 INPUT CARD>                                                                                
 INPUT CARD>C1                                                                              
 INPUT CARD>O 8.0000000 0.7281032369 1.3475501259 -1.3232430038                             
 INPUT CARD>O 8.0000000 -0.6612221031 -0.9176730888 -1.6081150751                           
 INPUT CARD>O 8.0000000 1.6699778206 -1.1308638790 1.1883609037                             
 INPUT CARD>O 8.0000000 -1.9426626561 1.3996464979 0.9778032710                             
 INPUT CARD>O 8.0000000 4.1585027013 -0.4247782659 0.5351506188                             
 INPUT CARD>O 8.0000000 -3.9926164747 -0.2626553017 0.7391265081                            
 INPUT CARD>C 6.0000000 0.5591497217 0.5389041774 -0.0921566575                             
 INPUT CARD>C 6.0000000 -0.6939939572 -0.3143397824 -0.2844401402                           
 INPUT CARD>C 6.0000000 1.7993763131 -0.3298251515 -0.0177447150                            
 INPUT CARD>C 6.0000000 -1.9597405214 0.5726301113 -0.2006137269                            
 INPUT CARD>C 6.0000000 3.0871999956 0.4909597576 0.0916746655                              
 INPUT CARD>C 6.0000000 -3.1744163242 -0.3260160169 -0.1861351056                           
 INPUT CARD>H 1.0000000 0.4545200424 1.1527351765 0.8050411257                              
 INPUT CARD>H 1.0000000 -0.6982425299 -1.1022913355 0.4707379321                            
 INPUT CARD>H 1.0000000 1.8282331979 -0.9541367159 -0.9248546130                            
 INPUT CARD>H 1.0000000 -1.9780251738 1.1778988579 -1.1215675755                            
 INPUT CARD>H 1.0000000 2.9911786696 1.2159855754 0.9028323907                              
 INPUT CARD>H 1.0000000 3.3133270199 1.0047906347 -0.8461249845                             
 INPUT CARD>H 1.0000000 0.2369942786 2.2029190157 -1.1996863162                             
 INPUT CARD>H 1.0000000 -0.2280105871 -0.1935225523 -2.1559336819                           
 INPUT CARD>H 1.0000000 -3.2343844261 -1.0350568596 -1.0216598238                           
 INPUT CARD>H 1.0000000 2.6242609139 -1.3334781882 1.4251331321                             
 INPUT CARD>H 1.0000000 -2.7576594266 1.1129596755 1.4935114057                             
 INPUT CARD>H 1.0000000 4.4216502688 -0.9761424681 -0.2526965345                            
 INPUT CARD> $END                                                                           
   30000000 WORDS OF MEMORY AVAILABLE

     BASIS OPTIONS
     -------------
     GBASIS=N21          IGAUSS=       3      POLAR=NONE    
     NDFUNC=       0     NFFUNC=       0     DIFFSP=       F
     NPFUNC=       0      DIFFS=       F     BASNAM=        


     RUN TITLE
     ---------
                                                                                 

 THE POINT GROUP OF THE MOLECULE IS C1      
 THE ORDER OF THE PRINCIPAL AXIS IS     0

 ATOM      ATOMIC                      COORDINATES (BOHR)
           CHARGE         X                   Y                   Z
 O           8.0     1.3759156085        2.5465004927       -2.5005666924
 O           8.0    -1.2495285919       -1.7341506841       -3.0388968487
 O           8.0     3.1558004865       -2.1370228607        2.2456764825
 O           8.0    -3.6711001066        2.6449483607        1.8477802521
 O           8.0     7.8584306247       -0.8027145281        1.0112880317
 O           8.0    -7.5449511112       -0.4963465494        1.3967465706
 C           6.0     1.0566397601        1.0183812289       -0.1741508306
 C           6.0    -1.3114584162       -0.5940160558       -0.5375139249
 C           6.0     3.4003281806       -0.6232791602       -0.0335326491
 C           6.0    -3.7033725925        1.0821140027       -0.3791049732
 C           6.0     5.8339620610        0.9277794129        0.1732399978
 C           6.0    -5.9987770237       -0.6160809395       -0.3517443463
 H           1.0     0.8589183361        2.1783536200        1.5213071364
 H           1.0    -1.3194870545       -2.0830285827        0.8895657037
 H           1.0     3.4548597857       -1.8030569479       -1.7477217971
 H           1.0    -3.7379255753        2.2259060827       -2.1194553944
 H           1.0     5.6525080659        2.2978795425        1.7061058313
 H           1.0     6.2612801753        1.8987789746       -1.5989443721
 H           1.0     0.4478542472        4.1629133128       -2.2670784088
 H           1.0    -0.4308775319       -0.3657045963       -4.0741239065
 H           1.0    -6.1121003043       -1.9559738464       -1.9306571196
 H           1.0     4.9591340476       -2.5199083863        2.6931111157
 H           1.0    -5.2112206837        2.1031888221        2.8223273163
 H           1.0     8.3557074216       -1.8446417897       -0.4775272083

          INTERNUCLEAR DISTANCES (ANGS.)
          ------------------------------

                1 O          2 O          3 O          4 O          5 O     

   1 O       0.0000000    2.6725668 *  3.6520977    3.5256940    4.2851389  
   2 O       2.6725668 *  0.0000000    3.6469468    3.7012206    5.2977618  
   3 O       3.6520977    3.6469468    0.0000000    4.4157659    2.6679574 *
   4 O       3.5256940    3.7012206    4.4157659    0.0000000    6.3834697  
   5 O       4.2851389    5.2977618    2.6679574 *  6.3834697    0.0000000  
   6 O       5.3973442    4.1275634    5.7463529    2.6500046 *  8.1552826  
   7 C       1.4825745 *  2.4308547 *  2.3794515 *  2.8539020 *  3.7785632  
   8 C       2.4214355 *  1.4550603 *  2.9024502 *  2.4678292 *  4.9224638  
   9 C       2.3802394 *  2.9882081 *  1.4536498 *  4.2408777    2.4249096 *
  10 C       3.0141834    2.4265642 *  4.2433474    1.4397619 *  6.2425213  
  11 C       2.8811589 *  4.3501954    2.4169301 *  5.1875287    1.4774764 *
  12 C       4.3958500    2.9475804 *  5.0995268    2.4186527 *  7.3689693  
  13 H       2.1546215 *  3.3696875    2.6151666 *  2.4160498 *  4.0349569  
  14 H       3.3547806    2.0873630 *  2.4747256 *  2.8399630 *  4.9041969  
  15 H       2.5820073 *  2.5817750 *  2.1264894 *  4.8352930    2.8003556 *
  16 H       2.7189309 *  2.5223244 *  4.8963334    2.1113457 *  6.5551707  
  17 H       3.1771420    4.9190840    2.7082837 *  4.9378277    2.0469346 *
  18 H       2.6511333 *  4.4803500    3.3764996    5.5774594    2.1600721 *
  19 H       0.9940373 *  3.2728736    4.3439981    3.1839617    5.0291829  
  20 H       1.9956033 *  1.0060673 *  3.9579382    3.9113331    5.1513991  
  21 H       4.6334735    2.6417557 *  5.3801617    3.4050225    7.5796358  
  22 H       4.2821605    4.4908671    1.0038774 *  5.3410547    1.9929130 *
  23 H       4.4877254    4.2589442    4.9731110    1.0061630 *  7.1495729  
  24 H       4.4930954    5.2608145    3.1100300    6.9038382    0.9969715 *

                6 O          7 C          8 C          9 C         10 C     

   1 O       5.3973442    1.4825745 *  2.4214355 *  2.3802394 *  3.0141834  
   2 O       4.1275634    2.4308547 *  1.4550603 *  2.9882081 *  2.4265642 *
   3 O       5.7463529    2.3794515 *  2.9024502 *  1.4536498 *  4.2433474  
   4 O       2.6500046 *  2.8539020 *  2.4678292 *  4.2408777    1.4397619 *
   5 O       8.1552826    3.7785632    4.9224638    2.4249096 *  6.2425213  
   6 O       0.0000000    4.6959669    3.4541671    5.8416219    2.3902715 *
   7 C       4.6959669    0.0000000    1.5281908 *  1.5160441 *  2.5214497 *
   8 C       3.4541671    1.5281908 *  0.0000000    2.5076406 *  1.5478556 *
   9 C       5.8416219    1.5160441 *  2.5076406 *  0.0000000    3.8702488  
  10 C       2.3902715 *  2.5214497 *  1.5478556 *  3.8702488    0.0000000  
  11 C       7.1491909    2.5351787 *  3.8842499    1.5310618 *  5.0560569  
  12 C       1.2367599 *  3.8335929    2.4823971 *  4.9766438    1.5110300 *
  13 H       4.6674081    1.0921079 *  2.1583241 *  2.1641627 *  2.6789023 *
  14 H       3.4102670    2.1427572 *  1.0914118 *  2.6595900 *  2.2016930 *
  15 H       6.0933792    2.1291148 *  2.6797576 *  1.1015653 *  4.1478050  
  16 H       3.0977342    2.8116290 *  2.1392276 *  4.2143112    1.1021981 *
  17 H       7.1404883    2.7135230 *  4.1631730    2.1580977 *  5.1130324  
  18 H       7.5826283    2.8932700 *  4.2560799    2.1816186 *  5.3299802  
  19 H       5.2657059    2.0246855 *  2.8356669 *  3.2020020    2.9123241 *
  20 H       4.7495695    2.3270681 *  1.9324144 *  2.9496997 *  2.7219762 *
  21 H       2.0668547 *  4.2109655    2.7416254 *  5.1811142    2.2098623 *
  22 H       6.7379769    3.1737467    3.8693797    1.9415588 *  5.2239229  
  23 H       1.9966302 *  3.7209012    3.0752253    5.0131924    1.9490230 *
  24 H       8.5025091    4.1521139    5.1583724    2.7109499 *  6.5668529  

               11 C         12 C         13 H         14 H         15 H     

   1 O       2.8811589 *  4.3958500    2.1546215 *  3.3547806    2.5820073 *
   2 O       4.3501954    2.9475804 *  3.3696875    2.0873630 *  2.5817750 *
   3 O       2.4169301 *  5.0995268    2.6151666 *  2.4747256 *  2.1264894 *
   4 O       5.1875287    2.4186527 *  2.4160498 *  2.8399630 *  4.8352930  
   5 O       1.4774764 *  7.3689693    4.0349569    4.9041969    2.8003556 *
   6 O       7.1491909    1.2367599 *  4.6674081    3.4102670    6.0933792  
   7 C       2.5351787 *  3.8335929    1.0921079 *  2.1427572 *  2.1291148 *
   8 C       3.8842499    2.4823971 *  2.1583241 *  1.0914118 *  2.6797576 *
   9 C       1.5310618 *  4.9766438    2.1641627 *  2.6595900 *  1.1015653 *
  10 C       5.0560569    1.5110300 *  2.6789023 *  2.2016930 *  4.1478050  
  11 C       0.0000000    6.3207964    2.8067494 *  4.1245258    2.1694776 *
  12 C       6.3207964    0.0000000    4.0420681    2.6768493 *  5.0957575  
  13 H       2.8067494 *  4.0420681    0.0000000    2.5545576 *  3.0526278  
  14 H       4.1245258    2.6768493 *  2.5545576 *  0.0000000    2.8901052 *
  15 H       2.1694776 *  5.0957575    3.0526278    2.8901052 *  0.0000000  
  16 H       5.2536033    2.1373221 *  3.1031807    3.0614617    4.3671357  
  17 H       1.0921810 *  6.4481145    2.5393308 *  4.3786918    3.0663191  
  18 H       1.0929885 *  6.6556327    3.3046958    4.7187512    2.4594915 *
  19 H       3.5668039    4.3658356    2.2735733 *  3.8196074    3.5460647  
  20 H       4.0633583    3.5466840    3.3234966    2.8189329 *  2.5144041 *
  21 H       6.5977777    1.0974683 *  4.6616828    2.9434312 *  5.0641896  
  22 H       2.3067288 *  6.1021163    3.3576102    3.4645846    2.5099806 *
  23 H       6.0427156    2.2506776 *  3.2853722    3.1928985    5.5813791  
  24 H       2.0128929 *  7.6241277    4.6248299    5.1722890    2.6791963 *

               16 H         17 H         18 H         19 H         20 H     

   1 O       2.7189309 *  3.1771420    2.6511333 *  0.9940373 *  1.9956033 *
   2 O       2.5223244 *  4.9190840    4.4803500    3.2728736    1.0060673 *
   3 O       4.8963334    2.7082837 *  3.3764996    4.3439981    3.9579382  
   4 O       2.1113457 *  4.9378277    5.5774594    3.1839617    3.9113331  
   5 O       6.5551707    2.0469346 *  2.1600721 *  5.0291829    5.1513991  
   6 O       3.0977342    7.1404883    7.5826283    5.2657059    4.7495695  
   7 C       2.8116290 *  2.7135230 *  2.8932700 *  2.0246855 *  2.3270681 *
   8 C       2.1392276 *  4.1631730    4.2560799    2.8356669 *  1.9324144 *
   9 C       4.2143112    2.1580977 *  2.1816186 *  3.2020020    2.9496997 *
  10 C       1.1021981 *  5.1130324    5.3299802    2.9123241 *  2.7219762 *
  11 C       5.2536033    1.0921810 *  1.0929885 *  3.5668039    4.0633583  
  12 C       2.1373221 *  6.4481145    6.6556327    4.3658356    3.5466840  
  13 H       3.1031807    2.5393308 *  3.3046958    2.2735733 *  3.3234966  
  14 H       3.0614617    4.3786918    4.7187512    3.8196074    2.8189329 *
  15 H       4.3671357    3.0663191    2.4594915 *  3.5460647    2.5144041 *
  16 H       0.0000000    5.3658767    5.3013435    2.4419419 *  2.4521951 *
  17 H       5.3658767    0.0000000    1.7908754 *  3.6027981    4.6589637  
  18 H       5.3013435    1.7908754 *  0.0000000    3.3202922    3.9613918  
  19 H       2.4419419 *  3.6027981    3.3202922    0.0000000    2.6217496 *
  20 H       2.4521951 *  4.6589637    3.9613918    2.6217496 *  0.0000000  
  21 H       2.5466828 *  6.8940915    6.8603437    4.7504370    3.3216021  
  22 H       5.8286994    2.6281538 *  3.3318053    5.0094735    4.7179435  
  23 H       2.7295942 *  5.7800221    6.5071096    4.1724425    4.6286573  
  24 H       6.8081331    2.8612797 *  2.3461956 *  5.3399033    5.0846978  

               21 H         22 H         23 H         24 H     

   1 O       4.6334735    4.2821605    4.4877254    4.4930954  
   2 O       2.6417557 *  4.4908671    4.2589442    5.2608145  
   3 O       5.3801617    1.0038774 *  4.9731110    3.1100300  
   4 O       3.4050225    5.3410547    1.0061630 *  6.9038382  
   5 O       7.5796358    1.9929130 *  7.1495729    0.9969715 *
   6 O       2.0668547 *  6.7379769    1.9966302 *  8.5025091  
   7 C       4.2109655    3.1737467    3.7209012    4.1521139  
   8 C       2.7416254 *  3.8693797    3.0752253    5.1583724  
   9 C       5.1811142    1.9415588 *  5.0131924    2.7109499 *
  10 C       2.2098623 *  5.2239229    1.9490230 *  6.5668529  
  11 C       6.5977777    2.3067288 *  6.0427156    2.0128929 *
  12 C       1.0974683 *  6.1021163    2.2506776 *  7.6241277  
  13 H       4.6616828    3.3576102    3.2853722    4.6248299  
  14 H       2.9434312 *  3.4645846    3.1928985    5.1722890  
  15 H       5.0641896    2.5099806 *  5.5813791    2.6791963 *
  16 H       2.5466828 *  5.8286994    2.7295942 *  6.8081331  
  17 H       6.8940915    2.6281538 *  5.7800221    2.8612797 *
  18 H       6.8603437    3.3318053    6.5071096    2.3461956 *
  19 H       4.7504370    5.0094735    4.1724425    5.3399033  
  20 H       3.3216021    4.7179435    4.6286573    5.0846978  
  21 H       0.0000000    6.3560661    3.3417552    7.6947802  
  22 H       6.3560661    0.0000000    5.9122585    2.4846347 *
  23 H       3.3417552    5.9122585    0.0000000    7.6782861  
  24 H       7.6947802    2.4846347 *  7.6782861    0.0000000  

  * ... LESS THAN  3.000


     ATOMIC BASIS SET
     ----------------
 THE CONTRACTED PRIMITIVE FUNCTIONS HAVE BEEN UNNORMALIZED
 THE CONTRACTED BASIS FUNCTIONS ARE NOW NORMALIZED TO UNITY

  SHELL TYPE  PRIMITIVE        EXPONENT          CONTRACTION COEFFICIENT(S)

 O         

      1   S       1           322.0370000    0.059239393389
      1   S       2            48.4308000    0.351499960776
      1   S       3            10.4206000    0.707657921031

      2   L       4             7.4029400   -0.404453583190    0.244586106967
      2   L       5             1.5762000    1.221561761397    0.853955373466

      3   L       6             0.3736840    1.000000000000    1.000000000000

 O         

      4   S       7           322.0370000    0.059239393389
      4   S       8            48.4308000    0.351499960776
      4   S       9            10.4206000    0.707657921031

      5   L      10             7.4029400   -0.404453583190    0.244586106967
      5   L      11             1.5762000    1.221561761397    0.853955373466

      6   L      12             0.3736840    1.000000000000    1.000000000000

 O         

      7   S      13           322.0370000    0.059239393389
      7   S      14            48.4308000    0.351499960776
      7   S      15            10.4206000    0.707657921031

      8   L      16             7.4029400   -0.404453583190    0.244586106967
      8   L      17             1.5762000    1.221561761397    0.853955373466

      9   L      18             0.3736840    1.000000000000    1.000000000000

 O         

     10   S      19           322.0370000    0.059239393389
     10   S      20            48.4308000    0.351499960776
     10   S      21            10.4206000    0.707657921031

     11   L      22             7.4029400   -0.404453583190    0.244586106967
     11   L      23             1.5762000    1.221561761397    0.853955373466

     12   L      24             0.3736840    1.000000000000    1.000000000000

 O         

     13   S      25           322.0370000    0.059239393389
     13   S      26            48.4308000    0.351499960776
     13   S      27            10.4206000    0.707657921031

     14   L      28             7.4029400   -0.404453583190    0.244586106967
     14   L      29             1.5762000    1.221561761397    0.853955373466

     15   L      30             0.3736840    1.000000000000    1.000000000000

 O         

     16   S      31           322.0370000    0.059239393389
     16   S      32            48.4308000    0.351499960776
     16   S      33            10.4206000    0.707657921031

     17   L      34             7.4029400   -0.404453583190    0.244586106967
     17   L      35             1.5762000    1.221561761397    0.853955373466

     18   L      36             0.3736840    1.000000000000    1.000000000000

 C         

     19   S      37           172.2560000    0.061766907377
     19   S      38            25.9109000    0.358794042852
     19   S      39             5.5333500    0.700713083689

     20   L      40             3.6649800   -0.395895162119    0.236459946619
     20   L      41             0.7705450    1.215834355681    0.860618805716

     21   L      42             0.1958570    1.000000000000    1.000000000000

 C         

     22   S      43           172.2560000    0.061766907377
     22   S      44            25.9109000    0.358794042852
     22   S      45             5.5333500    0.700713083689

     23   L      46             3.6649800   -0.395895162119    0.236459946619
     23   L      47             0.7705450    1.215834355681    0.860618805716

     24   L      48             0.1958570    1.000000000000    1.000000000000

 C         

     25   S      49           172.2560000    0.061766907377
     25   S      50            25.9109000    0.358794042852
     25   S      51             5.5333500    0.700713083689

     26   L      52             3.6649800   -0.395895162119    0.236459946619
     26   L      53             0.7705450    1.215834355681    0.860618805716

     27   L      54             0.1958570    1.000000000000    1.000000000000

 C         

     28   S      55           172.2560000    0.061766907377
     28   S      56            25.9109000    0.358794042852
     28   S      57             5.5333500    0.700713083689

     29   L      58             3.6649800   -0.395895162119    0.236459946619
     29   L      59             0.7705450    1.215834355681    0.860618805716

     30   L      60             0.1958570    1.000000000000    1.000000000000

 C         

     31   S      61           172.2560000    0.061766907377
     31   S      62            25.9109000    0.358794042852
     31   S      63             5.5333500    0.700713083689

     32   L      64             3.6649800   -0.395895162119    0.236459946619
     32   L      65             0.7705450    1.215834355681    0.860618805716

     33   L      66             0.1958570    1.000000000000    1.000000000000

 C         

     34   S      67           172.2560000    0.061766907377
     34   S      68            25.9109000    0.358794042852
     34   S      69             5.5333500    0.700713083689

     35   L      70             3.6649800   -0.395895162119    0.236459946619
     35   L      71             0.7705450    1.215834355681    0.860618805716

     36   L      72             0.1958570    1.000000000000    1.000000000000

 H         

     37   S      73             5.4471780    0.156284978695
     37   S      74             0.8245472    0.904690876670

     38   S      75             0.1831916    1.000000000000

 H         

     39   S      76             5.4471780    0.156284978695
     39   S      77             0.8245472    0.904690876670

     40   S      78             0.1831916    1.000000000000

 H         

     41   S      79             5.4471780    0.156284978695
     41   S      80             0.8245472    0.904690876670

     42   S      81             0.1831916    1.000000000000

 H         

     43   S      82             5.4471780    0.156284978695
     43   S      83             0.8245472    0.904690876670

     44   S      84             0.1831916    1.000000000000

 H         

     45   S      85             5.4471780    0.156284978695
     45   S      86             0.8245472    0.904690876670

     46   S      87             0.1831916    1.000000000000

 H         

     47   S      88             5.4471780    0.156284978695
     47   S      89             0.8245472    0.904690876670

     48   S      90             0.1831916    1.000000000000

 H         

     49   S      91             5.4471780    0.156284978695
     49   S      92             0.8245472    0.904690876670

     50   S      93             0.1831916    1.000000000000

 H         

     51   S      94             5.4471780    0.156284978695
     51   S      95             0.8245472    0.904690876670

     52   S      96             0.1831916    1.000000000000

 H         

     53   S      97             5.4471780    0.156284978695
     53   S      98             0.8245472    0.904690876670

     54   S      99             0.1831916    1.000000000000

 H         

     55   S     100             5.4471780    0.156284978695
     55   S     101             0.8245472    0.904690876670

     56   S     102             0.1831916    1.000000000000

 H         

     57   S     103             5.4471780    0.156284978695
     57   S     104             0.8245472    0.904690876670

     58   S     105             0.1831916    1.000000000000

 H         

     59   S     106             5.4471780    0.156284978695
     59   S     107             0.8245472    0.904690876670

     60   S     108             0.1831916    1.000000000000

 TOTAL NUMBER OF BASIS SET SHELLS             =   60
 NUMBER OF CARTESIAN GAUSSIAN BASIS FUNCTIONS =  132
 NUMBER OF ELECTRONS                          =   96
 CHARGE OF MOLECULE                           =    0
 SPIN MULTIPLICITY                            =    1
 NUMBER OF OCCUPIED ORBITALS (ALPHA)          =   48
 NUMBER OF OCCUPIED ORBITALS (BETA )          =   48
 TOTAL NUMBER OF ATOMS                        =   24
 THE NUCLEAR REPULSION ENERGY IS      783.1296780918

 SELECTED MURRAY-HANDY-LAMING RADIAL GRID

 LEGACY BECKE'S FUZZY CELL METHOD

 SELECTED ORIGINAL BECKE'S PARTITION FUNCTION

     LEBEDEV GRID-BASED DFT OPTIONS
     ------------------------------
     DFTTYP=B3LYP   
     NRAD  =      96     NLEB  =     302
     NRAD0 =      24     NLEB0 =     110
     SWOFF =    5.00E-03 (PURE SCF -> DFT)
     SWITCH=    3.00E-04 (COARSE -> TIGHT GRID)
     THRESH=    0.00E+00 GTHRE=    1.00E+00

 GRIMME'S EMPIRICAL DISPERSION CORRECTION= F

     $CONTRL OPTIONS
     ---------------
 SCFTYP=RHF          RUNTYP=ENERGY       EXETYP=RUN     
 MPLEVL=       0     CITYP =NONE         CCTYP =NONE         VBTYP =NONE    
 DFTTYP=B3LYP        TDDFT =NONE    
 MULT  =       1     ICHARG=       0     NZVAR =       0     COORD =UNIQUE  
 PP    =NONE         RELWFN=NONE         LOCAL =NONE         NUMGRD=       F
 ISPHER=      -1     NOSYM =       0     MAXIT =      60     UNITS =ANGS    
 PLTORB=       F     MOLPLT=       F     AIMPAC=       F     FRIEND=        
 NPRINT=       7     IREST =       0     GEOM  =INPUT   
 NORMF =       0     NORMP =       0     ITOL  =      20     ICUT  =       9
 INTTYP=BEST         GRDTYP=BEST         QMTTOL= 1.0E-06

     $SYSTEM OPTIONS
     ---------------
  REPLICATED MEMORY=    30000000 WORDS (ON EVERY NODE).
 DISTRIBUTED MEMDDI=        1000 MILLION WORDS IN AGGREGATE,
 MEMDDI DISTRIBUTED OVER   8 PROCESSORS IS   125000000 WORDS/PROCESSOR.
 TOTAL MEMORY REQUESTED ON EACH PROCESSOR=   155000000 WORDS.
 TIMLIM=      525600.00 MINUTES, OR     365.0 DAYS.
 PARALL= T  BALTYP=  DLB     KDIAG=    0  COREFL= F
 MXSEQ2=     300 MXSEQ3=     150  mem10=         0

     INPUT FOR POTENTIAL-DERIVED CHARGES 
     -----------------------------------
     VDWSCL=    1.00   RMAX=    3.00   DELR=    0.80
     VDWINC=    0.20 PTDENS=    0.28
     LAYER =       4  NFREQ=      30 MAXPDC=   10000
     CONSTR=CHARGE    UNITS=ANGS      PTSEL=CHELPG  
     CENTER=  0.0000  0.0000  0.0000
     DPOLE =  0.0000  0.0000  0.0000
     QPOLE =  0.0000  0.0000  0.0000  0.0000  0.0000  0.0000


          ----------------
          PROPERTIES INPUT
          ----------------

     MOMENTS            FIELD           POTENTIAL          DENSITY
 IEMOM =       1   IEFLD =       0   IEPOT =       1   IEDEN =       0
 WHERE =COMASS     WHERE =NUCLEI     WHERE =PDC        WHERE =NUCLEI  
 OUTPUT=BOTH       OUTPUT=BOTH       OUTPUT=BOTH       OUTPUT=BOTH    
 IEMINT=       0   IEFINT=       0                     IEDINT=       0
                                                       MORB  =       0
          EXTRAPOLATION IN EFFECT
          DIIS IN EFFECT
 ORBITAL PRINTING OPTION: NPREO=     1   132     2     1

     -------------------------------
     INTEGRAL TRANSFORMATION OPTIONS
     -------------------------------
     NWORD  =            0
     CUTOFF = 1.0E-09     MPTRAN =       0
     DIRTRF =       T     AOINTS =DUP     

          ----------------------
          INTEGRAL INPUT OPTIONS
          ----------------------
 NOPK  =       1 NORDER=       0 SCHWRZ=       T

     ------------------------------------------
     THE POINT GROUP IS C1 , NAXIS= 0, ORDER= 1
     ------------------------------------------

     DIMENSIONS OF THE SYMMETRY SUBSPACES ARE
 A   =  132

 ..... DONE SETTING UP THE RUN .....
 CPU     0: STEP CPU TIME=     0.02 TOTAL CPU TIME=          0.0 (      0.0 MIN)
 TOTAL WALL CLOCK TIME=          0.0 SECONDS, CPU UTILIZATION IS    50.00%

          ********************
          1 ELECTRON INTEGRALS
          ********************
 ...... END OF ONE-ELECTRON INTEGRALS ......
 CPU     0: STEP CPU TIME=     0.01 TOTAL CPU TIME=          0.0 (      0.0 MIN)
 TOTAL WALL CLOCK TIME=          0.1 SECONDS, CPU UTILIZATION IS    60.00%

          -------------
          GUESS OPTIONS
          -------------
          GUESS =HUCKEL            NORB  =       0          NORDER=       0
          MIX   =       F          PRTMO =       F          PUNMO =       F
          TOLZ  = 1.0E-08          TOLE  = 1.0E-05
          SYMDEN=       F          PURIFY=       F

 INITIAL GUESS ORBITALS GENERATED BY HUCKEL   ROUTINE.
 HUCKEL GUESS REQUIRES    164928 WORDS.

 SYMMETRIES FOR INITIAL GUESS ORBITALS FOLLOW.   BOTH SET(S).
    48 ORBITALS ARE OCCUPIED (   12 CORE ORBITALS).
    13=A       14=A       15=A       16=A       17=A       18=A       19=A   
    20=A       21=A       22=A       23=A       24=A       25=A       26=A   
    27=A       28=A       29=A       30=A       31=A       32=A       33=A   
    34=A       35=A       36=A       37=A       38=A       39=A       40=A   
    41=A       42=A       43=A       44=A       45=A       46=A       47=A   
    48=A       49=A       50=A       51=A       52=A       53=A       54=A   
    55=A       56=A       57=A       58=A   
 ...... END OF INITIAL ORBITAL SELECTION ......
 CPU     0: STEP CPU TIME=     0.04 TOTAL CPU TIME=          0.1 (      0.0 MIN)
 TOTAL WALL CLOCK TIME=          0.1 SECONDS, CPU UTILIZATION IS    77.78%

                    ----------------------
                    AO INTEGRAL TECHNOLOGY
                    ----------------------
     S,P,L SHELL ROTATED AXIS INTEGRALS, REPROGRAMMED BY
        KAZUYA ISHIMURA (IMS) AND JOSE SIERRA (SYNSTAR).
     S,P,D,L SHELL ROTATED AXIS INTEGRALS PROGRAMMED BY
        KAZUYA ISHIMURA (INSTITUTE FOR MOLECULAR SCIENCE).
     S,P,D,F,G SHELL TO TOTAL QUARTET ANGULAR MOMENTUM SUM 5,
        ERIC PROGRAM BY GRAHAM FLETCHER (ELORET AND NASA ADVANCED
        SUPERCOMPUTING DIVISION, AMES RESEARCH CENTER).
     S,P,D,F,G,L SHELL GENERAL RYS QUADRATURE PROGRAMMED BY
        MICHEL DUPUIS (PACIFIC NORTHWEST NATIONAL LABORATORY).

          --------------------
          2 ELECTRON INTEGRALS
          --------------------

 DIRECT SCF METHOD SKIPS INTEGRAL STORAGE ON DISK.
 DIRECT TRANSFORMATION SKIPS AO INTEGRAL STORAGE ON DISK.
  ...... END OF TWO-ELECTRON INTEGRALS .....
 CPU     0: STEP CPU TIME=     0.01 TOTAL CPU TIME=          0.1 (      0.0 MIN)
 TOTAL WALL CLOCK TIME=          0.1 SECONDS, CPU UTILIZATION IS    80.00%

          --------------------------
             R-B3LYP SCF CALCULATION
          --------------------------

     NUCLEAR ENERGY =       783.1296780918
     MAXIT =   60     NPUNCH=    2
     EXTRAP=T  DAMP=F  SHIFT=F  RSTRCT=F  DIIS=T  DEM=F  SOSCF=F
         DENSITY MATRIX CONVERGENCE THRESHOLD=  2.00E-05
     COARSE -> FINE DFT GRID SWITCH THRESHOLD=  3.00E-04 (SWITCH IN $DFT)
                   HF -> DFT SWITCH THRESHOLD=  5.00E-03 (SWOFF IN $DFT)
     MEMORY REQUIRED FOR RHF ITERS=    955663 WORDS.

 DIRECT SCF CALCULATION, SCHWRZ=T   FDIFF=T,  DIRTHR=  0.00E+00 NITDIR=10
 SCHWARZ INEQUALITY OVERHEAD:      7777 INTEGRALS, T=        0.00

 DFT CODE IS SWITCHING FROM THE FINE GRID NRAD= 96,  NLEB=  302
                      TO THE COARSE GRID NRAD0= 24, NLEB0=  110

     EXCHANGE FUNCTIONAL   =B88&HFX   
     CORRELATION FUNCTIONAL=LYP88&VWN5
     DFT THRESHOLD         =.575E-08
     GRID CHANGE THRESHOLD =.300E-03
 FOR AN EULER-MACLAURIN QUADRATURE USING  96 RADIAL POINTS:
 SMALLEST GAUSSIAN PRIMITIVE EXPONENT=        0.1831915800 OF TYPE -S-
 ON ATOM NUMBER  13 HAS RADIAL NORMALIZATION=  1.000000
  LARGEST GAUSSIAN PRIMITIVE EXPONENT=      322.0370000000 OF TYPE -S-
 ON ATOM NUMBER   1 HAS RADIAL NORMALIZATION=  1.000000
 DFT IS SWITCHED OFF, PERFORMING PURE SCF UNTIL SWOFF THRESHOLD IS REACHED.

                                                                                   NONZERO     BLOCKS
 ITER EX DEM     TOTAL ENERGY        E CHANGE  DENSITY CHANGE    DIIS ERROR      INTEGRALS    SKIPPED
   1  0  0     -677.5994973735  -677.5994973735   0.854211587   0.656042795       18239634     943685
          * * *   INITIATING DIIS PROCEDURE   * * *
   2  1  0     -679.3659698920    -1.7664725185   0.126171972   0.178154415       18212451     955087
   3  2  0     -679.4680091607    -0.1020392687   0.128998479   0.137259015       17982684     997015
   4  3  0     -679.5150125496    -0.0470033889   0.029171795   0.023705410       17636962    1033094
   5  4  0     -679.5182226909    -0.0032101413   0.004248887   0.004633720       17259944    1058439
 CONVERGED TO SWOFF, SO DFT CALCULATION IS NOW SWITCHED ON.
          * * *   INITIATING DIIS PROCEDURE   * * *
   6  5  0     -682.9310048064    -3.4127821156   0.153869343   0.054595898       18264211     933267
   7  6  0     -682.9811708588    -0.0501660524   0.135416170   0.058931754       18067970     987126
   8  7  0     -682.9743400086     0.0068308502   0.083659967   0.101142767       17788138    1017773
   9  8  0     -682.9932563665    -0.0189163579   0.012112978   0.024745057       17464349    1045786
  10  9  0     -682.9944252274    -0.0011688609   0.003186377   0.004293202       16720960    1088246
  11 10  0     -682.9944796246    -0.0000543972   0.000621455   0.000611303       15845880    1137761
  12 11  0     -682.9944821647    -0.0000025401   0.000114468   0.000114596       14811322    1178042
 DFT CODE IS SWITCHING BACK TO THE FINE GRID
          * * *   INITIATING DIIS PROCEDURE   * * *
  13 12  0     -682.9956663876    -0.0011842229   0.002105783   0.000872886       18273041     928698
  14 13  0     -682.9956993209    -0.0000329333   0.001096373   0.000562399       16339236    1113422
  15 14  0     -682.9956998005    -0.0000004796   0.000374134   0.000600196       15152443    1164605
  16 15  0     -682.9957019156    -0.0000021152   0.000135928   0.000088664       14433496    1194373
  17 16  0     -682.9957019793    -0.0000000636   0.000044289   0.000020756       13225746    1248337
  18 17  0     -682.9957019838    -0.0000000045   0.000017832   0.000020864       12018961    1297585
  19 18  0     -682.9957019848    -0.0000000011   0.000006999   0.000010979       10538809    1356141

          -----------------
          DENSITY CONVERGED
          -----------------
     TIME TO FORM FOCK OPERATORS=      23.7 SECONDS (       1.2 SEC/ITER)
     FOCK TIME ON FIRST ITERATION=       0.2, LAST ITERATION=       3.2
     TIME TO SOLVE SCF EQUATIONS=       0.4 SECONDS (       0.0 SEC/ITER)

 FINAL R-B3LYP ENERGY IS     -682.9957019848 AFTER  19 ITERATIONS
 DFT EXCHANGE + CORRELATION ENERGY =       -71.0981755712
 TOTAL ELECTRON NUMBER             =        96.0000512778

          ------------
          EIGENVECTORS
          ------------

                      1          2          3          4          5
                  -19.0647   -19.0589   -19.0510   -19.0302   -19.0252
                     A          A          A          A          A   
    1  O  1  S    0.003995   0.982466  -0.001613   0.003671  -0.002552
    2  O  1  S    0.000573   0.104915  -0.000058  -0.000147  -0.000128
    3  O  1  X    0.000010  -0.001828  -0.000070  -0.000071  -0.000388
    4  O  1  Y    0.000008   0.000224   0.000026  -0.000021  -0.000270
    5  O  1  Z    0.000048   0.003000   0.000041  -0.000094  -0.000311
    6  O  1  S   -0.001097  -0.050171  -0.000642   0.002396   0.001836
    7  O  1  X    0.000006   0.004073  -0.000075   0.000063   0.001195
    8  O  1  Y    0.000318   0.002183   0.000074  -0.000453   0.000061
    9  O  1  Z   -0.000478  -0.009224  -0.000490   0.001061   0.002010
   10  O  2  S   -0.001741   0.002520  -0.000050   0.006151   0.982476
   11  O  2  S   -0.000500   0.000463  -0.000002   0.000916   0.105376
   12  O  2  X    0.000033   0.000284  -0.000010   0.000308   0.000982
   13  O  2  Y    0.000012   0.000218   0.000053  -0.000145   0.003350
   14  O  2  Z   -0.000047  -0.000250  -0.000023  -0.000005   0.001820
   15  O  2  S    0.001656   0.000525  -0.000041  -0.002682  -0.052118
   16  O  2  X    0.000134  -0.001060   0.000054  -0.001144  -0.002143
   17  O  2  Y    0.000487  -0.000480  -0.000262  -0.000054  -0.009127
   18  O  2  Z    0.000542   0.001872   0.000063  -0.000713  -0.007622
   19  O  3  S    0.000044  -0.000448   0.002907  -0.002418  -0.008991
   20  O  3  S    0.000022  -0.000049   0.000635  -0.000465  -0.001464
   21  O  3  X    0.000056   0.000320   0.000264  -0.000046  -0.000049
   22  O  3  Y    0.000027  -0.000185  -0.000045   0.000000  -0.000046
   23  O  3  Z   -0.000004   0.000057   0.000183   0.000048   0.000104
   24  O  3  S   -0.000170  -0.000807  -0.000459   0.001204   0.002715
   25  O  3  X   -0.000255  -0.001344  -0.001032   0.000211   0.000106
   26  O  3  Y   -0.000134   0.000370   0.000777   0.000301   0.000616
   27  O  3  Z    0.000030   0.000024  -0.001115  -0.000447  -0.001017
   28  O  4  S   -0.004574  -0.003809  -0.000070   0.982563  -0.006086
   29  O  4  S   -0.001369  -0.000931  -0.000011   0.105931  -0.000419
   30  O  4  X   -0.000283   0.000015  -0.000026  -0.002103  -0.000294
   31  O  4  Y    0.000044   0.000089   0.000010  -0.002865   0.000054
   32  O  4  Z    0.000371   0.000049  -0.000008  -0.001624   0.000077
   33  O  4  S    0.005260   0.002459  -0.000041  -0.054369  -0.001396
   34  O  4  X    0.000908   0.000167   0.000045   0.004686   0.001266
   35  O  4  Y   -0.001514  -0.000718  -0.000065   0.009237   0.000421
   36  O  4  Z   -0.002984  -0.000801   0.000044   0.007123   0.000108
   37  O  5  S   -0.000234   0.001637   0.982421   0.000083   0.000073
   38  O  5  S   -0.000044   0.000206   0.104457   0.000008   0.000008
   39  O  5  X   -0.000009  -0.000060  -0.001997  -0.000000   0.000013
   40  O  5  Y   -0.000016  -0.000075   0.000525   0.000006   0.000037
   41  O  5  Z   -0.000009  -0.000113  -0.002932   0.000039   0.000075
   42  O  5  S    0.000146   0.000073  -0.047968  -0.000042  -0.000111
   43  O  5  X   -0.000016   0.000090   0.006515   0.000044   0.000010
   44  O  5  Y    0.000093   0.000376  -0.003087  -0.000054  -0.000203
   45  O  5  Z    0.000030   0.000449   0.006438  -0.000180  -0.000332
   46  O  6  S    0.982647  -0.003970   0.000236   0.004317   0.001644
   47  O  6  S    0.106420  -0.000316   0.000013  -0.000391  -0.000141
   48  O  6  X    0.003192  -0.000037   0.000007   0.000069  -0.000035
   49  O  6  Y    0.000100  -0.000029   0.000010   0.000225   0.000080
   50  O  6  Z   -0.003171   0.000013   0.000006   0.000222  -0.000017
   51  O  6  S   -0.059004  -0.000374   0.000025   0.005606   0.001591
   52  O  6  X   -0.011459   0.000043  -0.000062   0.001345   0.000567
   53  O  6  Y   -0.000527   0.000127  -0.000058  -0.000511  -0.000212
   54  O  6  Z    0.011141   0.000040  -0.000030  -0.001849  -0.000219
   55  C  7  S   -0.000111  -0.001036  -0.000131   0.000099   0.000205
   56  C  7  S   -0.000626  -0.004748  -0.000849   0.000743   0.000683
   57  C  7  X   -0.000029   0.000238  -0.000578  -0.000067   0.000958
   58  C  7  Y    0.000062   0.001218  -0.000197   0.000119   0.000698
   59  C  7  Z    0.000115  -0.000533   0.000034  -0.000471  -0.000246
   60  C  7  S    0.003553   0.022029   0.002585  -0.001400  -0.005957
   61  C  7  X   -0.001133   0.001929   0.004701   0.000155   0.000717
   62  C  7  Y   -0.000983   0.003530   0.000826  -0.001503   0.000630
   63  C  7  Z   -0.002550  -0.013806   0.000564   0.004597   0.007586
   64  C  8  S    0.000021   0.000118  -0.000053   0.000170  -0.001043
   65  C  8  S    0.000032   0.000035  -0.000332   0.000569  -0.004693
   66  C  8  X    0.000225  -0.000848   0.000144   0.000325  -0.000139
   67  C  8  Y    0.000500  -0.000825  -0.000108  -0.000602  -0.001124
   68  C  8  Z   -0.000313  -0.000168   0.000020   0.000549  -0.000987
   69  C  8  S   -0.002527  -0.004211   0.002694  -0.004137   0.023192
   70  C  8  X   -0.001389  -0.001651  -0.000113   0.002213   0.001990
   71  C  8  Y   -0.004303   0.000046   0.001586   0.000040  -0.000735
   72  C  8  Z    0.005123   0.005253   0.000037  -0.008516  -0.016277
   73  C  9  S    0.000024   0.000136   0.000286   0.000045   0.000111
   74  C  9  S    0.000119   0.000157   0.001125   0.000290   0.000883
   75  C  9  X   -0.000008   0.000488  -0.000639  -0.000095  -0.000455
   76  C  9  Y   -0.000054  -0.000626   0.000088   0.000083   0.000003
   77  C  9  Z   -0.000067  -0.000128   0.000118   0.000211   0.000248
   78  C  9  S   -0.000778  -0.005067  -0.008861  -0.000956  -0.001036
   79  C  9  X    0.000709   0.002421  -0.002351   0.000645   0.001512
   80  C  9  Y    0.000097  -0.001622  -0.002511  -0.000141   0.001538
   81  C  9  Z    0.001090   0.004828  -0.002759  -0.002635  -0.003784
   82  C 10  S    0.000237   0.000095   0.000028  -0.001053   0.000057
   83  C 10  S    0.000875   0.000712   0.000105  -0.004638  -0.000368
   84  C 10  X    0.000218   0.000452  -0.000196   0.000090  -0.000447
   85  C 10  Y    0.000346   0.000079  -0.000054   0.001319   0.000781
   86  C 10  Z    0.000813   0.000294  -0.000003   0.000495  -0.000193
   87  C 10  S   -0.004425  -0.000845  -0.001534   0.024886  -0.002209
   88  C 10  X    0.005318  -0.002254   0.000269  -0.002618  -0.003652
   89  C 10  Y   -0.002633  -0.001431   0.000910   0.004139  -0.000389
   90  C 10  Z   -0.012220  -0.003383   0.000076   0.018679   0.006180
   91  C 11  S   -0.000000   0.000069  -0.000915  -0.000025   0.000007
   92  C 11  S   -0.000016   0.000518  -0.003705  -0.000160   0.000055
   93  C 11  X    0.000043  -0.000034   0.001172   0.000022  -0.000027
   94  C 11  Y   -0.000009   0.000049  -0.001061  -0.000053  -0.000057
   95  C 11  Z    0.000014   0.000272   0.000194  -0.000070  -0.000154
   96  C 11  S   -0.000204  -0.001511   0.020974   0.000529  -0.000586
   97  C 11  X   -0.000081   0.000197   0.004986  -0.000337   0.000397
   98  C 11  Y    0.000233  -0.000393  -0.007599   0.000236   0.000436
   99  C 11  Z   -0.000336  -0.001965   0.004382   0.001049   0.001781
  100  C 12  S    0.000020   0.000039  -0.000022   0.000210   0.000107
  101  C 12  S    0.000347   0.000300  -0.000118   0.000419   0.000661
  102  C 12  X   -0.001762   0.000053   0.000019  -0.000562   0.000114
  103  C 12  Y   -0.000542  -0.000034   0.000014  -0.000302  -0.000040
  104  C 12  Z    0.001226  -0.000027   0.000011   0.000157   0.000078
  105  C 12  S    0.021769  -0.001779   0.000902  -0.008063  -0.003364
  106  C 12  X   -0.011112  -0.001024   0.000530   0.000122  -0.000662
  107  C 12  Y    0.007374  -0.000315   0.000278  -0.005466  -0.000926
  108  C 12  Z    0.021252   0.001079  -0.000051  -0.009300  -0.002292
  109  H 13  S    0.000025  -0.000707  -0.000432  -0.000918  -0.000694
  110  H 13  S    0.000873   0.000210  -0.000193   0.000412  -0.000921
  111  H 14  S   -0.000392  -0.000483   0.000041   0.001272  -0.000888
  112  H 14  S   -0.003448   0.000193   0.000127   0.002465   0.001281
  113  H 15  S    0.000148   0.000837   0.000592  -0.000146  -0.000483
  114  H 15  S    0.000506   0.000944  -0.001753  -0.001007  -0.000141
  115  H 16  S   -0.000809  -0.000065   0.000017  -0.000500   0.000827
  116  H 16  S   -0.002099  -0.001040  -0.000071   0.001677   0.001613
  117  H 17  S    0.000005   0.000494  -0.001628  -0.000111  -0.000100
  118  H 17  S    0.000088   0.000685  -0.002277  -0.000638  -0.000862
  119  H 18  S   -0.000045  -0.000523  -0.001031   0.000053   0.000269
  120  H 18  S   -0.000135   0.000454  -0.000684   0.000323   0.000395
  121  H 19  S    0.000067   0.003053   0.000078   0.000057   0.000242
  122  H 19  S   -0.000225   0.005485  -0.000020  -0.000078   0.000075
  123  H 20  S    0.000130  -0.000560   0.000049  -0.000287   0.003139
  124  H 20  S    0.000000   0.003200   0.000043   0.000471   0.006231
  125  H 21  S    0.000808   0.000246  -0.000059  -0.001002  -0.000384
  126  H 21  S    0.005610   0.000305   0.000037  -0.002986  -0.000078
  127  H 22  S    0.000064   0.000343  -0.000629  -0.000116  -0.000180
  128  H 22  S   -0.000043  -0.000007   0.003084   0.000147   0.000313
  129  H 23  S   -0.000913  -0.000134   0.000003   0.003348   0.000271
  130  H 23  S    0.002826   0.000225   0.000017   0.006359  -0.000065
  131  H 24  S    0.000027   0.000285   0.003054  -0.000067  -0.000117
  132  H 24  S   -0.000005  -0.000252   0.005279   0.000057   0.000017

                      6          7          8          9         10
                  -19.0138   -10.2257   -10.1839   -10.1800   -10.1753
                     A          A          A          A          A   
    1  O  1  S    0.000464   0.000045   0.000055  -0.000281   0.000044
    2  O  1  S    0.000057   0.000315   0.000535  -0.001514   0.000456
    3  O  1  X   -0.000338  -0.000005  -0.000242  -0.000208  -0.000016
    4  O  1  Y    0.000186  -0.000024  -0.000126   0.000045  -0.000164
    5  O  1  Z   -0.000083   0.000047   0.000093   0.000426   0.000058
    6  O  1  S   -0.000959  -0.001742  -0.001655   0.013213  -0.001256
    7  O  1  X    0.001447   0.000358   0.001137  -0.000105  -0.000509
    8  O  1  Y   -0.000340   0.000639   0.000587  -0.005153   0.000427
    9  O  1  Z    0.000028  -0.000771  -0.000772   0.004251  -0.000554
   10  O  2  S    0.008876   0.000037  -0.000025   0.000075   0.000042
   11  O  2  S    0.000450   0.000361  -0.000643   0.000173   0.000228
   12  O  2  X    0.000021  -0.000294   0.000158  -0.000265   0.000021
   13  O  2  Y    0.000031  -0.000059  -0.000432  -0.000378  -0.000041
   14  O  2  Z   -0.000112   0.000154  -0.000220  -0.000427  -0.000011
   15  O  2  S    0.001719  -0.000914   0.000225  -0.003809  -0.002047
   16  O  2  X    0.000035   0.001896   0.000531  -0.000068  -0.000387
   17  O  2  Y    0.000266   0.000350   0.000588  -0.000456  -0.000389
   18  O  2  Z    0.001104  -0.000945  -0.000387  -0.000495  -0.001043
   19  O  3  S    0.982497   0.000018   0.000037   0.000017   0.000041
   20  O  3  S    0.105446   0.000143   0.000274  -0.000250  -0.000063
   21  O  3  X    0.002782   0.000019   0.000009   0.000380  -0.000137
   22  O  3  Y    0.001401   0.000031   0.000007  -0.000544  -0.000456
   23  O  3  Z   -0.002313  -0.000014  -0.000048   0.000294   0.000299
   24  O  3  S   -0.052325  -0.000700  -0.001470  -0.001020  -0.002462
   25  O  3  X   -0.006350  -0.000025   0.000196  -0.000760  -0.000778
   26  O  3  Y   -0.005656  -0.000246  -0.000356   0.000828   0.000112
   27  O  3  Z    0.008212   0.000248   0.000730  -0.000100   0.000044
   28  O  4  S    0.002306  -0.000035  -0.000185   0.000044  -0.000010
   29  O  4  S    0.000056  -0.000513  -0.001139   0.000471  -0.000070
   30  O  4  X    0.000023  -0.000025  -0.000217   0.000222  -0.000073
   31  O  4  Y    0.000023   0.000379  -0.000052  -0.000018  -0.000066
   32  O  4  Z    0.000030   0.000342  -0.000254   0.000012   0.000012
   33  O  4  S    0.000812   0.001023   0.011035  -0.001227   0.000362
   34  O  4  X   -0.000055   0.000999   0.000983  -0.001043   0.000341
   35  O  4  Y   -0.000313  -0.001035  -0.003488  -0.000025   0.000048
   36  O  4  Z   -0.000346  -0.001365  -0.003301   0.000174  -0.000208
   37  O  5  S   -0.002866  -0.000005   0.000006  -0.000039  -0.000141
   38  O  5  S    0.000016  -0.000048   0.000030  -0.000422  -0.000509
   39  O  5  X   -0.000273   0.000000   0.000039   0.000309  -0.000317
   40  O  5  Y   -0.000393  -0.000026   0.000033   0.000025   0.000174
   41  O  5  Z   -0.000032  -0.000013  -0.000009   0.000131  -0.000384
   42  O  5  S    0.000600   0.000213  -0.000325   0.000813   0.008437
   43  O  5  X    0.000361  -0.000029   0.000002  -0.001233  -0.003204
   44  O  5  Y    0.001802   0.000143  -0.000198  -0.000134   0.002344
   45  O  5  Z    0.000135   0.000059   0.000111  -0.000512   0.000030
   46  O  6  S   -0.000014   0.000336   0.000044  -0.000025  -0.000002
   47  O  6  S    0.000013   0.001171   0.000075  -0.000248  -0.000021
   48  O  6  X   -0.000021  -0.000751  -0.000096   0.000093   0.000010
   49  O  6  Y   -0.000009   0.000027   0.000200   0.000002  -0.000005
   50  O  6  Z    0.000006   0.000541   0.000297   0.000087   0.000013
   51  O  6  S   -0.000161  -0.002414  -0.002005   0.001197   0.000126
   52  O  6  X    0.000033  -0.002345  -0.001826  -0.000479  -0.000060
   53  O  6  Y    0.000031   0.000619  -0.001793  -0.000079   0.000036
   54  O  6  Z    0.000001   0.004350  -0.000576  -0.000500  -0.000087
   55  C  7  S    0.000160  -0.003307  -0.024517   0.982477   0.018143
   56  C  7  S    0.000334  -0.002141  -0.003276   0.117477   0.001824
   57  C  7  X   -0.000448   0.000215   0.001284  -0.000004  -0.001238
   58  C  7  Y    0.000654  -0.000054  -0.000227  -0.000922  -0.000426
   59  C  7  Z    0.000234   0.000256   0.000103  -0.000826  -0.000045
   60  C  7  S   -0.005517   0.009477  -0.002228  -0.115388  -0.009176
   61  C  7  X   -0.003578  -0.004941  -0.003061   0.001115   0.005557
   62  C  7  Y    0.000925  -0.002032   0.003366   0.016086   0.005609
   63  C  7  Z   -0.006300  -0.003134  -0.001983   0.005685   0.000104
   64  C  8  S    0.000133  -0.003421  -0.041916  -0.079999  -0.137917
   65  C  8  S    0.000940  -0.001787  -0.008393  -0.013411  -0.017647
   66  C  8  X    0.000286   0.001956  -0.000280   0.000301  -0.000511
   67  C  8  Y   -0.000120   0.000475  -0.000127  -0.000295  -0.000028
   68  C  8  Z   -0.000266  -0.000238  -0.000064   0.000349  -0.000129
   69  C  8  S   -0.002963   0.000001   0.032747   0.041511   0.021388
   70  C  8  X   -0.001832  -0.010765  -0.015936   0.015859   0.005839
   71  C  8  Y    0.000629  -0.003947   0.008972   0.011420   0.002215
   72  C  8  Z    0.003121   0.001148   0.003111  -0.000136   0.001305
   73  C  9  S   -0.001086  -0.000768  -0.006843  -0.042171  -0.082362
   74  C  9  S   -0.004926  -0.000358  -0.001985  -0.008440  -0.012606
   75  C  9  X    0.000030   0.000317   0.000535  -0.000425  -0.000479
   76  C  9  Y   -0.001366  -0.000001   0.000193  -0.000076  -0.000348
   77  C  9  Z    0.000691  -0.000071   0.000021   0.000058  -0.000328
   78  C  9  S    0.024860  -0.000025   0.005486   0.034674   0.033652
   79  C  9  X   -0.001423  -0.001022  -0.005606  -0.015806   0.014377
   80  C  9  Y   -0.002936  -0.000331  -0.000261   0.009529   0.009401
   81  C  9  Z    0.015531   0.001332   0.000696  -0.004182   0.002512
   82  C 10  S    0.000041  -0.008604   0.985900   0.020832  -0.003286
   83  C 10  S    0.000299  -0.002098   0.116690   0.002427  -0.000079
   84  C 10  X    0.000108   0.000742   0.000008  -0.001061  -0.000098
   85  C 10  Y   -0.000024   0.000491  -0.001049  -0.000234  -0.000015
   86  C 10  Z    0.000154   0.000166  -0.000242  -0.000078   0.000014
   87  C 10  S   -0.000930   0.013833  -0.109986  -0.008289  -0.002392
   88  C 10  X   -0.000835  -0.011427  -0.000838   0.000767  -0.001641
   89  C 10  Y   -0.000090  -0.006168   0.014765   0.004007   0.000550
   90  C 10  Z   -0.001761  -0.003371   0.001008   0.001085  -0.000269
   91  C 11  S    0.000211  -0.000652  -0.002608  -0.032911   0.973293
   92  C 11  S    0.000631  -0.000386  -0.000550  -0.004526   0.111462
   93  C 11  X    0.000950   0.000101  -0.000062   0.000869  -0.000491
   94  C 11  Y    0.000589  -0.000028   0.000049  -0.000186  -0.000131
   95  C 11  Z    0.000186   0.000056   0.000021   0.000072   0.000216
   96  C 11  S   -0.006510   0.001203   0.002226   0.002288  -0.092575
   97  C 11  X    0.001503  -0.000861  -0.000304   0.000011   0.011506
   98  C 11  Y    0.002019  -0.000004  -0.001138   0.001255   0.003844
   99  C 11  Z   -0.005150  -0.000697  -0.000462   0.000575  -0.001136
  100  C 12  S    0.000019   0.985373   0.008063   0.002672   0.000089
  101  C 12  S    0.000156   0.106027  -0.001831  -0.001137  -0.000089
  102  C 12  X    0.000049   0.000124   0.000311  -0.000278  -0.000005
  103  C 12  Y   -0.000014   0.000063  -0.000295   0.000163   0.000041
  104  C 12  Z    0.000002   0.000868  -0.000249   0.000134   0.000001
  105  C 12  S   -0.000592  -0.060750   0.027828   0.006012   0.000249
  106  C 12  X   -0.000286  -0.013872   0.014470   0.004846   0.000483
  107  C 12  Y    0.000024  -0.002286   0.011579   0.000591  -0.000306
  108  C 12  Z    0.000491   0.008412   0.002853  -0.001303  -0.000037
  109  H 13  S    0.000991  -0.000320  -0.000206   0.000372   0.000412
  110  H 13  S    0.001923   0.000678   0.000151   0.014717  -0.001667
  111  H 14  S   -0.000452  -0.001402  -0.001845  -0.001420  -0.000813
  112  H 14  S    0.000597  -0.000223  -0.001022  -0.000296  -0.002464
  113  H 15  S   -0.000923   0.000048  -0.000579  -0.002082  -0.001266
  114  H 15  S    0.001193   0.000466   0.000313  -0.000921   0.000132
  115  H 16  S   -0.000071  -0.001574   0.000821   0.000475   0.000199
  116  H 16  S   -0.000551   0.001760   0.016632  -0.000910  -0.000278
  117  H 17  S    0.000965  -0.000106   0.000004  -0.000046   0.000474
  118  H 17  S    0.001251   0.000261   0.000267  -0.001841   0.017155
  119  H 18  S   -0.000555  -0.000160  -0.000048   0.000039  -0.000222
  120  H 18  S   -0.000636  -0.000291  -0.000250  -0.000949   0.015350
  121  H 19  S    0.000340  -0.000024   0.000428  -0.000267   0.000006
  122  H 19  S   -0.000048  -0.000049  -0.001210   0.002902  -0.000232
  123  H 20  S   -0.000194   0.000005  -0.000625  -0.000635   0.000091
  124  H 20  S    0.000615  -0.000752  -0.000463   0.002249  -0.000570
  125  H 21  S    0.000078  -0.001359  -0.001038  -0.000803  -0.000069
  126  H 21  S    0.000268   0.015318   0.003100  -0.000072  -0.000043
  127  H 22  S    0.003228   0.000056   0.000096   0.000536  -0.000335
  128  H 22  S    0.006513  -0.000084  -0.000061   0.001283   0.001959
  129  H 23  S   -0.000045  -0.000426  -0.000769  -0.000081   0.000088
  130  H 23  S    0.000119   0.002377   0.003346  -0.000138   0.000078
  131  H 24  S    0.000855   0.000008  -0.000039  -0.000507  -0.000155
  132  H 24  S   -0.000838   0.000063   0.000020   0.000917   0.002982

                     11         12         13         14         15
                  -10.1744   -10.1704    -1.0778    -1.0421    -1.0285
                     A          A          A          A          A   
    1  O  1  S   -0.000002  -0.000006  -0.007489  -0.167696   0.058771
    2  O  1  S   -0.000384  -0.000439   0.006800   0.157291  -0.055704
    3  O  1  X    0.000370  -0.000255  -0.002174  -0.041824   0.016628
    4  O  1  Y    0.000160   0.000743   0.000270   0.013459  -0.007008
    5  O  1  Z   -0.000182  -0.000155   0.002822   0.059350  -0.019424
    6  O  1  S   -0.000162   0.000141   0.023704   0.509929  -0.176163
    7  O  1  X   -0.000350   0.000157  -0.002597  -0.046781   0.017157
    8  O  1  Y    0.000648  -0.001981  -0.001500   0.008706  -0.003435
    9  O  1  Z   -0.000028  -0.000112   0.003678   0.063992  -0.019404
   10  O  2  S   -0.000218   0.000058  -0.010793  -0.091487   0.040791
   11  O  2  S   -0.001352   0.000570   0.010055   0.085606  -0.038022
   12  O  2  X    0.000079   0.000258   0.000816   0.014486  -0.005875
   13  O  2  Y    0.000102  -0.000030   0.005453   0.043812  -0.019286
   14  O  2  Z    0.000127   0.000193   0.002999   0.017907  -0.007164
   15  O  2  S    0.011644  -0.001514   0.031605   0.273757  -0.124186
   16  O  2  X   -0.000439  -0.001218  -0.001482   0.017563  -0.006629
   17  O  2  Y    0.002539  -0.000026   0.003566   0.046120  -0.020132
   18  O  2  Z    0.004843  -0.001117   0.003700   0.020182  -0.009158
   19  O  3  S    0.000075  -0.000230  -0.001320  -0.048423  -0.085661
   20  O  3  S    0.000624  -0.001433   0.001106   0.044702   0.079879
   21  O  3  X   -0.000351   0.000249   0.000235   0.016845   0.036947
   22  O  3  Y   -0.000054  -0.000060   0.000322   0.010593   0.014753
   23  O  3  Z   -0.000020  -0.000295  -0.000456  -0.014982  -0.022575
   24  O  3  S   -0.002737   0.012349   0.004719   0.147956   0.257380
   25  O  3  X    0.001495  -0.000689   0.000744   0.020543   0.037964
   26  O  3  Y   -0.000457   0.004229   0.000544   0.010117   0.017785
   27  O  3  Z    0.000974  -0.003768  -0.000809  -0.016496  -0.025704
   28  O  4  S    0.000029   0.000035  -0.057849  -0.026311   0.018082
   29  O  4  S   -0.000034   0.000233   0.055894   0.024127  -0.016548
   30  O  4  X    0.000057  -0.000028  -0.020049  -0.004721   0.004223
   31  O  4  Y    0.000333   0.000005  -0.024584  -0.009890   0.006540
   32  O  4  Z    0.000076  -0.000031  -0.011508  -0.006360   0.003718
   33  O  4  S   -0.000959  -0.001347   0.159358   0.082456  -0.057013
   34  O  4  X   -0.001181  -0.000278  -0.023276  -0.007101   0.005235
   35  O  4  Y   -0.000077   0.000320  -0.022038  -0.010776   0.007652
   36  O  4  Z    0.000537   0.000642  -0.008173  -0.006524   0.004398
   37  O  5  S   -0.000042   0.000038  -0.000466  -0.051228  -0.181806
   38  O  5  S   -0.000288   0.000073   0.000486   0.047713   0.170963
   39  O  5  X   -0.000020   0.000047  -0.000136  -0.012266  -0.037928
   40  O  5  Y   -0.000052   0.000028   0.000050   0.000550   0.000329
   41  O  5  Z   -0.000060   0.000276  -0.000173  -0.020668  -0.074744
   42  O  5  S    0.002013  -0.001146   0.001038   0.155842   0.552642
   43  O  5  X   -0.000642   0.001497  -0.000203  -0.015140  -0.047583
   44  O  5  Y    0.000753  -0.000276  -0.000322   0.000823   0.002530
   45  O  5  Z    0.000014  -0.000852  -0.000253  -0.021844  -0.076113
   46  O  6  S   -0.000007   0.000003  -0.197042   0.025845  -0.011307
   47  O  6  S   -0.000093   0.000018   0.187508  -0.024443   0.010712
   48  O  6  X    0.000083   0.000034   0.097859  -0.011344   0.004687
   49  O  6  Y   -0.000063   0.000022  -0.001441   0.001099  -0.000679
   50  O  6  Z    0.000110   0.000015  -0.101792   0.013377  -0.005913
   51  O  6  S    0.000312  -0.000124   0.606025  -0.083558   0.036982
   52  O  6  X   -0.000343  -0.000254   0.096465  -0.012036   0.005410
   53  O  6  Y    0.000072  -0.000182   0.003194   0.000625  -0.000452
   54  O  6  Z   -0.000286   0.000011  -0.095529   0.013369  -0.005810
   55  C  7  S    0.079229   0.047170  -0.004423  -0.072390   0.015047
   56  C  7  S    0.005737   0.001958   0.007389   0.073061  -0.014921
   57  C  7  X   -0.000499  -0.000190  -0.002076   0.000944   0.012659
   58  C  7  Y    0.000066   0.000079   0.000156   0.020124  -0.013918
   59  C  7  Z    0.000171  -0.000008  -0.002460  -0.049902   0.021292
   60  C  7  S    0.019143   0.025222  -0.011499   0.137903  -0.025679
   61  C  7  X   -0.015536   0.017612   0.006673  -0.005660  -0.010477
   62  C  7  Y   -0.007102  -0.008542   0.006620  -0.014606  -0.005919
   63  C  7  Z   -0.004466   0.004003   0.005987  -0.001163   0.010755
   64  C  8  S    0.972465   0.040475  -0.010840  -0.051487   0.020010
   65  C  8  S    0.114527   0.003541   0.013747   0.053691  -0.018840
   66  C  8  X    0.000237  -0.001233  -0.008674   0.014584  -0.002097
   67  C  8  Y    0.001050   0.000113   0.001737   0.004852  -0.001063
   68  C  8  Z   -0.000177  -0.000007  -0.000867  -0.033904   0.016338
   69  C  8  S   -0.102919  -0.002492   0.015118   0.075114  -0.045603
   70  C  8  X   -0.001328   0.004807   0.022340  -0.010459   0.001044
   71  C  8  Y   -0.012463  -0.001152   0.015219   0.003687  -0.006061
   72  C  8  Z   -0.000056  -0.002306  -0.007718  -0.003834  -0.004932
   73  C  9  S   -0.056357   0.981201  -0.001464  -0.039092  -0.041446
   74  C  9  S   -0.008072   0.115837   0.001425   0.039827   0.042336
   75  C  9  X    0.001246  -0.000258  -0.001422  -0.008419   0.021610
   76  C  9  Y    0.000038   0.001007   0.000276   0.004099  -0.015313
   77  C  9  Z    0.000087   0.000173   0.000235   0.010491   0.032207
   78  C  9  S    0.009474  -0.106332   0.005738   0.059837   0.074944
   79  C  9  X   -0.002803   0.002528   0.001201   0.008653   0.008793
   80  C  9  Y    0.000321  -0.013028   0.001942   0.003844  -0.002826
   81  C  9  Z    0.001192  -0.002426  -0.002840  -0.014126  -0.002611
   82  C 10  S    0.042225   0.009542  -0.040556  -0.020912   0.011430
   83  C 10  S    0.001428  -0.000224   0.037021   0.022381  -0.012545
   84  C 10  X    0.000356  -0.000595  -0.020330   0.012014  -0.004000
   85  C 10  Y   -0.000058  -0.000242  -0.001462  -0.000372  -0.001070
   86  C 10  Z   -0.000114  -0.000045   0.022283   0.003715  -0.003872
   87  C 10  S    0.021974   0.003805   0.072130   0.028979  -0.012989
   88  C 10  X    0.015522   0.005902  -0.007804   0.005386  -0.002924
   89  C 10  Y   -0.007056   0.000842   0.000138   0.000205  -0.001822
   90  C 10  Z   -0.001069   0.000988   0.026416  -0.012095   0.007507
   91  C 11  S    0.131202   0.086865  -0.000330  -0.025941  -0.067611
   92  C 11  S    0.013787   0.005958   0.000982   0.026863   0.070470
   93  C 11  X    0.000361  -0.000462  -0.000375   0.003162   0.036242
   94  C 11  Y   -0.000222   0.000092  -0.000131  -0.015973  -0.049252
   95  C 11  Z    0.000170  -0.000408  -0.000067   0.003828   0.017847
   96  C 11  S   -0.008333   0.021973  -0.002235   0.040159   0.119788
   97  C 11  X   -0.001705  -0.013688   0.002199  -0.003489  -0.000224
   98  C 11  Y    0.000924  -0.008341   0.000215   0.001869  -0.004566
   99  C 11  Z   -0.001373   0.002375   0.001364   0.007354   0.004773
  100  C 12  S    0.003752   0.001082  -0.118775   0.009958  -0.003636
  101  C 12  S   -0.001078  -0.000508   0.128110  -0.010600   0.004523
  102  C 12  X   -0.000981  -0.000135  -0.087639   0.019081  -0.008970
  103  C 12  Y   -0.000209  -0.000052   0.019021   0.001301  -0.001286
  104  C 12  Z    0.000151   0.000030   0.115745  -0.015834   0.006804
  105  C 12  S    0.002637   0.003393   0.139173  -0.010192   0.000803
  106  C 12  X    0.001751   0.001477   0.030319  -0.003070  -0.000972
  107  C 12  Y    0.001842   0.001388  -0.010449   0.005352  -0.003500
  108  C 12  Z   -0.000209  -0.000164  -0.040822   0.011675  -0.006117
  109  H 13  S   -0.001378  -0.002126   0.002182   0.020726  -0.004089
  110  H 13  S    0.002670   0.000986  -0.001333  -0.003990  -0.000793
  111  H 14  S    0.000077  -0.000458   0.005502   0.014613  -0.004250
  112  H 14  S    0.015791   0.001604   0.008018  -0.003976   0.007371
  113  H 15  S   -0.000573   0.000265   0.000419   0.011689   0.010303
  114  H 15  S   -0.000610   0.015641  -0.001146  -0.003291  -0.006609
  115  H 16  S   -0.001885  -0.000512   0.012235   0.007289  -0.003753
  116  H 16  S    0.001694   0.000183  -0.002599   0.001962   0.000314
  117  H 17  S   -0.000439  -0.002176   0.000354   0.007371   0.019713
  118  H 17  S    0.002597   0.000809  -0.000575  -0.003196  -0.003337
  119  H 18  S   -0.000544  -0.001467   0.000392   0.008172   0.019145
  120  H 18  S    0.001526   0.003681   0.000602   0.004157  -0.005663
  121  H 19  S   -0.000234   0.000772   0.003293   0.080939  -0.030371
  122  H 19  S   -0.000994   0.001036   0.002370   0.017015  -0.006410
  123  H 20  S   -0.000472   0.000445   0.005250   0.050786  -0.022240
  124  H 20  S    0.003961  -0.001222   0.000482   0.008021  -0.003792
  125  H 21  S   -0.000472  -0.000163   0.021619  -0.000257   0.000122
  126  H 21  S    0.000810   0.000125  -0.027761   0.007984  -0.004223
  127  H 22  S   -0.000267  -0.000423   0.000410   0.023294   0.049549
  128  H 22  S   -0.000153   0.003129   0.000106   0.002491   0.009085
  129  H 23  S   -0.000377   0.000015   0.035402   0.009676  -0.007374
  130  H 23  S    0.000469  -0.000028   0.005642  -0.000177  -0.000664
  131  H 24  S   -0.000114  -0.000428   0.000188   0.024420   0.089724
  132  H 24  S    0.000824  -0.000334  -0.000059   0.005314   0.019963

                     16         17         18         19         20
                   -1.0103    -0.9983    -0.9890    -0.7841    -0.7587
                     A          A          A          A          A   
    1  O  1  S    0.074910   0.102950   0.026657   0.055781  -0.018771
    2  O  1  S   -0.069521  -0.097293  -0.025494  -0.050468   0.015855
    3  O  1  X    0.016960   0.023275   0.008712   0.024057  -0.026833
    4  O  1  Y   -0.011571  -0.021935  -0.006550  -0.065792   0.038527
    5  O  1  Z   -0.024283  -0.034507  -0.006752   0.026036  -0.013779
    6  O  1  S   -0.238214  -0.324066  -0.079662  -0.209570   0.078766
    7  O  1  X    0.018561   0.020632   0.005627   0.023050  -0.026458
    8  O  1  Y   -0.007469  -0.016576  -0.003157  -0.040282   0.021930
    9  O  1  Z   -0.031691  -0.044717  -0.007258   0.007368  -0.002262
   10  O  2  S   -0.037838  -0.184924   0.015466   0.063499   0.033488
   11  O  2  S    0.034234   0.172413  -0.014059  -0.058859  -0.028769
   12  O  2  X    0.002571   0.025165  -0.001703  -0.016336  -0.028626
   13  O  2  Y    0.016438   0.079114  -0.007150  -0.017280  -0.006820
   14  O  2  Z    0.008098   0.029650  -0.001099   0.041700   0.028952
   15  O  2  S    0.124842   0.573289  -0.049949  -0.226080  -0.132074
   16  O  2  X    0.004951   0.023837  -0.002425  -0.011788  -0.027890
   17  O  2  Y    0.018309   0.085553  -0.008333  -0.025815  -0.014997
   18  O  2  Z    0.011546   0.037283  -0.003847   0.018149   0.012064
   19  O  3  S    0.000865  -0.004426  -0.190575   0.054044  -0.048009
   20  O  3  S   -0.000259   0.005015   0.177503  -0.049237   0.043227
   21  O  3  X    0.000311   0.001563   0.069668  -0.042997   0.030391
   22  O  3  Y   -0.000468   0.000236   0.028898   0.024432  -0.025344
   23  O  3  Z    0.000401  -0.001529  -0.046602  -0.023459   0.025434
   24  O  3  S   -0.006117   0.008434   0.591441  -0.196005   0.179586
   25  O  3  X   -0.001532   0.000601   0.073441  -0.039612   0.024207
   26  O  3  Y   -0.001265  -0.000156   0.034033   0.006986  -0.007681
   27  O  3  Z    0.001525   0.001126  -0.055477  -0.005674   0.006436
   28  O  4  S   -0.191926   0.073396  -0.002688   0.043545   0.055986
   29  O  4  S    0.176830  -0.069450   0.002559  -0.040112  -0.050844
   30  O  4  X   -0.054980   0.022711  -0.000893   0.032956   0.035255
   31  O  4  Y   -0.066271   0.023958  -0.000965  -0.005072  -0.010080
   32  O  4  Z   -0.029939   0.009686  -0.000160  -0.029373  -0.047674
   33  O  4  S    0.604612  -0.223320   0.008102  -0.158197  -0.210253
   34  O  4  X   -0.057836   0.022806  -0.000356   0.032583   0.028983
   35  O  4  Y   -0.076109   0.025663  -0.000506   0.006750   0.007313
   36  O  4  Z   -0.042106   0.010665  -0.000439  -0.014727  -0.024140
   37  O  5  S   -0.013068  -0.003244   0.113628   0.020052  -0.032369
   38  O  5  S    0.012422   0.003486  -0.107902  -0.018065   0.030065
   39  O  5  X   -0.002152  -0.000579   0.012026  -0.013780   0.027653
   40  O  5  Y   -0.000163  -0.000131   0.001775   0.016773  -0.030884
   41  O  5  Z   -0.005557  -0.001441   0.051030   0.006367  -0.013064
   42  O  5  S    0.039869   0.008146  -0.355605  -0.074341   0.120241
   43  O  5  X   -0.003071   0.000187   0.017382  -0.005166   0.015199
   44  O  5  Y    0.000087  -0.000995  -0.008134   0.011488  -0.021514
   45  O  5  Z   -0.004985  -0.000302   0.052479   0.008364  -0.014777
   46  O  6  S    0.069394  -0.014653   0.000260   0.017688   0.037099
   47  O  6  S   -0.065655   0.013496  -0.000334  -0.017373  -0.036884
   48  O  6  X   -0.027103   0.005493  -0.000126   0.002152   0.006600
   49  O  6  Y    0.006365  -0.002345   0.000045   0.000242   0.003011
   50  O  6  Z    0.036980  -0.008204   0.000183   0.000362  -0.000365
   51  O  6  S   -0.232539   0.052038  -0.000361  -0.059960  -0.127191
   52  O  6  X   -0.028827   0.005652   0.000274   0.001979   0.002860
   53  O  6  Y    0.007414  -0.002486   0.000319   0.000747   0.001933
   54  O  6  Z    0.039647  -0.010930   0.000221   0.001686   0.001081
   55  C  7  S    0.016337   0.018593  -0.009457  -0.117745   0.044823
   56  C  7  S   -0.018369  -0.020742   0.008090   0.117450  -0.041303
   57  C  7  X   -0.010004  -0.016244   0.013275  -0.001526  -0.074576
   58  C  7  Y   -0.017877  -0.034936  -0.019269  -0.054224   0.021569
   59  C  7  Z    0.021945   0.021152   0.014498   0.023623  -0.005877
   60  C  7  S   -0.035634  -0.041874   0.012886   0.295827  -0.129256
   61  C  7  X   -0.008024   0.015222   0.000302   0.000776   0.013570
   62  C  7  Y    0.003663  -0.002382  -0.003956  -0.018499   0.016903
   63  C  7  Z   -0.019531  -0.020975   0.021776   0.004152   0.031562
   64  C  8  S   -0.025574  -0.060650   0.001679  -0.098811  -0.058795
   65  C  8  S    0.025585   0.061604  -0.002163   0.099445   0.056154
   66  C  8  X   -0.015420   0.001294   0.002977   0.012781  -0.078352
   67  C  8  Y    0.003769  -0.033092   0.000554   0.046810   0.027015
   68  C  8  Z   -0.008688  -0.070101   0.008955   0.046994   0.016795
   69  C  8  S    0.036817   0.130017  -0.006705   0.239423   0.159234
   70  C  8  X    0.004037  -0.001066   0.009180  -0.004814   0.019495
   71  C  8  Y   -0.006513   0.010420   0.000367   0.018427   0.025067
   72  C  8  Z    0.034270   0.009282  -0.005873   0.013241  -0.014530
   73  C  9  S    0.004036   0.001926  -0.066739  -0.085502   0.093246
   74  C  9  S   -0.004408  -0.001120   0.070092   0.086517  -0.089522
   75  C  9  X    0.003393   0.002082  -0.011552  -0.034360  -0.008731
   76  C  9  Y   -0.004453  -0.007368  -0.040917   0.054822  -0.055553
   77  C  9  Z    0.001279   0.002009   0.065298  -0.028508   0.029162
   78  C  9  S   -0.001092  -0.012599   0.127933   0.207142  -0.246954
   79  C  9  X   -0.000732  -0.006864   0.000899   0.009456   0.010746
   80  C  9  Y    0.001022  -0.008838   0.007106   0.019877  -0.028603
   81  C  9  Z    0.013117   0.015858  -0.014172   0.002583  -0.000900
   82  C 10  S   -0.075006   0.011718   0.000313  -0.074313  -0.120438
   83  C 10  S    0.078436  -0.010696  -0.000837   0.074208   0.113524
   84  C 10  X    0.001871   0.012790  -0.000344   0.027188  -0.006926
   85  C 10  Y    0.038421  -0.028914   0.001445  -0.043309  -0.062316
   86  C 10  Z    0.065573  -0.033336   0.002010  -0.024819  -0.045189
   87  C 10  S    0.145766  -0.034941   0.005518   0.195346   0.347782
   88  C 10  X    0.003112  -0.010462  -0.002134  -0.020243  -0.002265
   89  C 10  Y   -0.017161  -0.001081  -0.003652  -0.024692  -0.042359
   90  C 10  Z   -0.041770  -0.012062   0.002320  -0.002683  -0.013760
   91  C 11  S   -0.002334   0.000898   0.019868  -0.050948   0.081783
   92  C 11  S    0.003124  -0.000638  -0.022101   0.056018  -0.082477
   93  C 11  X    0.004790   0.001647  -0.046286  -0.040137   0.050686
   94  C 11  Y   -0.002908  -0.000972   0.013062   0.000235   0.000000
   95  C 11  Z    0.001862   0.001203  -0.004224  -0.007770   0.009973
   96  C 11  S    0.002930   0.004080  -0.041745   0.107934  -0.211245
   97  C 11  X    0.003924   0.002981   0.002292   0.002672   0.015793
   98  C 11  Y   -0.000313  -0.005308  -0.005126   0.008464  -0.004924
   99  C 11  Z   -0.003932  -0.003959   0.020422  -0.013699   0.015670
  100  C 12  S    0.022673  -0.008028   0.000451  -0.031093  -0.065153
  101  C 12  S   -0.025314   0.008975  -0.000249   0.040374   0.075944
  102  C 12  X    0.055905  -0.008784  -0.000183   0.048565   0.090169
  103  C 12  Y    0.013644  -0.004811   0.000083   0.012542   0.027718
  104  C 12  Z   -0.037231   0.004752   0.000175  -0.021297  -0.045638
  105  C 12  S   -0.030961   0.005428  -0.003739   0.045729   0.137159
  106  C 12  X   -0.015894   0.008909  -0.001826  -0.001305   0.024721
  107  C 12  Y    0.017350  -0.007167  -0.001569  -0.015637  -0.007543
  108  C 12  Z    0.043650  -0.010167  -0.000855  -0.017119  -0.031482
  109  H 13  S   -0.002264  -0.005130   0.002314   0.061874  -0.019957
  110  H 13  S    0.014746   0.002018  -0.004916  -0.009098  -0.015360
  111  H 14  S    0.005331   0.016065   0.001249   0.055669   0.030801
  112  H 14  S   -0.012769  -0.005634   0.011741  -0.008293   0.012806
  113  H 15  S   -0.000319   0.001858   0.017710   0.044290  -0.048616
  114  H 15  S    0.005146   0.009561  -0.013165  -0.005193  -0.007023
  115  H 16  S    0.018134  -0.000540  -0.000414   0.040049   0.068922
  116  H 16  S   -0.017560  -0.000817  -0.000490  -0.003916   0.004033
  117  H 17  S    0.001195   0.000026  -0.005964   0.029585  -0.045877
  118  H 17  S    0.000791   0.002021  -0.003514   0.004275  -0.003909
  119  H 18  S    0.000349  -0.000782  -0.005208   0.028407  -0.045479
  120  H 18  S   -0.004037  -0.004252   0.004399  -0.008484   0.005112
  121  H 19  S   -0.038684  -0.056460  -0.016046  -0.059849   0.032110
  122  H 19  S   -0.007202  -0.014120  -0.003664  -0.031274   0.024103
  123  H 20  S    0.015036   0.085616  -0.008653  -0.048130  -0.030511
  124  H 20  S   -0.000533   0.011100  -0.002861  -0.035839  -0.016902
  125  H 21  S   -0.001041   0.002337  -0.000202   0.021880   0.045078
  126  H 21  S    0.020693   0.002167  -0.001117  -0.009825  -0.004108
  127  H 22  S    0.000882   0.002762   0.086879  -0.048084   0.041567
  128  H 22  S   -0.000122  -0.000828   0.012178  -0.031060   0.031599
  129  H 23  S    0.087409  -0.035516   0.001500  -0.038570  -0.050815
  130  H 23  S    0.012179  -0.004572   0.000192  -0.024346  -0.037479
  131  H 24  S    0.006863   0.002035  -0.062740  -0.017508   0.033129
  132  H 24  S    0.001423  -0.000547  -0.013558  -0.012487   0.020405

                     21         22         23         24         25
                   -0.7064    -0.6336    -0.5862    -0.5798    -0.5355
                     A          A          A          A          A   
    1  O  1  S   -0.026213  -0.002896  -0.025590  -0.014096   0.021745
    2  O  1  S    0.022840   0.001615   0.024321   0.013597  -0.017876
    3  O  1  X    0.002498  -0.036687  -0.006514  -0.015346  -0.068444
    4  O  1  Y    0.051365   0.060348   0.096031   0.067404   0.254126
    5  O  1  Z   -0.027898  -0.021201  -0.063353  -0.064601  -0.054944
    6  O  1  S    0.109439   0.019961   0.108669   0.061202  -0.092150
    7  O  1  X    0.001851  -0.029765  -0.003525  -0.014676  -0.058479
    8  O  1  Y    0.033426   0.044768   0.082753   0.053987   0.225942
    9  O  1  Z   -0.014016  -0.013464  -0.049628  -0.054971  -0.049440
   10  O  2  S   -0.023175   0.023092   0.012298   0.006812  -0.029411
   11  O  2  S    0.021638  -0.019558  -0.010477  -0.004864   0.026328
   12  O  2  X   -0.011820  -0.023657  -0.037703  -0.006639  -0.003502
   13  O  2  Y    0.004773  -0.007987  -0.055220   0.005107  -0.018721
   14  O  2  Z   -0.029372   0.075471   0.136460   0.011877  -0.062515
   15  O  2  S    0.086562  -0.102310  -0.061050  -0.033653   0.123223
   16  O  2  X   -0.012081  -0.018174  -0.031581  -0.002941  -0.008834
   17  O  2  Y    0.007241  -0.013781  -0.051067   0.001417  -0.013226
   18  O  2  Z   -0.016134   0.052444   0.109215   0.008764  -0.054122
   19  O  3  S    0.017668  -0.016749   0.014099   0.024254   0.012077
   20  O  3  S   -0.017434   0.014071  -0.013351  -0.022161  -0.009281
   21  O  3  X    0.017086   0.043250  -0.035162  -0.030622  -0.096091
   22  O  3  Y    0.006997  -0.026926   0.016393   0.025640   0.101218
   23  O  3  Z   -0.003383   0.050808  -0.053286  -0.080824  -0.087442
   24  O  3  S   -0.060173   0.075257  -0.058058  -0.102662  -0.060133
   25  O  3  X    0.016814   0.036550  -0.032853  -0.027922  -0.083018
   26  O  3  Y    0.003371  -0.016029   0.011863   0.016625   0.082932
   27  O  3  Z    0.000042   0.037442  -0.042494  -0.064412  -0.067795
   28  O  4  S    0.023013  -0.004970  -0.017750   0.018102  -0.005663
   29  O  4  S   -0.021401   0.005464   0.016040  -0.015734   0.004392
   30  O  4  X   -0.001744   0.034948  -0.066761   0.052932   0.053281
   31  O  4  Y   -0.006060  -0.003306   0.002172  -0.015812   0.002497
   32  O  4  Z   -0.026634  -0.004344   0.123145  -0.101604  -0.046794
   33  O  4  S   -0.086806   0.015278   0.078018  -0.080558   0.024965
   34  O  4  X   -0.005091   0.031187  -0.058260   0.044222   0.047827
   35  O  4  Y    0.000653  -0.003384  -0.001817  -0.010733   0.002598
[...]
    672    6.45250    4.60095    3.90944       -10.991058      11.001670       0.010612
    673    6.45250    4.60095    5.42122        -9.936493       9.939906       0.003413
    674    6.45250    6.11274   -5.16124        -9.363611       9.371536       0.007925
    675    6.45250    6.11274   -3.64946       -10.081303      10.090619       0.009316
    676    6.45250    6.11274   -2.13768       -10.649195      10.659892       0.010697
    677    6.45250    6.11274   -0.62590       -10.938118      10.949381       0.011262
    678    6.45250    6.11274    0.88588       -10.866466      10.877861       0.011395
    679    6.45250    6.11274    2.39766       -10.451256      10.461548       0.010292
    680    6.45250    6.11274    3.90944        -9.806775       9.813752       0.006977
    681    6.45250    6.11274    5.42122        -9.070667       9.074077       0.003410
    682    6.45250    7.62452    0.88588        -9.506314       9.515081       0.008767
    683    6.45250    7.62452    2.39766        -9.232704       9.240043       0.007339
    684    7.96428   -7.49329   -0.62590        -9.005273       9.015285       0.010012
    685    7.96428   -5.98151   -3.64946        -9.242218       9.259087       0.016869
    686    7.96428   -5.98151   -2.13768        -9.810958       9.831779       0.020822
    687    7.96428   -5.98151   -0.62590       -10.213913      10.234310       0.020397
    688    7.96428   -5.98151    0.88588       -10.321745      10.336102       0.014357
    689    7.96428   -5.98151    2.39766       -10.067965      10.075812       0.007847
    690    7.96428   -5.98151    3.90944        -9.519366       9.522694       0.003328
    691    7.96428   -5.98151    5.42122        -8.823099       8.823139       0.000040
    692    7.96428   -4.46973   -5.16124        -9.316761       9.334688       0.017926
    693    7.96428   -4.46973   -3.64946       -10.182034      10.210255       0.028221
    694    7.96428   -4.46973   -2.13768       -11.059332      11.102270       0.042938
    695    7.96428   -4.46973    0.88588       -12.034884      12.059928       0.025044
    696    7.96428   -4.46973    2.39766       -11.593804      11.601305       0.007501
    697    7.96428   -4.46973    3.90944       -10.683669      10.686444       0.002775
    698    7.96428   -4.46973    5.42122        -9.654084       9.653499      -0.000585
    699    7.96428   -4.46973    6.93301        -8.693411       8.690623      -0.002788
    700    7.96428   -2.95795   -5.16124        -9.959921       9.982777       0.022856
    701    7.96428   -2.95795   -3.64946       -11.110001      11.151696       0.041695
    702    7.96428   -2.95795    3.90944       -11.938505      11.926852      -0.011653
    703    7.96428   -2.95795    5.42122       -10.421248      10.415988      -0.005260
    704    7.96428   -2.95795    6.93301        -9.192238       9.187459      -0.004779
    705    7.96428   -1.44617   -5.16124       -10.431505      10.455546       0.024041
    706    7.96428   -1.44617   -3.64946       -11.831359      11.876309       0.044950
    707    7.96428   -1.44617    5.42122       -10.926463      10.913286      -0.013177
    708    7.96428   -1.44617    6.93301        -9.501183       9.493878      -0.007305
    709    7.96428    0.06561   -6.67302        -9.432376       9.445971       0.013595
    710    7.96428    0.06561   -5.16124       -10.621195      10.642273       0.021078
    711    7.96428    0.06561   -3.64946       -12.118096      12.152925       0.034829
    712    7.96428    0.06561    5.42122       -10.986905      10.971990      -0.014915
    713    7.96428    1.57739   -6.67302        -9.337690       9.349267       0.011577
    714    7.96428    1.57739   -5.16124       -10.473369      10.490422       0.017053
    715    7.96428    1.57739    3.90944       -12.251062      12.235750      -0.015312
    716    7.96428    1.57739    5.42122       -10.615974      10.606782      -0.009192
    717    7.96428    3.08917   -6.67302        -9.034043       9.043610       0.009567
    718    7.96428    3.08917   -5.16124       -10.020574      10.033742       0.013168
    719    7.96428    3.08917   -3.64946       -11.135625      11.156291       0.020665
    720    7.96428    3.08917    3.90944       -11.184292      11.183331      -0.000961
    721    7.96428    3.08917    5.42122        -9.981109       9.978179      -0.002930
    722    7.96428    4.60095   -5.16124        -9.375769       9.385729       0.009960
    723    7.96428    4.60095   -3.64946       -10.191764      10.204425       0.012660
    724    7.96428    4.60095   -2.13768       -10.922526      10.936541       0.014015
    725    7.96428    4.60095   -0.62590       -11.375602      11.386448       0.010846
    726    7.96428    4.60095    0.88588       -11.367161      11.375254       0.008094
    727    7.96428    4.60095    2.39766       -10.879617      10.886208       0.006591
    728    7.96428    4.60095    3.90944       -10.098845      10.102177       0.003332
    729    7.96428    4.60095    5.42122        -9.242878       9.243365       0.000487
    730    7.96428    6.11274   -3.64946        -9.247598       9.256726       0.009129
    731    7.96428    6.11274   -2.13768        -9.718210       9.727680       0.009470
    732    7.96428    6.11274   -0.62590        -9.975079       9.983763       0.008685
    733    7.96428    6.11274    0.88588        -9.945458       9.952949       0.007491
    734    7.96428    6.11274    2.39766        -9.631633       9.637659       0.006026
    735    7.96428    6.11274    3.90944        -9.115296       9.119193       0.003897
    736    9.47606   -5.98151   -3.64946        -8.495335       8.512439       0.017104
    737    9.47606   -5.98151   -2.13768        -8.951731       8.972373       0.020642
    738    9.47606   -5.98151   -0.62590        -9.266559       9.286409       0.019850
    739    9.47606   -5.98151    0.88588        -9.342451       9.355791       0.013340
    740    9.47606   -5.98151    2.39766        -9.136556       9.142506       0.005950
    741    9.47606   -4.46973   -5.16124        -8.545180       8.563019       0.017839
    742    9.47606   -4.46973   -3.64946        -9.233550       9.260579       0.027029
    743    9.47606   -4.46973   -2.13768        -9.912600       9.951850       0.039251
    744    9.47606   -4.46973   -0.62590       -10.452872      10.495171       0.042299
    745    9.47606   -4.46973    0.88588       -10.614314      10.636347       0.022032
    746    9.47606   -4.46973    2.39766       -10.272998      10.275941       0.002943
    747    9.47606   -4.46973    3.90944        -9.592308       9.589369      -0.002940
    748    9.47606   -4.46973    5.42122        -8.808229       8.804664      -0.003565
    749    9.47606   -2.95795   -5.16124        -9.045271       9.067271       0.022000
    750    9.47606   -2.95795   -3.64946        -9.933576       9.971478       0.037902
    751    9.47606   -2.95795    3.90944       -10.510552      10.493549      -0.017003
    752    9.47606   -2.95795    5.42122        -9.403042       9.393611      -0.009430
    753    9.47606   -1.44617   -5.16124        -9.396564       9.419252       0.022688
    754    9.47606   -1.44617   -3.64946       -10.444412      10.483801       0.039389
    755    9.47606   -1.44617    3.90944       -11.216543      11.178653      -0.037890
    756    9.47606   -1.44617    5.42122        -9.797706       9.781679      -0.016026
    757    9.47606    0.06561   -5.16124        -9.521381       9.540997       0.019616
    758    9.47606    0.06561   -3.64946       -10.605847      10.635037       0.029190
    759    9.47606    0.06561   -2.13768       -11.922145      11.961396       0.039251
    760    9.47606    0.06561    3.90944       -11.292369      11.252529      -0.039840
    761    9.47606    0.06561    5.42122        -9.856380       9.839361      -0.017019
    762    9.47606    1.57739   -5.16124        -9.390167       9.405633       0.015466
    763    9.47606    1.57739   -3.64946       -10.377546      10.397265       0.019719
    764    9.47606    1.57739   -2.13768       -11.455237      11.473672       0.018435
    765    9.47606    1.57739   -0.62590       -12.432503      12.431089      -0.001414
    766    9.47606    1.57739    3.90944       -10.753274      10.730927      -0.022347
    767    9.47606    1.57739    5.42122        -9.578575       9.566682      -0.011893
    768    9.47606    3.08917   -5.16124        -9.036660       9.048574       0.011914
    769    9.47606    3.08917   -3.64946        -9.845701       9.859686       0.013985
    770    9.47606    3.08917   -2.13768       -10.627220      10.639633       0.012413
    771    9.47606    3.08917   -0.62590       -11.190795      11.194835       0.004040
    772    9.47606    3.08917    0.88588       -11.276976      11.270889      -0.006086
    773    9.47606    3.08917    2.39766       -10.794756      10.784876      -0.009880
    774    9.47606    3.08917    3.90944        -9.972638       9.964429      -0.008209
    775    9.47606    3.08917    5.42122        -9.086147       9.080272      -0.005875
    776    9.47606    4.60095   -5.16124        -8.538636       8.547868       0.009232
    777    9.47606    4.60095   -3.64946        -9.159321       9.169471       0.010150
    778    9.47606    4.60095   -2.13768        -9.696640       9.705903       0.009263
    779    9.47606    4.60095   -0.62590       -10.029832      10.035731       0.005899
    780    9.47606    4.60095    0.88588       -10.043473      10.045561       0.002088
    781    9.47606    4.60095    2.39766        -9.718078       9.717795      -0.000282
    782    9.47606    4.60095    3.90944        -9.157176       9.155793      -0.001383
    783    9.47606    6.11274   -2.13768        -8.813266       8.820662       0.007396
    784    9.47606    6.11274   -0.62590        -9.020315       9.026314       0.005999
    785    9.47606    6.11274    0.88588        -9.011125       9.015359       0.004234
    786    9.47606    6.11274    2.39766        -8.782773       8.785410       0.002637
    787   10.98784   -5.98151   -2.13768        -8.109512       8.125754       0.016242
    788   10.98784   -5.98151   -0.62590        -8.337884       8.352857       0.014972
    789   10.98784   -5.98151    0.88588        -8.386763       8.396844       0.010081
    790   10.98784   -4.46973   -3.64946        -8.318607       8.339099       0.020492
    791   10.98784   -4.46973   -2.13768        -8.798300       8.823865       0.025565
    792   10.98784   -4.46973   -0.62590        -9.146999       9.171302       0.024303
    793   10.98784   -4.46973    0.88588        -9.237245       9.250736       0.013492
    794   10.98784   -4.46973    2.39766        -9.011241       9.013578       0.002337
    795   10.98784   -4.46973    3.90944        -8.550012       8.547371      -0.002640
    796   10.98784   -2.95795   -5.16124        -8.176182       8.193871       0.017688
    797   10.98784   -2.95795   -3.64946        -8.816866       8.842676       0.025810
    798   10.98784   -2.95795   -2.13768        -9.463044       9.498810       0.035766
    799   10.98784   -2.95795   -0.62590        -9.995699      10.031038       0.035339
    800   10.98784   -2.95795    0.88588       -10.162768      10.175152       0.012384
    801   10.98784   -2.95795    2.39766        -9.820027       9.813061      -0.006965
    802   10.98784   -2.95795    3.90944        -9.155946       9.145606      -0.010340
    803   10.98784   -1.44617   -5.16124        -8.430683       8.448560       0.017877
    804   10.98784   -1.44617   -3.64946        -9.160222       9.185911       0.025690
    805   10.98784   -1.44617   -2.13768        -9.937992       9.972396       0.034405
    806   10.98784   -1.44617    2.39766       -10.444210      10.418967      -0.025243
    807   10.98784   -1.44617    3.90944        -9.577935       9.557858      -0.020078
    808   10.98784   -1.44617    5.42122        -8.700900       8.688913      -0.011988
    809   10.98784    0.06561   -3.64946        -9.257393       9.277276       0.019884
    810   10.98784    0.06561   -2.13768       -10.038003      10.058460       0.020457
    811   10.98784    0.06561   -0.62590       -10.730717      10.735911       0.005194
    812   10.98784    0.06561    0.88588       -10.989556      10.964473      -0.025083
    813   10.98784    0.06561    2.39766       -10.515339      10.481568      -0.033771
    814   10.98784    0.06561    3.90944        -9.638608       9.615869      -0.022739
    815   10.98784    0.06561    5.42122        -8.749308       8.736353      -0.012955
    816   10.98784    1.57739   -3.64946        -9.090971       9.104827       0.013856
    817   10.98784    1.57739   -2.13768        -9.758143       9.769086       0.010943
    818   10.98784    1.57739   -0.62590       -10.277952      10.277026      -0.000926
    819   10.98784    1.57739    0.88588       -10.419022      10.401969      -0.017054
    820   10.98784    1.57739    2.39766       -10.041822      10.020206      -0.021616
    821   10.98784    1.57739    3.90944        -9.336253       9.320214      -0.016039
    822   10.98784    3.08917   -3.64946        -8.718925       8.728958       0.010033
    823   10.98784    3.08917   -2.13768        -9.236559       9.244141       0.007583
    824   10.98784    3.08917   -0.62590        -9.587165       9.588573       0.001408
    825   10.98784    3.08917    0.88588        -9.643134       9.637442      -0.005692
    826   10.98784    3.08917    2.39766        -9.357985       9.349090      -0.008896
    827   10.98784    4.60095   -2.13768        -8.612461       8.618789       0.006327
    828   10.98784    4.60095   -0.62590        -8.845768       8.849117       0.003349
    829   12.49962   -4.46973   -2.13768        -7.816812       7.832032       0.015220
    830   12.49962   -4.46973   -0.62590        -8.034909       8.048104       0.013195
    831   12.49962   -4.46973    0.88588        -8.082246       8.089962       0.007716
    832   12.49962   -2.95795   -3.64946        -7.836974       7.853027       0.016053
    833   12.49962   -2.95795   -2.13768        -8.242544       8.260227       0.017682
    834   12.49962   -2.95795   -0.62590        -8.529613       8.543992       0.014379
    835   12.49962   -2.95795    0.88588        -8.600439       8.606223       0.005784
    836   12.49962   -2.95795    2.39766        -8.410763       8.408749      -0.002014
    837   12.49962   -1.44617   -3.64946        -8.066449       8.082011       0.015562
    838   12.49962   -1.44617   -2.13768        -8.527119       8.543209       0.016090
    839   12.49962   -1.44617   -0.62590        -8.866069       8.876687       0.010618
    840   12.49962   -1.44617    0.88588        -8.955947       8.955720      -0.000227
    841   12.49962   -1.44617    2.39766        -8.731644       8.723596      -0.008048
    842   12.49962   -1.44617    3.90944        -8.278560       8.269348      -0.009211
    843   12.49962    0.06561   -3.64946        -8.129894       8.142650       0.012755
    844   12.49962    0.06561   -2.13768        -8.593620       8.604905       0.011284
    845   12.49962    0.06561   -0.62590        -8.930634       8.935027       0.004393
    846   12.49962    0.06561    0.88588        -9.015861       9.010123      -0.005738
    847   12.49962    0.06561    2.39766        -8.785262       8.773821      -0.011441
    848   12.49962    0.06561    3.90944        -8.324495       8.313638      -0.010857
    849   12.49962    1.57739   -2.13768        -8.434306       8.441601       0.007295
    850   12.49962    1.57739   -0.62590        -8.718933       8.720380       0.001447
    851   12.49962    1.57739    0.88588        -8.777135       8.771488      -0.005647
    852   12.49962    1.57739    2.39766        -8.567966       8.558604      -0.009362

 NET CHARGES:
 -------------------------------------
 ATOM                CHARGE    E.S.D.
 -------------------------------------
 O                  -0.6439    0.0664
 O                  -0.6361    0.0393
 O                  -0.6456    0.0462
 O                  -0.6330    0.0423
 O                  -0.6381    0.0290
 O                  -0.4075    0.0133
 C                  -0.0673    0.7715
 C                   0.2020    0.5283
 C                   0.2789    0.6033
 C                   0.2313    0.3715
 C                   0.2125    0.4144
 C                   0.3716    0.1256
 H                   0.1121    0.0822
 H                   0.0954    0.0702
 H                   0.0157    0.0661
 H                  -0.0059    0.0346
 H                   0.0572    0.0391
 H                   0.0105    0.0419
 H                   0.4539    0.0169
 H                   0.4169    0.0172
 H                   0.0123    0.0157
 H                   0.4088    0.0159
 H                   0.3977    0.0135
 H                   0.4007    0.0078
 -------------------------------------

 RMS DEVIATION IS            0.924 KCAL/MOLE
 RELATIVE RMS DEVIATION IS   9.119 %

 MULTIPOLE MOMENTS:
 ---------------------------------------------------------
 STATUS  ACTUAL VALUE       QUANTITY        FITTED VALUE 
 ---------------------------------------------------------
 FIXED       0.0000       TOTAL CHARGE        -0.0000
             3.5354 D    DIPOLE MOMENT         3.5147 D
 FREE        1.8319 D          DX              1.8029 D
 FREE        1.6987 D          DY              1.7154 D
 FREE       -2.5015 D          DZ             -2.4819 D
 FREE        0.0000 BU         QXX            -1.2997 BU
 FREE        0.0000 BU         QYY             2.8531 BU
 FREE        0.0000 BU         QZZ            -1.5534 BU
 FREE        0.0000 BU         QXY            -5.9054 BU
 FREE        0.0000 BU         QXZ            -2.0327 BU
 FREE        0.0000 BU         QYZ            -2.8980 BU
 ---------------------------------------------------------
 ...... END OF PROPERTY EVALUATION ......
 CPU     0: STEP CPU TIME=     0.38 TOTAL CPU TIME=         25.3 (      0.4 MIN)
 TOTAL WALL CLOCK TIME=         51.4 SECONDS, CPU UTILIZATION IS    49.24%
               956059  WORDS OF DYNAMIC MEMORY USED
 EXECUTION OF GAMESS TERMINATED NORMALLY Thu May 21 20:00:45 2020
 DDI: 263640 bytes (0.3 MB / 0 MWords) used by master data server.
Note: The following floating-point exceptions are signalling:Note: The following floating-point exceptions are signalling:Note: The following floating-point exceptions are signalling: IEEE_UNDERFLOW_FLAGNote: The following floating-point exceptions are signalling: IEEE_UNDERFLOW_FLAG IEEE_UNDERFLOW_FLAG IEEE_DENORMALNote: The following floating-point exceptions are signalling: IEEE_UNDERFLOW_FLAGNote: The following floating-point exceptions are signalling: IEEE_UNDERFLOW_FLAG
 ----------------------------------------
 CPU timing information for all processes
 ========================================
 0: 25.20 + 0.328 = 25.348
 1: 25.341 + 0.84 = 25.425
 2: 25.248 + 0.100 = 25.348
 3: 24.989 + 0.96 = 25.86
 4: 25.58 + 0.104 = 25.163
 5: 24.888 + 0.40 = 24.928
 6: 25.182 + 0.133 = 25.315
 7: 24.335 + 0.104 = 24.439
 ----------------------------------------
 IEEE_UNDERFLOW_FLAG IEEE_DENORMAL IEEE_DENORMAL
 IEEE_DENORMAL

 IEEE_DENORMAL
 IEEE_DENORMAL
Note: The following floating-point exceptions are signalling: IEEE_UNDERFLOW_FLAGNote: The following floating-point exceptions are signalling: IEEE_UNDERFLOW_FLAG
 IEEE_DENORMAL
 IEEE_DENORMAL
 ddikick.x: exited gracefully.
unset echo
----- accounting info -----
Files used on the master node pietdev were:
-rwxr-xr-x 1 piet piet     1506 mei 21 19:59 /home/piet/scr/d-mannose_charge_chelpg.F05*
-rw-r--r-- 1 piet piet 50790400 mei 21 20:00 /home/piet/scr/d-mannose_charge_chelpg.F10
ls: No match.
ls: No match.
ls: No match.
do 21 mei 2020 20:00:48 CEST
0.123u 0.008s 0:54.59 0.2%	0+0k 0+8io 0pf+0w
