----- GAMESS execution script 'rungms' -----
This job is running on host pietdev
under operating system Linux at do 21 mei 2020 20:01:34 CEST
Available scratch disk space (Kbyte units) at beginning of the job is
Filesystem     1K-blocks     Used Available Use% Mounted on
/dev/sda2      244568380 30779352 201295972  14% /
GAMESS temporary binary files will be written to /home/piet/scr
GAMESS supplementary output files will be written to /home/piet/gamess/scr
Copying input file d-mannose_fukui_base.inp to your run's scratch directory...
cp d-mannose_fukui_base.inp /home/piet/scr/d-mannose_fukui_base.F05
unset echo
 
Assuming a single but multicore node.
 
/home/piet/gamess/ddikick.x /home/piet/gamess/gamess.03.x d-mannose_fukui_base -ddi 1 8 pietdev:cpus=8 -scr /home/piet/scr

 Distributed Data Interface kickoff program.
 Initiating 8 compute processes on 1 nodes to run the following command:
 /home/piet/gamess/gamess.03.x d-mannose_fukui_base 

          ******************************************************
          *         GAMESS VERSION = 30 SEP 2019 (R2)          *
          *             FROM IOWA STATE UNIVERSITY             *
          * M.W.SCHMIDT, K.K.BALDRIDGE, J.A.BOATZ, S.T.ELBERT, *
          *   M.S.GORDON, J.H.JENSEN, S.KOSEKI, N.MATSUNAGA,   *
          *          K.A.NGUYEN, S.J.SU, T.L.WINDUS,           *
          *       TOGETHER WITH M.DUPUIS, J.A.MONTGOMERY       *
          *         J.COMPUT.CHEM.  14, 1347-1363(1993)        *
          **************** 64 BIT LINUX VERSION ****************

  SINCE 1993, STUDENTS AND POSTDOCS WORKING AT IOWA STATE UNIVERSITY
  AND ALSO IN THEIR VARIOUS JOBS AFTER LEAVING ISU HAVE MADE IMPORTANT
  CONTRIBUTIONS TO THE CODE:
     IVANA ADAMOVIC, CHRISTINE AIKENS, YURI ALEXEEV, POOJA ARORA,
     ANDREY ASADCHEV, ROB BELL, PRADIPTA BANDYOPADHYAY, JONATHAN BENTZ,
     COLLEEN BERTONI, BRETT BODE, KURT BRORSEN, CALEB CARLIN, GALINA CHABAN,
     WEI CHEN, CHEOL HO CHOI, PAUL DAY, ALBERT DEFUSCO, NUWAN DESILVA,
     TIM DUDLEY, DMITRI FEDOROV, ALEX FINDLATER, GRAHAM FLETCHER, 
     MARK FREITAG, KURT GLAESEMANN, EMILIE B GUIDEZ, ANASTASIA GUNINA, 
     DAN KEMP, SAROM SOK LEANG, GRANT MERRILL,
     NORIYUKI MINEZAWA, JONATHAN MULLIN,
     TAKESHI NAGATA, SEAN NEDD, HEATHER NETZLOFF, BOSILJKA NJEGIC, RYAN OLSON,
     MIKE PAK, BUU PHAM, DAVID POOLE,
     SPENCER PRUITT, LUKE ROSKOP, TOSAPORN SATTASATHUCHANA,
     JIM SHOEMAKER, LYUDMILA SLIPCHENKO,
     TONY SMITH, JIE SONG, TETSUYA TAKETSUGU, SIMON WEBB,
     JORGE LUIS GALVEZ VALLEJO, PENG XU, SOOHAENG YOO,
     FEDERICO ZAHARIEV

  ADDITIONAL CODE HAS BEEN PROVIDED BY COLLABORATORS IN OTHER GROUPS:
     IOWA STATE UNIVERSITY:
          JOE IVANIC, AARON WEST, LAIMUTIS BYTAUTAS, KLAUS RUEDENBERG
     UNIVERSITY OF TOKYO: KIMIHIKO HIRAO, TAKAHITO NAKAJIMA,
          TAKAO TSUNEDA, MUNEAKI KAMIYA, SUSUMU YANAGISAWA,
          KIYOSHI YAGI, MAHITO CHIBA, SEIKEN TOKURA, NAOAKI KAWAKAMI
     UNIVERSITY OF AARHUS: FRANK JENSEN
     UNIVERSITY OF IOWA: VISVALDAS KAIRYS, HUI LI
     NATIONAL INST. OF STANDARDS AND TECHNOLOGY: WALT STEVENS, DAVID GARMER
     UNIVERSITY OF PISA: BENEDETTA MENNUCCI, JACOPO TOMASI
     UNIVERSITY OF MEMPHIS: HENRY KURTZ, PRAKASHAN KORAMBATH
     UNIVERSITY OF ALBERTA: TOBY ZENG, MARIUSZ KLOBUKOWSKI
     UNIVERSITY OF NEW ENGLAND: MARK SPACKMAN
     MIE UNIVERSITY: HIROAKI UMEDA
     NAT. INST. OF ADVANCED INDUSTRIAL SCIENCE AND TECHNOLOGY: KAZUO KITAURA
     MICHIGAN STATE UNIVERSITY:
          KAROL KOWALSKI, MARTA WLOCH, JEFFREY GOUR, JESSE LUTZ,
          WEI LI, JUN SHEN, J. EMILIANO DEUSTUA, PIOTR PIECUCH
     UNIVERSITY OF MINNESOTA:
          ANDREW SAND, PRACHI SHARMA, YINAN SHU
     UNIVERSITY OF SILESIA: MONIKA MUSIAL, STANISLAW KUCHARSKI
     FACULTES UNIVERSITAIRES NOTRE-DAME DE LA PAIX:
          OLIVIER QUINET, BENOIT CHAMPAGNE
     UNIVERSITY OF CALIFORNIA - SANTA BARBARA: BERNARD KIRTMAN
     INSTITUTE FOR MOLECULAR SCIENCE:
          KAZUYA ISHIMURA, MICHIO KATOUDA, AND SHIGERU NAGASE
     UNIVERSITY OF NOTRE DAME: ANNA POMOGAEVA, DAN CHIPMAN
     KYUSHU UNIVERSITY:
          HARUYUKI NAKANO,
          FENG LONG GU, JACEK KORCHOWIEC, MARCIN MAKOWSKI, AND YURIKO AOKI,
          HIROTOSHI MORI AND EISAKU MIYOSHI
     PENNSYLVANIA STATE UNIVERSITY:
          TZVETELIN IORDANOV, CHET SWALINA, JONATHAN SKONE,
          SHARON HAMMES-SCHIFFER
     WASEDA UNIVERSITY:
          MASATO KOBAYASHI, TOMOKO AKAMA, TSUGUKI TOUMA,
          TAKESHI YOSHIKAWA, YASUHIRO IKABATA, JUNJI SEINO,
          YUYA NAKAJIMA, HIROMI NAKAI
     NANJING UNIVERSITY: SHUHUA LI
     UNIVERSITY OF NEBRASKA:
          PEIFENG SU, DEJUN SI, NANDUN THELLAMUREGE, YALI WANG, HUI LI
     UNIVERSITY OF ZURICH: ROBERTO PEVERATI, KIM BALDRIDGE
     N. COPERNICUS UNIVERSITY AND JACKSON STATE UNIVERSITY:
          MARIA BARYSZ
     UNIVERSITY OF COPENHAGEN: Jimmy Kromann, CASPER STEINMANN
     TOKYO INSTITUTE OF TECHNOLOGY: HIROYA NAKATA
     NAGOYA UNIVERSITY: YOSHIO NISHIMOTO, STEPHAN IRLE
     MOSCOW STATE UNIVERSITY: VLADIMIR MIRONOV
     A.N.NESMEYANOV INSTITUTE OF ORGANOELEMENT COMPOUNDS OF RUSSIAN ACADEMY OF SCIENCES:
          IGOR S. GERASIMOV
     JOHANNES KEPLER UNIVERSITY LINZ:
          CHRISTIAN FRIEDL


 PARALLEL VERSION RUNNING ON        8 PROCESSORS IN        1 NODES.

 EXECUTION OF GAMESS BEGUN Thu May 21 20:01:34 2020

            ECHO OF THE FIRST FEW INPUT CARDS -
 INPUT CARD> $BASIS GBASIS=N21 NGAUSS=3 $END                                                
 INPUT CARD> $CONTRL SCFTYP=UHF MAXIT=60 MULT=2 ICHARG=1 $END                               
 INPUT CARD> $SYSTEM MEMDDI=1000 MWORDS=30 $END                                             
 INPUT CARD> $SCF DIRSCF=.TRUE. $END                                                        
 INPUT CARD> $STATPT OPTTOL=0.0001 NSTEP=999 $END                                           
 INPUT CARD> $DATA                                                                          
 INPUT CARD>                                                                                
 INPUT CARD>C1                                                                              
 INPUT CARD>O 8.0000000 0.7281032369 1.3475501259 -1.3232430038                             
 INPUT CARD>O 8.0000000 -0.6612221031 -0.9176730888 -1.6081150751                           
 INPUT CARD>O 8.0000000 1.6699778206 -1.1308638790 1.1883609037                             
 INPUT CARD>O 8.0000000 -1.9426626561 1.3996464979 0.9778032710                             
 INPUT CARD>O 8.0000000 4.1585027013 -0.4247782659 0.5351506188                             
 INPUT CARD>O 8.0000000 -3.9926164747 -0.2626553017 0.7391265081                            
 INPUT CARD>C 6.0000000 0.5591497217 0.5389041774 -0.0921566575                             
 INPUT CARD>C 6.0000000 -0.6939939572 -0.3143397824 -0.2844401402                           
 INPUT CARD>C 6.0000000 1.7993763131 -0.3298251515 -0.0177447150                            
 INPUT CARD>C 6.0000000 -1.9597405214 0.5726301113 -0.2006137269                            
 INPUT CARD>C 6.0000000 3.0871999956 0.4909597576 0.0916746655                              
 INPUT CARD>C 6.0000000 -3.1744163242 -0.3260160169 -0.1861351056                           
 INPUT CARD>H 1.0000000 0.4545200424 1.1527351765 0.8050411257                              
 INPUT CARD>H 1.0000000 -0.6982425299 -1.1022913355 0.4707379321                            
 INPUT CARD>H 1.0000000 1.8282331979 -0.9541367159 -0.9248546130                            
 INPUT CARD>H 1.0000000 -1.9780251738 1.1778988579 -1.1215675755                            
 INPUT CARD>H 1.0000000 2.9911786696 1.2159855754 0.9028323907                              
 INPUT CARD>H 1.0000000 3.3133270199 1.0047906347 -0.8461249845                             
 INPUT CARD>H 1.0000000 0.2369942786 2.2029190157 -1.1996863162                             
 INPUT CARD>H 1.0000000 -0.2280105871 -0.1935225523 -2.1559336819                           
 INPUT CARD>H 1.0000000 -3.2343844261 -1.0350568596 -1.0216598238                           
 INPUT CARD>H 1.0000000 2.6242609139 -1.3334781882 1.4251331321                             
 INPUT CARD>H 1.0000000 -2.7576594266 1.1129596755 1.4935114057                             
 INPUT CARD>H 1.0000000 4.4216502688 -0.9761424681 -0.2526965345                            
 INPUT CARD> $END                                                                           
   30000000 WORDS OF MEMORY AVAILABLE

     BASIS OPTIONS
     -------------
     GBASIS=N21          IGAUSS=       3      POLAR=NONE    
     NDFUNC=       0     NFFUNC=       0     DIFFSP=       F
     NPFUNC=       0      DIFFS=       F     BASNAM=        


     RUN TITLE
     ---------
                                                                                 

 THE POINT GROUP OF THE MOLECULE IS C1      
 THE ORDER OF THE PRINCIPAL AXIS IS     0

 ATOM      ATOMIC                      COORDINATES (BOHR)
           CHARGE         X                   Y                   Z
 O           8.0     1.3759156085        2.5465004927       -2.5005666924
 O           8.0    -1.2495285919       -1.7341506841       -3.0388968487
 O           8.0     3.1558004865       -2.1370228607        2.2456764825
 O           8.0    -3.6711001066        2.6449483607        1.8477802521
 O           8.0     7.8584306247       -0.8027145281        1.0112880317
 O           8.0    -7.5449511112       -0.4963465494        1.3967465706
 C           6.0     1.0566397601        1.0183812289       -0.1741508306
 C           6.0    -1.3114584162       -0.5940160558       -0.5375139249
 C           6.0     3.4003281806       -0.6232791602       -0.0335326491
 C           6.0    -3.7033725925        1.0821140027       -0.3791049732
 C           6.0     5.8339620610        0.9277794129        0.1732399978
 C           6.0    -5.9987770237       -0.6160809395       -0.3517443463
 H           1.0     0.8589183361        2.1783536200        1.5213071364
 H           1.0    -1.3194870545       -2.0830285827        0.8895657037
 H           1.0     3.4548597857       -1.8030569479       -1.7477217971
 H           1.0    -3.7379255753        2.2259060827       -2.1194553944
 H           1.0     5.6525080659        2.2978795425        1.7061058313
 H           1.0     6.2612801753        1.8987789746       -1.5989443721
 H           1.0     0.4478542472        4.1629133128       -2.2670784088
 H           1.0    -0.4308775319       -0.3657045963       -4.0741239065
 H           1.0    -6.1121003043       -1.9559738464       -1.9306571196
 H           1.0     4.9591340476       -2.5199083863        2.6931111157
 H           1.0    -5.2112206837        2.1031888221        2.8223273163
 H           1.0     8.3557074216       -1.8446417897       -0.4775272083

          INTERNUCLEAR DISTANCES (ANGS.)
          ------------------------------

                1 O          2 O          3 O          4 O          5 O     

   1 O       0.0000000    2.6725668 *  3.6520977    3.5256940    4.2851389  
   2 O       2.6725668 *  0.0000000    3.6469468    3.7012206    5.2977618  
   3 O       3.6520977    3.6469468    0.0000000    4.4157659    2.6679574 *
   4 O       3.5256940    3.7012206    4.4157659    0.0000000    6.3834697  
   5 O       4.2851389    5.2977618    2.6679574 *  6.3834697    0.0000000  
   6 O       5.3973442    4.1275634    5.7463529    2.6500046 *  8.1552826  
   7 C       1.4825745 *  2.4308547 *  2.3794515 *  2.8539020 *  3.7785632  
   8 C       2.4214355 *  1.4550603 *  2.9024502 *  2.4678292 *  4.9224638  
   9 C       2.3802394 *  2.9882081 *  1.4536498 *  4.2408777    2.4249096 *
  10 C       3.0141834    2.4265642 *  4.2433474    1.4397619 *  6.2425213  
  11 C       2.8811589 *  4.3501954    2.4169301 *  5.1875287    1.4774764 *
  12 C       4.3958500    2.9475804 *  5.0995268    2.4186527 *  7.3689693  
  13 H       2.1546215 *  3.3696875    2.6151666 *  2.4160498 *  4.0349569  
  14 H       3.3547806    2.0873630 *  2.4747256 *  2.8399630 *  4.9041969  
  15 H       2.5820073 *  2.5817750 *  2.1264894 *  4.8352930    2.8003556 *
  16 H       2.7189309 *  2.5223244 *  4.8963334    2.1113457 *  6.5551707  
  17 H       3.1771420    4.9190840    2.7082837 *  4.9378277    2.0469346 *
  18 H       2.6511333 *  4.4803500    3.3764996    5.5774594    2.1600721 *
  19 H       0.9940373 *  3.2728736    4.3439981    3.1839617    5.0291829  
  20 H       1.9956033 *  1.0060673 *  3.9579382    3.9113331    5.1513991  
  21 H       4.6334735    2.6417557 *  5.3801617    3.4050225    7.5796358  
  22 H       4.2821605    4.4908671    1.0038774 *  5.3410547    1.9929130 *
  23 H       4.4877254    4.2589442    4.9731110    1.0061630 *  7.1495729  
  24 H       4.4930954    5.2608145    3.1100300    6.9038382    0.9969715 *

                6 O          7 C          8 C          9 C         10 C     

   1 O       5.3973442    1.4825745 *  2.4214355 *  2.3802394 *  3.0141834  
   2 O       4.1275634    2.4308547 *  1.4550603 *  2.9882081 *  2.4265642 *
   3 O       5.7463529    2.3794515 *  2.9024502 *  1.4536498 *  4.2433474  
   4 O       2.6500046 *  2.8539020 *  2.4678292 *  4.2408777    1.4397619 *
   5 O       8.1552826    3.7785632    4.9224638    2.4249096 *  6.2425213  
   6 O       0.0000000    4.6959669    3.4541671    5.8416219    2.3902715 *
   7 C       4.6959669    0.0000000    1.5281908 *  1.5160441 *  2.5214497 *
   8 C       3.4541671    1.5281908 *  0.0000000    2.5076406 *  1.5478556 *
   9 C       5.8416219    1.5160441 *  2.5076406 *  0.0000000    3.8702488  
  10 C       2.3902715 *  2.5214497 *  1.5478556 *  3.8702488    0.0000000  
  11 C       7.1491909    2.5351787 *  3.8842499    1.5310618 *  5.0560569  
  12 C       1.2367599 *  3.8335929    2.4823971 *  4.9766438    1.5110300 *
  13 H       4.6674081    1.0921079 *  2.1583241 *  2.1641627 *  2.6789023 *
  14 H       3.4102670    2.1427572 *  1.0914118 *  2.6595900 *  2.2016930 *
  15 H       6.0933792    2.1291148 *  2.6797576 *  1.1015653 *  4.1478050  
  16 H       3.0977342    2.8116290 *  2.1392276 *  4.2143112    1.1021981 *
  17 H       7.1404883    2.7135230 *  4.1631730    2.1580977 *  5.1130324  
  18 H       7.5826283    2.8932700 *  4.2560799    2.1816186 *  5.3299802  
  19 H       5.2657059    2.0246855 *  2.8356669 *  3.2020020    2.9123241 *
  20 H       4.7495695    2.3270681 *  1.9324144 *  2.9496997 *  2.7219762 *
  21 H       2.0668547 *  4.2109655    2.7416254 *  5.1811142    2.2098623 *
  22 H       6.7379769    3.1737467    3.8693797    1.9415588 *  5.2239229  
  23 H       1.9966302 *  3.7209012    3.0752253    5.0131924    1.9490230 *
  24 H       8.5025091    4.1521139    5.1583724    2.7109499 *  6.5668529  

               11 C         12 C         13 H         14 H         15 H     

   1 O       2.8811589 *  4.3958500    2.1546215 *  3.3547806    2.5820073 *
   2 O       4.3501954    2.9475804 *  3.3696875    2.0873630 *  2.5817750 *
   3 O       2.4169301 *  5.0995268    2.6151666 *  2.4747256 *  2.1264894 *
   4 O       5.1875287    2.4186527 *  2.4160498 *  2.8399630 *  4.8352930  
   5 O       1.4774764 *  7.3689693    4.0349569    4.9041969    2.8003556 *
   6 O       7.1491909    1.2367599 *  4.6674081    3.4102670    6.0933792  
   7 C       2.5351787 *  3.8335929    1.0921079 *  2.1427572 *  2.1291148 *
   8 C       3.8842499    2.4823971 *  2.1583241 *  1.0914118 *  2.6797576 *
   9 C       1.5310618 *  4.9766438    2.1641627 *  2.6595900 *  1.1015653 *
  10 C       5.0560569    1.5110300 *  2.6789023 *  2.2016930 *  4.1478050  
  11 C       0.0000000    6.3207964    2.8067494 *  4.1245258    2.1694776 *
  12 C       6.3207964    0.0000000    4.0420681    2.6768493 *  5.0957575  
  13 H       2.8067494 *  4.0420681    0.0000000    2.5545576 *  3.0526278  
  14 H       4.1245258    2.6768493 *  2.5545576 *  0.0000000    2.8901052 *
  15 H       2.1694776 *  5.0957575    3.0526278    2.8901052 *  0.0000000  
  16 H       5.2536033    2.1373221 *  3.1031807    3.0614617    4.3671357  
  17 H       1.0921810 *  6.4481145    2.5393308 *  4.3786918    3.0663191  
  18 H       1.0929885 *  6.6556327    3.3046958    4.7187512    2.4594915 *
  19 H       3.5668039    4.3658356    2.2735733 *  3.8196074    3.5460647  
  20 H       4.0633583    3.5466840    3.3234966    2.8189329 *  2.5144041 *
  21 H       6.5977777    1.0974683 *  4.6616828    2.9434312 *  5.0641896  
  22 H       2.3067288 *  6.1021163    3.3576102    3.4645846    2.5099806 *
  23 H       6.0427156    2.2506776 *  3.2853722    3.1928985    5.5813791  
  24 H       2.0128929 *  7.6241277    4.6248299    5.1722890    2.6791963 *

               16 H         17 H         18 H         19 H         20 H     

   1 O       2.7189309 *  3.1771420    2.6511333 *  0.9940373 *  1.9956033 *
   2 O       2.5223244 *  4.9190840    4.4803500    3.2728736    1.0060673 *
   3 O       4.8963334    2.7082837 *  3.3764996    4.3439981    3.9579382  
   4 O       2.1113457 *  4.9378277    5.5774594    3.1839617    3.9113331  
   5 O       6.5551707    2.0469346 *  2.1600721 *  5.0291829    5.1513991  
   6 O       3.0977342    7.1404883    7.5826283    5.2657059    4.7495695  
   7 C       2.8116290 *  2.7135230 *  2.8932700 *  2.0246855 *  2.3270681 *
   8 C       2.1392276 *  4.1631730    4.2560799    2.8356669 *  1.9324144 *
   9 C       4.2143112    2.1580977 *  2.1816186 *  3.2020020    2.9496997 *
  10 C       1.1021981 *  5.1130324    5.3299802    2.9123241 *  2.7219762 *
  11 C       5.2536033    1.0921810 *  1.0929885 *  3.5668039    4.0633583  
  12 C       2.1373221 *  6.4481145    6.6556327    4.3658356    3.5466840  
  13 H       3.1031807    2.5393308 *  3.3046958    2.2735733 *  3.3234966  
  14 H       3.0614617    4.3786918    4.7187512    3.8196074    2.8189329 *
  15 H       4.3671357    3.0663191    2.4594915 *  3.5460647    2.5144041 *
  16 H       0.0000000    5.3658767    5.3013435    2.4419419 *  2.4521951 *
  17 H       5.3658767    0.0000000    1.7908754 *  3.6027981    4.6589637  
  18 H       5.3013435    1.7908754 *  0.0000000    3.3202922    3.9613918  
  19 H       2.4419419 *  3.6027981    3.3202922    0.0000000    2.6217496 *
  20 H       2.4521951 *  4.6589637    3.9613918    2.6217496 *  0.0000000  
  21 H       2.5466828 *  6.8940915    6.8603437    4.7504370    3.3216021  
  22 H       5.8286994    2.6281538 *  3.3318053    5.0094735    4.7179435  
  23 H       2.7295942 *  5.7800221    6.5071096    4.1724425    4.6286573  
  24 H       6.8081331    2.8612797 *  2.3461956 *  5.3399033    5.0846978  

               21 H         22 H         23 H         24 H     

   1 O       4.6334735    4.2821605    4.4877254    4.4930954  
   2 O       2.6417557 *  4.4908671    4.2589442    5.2608145  
   3 O       5.3801617    1.0038774 *  4.9731110    3.1100300  
   4 O       3.4050225    5.3410547    1.0061630 *  6.9038382  
   5 O       7.5796358    1.9929130 *  7.1495729    0.9969715 *
   6 O       2.0668547 *  6.7379769    1.9966302 *  8.5025091  
   7 C       4.2109655    3.1737467    3.7209012    4.1521139  
   8 C       2.7416254 *  3.8693797    3.0752253    5.1583724  
   9 C       5.1811142    1.9415588 *  5.0131924    2.7109499 *
  10 C       2.2098623 *  5.2239229    1.9490230 *  6.5668529  
  11 C       6.5977777    2.3067288 *  6.0427156    2.0128929 *
  12 C       1.0974683 *  6.1021163    2.2506776 *  7.6241277  
  13 H       4.6616828    3.3576102    3.2853722    4.6248299  
  14 H       2.9434312 *  3.4645846    3.1928985    5.1722890  
  15 H       5.0641896    2.5099806 *  5.5813791    2.6791963 *
  16 H       2.5466828 *  5.8286994    2.7295942 *  6.8081331  
  17 H       6.8940915    2.6281538 *  5.7800221    2.8612797 *
  18 H       6.8603437    3.3318053    6.5071096    2.3461956 *
  19 H       4.7504370    5.0094735    4.1724425    5.3399033  
  20 H       3.3216021    4.7179435    4.6286573    5.0846978  
  21 H       0.0000000    6.3560661    3.3417552    7.6947802  
  22 H       6.3560661    0.0000000    5.9122585    2.4846347 *
  23 H       3.3417552    5.9122585    0.0000000    7.6782861  
  24 H       7.6947802    2.4846347 *  7.6782861    0.0000000  

  * ... LESS THAN  3.000


     ATOMIC BASIS SET
     ----------------
 THE CONTRACTED PRIMITIVE FUNCTIONS HAVE BEEN UNNORMALIZED
 THE CONTRACTED BASIS FUNCTIONS ARE NOW NORMALIZED TO UNITY

  SHELL TYPE  PRIMITIVE        EXPONENT          CONTRACTION COEFFICIENT(S)

 O         

      1   S       1           322.0370000    0.059239393389
      1   S       2            48.4308000    0.351499960776
      1   S       3            10.4206000    0.707657921031

      2   L       4             7.4029400   -0.404453583190    0.244586106967
      2   L       5             1.5762000    1.221561761397    0.853955373466

      3   L       6             0.3736840    1.000000000000    1.000000000000

 O         

      4   S       7           322.0370000    0.059239393389
      4   S       8            48.4308000    0.351499960776
      4   S       9            10.4206000    0.707657921031

      5   L      10             7.4029400   -0.404453583190    0.244586106967
      5   L      11             1.5762000    1.221561761397    0.853955373466

      6   L      12             0.3736840    1.000000000000    1.000000000000

 O         

      7   S      13           322.0370000    0.059239393389
      7   S      14            48.4308000    0.351499960776
      7   S      15            10.4206000    0.707657921031

      8   L      16             7.4029400   -0.404453583190    0.244586106967
      8   L      17             1.5762000    1.221561761397    0.853955373466

      9   L      18             0.3736840    1.000000000000    1.000000000000

 O         

     10   S      19           322.0370000    0.059239393389
     10   S      20            48.4308000    0.351499960776
     10   S      21            10.4206000    0.707657921031

     11   L      22             7.4029400   -0.404453583190    0.244586106967
     11   L      23             1.5762000    1.221561761397    0.853955373466

     12   L      24             0.3736840    1.000000000000    1.000000000000

 O         

     13   S      25           322.0370000    0.059239393389
     13   S      26            48.4308000    0.351499960776
     13   S      27            10.4206000    0.707657921031

     14   L      28             7.4029400   -0.404453583190    0.244586106967
     14   L      29             1.5762000    1.221561761397    0.853955373466

     15   L      30             0.3736840    1.000000000000    1.000000000000

 O         

     16   S      31           322.0370000    0.059239393389
     16   S      32            48.4308000    0.351499960776
     16   S      33            10.4206000    0.707657921031

     17   L      34             7.4029400   -0.404453583190    0.244586106967
     17   L      35             1.5762000    1.221561761397    0.853955373466

     18   L      36             0.3736840    1.000000000000    1.000000000000

 C         

     19   S      37           172.2560000    0.061766907377
     19   S      38            25.9109000    0.358794042852
     19   S      39             5.5333500    0.700713083689

     20   L      40             3.6649800   -0.395895162119    0.236459946619
     20   L      41             0.7705450    1.215834355681    0.860618805716

     21   L      42             0.1958570    1.000000000000    1.000000000000

 C         

     22   S      43           172.2560000    0.061766907377
     22   S      44            25.9109000    0.358794042852
     22   S      45             5.5333500    0.700713083689

     23   L      46             3.6649800   -0.395895162119    0.236459946619
     23   L      47             0.7705450    1.215834355681    0.860618805716

     24   L      48             0.1958570    1.000000000000    1.000000000000

 C         

     25   S      49           172.2560000    0.061766907377
     25   S      50            25.9109000    0.358794042852
     25   S      51             5.5333500    0.700713083689

     26   L      52             3.6649800   -0.395895162119    0.236459946619
     26   L      53             0.7705450    1.215834355681    0.860618805716

     27   L      54             0.1958570    1.000000000000    1.000000000000

 C         

     28   S      55           172.2560000    0.061766907377
     28   S      56            25.9109000    0.358794042852
     28   S      57             5.5333500    0.700713083689

     29   L      58             3.6649800   -0.395895162119    0.236459946619
     29   L      59             0.7705450    1.215834355681    0.860618805716

     30   L      60             0.1958570    1.000000000000    1.000000000000

 C         

     31   S      61           172.2560000    0.061766907377
     31   S      62            25.9109000    0.358794042852
     31   S      63             5.5333500    0.700713083689

     32   L      64             3.6649800   -0.395895162119    0.236459946619
     32   L      65             0.7705450    1.215834355681    0.860618805716

     33   L      66             0.1958570    1.000000000000    1.000000000000

 C         

     34   S      67           172.2560000    0.061766907377
     34   S      68            25.9109000    0.358794042852
     34   S      69             5.5333500    0.700713083689

     35   L      70             3.6649800   -0.395895162119    0.236459946619
     35   L      71             0.7705450    1.215834355681    0.860618805716

     36   L      72             0.1958570    1.000000000000    1.000000000000

 H         

     37   S      73             5.4471780    0.156284978695
     37   S      74             0.8245472    0.904690876670

     38   S      75             0.1831916    1.000000000000

 H         

     39   S      76             5.4471780    0.156284978695
     39   S      77             0.8245472    0.904690876670

     40   S      78             0.1831916    1.000000000000

 H         

     41   S      79             5.4471780    0.156284978695
     41   S      80             0.8245472    0.904690876670

     42   S      81             0.1831916    1.000000000000

 H         

     43   S      82             5.4471780    0.156284978695
     43   S      83             0.8245472    0.904690876670

     44   S      84             0.1831916    1.000000000000

 H         

     45   S      85             5.4471780    0.156284978695
     45   S      86             0.8245472    0.904690876670

     46   S      87             0.1831916    1.000000000000

 H         

     47   S      88             5.4471780    0.156284978695
     47   S      89             0.8245472    0.904690876670

     48   S      90             0.1831916    1.000000000000

 H         

     49   S      91             5.4471780    0.156284978695
     49   S      92             0.8245472    0.904690876670

     50   S      93             0.1831916    1.000000000000

 H         

     51   S      94             5.4471780    0.156284978695
     51   S      95             0.8245472    0.904690876670

     52   S      96             0.1831916    1.000000000000

 H         

     53   S      97             5.4471780    0.156284978695
     53   S      98             0.8245472    0.904690876670

     54   S      99             0.1831916    1.000000000000

 H         

     55   S     100             5.4471780    0.156284978695
     55   S     101             0.8245472    0.904690876670

     56   S     102             0.1831916    1.000000000000

 H         

     57   S     103             5.4471780    0.156284978695
     57   S     104             0.8245472    0.904690876670

     58   S     105             0.1831916    1.000000000000

 H         

     59   S     106             5.4471780    0.156284978695
     59   S     107             0.8245472    0.904690876670

     60   S     108             0.1831916    1.000000000000

 TOTAL NUMBER OF BASIS SET SHELLS             =   60
 NUMBER OF CARTESIAN GAUSSIAN BASIS FUNCTIONS =  132
 NUMBER OF ELECTRONS                          =   95
 CHARGE OF MOLECULE                           =    1
 SPIN MULTIPLICITY                            =    2
 NUMBER OF OCCUPIED ORBITALS (ALPHA)          =   48
 NUMBER OF OCCUPIED ORBITALS (BETA )          =   47
 TOTAL NUMBER OF ATOMS                        =   24
 THE NUCLEAR REPULSION ENERGY IS      783.1296780918

     $CONTRL OPTIONS
     ---------------
 SCFTYP=UHF          RUNTYP=ENERGY       EXETYP=RUN     
 MPLEVL=       0     CITYP =NONE         CCTYP =NONE         VBTYP =NONE    
 DFTTYP=NONE         TDDFT =NONE    
 MULT  =       2     ICHARG=       1     NZVAR =       0     COORD =UNIQUE  
 PP    =NONE         RELWFN=NONE         LOCAL =NONE         NUMGRD=       F
 ISPHER=      -1     NOSYM =       0     MAXIT =      60     UNITS =ANGS    
 PLTORB=       F     MOLPLT=       F     AIMPAC=       F     FRIEND=        
 NPRINT=       7     IREST =       0     GEOM  =INPUT   
 NORMF =       0     NORMP =       0     ITOL  =      20     ICUT  =       9
 INTTYP=BEST         GRDTYP=BEST         QMTTOL= 1.0E-06

     $SYSTEM OPTIONS
     ---------------
  REPLICATED MEMORY=    30000000 WORDS (ON EVERY NODE).
 DISTRIBUTED MEMDDI=        1000 MILLION WORDS IN AGGREGATE,
 MEMDDI DISTRIBUTED OVER   8 PROCESSORS IS   125000000 WORDS/PROCESSOR.
 TOTAL MEMORY REQUESTED ON EACH PROCESSOR=   155000000 WORDS.
 TIMLIM=      525600.00 MINUTES, OR     365.0 DAYS.
 PARALL= T  BALTYP=  DLB     KDIAG=    0  COREFL= F
 MXSEQ2=     300 MXSEQ3=     150  mem10=         0

          ----------------
          PROPERTIES INPUT
          ----------------

     MOMENTS            FIELD           POTENTIAL          DENSITY
 IEMOM =       1   IEFLD =       0   IEPOT =       0   IEDEN =       0
 WHERE =COMASS     WHERE =NUCLEI     WHERE =NUCLEI     WHERE =NUCLEI  
 OUTPUT=BOTH       OUTPUT=BOTH       OUTPUT=BOTH       OUTPUT=BOTH    
 IEMINT=       0   IEFINT=       0                     IEDINT=       0
                                                       MORB  =       0
          EXTRAPOLATION IN EFFECT
          SOSCF IN EFFECT
          DIIS or SOSCF will be reset if energy rises
 ORBITAL PRINTING OPTION: NPREO=     1   132     2     1

     -------------------------------
     INTEGRAL TRANSFORMATION OPTIONS
     -------------------------------
     NWORD  =            0
     CUTOFF = 1.0E-09     MPTRAN =       0
     DIRTRF =       T     AOINTS =DUP     

          ----------------------
          INTEGRAL INPUT OPTIONS
          ----------------------
 NOPK  =       1 NORDER=       0 SCHWRZ=       T

     ------------------------------------------
     THE POINT GROUP IS C1 , NAXIS= 0, ORDER= 1
     ------------------------------------------

     DIMENSIONS OF THE SYMMETRY SUBSPACES ARE
 A   =  132

 ..... DONE SETTING UP THE RUN .....
 CPU     0: STEP CPU TIME=     0.03 TOTAL CPU TIME=          0.0 (      0.0 MIN)
 TOTAL WALL CLOCK TIME=          0.1 SECONDS, CPU UTILIZATION IS    50.00%

          ********************
          1 ELECTRON INTEGRALS
          ********************
 ...... END OF ONE-ELECTRON INTEGRALS ......
 CPU     0: STEP CPU TIME=     0.01 TOTAL CPU TIME=          0.0 (      0.0 MIN)
 TOTAL WALL CLOCK TIME=          0.1 SECONDS, CPU UTILIZATION IS    50.00%

          -------------
          GUESS OPTIONS
          -------------
          GUESS =HUCKEL            NORB  =       0          NORDER=       0
          MIX   =       F          PRTMO =       F          PUNMO =       F
          TOLZ  = 1.0E-08          TOLE  = 1.0E-05
          SYMDEN=       F          PURIFY=       F

 INITIAL GUESS ORBITALS GENERATED BY HUCKEL   ROUTINE.
 HUCKEL GUESS REQUIRES    164928 WORDS.

 SYMMETRIES FOR INITIAL GUESS ORBITALS FOLLOW.  ALPHA SET(S).
    48 ORBITALS ARE OCCUPIED (   12 CORE ORBITALS).
    13=A       14=A       15=A       16=A       17=A       18=A       19=A   
    20=A       21=A       22=A       23=A       24=A       25=A       26=A   
    27=A       28=A       29=A       30=A       31=A       32=A       33=A   
    34=A       35=A       36=A       37=A       38=A       39=A       40=A   
    41=A       42=A       43=A       44=A       45=A       46=A       47=A   
    48=A       49=A       50=A       51=A       52=A       53=A       54=A   
    55=A       56=A       57=A       58=A   

 SYMMETRIES FOR INITIAL GUESS ORBITALS FOLLOW.   BETA SET(S).
    47 ORBITALS ARE OCCUPIED (   12 CORE ORBITALS).
    13=A       14=A       15=A       16=A       17=A       18=A       19=A   
    20=A       21=A       22=A       23=A       24=A       25=A       26=A   
    27=A       28=A       29=A       30=A       31=A       32=A       33=A   
    34=A       35=A       36=A       37=A       38=A       39=A       40=A   
    41=A       42=A       43=A       44=A       45=A       46=A       47=A   
    48=A       49=A       50=A       51=A       52=A       53=A       54=A   
    55=A       56=A       57=A   
 ...... END OF INITIAL ORBITAL SELECTION ......
 CPU     0: STEP CPU TIME=     0.05 TOTAL CPU TIME=          0.1 (      0.0 MIN)
 TOTAL WALL CLOCK TIME=          0.2 SECONDS, CPU UTILIZATION IS    60.00%

                    ----------------------
                    AO INTEGRAL TECHNOLOGY
                    ----------------------
     S,P,L SHELL ROTATED AXIS INTEGRALS, REPROGRAMMED BY
        KAZUYA ISHIMURA (IMS) AND JOSE SIERRA (SYNSTAR).
     S,P,D,L SHELL ROTATED AXIS INTEGRALS PROGRAMMED BY
        KAZUYA ISHIMURA (INSTITUTE FOR MOLECULAR SCIENCE).
     S,P,D,F,G SHELL TO TOTAL QUARTET ANGULAR MOMENTUM SUM 5,
        ERIC PROGRAM BY GRAHAM FLETCHER (ELORET AND NASA ADVANCED
        SUPERCOMPUTING DIVISION, AMES RESEARCH CENTER).
     S,P,D,F,G,L SHELL GENERAL RYS QUADRATURE PROGRAMMED BY
        MICHEL DUPUIS (PACIFIC NORTHWEST NATIONAL LABORATORY).

          --------------------
          2 ELECTRON INTEGRALS
          --------------------

 DIRECT SCF METHOD SKIPS INTEGRAL STORAGE ON DISK.
 DIRECT TRANSFORMATION SKIPS AO INTEGRAL STORAGE ON DISK.
  ...... END OF TWO-ELECTRON INTEGRALS .....
 CPU     0: STEP CPU TIME=     0.01 TOTAL CPU TIME=          0.1 (      0.0 MIN)
 TOTAL WALL CLOCK TIME=          0.2 SECONDS, CPU UTILIZATION IS    62.50%

          ---------------------------
                  UHF SCF CALCULATION
          ---------------------------

     NUCLEAR ENERGY =       783.1296780918
     MAXIT = 60     NPUNCH=  2     MULT=  2
     EXTRAP=T  DAMP=F  SHIFT=F  RSTRCT=F  DIIS=F  SOSCF=T
     DENSITY MATRIX CONV=  2.00E-05
     SOSCF WILL OPTIMIZE    4032 ALPHA AND    3995 BETA ROTATION ANGLES.
     SOGTOL= 2.500E-01
     MEMORY REQUIRED FOR UHF/ROHF ITERS=    280557 WORDS.

 DIRECT SCF CALCULATION, SCHWRZ=T   FDIFF=T
 SCHWARZ INEQUALITY OVERHEAD:      7777 INTEGRALS, T=        0.00

                                                                                NONZERO     BLOCKS
 ITER EX      TOTAL ENERGY        E CHANGE  DENSITY CHANGE    ORB. GRAD       INTEGRALS    SKIPPED
   1  0     -677.0989126648  -677.0989126648   0.941995307   0.000000000       18197334     960908
          ---------------START SECOND ORDER SCF---------------
   2  1     -678.8945808881    -1.7956682233   0.206767246   0.130951387       18152486     971267
   3  2     -678.9396234845    -0.0450425965   0.190953645   0.133906956       18044316     996625
   4  3     -679.1243843459    -0.1847608614   0.064732991   0.021918312       17772691    1026957
   5  4     -679.1350180840    -0.0106337381   0.014452200   0.012346294       17719692    1037434
   6  5     -679.1383321919    -0.0033141079   0.038190575   0.008475778       17142984    1073194
   7  6     -679.1423996448    -0.0040674529   0.039406884   0.008491571       17657128    1040685
   8  7     -679.1448881272    -0.0024884824   0.046165688   0.008915449       17554958    1050637
   9  8     -679.1479049244    -0.0030167972   0.033584804   0.007116889       17497364    1055120
  10  9     -679.1511719148    -0.0032669904   0.066532150   0.007670206       17337845    1063541
  11 10     -679.1558238000    -0.0046518852   0.122657617   0.018900441       17531671    1047975
  12 11     -679.1571544153    -0.0013306153   0.054956707   0.024584755       17716311    1030502
  13 12     -679.1638047565    -0.0066503411   0.027787921   0.021016589       17500335    1050796
  14 13     -679.1688741916    -0.0050694351   0.058357071   0.015082680       17543163    1046093
  15 14     -679.1743796323    -0.0055054407   0.012624070   0.006302320       17322052    1060275
  16 15     -679.1754987460    -0.0011191137   0.016088553   0.002990919       16797260    1096416
  17 16     -679.1760594686    -0.0005607226   0.005653019   0.001830223       16625735    1105476
  18 17     -679.1762326532    -0.0001731846   0.003830722   0.001013559       16160636    1127419
  19 18     -679.1762813657    -0.0000487125   0.001255337   0.000438003       15675851    1148249
  20 19     -679.1762918046    -0.0000104389   0.000504932   0.000195066       15105316    1172911
  21 20     -679.1762941852    -0.0000023806   0.000202429   0.000076200       14502579    1198719
  22 21     -679.1762946298    -0.0000004446   0.000122232   0.000042749       13713788    1230871
  23 22     -679.1762947332    -0.0000001034   0.000082508   0.000020876       12935292    1262201
  24 23     -679.1762947591    -0.0000000260   0.000043584   0.000009689       12333099    1287543
  25 24     -679.1762947647    -0.0000000056   0.000021159   0.000004954       11577343    1316724
  26 25     -679.1762947650    -0.0000000003   0.000010707   0.000002354       10856177    1343713
  27 26     -679.1762947657    -0.0000000008   0.000004889   0.000001479       10163761    1369843

          -----------------
          DENSITY CONVERGED
          -----------------
     TIME TO FORM FOCK OPERATORS=       5.4 SECONDS (       0.2 SEC/ITER)
     FOCK TIME ON FIRST ITERATION=       0.2, LAST ITERATION=       0.1
     TIME TO SOLVE SCF EQUATIONS=       0.3 SECONDS (       0.0 SEC/ITER)

 FINAL UHF ENERGY IS     -679.1762947657 AFTER  27 ITERATIONS

          --------------------
          SPIN SZ   =    0.500
          S-SQUARED =    0.778
          --------------------

  ----- ALPHA SET ----- 

          ------------
          EIGENVECTORS
          ------------

                      1          2          3          4          5
                  -20.9373   -20.6838   -20.6247   -20.6234   -20.5707
                     A          A          A          A          A   
    1  O  1  S    0.000085  -0.001677   0.981956  -0.055140  -0.000210
    2  O  1  S    0.000140  -0.000659   0.097664  -0.005355   0.000087
    3  O  1  X    0.000014  -0.000053  -0.001915  -0.000248  -0.000067
    4  O  1  Y    0.000006  -0.000018   0.000204  -0.000251   0.000024
    5  O  1  Z    0.000032  -0.000099   0.002995  -0.000442   0.000041
    6  O  1  S   -0.000799   0.002418  -0.044797   0.004064  -0.000673
    7  O  1  X   -0.000006   0.000032   0.003879   0.000889  -0.000054
    8  O  1  Y    0.000277  -0.000431   0.001943  -0.000051   0.000077
    9  O  1  Z   -0.000392   0.001001  -0.008406   0.002281  -0.000463
   10  O  2  S   -0.000227   0.000492   0.055136   0.982007   0.000031
   11  O  2  S   -0.000307   0.000286   0.005688   0.098078   0.000003
   12  O  2  X    0.000032   0.000271   0.000302   0.000854  -0.000008
   13  O  2  Y    0.000014  -0.000146   0.000375   0.003376   0.000049
   14  O  2  Z   -0.000039  -0.000012  -0.000125   0.001862  -0.000022
   15  O  2  S    0.001415  -0.002183  -0.002064  -0.046698  -0.000024
   16  O  2  X    0.000114  -0.001024  -0.001071  -0.001905   0.000046
   17  O  2  Y    0.000427  -0.000013  -0.000897  -0.008438  -0.000236
   18  O  2  Z    0.000471  -0.000620   0.001307  -0.007086   0.000066
   19  O  3  S    0.000007  -0.000292  -0.000297  -0.001359   0.005936
   20  O  3  S    0.000015  -0.000214  -0.000051  -0.000591   0.000896
   21  O  3  X    0.000049  -0.000038   0.000286  -0.000041   0.000245
   22  O  3  Y    0.000025   0.000003  -0.000168  -0.000023  -0.000037
   23  O  3  Z   -0.000003   0.000038   0.000053   0.000075   0.000158
   24  O  3  S   -0.000140   0.000984  -0.000643   0.002140  -0.000612
   25  O  3  X   -0.000225   0.000188  -0.001211   0.000121  -0.000966
   26  O  3  Y   -0.000120   0.000259   0.000359   0.000505   0.000680
   27  O  3  Z    0.000024  -0.000384  -0.000014  -0.000867  -0.000975
   28  O  4  S   -0.000658   0.983619   0.001524  -0.000503   0.000014
   29  O  4  S   -0.000861   0.098741  -0.000311   0.000187  -0.000003
   30  O  4  X   -0.000261  -0.002240  -0.000012  -0.000276  -0.000023
   31  O  4  Y    0.000030  -0.002978   0.000067   0.000029   0.000009
   32  O  4  Z    0.000328  -0.001672   0.000040   0.000060  -0.000007
   33  O  4  S    0.004562  -0.048856   0.001900  -0.001637  -0.000033
   34  O  4  X    0.000841   0.004433   0.000240   0.001165   0.000040
   35  O  4  Y   -0.001330   0.008589  -0.000586   0.000461  -0.000061
   36  O  4  Z   -0.002668   0.006561  -0.000695   0.000160   0.000038
   37  O  5  S   -0.000010  -0.000013   0.000231  -0.000034   0.983436
   38  O  5  S   -0.000019  -0.000001   0.000054  -0.000001   0.097386
   39  O  5  X   -0.000009  -0.000000  -0.000051   0.000013  -0.002018
   40  O  5  Y   -0.000014   0.000005  -0.000066   0.000035   0.000514
   41  O  5  Z   -0.000008   0.000036  -0.000096   0.000073  -0.002956
   42  O  5  S    0.000121  -0.000036   0.000119  -0.000103  -0.042949
   43  O  5  X   -0.000013   0.000040   0.000074   0.000009   0.006003
   44  O  5  Y    0.000081  -0.000047   0.000334  -0.000191  -0.002803
   45  O  5  Z    0.000026  -0.000165   0.000385  -0.000321   0.006008
   46  O  6  S    0.983370   0.000430  -0.000042   0.000156   0.000007
   47  O  6  S    0.100268  -0.000739   0.000079  -0.000285  -0.000010
   48  O  6  X    0.003169   0.000048  -0.000023  -0.000035   0.000006
   49  O  6  Y   -0.000069   0.000200  -0.000021   0.000074   0.000009
   50  O  6  Z   -0.003345   0.000211   0.000001  -0.000009   0.000006
   51  O  6  S   -0.053006   0.005295  -0.000436   0.001588   0.000031
   52  O  6  X   -0.010524   0.001262   0.000033   0.000539  -0.000054
   53  O  6  Y   -0.000420  -0.000458   0.000101  -0.000198  -0.000053
   54  O  6  Z    0.010311  -0.001719   0.000054  -0.000230  -0.000029
   55  C  7  S   -0.000095   0.000094  -0.000934   0.000239  -0.000121
   56  C  7  S   -0.000546   0.000694  -0.004221   0.000845  -0.000785
   57  C  7  X   -0.000025  -0.000067   0.000279   0.000859  -0.000523
   58  C  7  Y    0.000053   0.000097   0.001180   0.000587  -0.000174
   59  C  7  Z    0.000103  -0.000426  -0.000577  -0.000183   0.000036
   60  C  7  S    0.003117  -0.001386   0.019688  -0.006569   0.002409
   61  C  7  X   -0.001028   0.000146   0.001726   0.000582   0.004269
   62  C  7  Y   -0.000903  -0.001348   0.003320   0.000388   0.000736
   63  C  7  Z   -0.002221   0.004238  -0.012095   0.007511   0.000422
   64  C  8  S    0.000018   0.000158   0.000056  -0.000958  -0.000047
   65  C  8  S    0.000025   0.000522  -0.000210  -0.004205  -0.000297
   66  C  8  X    0.000205   0.000304  -0.000781  -0.000084   0.000128
   67  C  8  Y    0.000449  -0.000547  -0.000818  -0.001035  -0.000099
   68  C  8  Z   -0.000280   0.000506  -0.000195  -0.000974   0.000015
   69  C  8  S   -0.002248  -0.003780  -0.002676   0.021284   0.002408
   70  C  8  X   -0.001235   0.002024  -0.001365   0.001908  -0.000115
   71  C  8  Y   -0.003884   0.000122   0.000005  -0.000565   0.001428
   72  C  8  Z    0.004552  -0.007727   0.003891  -0.015083   0.000072
   73  C  9  S    0.000022   0.000037   0.000130   0.000087   0.000257
   74  C  9  S    0.000110   0.000248   0.000186   0.000763   0.000997
   75  C  9  X   -0.000010  -0.000084   0.000419  -0.000431  -0.000593
   76  C  9  Y   -0.000046   0.000076  -0.000563   0.000025   0.000074
   77  C  9  Z   -0.000059   0.000192  -0.000108   0.000239   0.000099
   78  C  9  S   -0.000692  -0.000785  -0.004591  -0.000559  -0.007993
   79  C  9  X    0.000635   0.000547   0.002235   0.001239  -0.002104
   80  C  9  Y    0.000095  -0.000139  -0.001411   0.001438  -0.002309
   81  C  9  Z    0.000949  -0.002377   0.004217  -0.003567  -0.002368
   82  C 10  S    0.000212  -0.000967   0.000085   0.000043   0.000025
   83  C 10  S    0.000767  -0.004175   0.000615  -0.000408   0.000096
   84  C 10  X    0.000210   0.000090   0.000389  -0.000435  -0.000177
   85  C 10  Y    0.000325   0.001260   0.000120   0.000722  -0.000050
   86  C 10  Z    0.000728   0.000526   0.000262  -0.000178  -0.000001
   87  C 10  S   -0.003928   0.022737  -0.000789  -0.001855  -0.001387
   88  C 10  X    0.004803  -0.002512  -0.002238  -0.003263   0.000248
   89  C 10  Y   -0.002366   0.003712  -0.001323  -0.000297   0.000826
   90  C 10  Z   -0.010967   0.017065  -0.002687   0.005854   0.000052
   91  C 11  S   -0.000001  -0.000022   0.000063   0.000004  -0.000836
   92  C 11  S   -0.000018  -0.000145   0.000470   0.000027  -0.003311
   93  C 11  X    0.000039   0.000021  -0.000034  -0.000017   0.001132
   94  C 11  Y   -0.000009  -0.000046   0.000042  -0.000050  -0.001016
   95  C 11  Z    0.000011  -0.000064   0.000241  -0.000152   0.000212
   96  C 11  S   -0.000172   0.000479  -0.001392  -0.000484   0.019045
   97  C 11  X   -0.000074  -0.000305   0.000188   0.000355   0.004550
   98  C 11  Y    0.000211   0.000209  -0.000327   0.000421  -0.006907
   99  C 11  Z   -0.000288   0.000945  -0.001716   0.001678   0.003859
  100  C 12  S    0.000017   0.000194   0.000042   0.000096  -0.000020
  101  C 12  S    0.000399   0.000375   0.000307   0.000588  -0.000107
  102  C 12  X   -0.001682  -0.000518   0.000043   0.000096   0.000018
  103  C 12  Y   -0.000487  -0.000289  -0.000035  -0.000033   0.000012
  104  C 12  Z    0.001204   0.000126  -0.000016   0.000072   0.000010
  105  C 12  S    0.019846  -0.007509  -0.001750  -0.003074   0.000813
  106  C 12  X   -0.010115   0.000109  -0.000998  -0.000540   0.000480
  107  C 12  Y    0.006644  -0.005011  -0.000343  -0.000875   0.000255
  108  C 12  Z    0.019248  -0.008493   0.000887  -0.002208  -0.000043
  109  H 13  S    0.000020  -0.000814  -0.000701  -0.000585  -0.000385
  110  H 13  S    0.000785   0.000321   0.000107  -0.000810  -0.000153
  111  H 14  S   -0.000348   0.001164  -0.000472  -0.000775   0.000034
  112  H 14  S   -0.003103   0.002269   0.000256   0.001206   0.000108
  113  H 15  S    0.000129  -0.000138   0.000736  -0.000487   0.000542
  114  H 15  S    0.000449  -0.000918   0.000847  -0.000165  -0.001567
  115  H 16  S   -0.000730  -0.000456  -0.000024   0.000743   0.000014
  116  H 16  S   -0.001883   0.001557  -0.000832   0.001535  -0.000070
  117  H 17  S    0.000001  -0.000101   0.000444  -0.000108  -0.001463
  118  H 17  S    0.000073  -0.000569   0.000585  -0.000810  -0.002036
  119  H 18  S   -0.000039   0.000049  -0.000459   0.000264  -0.000961
  120  H 18  S   -0.000122   0.000290   0.000413   0.000334  -0.000662
  121  H 19  S    0.000050   0.000034   0.002924   0.000066   0.000077
  122  H 19  S   -0.000223  -0.000088   0.004979  -0.000195  -0.000014
  123  H 20  S    0.000123  -0.000271  -0.000346   0.003020   0.000042
  124  H 20  S   -0.000001   0.000376   0.003203   0.005476   0.000046
  125  H 21  S    0.000704  -0.000904   0.000201  -0.000367  -0.000052
  126  H 21  S    0.005051  -0.002710   0.000272  -0.000106   0.000036
  127  H 22  S    0.000055  -0.000101   0.000304  -0.000159  -0.000559
  128  H 22  S   -0.000037   0.000145   0.000006   0.000329   0.002826
  129  H 23  S   -0.000812   0.003202  -0.000094   0.000270   0.000003
  130  H 23  S    0.002561   0.005768   0.000243  -0.000037   0.000016
  131  H 24  S    0.000023  -0.000060   0.000249  -0.000114   0.002917
  132  H 24  S   -0.000002   0.000050  -0.000234   0.000021   0.004791

                      6          7          8          9         10
                  -20.5548   -11.6185   -11.4965   -11.4233   -11.3915
                     A          A          A          A          A   
    1  O  1  S    0.000244   0.000040   0.000042   0.000021  -0.000325
    2  O  1  S    0.000035   0.000278   0.000416  -0.000279  -0.001352
    3  O  1  X   -0.000302  -0.000007  -0.000201   0.000347  -0.000184
    4  O  1  Y    0.000169  -0.000017  -0.000102   0.000184  -0.000027
    5  O  1  Z   -0.000071   0.000043   0.000079  -0.000205   0.000539
    6  O  1  S   -0.000890  -0.001509  -0.001168  -0.001101   0.011919
    7  O  1  X    0.001304   0.000332   0.000948  -0.000235  -0.000205
    8  O  1  Y   -0.000303   0.000531   0.000440   0.000913  -0.004688
    9  O  1  Z    0.000008  -0.000670  -0.000578  -0.000334   0.003908
   10  O  2  S    0.001253   0.000034  -0.000021  -0.000282   0.000057
   11  O  2  S   -0.000333   0.000323  -0.000596  -0.001165   0.000097
   12  O  2  X    0.000012  -0.000251   0.000139   0.000100  -0.000230
   13  O  2  Y    0.000005  -0.000051  -0.000383   0.000224  -0.000322
   14  O  2  Z   -0.000113   0.000132  -0.000194   0.000363  -0.000361
   15  O  2  S    0.001939  -0.000823   0.000468   0.010953  -0.002642
   16  O  2  X    0.000049   0.001635   0.000494  -0.000448  -0.000166
   17  O  2  Y    0.000308   0.000297   0.000540   0.002425  -0.000269
   18  O  2  Z    0.001055  -0.000818  -0.000234   0.004571  -0.000153
   19  O  3  S    0.983533   0.000016   0.000034   0.000050   0.000018
   20  O  3  S    0.098329   0.000127   0.000248   0.000510  -0.000214
   21  O  3  X    0.002725   0.000015   0.000005  -0.000303   0.000310
   22  O  3  Y    0.001412   0.000026  -0.000008   0.000052  -0.000488
   23  O  3  Z   -0.002325  -0.000011  -0.000043  -0.000082   0.000245
   24  O  3  S   -0.046942  -0.000613  -0.001302  -0.001504  -0.000732
   25  O  3  X   -0.005890  -0.000016   0.000207   0.001400  -0.000549
   26  O  3  Y   -0.005210  -0.000215  -0.000266  -0.000326   0.000800
   27  O  3  Z    0.007576   0.000213   0.000653   0.000668  -0.000115
   28  O  4  S    0.000242  -0.000019  -0.000248   0.000035   0.000049
   29  O  4  S   -0.000153  -0.000385  -0.000979  -0.000010   0.000452
   30  O  4  X    0.000027  -0.000021  -0.000182   0.000045   0.000193
   31  O  4  Y    0.000026   0.000330  -0.000162   0.000308   0.000010
   32  O  4  Z    0.000030   0.000302  -0.000416   0.000070   0.000020
   33  O  4  S    0.000857   0.000635   0.009996  -0.001246  -0.001471
   34  O  4  X   -0.000069   0.000945   0.000707  -0.001069  -0.001025
   35  O  4  Y   -0.000306  -0.000779  -0.003291   0.000088   0.000064
   36  O  4  Z   -0.000330  -0.001121  -0.003044   0.000633   0.000295
   37  O  5  S   -0.005897  -0.000005   0.000005  -0.000015  -0.000039
   38  O  5  S   -0.000293  -0.000047   0.000019  -0.000160  -0.000399
   39  O  5  X   -0.000237   0.000002   0.000038  -0.000003   0.000269
   40  O  5  Y   -0.000356  -0.000022   0.000029  -0.000072   0.000026
   41  O  5  Z   -0.000020  -0.000010  -0.000005  -0.000006   0.000115
   42  O  5  S    0.000671   0.000202  -0.000266   0.000646   0.000928
   43  O  5  X    0.000313  -0.000037  -0.000005  -0.000020  -0.001139
   44  O  5  Y    0.001644   0.000128  -0.000171   0.000391  -0.000060
   45  O  5  Z    0.000103   0.000048   0.000087   0.000015  -0.000482
   46  O  6  S   -0.000001   0.000125   0.000045  -0.000006  -0.000025
   47  O  6  S    0.000017   0.001145   0.000072  -0.000057  -0.000237
   48  O  6  X   -0.000019  -0.000398  -0.000095   0.000075   0.000095
   49  O  6  Y   -0.000010  -0.000003   0.000165  -0.000061  -0.000007
   50  O  6  Z    0.000005   0.000176   0.000267   0.000074   0.000080
   51  O  6  S   -0.000174  -0.001599  -0.001921   0.000212   0.001153
   52  O  6  X    0.000023  -0.001948  -0.001687  -0.000217  -0.000420
   53  O  6  Y    0.000031   0.000576  -0.001638   0.000138  -0.000040
   54  O  6  Z    0.000007   0.003734  -0.000524  -0.000196  -0.000471
   55  C  7  S    0.000146  -0.000785  -0.000956  -0.006008   0.988390
   56  C  7  S    0.000299  -0.001642  -0.000488  -0.004010   0.106423
   57  C  7  X   -0.000415   0.000210   0.001076  -0.000556  -0.000466
   58  C  7  Y    0.000587  -0.000061  -0.000188   0.000044  -0.000890
   59  C  7  Z    0.000220   0.000217   0.000087   0.000181  -0.000908
   60  C  7  S   -0.004965   0.008073  -0.003431   0.028325  -0.099945
   61  C  7  X   -0.003260  -0.004472  -0.002650  -0.013741   0.000900
   62  C  7  Y    0.000835  -0.001659   0.002839  -0.008675   0.013572
   63  C  7  Z   -0.005823  -0.002658  -0.001792  -0.004325   0.005126
   64  C  8  S    0.000127  -0.000897  -0.002750   0.988321   0.004828
   65  C  8  S    0.000881  -0.001293  -0.003475   0.105782  -0.002950
   66  C  8  X    0.000259   0.001696  -0.000446  -0.000329   0.000451
   67  C  8  Y   -0.000097   0.000400   0.000059   0.001207  -0.000025
   68  C  8  Z   -0.000238  -0.000193  -0.000066  -0.000249   0.000326
   69  C  8  S   -0.002833  -0.000278   0.026675  -0.097421   0.028954
   70  C  8  X   -0.001682  -0.009222  -0.013948  -0.002007   0.014641
   71  C  8  Y    0.000553  -0.003387   0.007843  -0.012748   0.009151
   72  C  8  Z    0.002988   0.000839   0.002850  -0.000195  -0.000325
   73  C  9  S   -0.000995  -0.000164  -0.000806  -0.001647  -0.004426
   74  C  9  S   -0.004442  -0.000281  -0.001211  -0.000700  -0.003645
   75  C  9  X    0.000016   0.000268   0.000518   0.001127  -0.000544
   76  C  9  Y   -0.001294  -0.000004   0.000187   0.000088   0.000128
   77  C  9  Z    0.000701  -0.000063   0.000031   0.000104   0.000063
   78  C  9  S    0.022684   0.000149   0.004638  -0.002669   0.028129
   79  C  9  X   -0.001229  -0.000938  -0.005350  -0.002408  -0.013886
   80  C  9  Y   -0.002681  -0.000208  -0.000313  -0.001993   0.008153
   81  C  9  Z    0.014170   0.001142   0.000532   0.001062  -0.003728
   82  C 10  S    0.000039  -0.000706   0.988233   0.001633   0.001037
   83  C 10  S    0.000284  -0.001144   0.105776  -0.002952  -0.000230
   84  C 10  X    0.000100   0.000403  -0.000846   0.000590  -0.000962
   85  C 10  Y   -0.000030   0.000252  -0.001364  -0.000136  -0.000199
   86  C 10  Z    0.000140   0.000143  -0.000020  -0.000096  -0.000079
   87  C 10  S   -0.000877   0.012731  -0.097384   0.024617  -0.003431
   88  C 10  X   -0.000721  -0.010375   0.000579   0.014135   0.002077
   89  C 10  Y   -0.000087  -0.005640   0.013460  -0.007167   0.002845
   90  C 10  Z   -0.001687  -0.002633   0.000555  -0.001049   0.000957
   91  C 11  S    0.000196  -0.000134  -0.000224  -0.001350  -0.002990
   92  C 11  S    0.000578  -0.000289  -0.000336  -0.001278  -0.001175
   93  C 11  X    0.000869   0.000094  -0.000041   0.000301   0.000765
   94  C 11  Y    0.000547  -0.000025   0.000035  -0.000163  -0.000164
   95  C 11  Z    0.000159   0.000050   0.000019   0.000104   0.000058
   96  C 11  S   -0.006015   0.000983   0.002221   0.004613   0.000737
   97  C 11  X    0.001360  -0.000744  -0.000468  -0.003352  -0.000321
   98  C 11  Y    0.001865   0.000013  -0.001074   0.000068   0.000902
   99  C 11  Z   -0.004666  -0.000609  -0.000401  -0.001040   0.000519
  100  C 12  S    0.000016   0.986857   0.000228   0.000687   0.000353
  101  C 12  S    0.000136   0.095741  -0.002348  -0.001074  -0.001326
  102  C 12  X    0.000045  -0.000469   0.000447  -0.000874  -0.000330
  103  C 12  Y   -0.000011   0.000038  -0.000107  -0.000207   0.000140
  104  C 12  Z    0.000001   0.001392  -0.000203   0.000133   0.000136
  105  C 12  S   -0.000494  -0.054069   0.026095   0.001094   0.005286
  106  C 12  X   -0.000257  -0.012091   0.013269   0.000682   0.004274
  107  C 12  Y    0.000042  -0.002292   0.010673   0.001222   0.000481
  108  C 12  Z    0.000486   0.006897   0.002612  -0.000158  -0.001291
  109  H 13  S    0.000909  -0.000299  -0.000194  -0.001380   0.000561
  110  H 13  S    0.001769   0.000566   0.000563   0.001410   0.013137
  111  H 14  S   -0.000404  -0.001207  -0.001714   0.000740  -0.001248
  112  H 14  S    0.000498  -0.000050  -0.000421   0.014115   0.000980
  113  H 15  S   -0.000850   0.000033  -0.000564  -0.000108  -0.001931
  114  H 15  S    0.001093   0.000411   0.000343   0.000096  -0.000342
  115  H 16  S   -0.000071  -0.001412   0.001061  -0.001787   0.000257
  116  H 16  S   -0.000515   0.001622   0.014575   0.000986  -0.001032
  117  H 17  S    0.000875  -0.000094  -0.000029  -0.000509  -0.000129
  118  H 17  S    0.001138   0.000238   0.000239   0.000298  -0.001163
  119  H 18  S   -0.000495  -0.000139  -0.000071  -0.000499  -0.000044
  120  H 18  S   -0.000560  -0.000249  -0.000183  -0.000392  -0.000349
  121  H 19  S    0.000305  -0.000021   0.000371  -0.000168  -0.000270
  122  H 19  S   -0.000050  -0.000020  -0.001061  -0.001008   0.002545
  123  H 20  S   -0.000198   0.000004  -0.000561  -0.000378  -0.000556
  124  H 20  S    0.000511  -0.000643  -0.000253   0.003313   0.002224
  125  H 21  S    0.000076  -0.000746  -0.000956  -0.000311  -0.000738
  126  H 21  S    0.000252   0.013339   0.002725   0.000582  -0.000109
  127  H 22  S    0.003076   0.000048   0.000083  -0.000247   0.000427
  128  H 22  S    0.005883  -0.000065  -0.000022  -0.000369   0.001251
  129  H 23  S   -0.000050  -0.000342  -0.000756  -0.000307  -0.000075
  130  H 23  S    0.000096   0.002114   0.002964   0.000286  -0.000161
  131  H 24  S    0.000765   0.000003  -0.000047  -0.000049  -0.000476
  132  H 24  S   -0.000773   0.000063   0.000041   0.000262   0.000894

                     11         12         13         14         15
                  -11.3531   -11.3382    -1.8528    -1.5858    -1.5341
                     A          A          A          A          A   
    1  O  1  S    0.000005   0.000046  -0.000137  -0.016092  -0.124938
    2  O  1  S   -0.000349   0.000352  -0.000321   0.015801   0.115958
    3  O  1  X   -0.000233   0.000010  -0.000056  -0.004189  -0.024320
    4  O  1  Y    0.000654  -0.000061   0.000079  -0.000713   0.000297
    5  O  1  Z   -0.000147   0.000001  -0.000061   0.005147   0.031569
    6  O  1  S   -0.000269  -0.001447   0.003165   0.044460   0.386321
    7  O  1  X    0.000172  -0.000465  -0.000127  -0.004686  -0.035080
    8  O  1  Y   -0.001591   0.000413  -0.001779  -0.000782  -0.001677
    9  O  1  Z   -0.000227  -0.000598   0.001477   0.003757   0.039979
   10  O  2  S    0.000058   0.000014  -0.000448  -0.029625  -0.163662
   11  O  2  S    0.000555   0.000088   0.000919   0.027222   0.151616
   12  O  2  X    0.000225   0.000058  -0.000008   0.000455   0.014353
   13  O  2  Y   -0.000012  -0.000016   0.000403   0.011436   0.054430
   14  O  2  Z    0.000180   0.000036   0.000278   0.006728   0.023621
   15  O  2  S   -0.001635  -0.000443  -0.001674   0.094666   0.509009
   16  O  2  X   -0.001021  -0.000501  -0.002487   0.003393   0.017134
   17  O  2  Y   -0.000104  -0.000027  -0.001949   0.012929   0.070291
   18  O  2  Z   -0.001126  -0.000425  -0.000152   0.009025   0.033495
   19  O  3  S   -0.000293   0.000029  -0.000042  -0.002068  -0.017730
   20  O  3  S   -0.001260  -0.000083  -0.000089   0.002038   0.016589
   21  O  3  X    0.000258  -0.000155  -0.000113   0.000173   0.002682
   22  O  3  Y    0.000129  -0.000399  -0.000053   0.000667   0.004149
   23  O  3  Z   -0.000481   0.000223   0.000018  -0.000719  -0.005405
   24  O  3  S    0.011555  -0.001451   0.000982   0.005626   0.054042
   25  O  3  X   -0.000570  -0.000567   0.000611  -0.000051   0.006139
   26  O  3  Y    0.003843   0.000339   0.000427  -0.000245   0.002901
   27  O  3  Z   -0.003548  -0.000137  -0.000335  -0.000677  -0.005255
   28  O  4  S    0.000030  -0.000003  -0.009707  -0.209588   0.048369
   29  O  4  S    0.000209  -0.000056   0.012358   0.193374  -0.044887
   30  O  4  X   -0.000028  -0.000064  -0.004202  -0.044073   0.013540
   31  O  4  Y   -0.000006  -0.000018  -0.005352  -0.056404   0.009967
   32  O  4  Z   -0.000033   0.000018  -0.002644  -0.027886   0.002037
   33  O  4  S   -0.001210   0.000097   0.008523   0.663985  -0.154131
   34  O  4  X   -0.000188   0.000159  -0.007051  -0.059781   0.014407
   35  O  4  Y    0.000309   0.000072  -0.000244  -0.078599   0.016281
   36  O  4  Z    0.000580  -0.000062   0.004749  -0.045624   0.007579
   37  O  5  S    0.000057  -0.000200   0.000019  -0.000422  -0.006071
   38  O  5  S    0.000166  -0.000419   0.000057   0.000304   0.005561
   39  O  5  X    0.000056  -0.000430   0.000024  -0.000129  -0.001887
   40  O  5  Y    0.000015   0.000278   0.000043   0.000017   0.000215
   41  O  5  Z    0.000275  -0.000396   0.000021  -0.000124  -0.001604
   42  O  5  S   -0.001958   0.007692  -0.000506   0.001666   0.018541
   43  O  5  X    0.001763  -0.002860   0.000009  -0.000562  -0.002025
   44  O  5  Y   -0.000493   0.002216  -0.000345   0.000065  -0.000080
   45  O  5  Z   -0.000725  -0.000097  -0.000085  -0.000059  -0.002190
   46  O  6  S    0.000004  -0.000002  -0.228310   0.027249  -0.001662
   47  O  6  S    0.000031  -0.000022   0.229356  -0.026653   0.001427
   48  O  6  X    0.000022   0.000020   0.081923   0.005986  -0.000891
   49  O  6  Y    0.000022  -0.000011  -0.005256   0.012453  -0.002769
   50  O  6  Z    0.000001   0.000022  -0.090074   0.011187  -0.001952
   51  O  6  S   -0.000172   0.000111   0.739272  -0.110143   0.008734
   52  O  6  X   -0.000173  -0.000097   0.107075  -0.001827  -0.000716
   53  O  6  Y   -0.000157   0.000032  -0.000890   0.012937  -0.002985
   54  O  6  Z    0.000052  -0.000097  -0.111441   0.019435  -0.003692
   55  C  7  S    0.003367   0.002935   0.000389  -0.012355  -0.056556
   56  C  7  S   -0.002609  -0.000725   0.002793   0.012679   0.058145
   57  C  7  X    0.000181  -0.001160  -0.000028  -0.006244  -0.008979
   58  C  7  Y   -0.000020  -0.000326  -0.000223  -0.000557   0.006405
   59  C  7  Z    0.000025   0.000000  -0.000488  -0.003430  -0.037408
   60  C  7  S    0.026578  -0.000584  -0.019421   0.015266   0.104780
   61  C  7  X    0.015935   0.004410   0.006855  -0.005969   0.003449
   62  C  7  Y   -0.008378   0.002903   0.007215   0.002310  -0.011995
   63  C  7  Z    0.003574  -0.000259   0.010234  -0.009702  -0.005866
   64  C  8  S    0.001612   0.001037  -0.001172  -0.028640  -0.070157
   65  C  8  S   -0.000625  -0.001120   0.003858   0.030894   0.073306
   66  C  8  X   -0.001083  -0.000536  -0.004550  -0.012578   0.013509
   67  C  8  Y    0.000057   0.000124  -0.001221   0.011381  -0.008478
   68  C  8  Z    0.000004  -0.000143   0.001569  -0.004828  -0.055294
   69  C  8  S   -0.000614   0.005057   0.003500   0.033022   0.125426
   70  C  8  X    0.003324   0.005025   0.020523   0.008979  -0.013747
   71  C  8  Y   -0.001090  -0.000004   0.017934  -0.001943   0.011508
   72  C  8  Z   -0.002192   0.000934  -0.017037   0.019949  -0.003278
   73  C  9  S    0.988275   0.010130  -0.000069  -0.002882  -0.019734
   74  C  9  S    0.105965  -0.001477  -0.000189   0.002833   0.021064
   75  C  9  X   -0.000459  -0.000067  -0.000404  -0.002898  -0.010779
   76  C  9  Y    0.001038  -0.000072   0.000010   0.000723   0.005786
   77  C  9  Z    0.000245  -0.000243   0.000182  -0.000281   0.000321
   78  C  9  S   -0.098599   0.020839   0.004012   0.009103   0.023226
   79  C  9  X    0.001935   0.013014  -0.000570   0.003311   0.002994
   80  C  9  Y   -0.012801   0.007018   0.001201   0.004300  -0.000143
   81  C  9  Z   -0.002417   0.002315  -0.003768   0.002922  -0.005314
   82  C 10  S    0.000483   0.000161  -0.014376  -0.089018  -0.003684
   83  C 10  S   -0.001008  -0.000254   0.009562   0.093437   0.005138
   84  C 10  X   -0.000497  -0.000061  -0.013974  -0.007368   0.017565
   85  C 10  Y   -0.000198  -0.000030  -0.006832   0.032552  -0.023148
   86  C 10  Z   -0.000032  -0.000003   0.003890   0.066836  -0.024409
   87  C 10  S    0.003429   0.001358   0.033210   0.171739  -0.004955
   88  C 10  X    0.004607   0.000894  -0.015806  -0.000208  -0.000373
   89  C 10  Y    0.000828  -0.000453   0.004569  -0.020982   0.002354
   90  C 10  Z    0.000923  -0.000310   0.043228  -0.030924  -0.008698
   91  C 11  S   -0.011131   0.987643   0.000081  -0.000492  -0.006073
   92  C 11  S   -0.004544   0.101782   0.000417   0.001285   0.006718
   93  C 11  X   -0.000645  -0.000593  -0.000160  -0.000454  -0.003475
   94  C 11  Y   -0.000050  -0.000321   0.000077  -0.000230  -0.002742
   95  C 11  Z   -0.000411   0.000165  -0.000073   0.000003  -0.000257
   96  C 11  S    0.027873  -0.080211  -0.001716  -0.004013   0.007920
   97  C 11  X   -0.013043   0.008823   0.001621   0.002366  -0.001401
   98  C 11  Y   -0.007815   0.002890  -0.000389   0.001911   0.000628
   99  C 11  Z    0.002308  -0.001005   0.001360  -0.000521   0.002848
  100  C 12  S    0.000091   0.000069  -0.099009  -0.012394  -0.003569
  101  C 12  S   -0.000395  -0.000266   0.110293   0.014622   0.004806
  102  C 12  X   -0.000061  -0.000127  -0.084313   0.039005   0.002001
  103  C 12  Y   -0.000045   0.000003   0.012362   0.023297  -0.003005
  104  C 12  Z    0.000016   0.000017   0.102737  -0.007365  -0.003126
  105  C 12  S    0.002516   0.000607   0.043856   0.023324   0.004597
  106  C 12  X    0.000923   0.000593   0.046856  -0.009349   0.005522
  107  C 12  Y    0.001086   0.000019  -0.024543   0.019288  -0.003480
  108  C 12  Z   -0.000105  -0.000047  -0.077530   0.038750  -0.005386
  109  H 13  S   -0.001885   0.000010   0.000244   0.005465   0.016645
  110  H 13  S    0.000348  -0.001441  -0.004247   0.007360  -0.006582
  111  H 14  S   -0.000272  -0.000702   0.003022   0.007837   0.020722
  112  H 14  S    0.000844  -0.000138   0.012302  -0.009273  -0.005878
  113  H 15  S    0.000837  -0.001126  -0.000262   0.001459   0.007291
  114  H 15  S    0.013804   0.001436  -0.001767   0.001561   0.000890
  115  H 16  S   -0.000398  -0.000108   0.005665   0.023479   0.004791
  116  H 16  S    0.000040  -0.000037   0.003262  -0.016472   0.002871
  117  H 17  S   -0.001983   0.000578   0.000142   0.000545   0.001772
  118  H 17  S   -0.000873   0.015455  -0.000358  -0.000273  -0.000886
  119  H 18  S   -0.001276   0.000004   0.000243   0.000341   0.002254
  120  H 18  S    0.001874   0.013943   0.000583  -0.000346   0.002676
  121  H 19  S    0.000697   0.000050  -0.000160   0.006488   0.052419
  122  H 19  S    0.000880  -0.000306   0.001474   0.002698   0.007902
  123  H 20  S    0.000431   0.000080   0.000121   0.013187   0.073692
  124  H 20  S   -0.001301  -0.000193   0.000080  -0.001113   0.006018
  125  H 21  S   -0.000077  -0.000105   0.015334   0.006876   0.003082
  126  H 21  S    0.000050   0.000055  -0.034040   0.013708   0.002536
  127  H 22  S   -0.000388  -0.000366  -0.000169   0.000754   0.006224
  128  H 22  S    0.002524   0.001908   0.000212  -0.000324  -0.001072
  129  H 23  S    0.000032   0.000037   0.010748   0.091203  -0.023752
  130  H 23  S   -0.000073   0.000116  -0.000159   0.006370  -0.003931
  131  H 24  S   -0.000328  -0.000204  -0.000054   0.000179   0.002415
  132  H 24  S   -0.000645   0.002643  -0.000051   0.000056  -0.000060

                     16         17         18         19         20
                   -1.4939    -1.4697    -1.4313    -1.2908    -1.1959
                     A          A          A          A          A   
    1  O  1  S   -0.175890   0.048763  -0.015988   0.013802   0.061806
    2  O  1  S    0.163298  -0.045608   0.014880  -0.013034  -0.052464
    3  O  1  X   -0.028272   0.010594  -0.003876  -0.000517   0.014017
    4  O  1  Y    0.015443  -0.006818   0.003859  -0.005544  -0.060505
    5  O  1  Z    0.042399  -0.009184   0.001556   0.003476   0.035202
    6  O  1  S    0.559473  -0.152424   0.050224  -0.045712  -0.245348
    7  O  1  X   -0.037808   0.011178  -0.001985  -0.000770   0.018951
    8  O  1  Y    0.010351  -0.002616   0.001330  -0.004943  -0.033300
    9  O  1  Z    0.064240  -0.013536   0.003635   0.002088   0.009414
   10  O  2  S    0.138901  -0.004660  -0.006297   0.056150   0.049195
   11  O  2  S   -0.127495   0.004422   0.005373  -0.049036  -0.044478
   12  O  2  X   -0.007790   0.000395  -0.000151  -0.020855   0.003530
   13  O  2  Y   -0.039374   0.000439   0.001992  -0.005709  -0.000851
   14  O  2  Z   -0.016181   0.001470  -0.000842   0.023739   0.043479
   15  O  2  S   -0.447503   0.014765   0.022513  -0.205809  -0.183866
   16  O  2  X   -0.007650   0.000249   0.000624  -0.019640   0.008561
   17  O  2  Y   -0.055032   0.001189   0.003484  -0.020174  -0.011596
   18  O  2  Z   -0.027982   0.000675   0.001633   0.005931   0.021328
   19  O  3  S   -0.028249  -0.150137   0.154890   0.005693   0.054079
   20  O  3  S    0.025321   0.138435  -0.142338  -0.005686  -0.046685
   21  O  3  X    0.006605   0.041186  -0.034442  -0.003261  -0.031502
   22  O  3  Y    0.005371   0.019987  -0.016732   0.000922   0.023295
   23  O  3  Z   -0.006305  -0.028960   0.026025  -0.000502  -0.022946
   24  O  3  S    0.092281   0.468544  -0.495675  -0.016779  -0.203394
   25  O  3  X    0.011117   0.050934  -0.045150  -0.004854  -0.030823
   26  O  3  Y    0.005884   0.027323  -0.024878   0.000671   0.004669
   27  O  3  Z   -0.010293  -0.040602   0.040137  -0.001065  -0.004052
   28  O  4  S   -0.010245  -0.000119  -0.000378   0.078207   0.000820
   29  O  4  S    0.010777  -0.000018   0.000313  -0.068986  -0.000715
   30  O  4  X   -0.002272  -0.000114  -0.000245   0.025249   0.024642
   31  O  4  Y   -0.001097  -0.000174   0.000090  -0.018604  -0.002616
   32  O  4  Z    0.000037   0.000182  -0.000058  -0.047313  -0.003176
   33  O  4  S    0.027189   0.001066   0.001480  -0.298324  -0.000887
   34  O  4  X   -0.002758   0.000222  -0.000702   0.026756   0.026370
   35  O  4  Y   -0.001123   0.000063  -0.000422   0.012293  -0.002701
   36  O  4  Z    0.001941  -0.000421  -0.000028  -0.014966  -0.006745
   37  O  5  S   -0.018678  -0.145915  -0.167978  -0.000490   0.015843
   38  O  5  S    0.016914   0.135649   0.156759   0.000674  -0.013560
   39  O  5  X   -0.004212  -0.027141  -0.017508   0.000076  -0.008530
   40  O  5  Y    0.000344   0.000903   0.000138   0.000100   0.009373
   41  O  5  Z   -0.004865  -0.039158  -0.048574  -0.000288   0.000817
   42  O  5  S    0.058950   0.452145   0.532663   0.001118  -0.059885
   43  O  5  X   -0.006385  -0.039904  -0.032098   0.000376  -0.001463
   44  O  5  Y    0.000754   0.000967   0.009411  -0.000162   0.006014
   45  O  5  Z   -0.007378  -0.049409  -0.061470  -0.000328   0.004480
   46  O  6  S   -0.002131   0.000114   0.000108   0.058054  -0.038171
   47  O  6  S    0.002489  -0.000174  -0.000015  -0.061452   0.041010
   48  O  6  X   -0.000755   0.000016   0.000057   0.066844  -0.059574
   49  O  6  Y    0.000350  -0.000018   0.000084   0.013761  -0.009307
   50  O  6  Z    0.000283   0.000010  -0.000013  -0.047389   0.057783
   51  O  6  S    0.006380  -0.000137  -0.001004  -0.218671   0.147793
   52  O  6  X   -0.000007   0.000472  -0.000196   0.047091  -0.045188
   53  O  6  Y    0.000008   0.000276  -0.000088   0.011543  -0.007475
   54  O  6  Z    0.001244   0.000072   0.000115  -0.031096   0.045797
   55  C  7  S   -0.049803  -0.001398   0.010639  -0.018466  -0.131477
   56  C  7  S    0.052538   0.001855  -0.009604   0.023766   0.127466
   57  C  7  X    0.017064   0.013456  -0.008395  -0.021274  -0.013179
   58  C  7  Y    0.036234  -0.020276   0.015033  -0.009369  -0.062860
   59  C  7  Z   -0.039738   0.017198  -0.008933   0.005582   0.028924
   60  C  7  S    0.099638   0.001281  -0.016960   0.022728   0.358824
   61  C  7  X   -0.014866  -0.010594  -0.004673   0.018254  -0.014981
   62  C  7  Y   -0.006964  -0.008324   0.001317   0.006211  -0.031038
   63  C  7  Z    0.021315   0.011308  -0.016555   0.019906  -0.007615
   64  C  8  S    0.038434  -0.002756   0.002679  -0.060925  -0.101492
   65  C  8  S   -0.038570   0.004413  -0.001891   0.065418   0.098033
   66  C  8  X    0.013382   0.000899  -0.003654  -0.053441   0.059081
   67  C  8  Y    0.028140  -0.003370  -0.000440   0.034841   0.044430
   68  C  8  Z    0.046162   0.001105  -0.004930   0.030216   0.045486
   69  C  8  S   -0.087645  -0.006137  -0.007255   0.128623   0.281123
   70  C  8  X   -0.001495   0.001109  -0.007720   0.030333  -0.028217
   71  C  8  Y   -0.003339  -0.003946  -0.002954   0.018035   0.021993
   72  C  8  Z   -0.021104  -0.002183   0.004222  -0.007839   0.028737
   73  C  9  S   -0.022956  -0.064157   0.045330  -0.002168  -0.078537
   74  C  9  S    0.023467   0.066848  -0.048268   0.004862   0.080334
   75  C  9  X   -0.006754   0.013465   0.018739  -0.007047  -0.042079
   76  C  9  Y    0.006791  -0.022654   0.031716   0.002955   0.051331
   77  C  9  Z    0.005449   0.046684  -0.046149  -0.001482  -0.027979
   78  C  9  S    0.043611   0.116557  -0.085687  -0.000619   0.187280
   79  C  9  X    0.007896   0.005090   0.004512   0.014752   0.006884
   80  C  9  Y    0.008733   0.002332  -0.007153   0.001025   0.016903
   81  C  9  Z   -0.020046  -0.007605   0.011943  -0.002967   0.006498
   82  C 10  S    0.009368  -0.000113  -0.000262  -0.140547   0.002901
   83  C 10  S   -0.010631  -0.000157   0.000401   0.133371   0.004554
   84  C 10  X   -0.006038   0.000609  -0.000674  -0.041536   0.092765
   85  C 10  Y    0.013572  -0.000460   0.000020  -0.088435   0.005449
   86  C 10  Z    0.008250   0.000414  -0.000408  -0.049084   0.006495
   87  C 10  S   -0.016717   0.005705  -0.001587   0.422355  -0.035258
   88  C 10  X    0.008124  -0.003771   0.001981  -0.024867  -0.000490
   89  C 10  Y    0.007425  -0.004473   0.001861  -0.059690   0.003598
   90  C 10  Z    0.019905  -0.000458  -0.001832  -0.005196   0.000976
   91  C 11  S   -0.012077  -0.058774  -0.040887  -0.000028  -0.036123
   92  C 11  S    0.012513   0.062295   0.043727   0.002473   0.041692
   93  C 11  X   -0.001766   0.016624   0.049532  -0.000817  -0.034245
   94  C 11  Y   -0.006253  -0.040548  -0.025921   0.000312  -0.001427
   95  C 11  Z    0.000619   0.014587   0.010012  -0.000134  -0.006467
   96  C 11  S    0.014671   0.100844   0.076854  -0.010374   0.069122
   97  C 11  X   -0.003833  -0.001253  -0.004954   0.006466   0.005106
   98  C 11  Y    0.004276  -0.004130   0.003422   0.002166   0.006613
   99  C 11  Z    0.007108   0.008701  -0.013832   0.001276  -0.011879
  100  C 12  S    0.005183  -0.000069  -0.000208  -0.122142   0.069550
  101  C 12  S   -0.006119   0.000755   0.000163   0.154455  -0.081531
  102  C 12  X   -0.006065   0.000281   0.000284   0.104519  -0.013383
  103  C 12  Y   -0.000810  -0.000013   0.000095   0.043700  -0.009137
  104  C 12  Z    0.003313  -0.000075  -0.000193  -0.040365   0.016480
  105  C 12  S   -0.004163  -0.004677   0.002142   0.266928  -0.199854
  106  C 12  X   -0.004233  -0.002539   0.000586   0.033737  -0.036222
  107  C 12  Y    0.001953  -0.001793   0.001339  -0.010280  -0.012457
  108  C 12  Z   -0.000881  -0.000355   0.001068  -0.045159   0.026271
  109  H 13  S    0.014457   0.000975  -0.002800   0.011562   0.070463
  110  H 13  S   -0.007197  -0.001847   0.004768  -0.014831  -0.002792
  111  H 14  S   -0.009956   0.002678  -0.002427   0.035308   0.057003
  112  H 14  S    0.008393   0.006909  -0.008907  -0.000363  -0.012153
  113  H 15  S    0.005081   0.017984  -0.012689   0.001766   0.041473
  114  H 15  S   -0.009719  -0.008710   0.008934  -0.005083  -0.003224
  115  H 16  S   -0.003572  -0.000213   0.000121   0.072843  -0.001775
  116  H 16  S    0.008370  -0.001228   0.000073  -0.011079  -0.001568
  117  H 17  S    0.003257   0.018210   0.012965   0.000840   0.020823
  118  H 17  S   -0.003228  -0.004285   0.001232   0.000115   0.002694
  119  H 18  S    0.004344   0.017629   0.012145   0.000763   0.019901
  120  H 18  S    0.004818  -0.004952  -0.004180   0.000098  -0.009640
  121  H 19  S    0.080376  -0.024664   0.009119  -0.008255  -0.055961
  122  H 19  S    0.014497  -0.004725   0.002026   0.000442  -0.031598
  123  H 20  S   -0.052396  -0.000020   0.003257  -0.033881  -0.032575
  124  H 20  S   -0.002287  -0.001500   0.001909  -0.016775  -0.032221
  125  H 21  S   -0.003518   0.000290   0.000190   0.084356  -0.054595
  126  H 21  S   -0.005420  -0.000264   0.000879  -0.014263  -0.011547
  127  H 22  S    0.011276   0.069391  -0.059302  -0.003667  -0.041092
  128  H 22  S    0.001327   0.007378  -0.004262  -0.001141  -0.024577
  129  H 23  S    0.005266   0.000204   0.000121  -0.053002  -0.010938
  130  H 23  S    0.000097   0.000046   0.000093  -0.041637   0.003579
  131  H 24  S    0.007374   0.062480   0.078391   0.000505  -0.009896
  132  H 24  S    0.001933   0.011103   0.013848  -0.000547  -0.007593

                     21         22         23         24         25
                   -1.1355    -1.1078    -1.0674    -1.0035    -0.9945
                     A          A          A          A          A   
    1  O  1  S    0.012574  -0.003776  -0.014062  -0.020006   0.013350
    2  O  1  S   -0.009890   0.003298   0.011755   0.016317  -0.012210
    3  O  1  X    0.027225   0.015424   0.005393  -0.017023  -0.010161
    4  O  1  Y   -0.025617   0.000239   0.030056   0.067362  -0.022094
    5  O  1  Z    0.013618  -0.003160  -0.021396  -0.041332   0.013973
    6  O  1  S   -0.053479   0.016667   0.063316   0.093540  -0.055147
    7  O  1  X    0.025444   0.012544   0.003200  -0.015528  -0.009935
    8  O  1  Y   -0.015634  -0.000121   0.020905   0.053682  -0.020327
    9  O  1  Z    0.006933  -0.001151  -0.012928  -0.029166   0.009762
   10  O  2  S   -0.026268  -0.018757  -0.007353   0.015356  -0.009576
   11  O  2  S    0.021252   0.016689   0.006741  -0.011872   0.007584
   12  O  2  X    0.016234   0.005554  -0.021806  -0.027957   0.024913
   13  O  2  Y   -0.005937   0.000107   0.005030  -0.011022   0.031066
   14  O  2  Z   -0.032736  -0.028228  -0.019293   0.069231  -0.065395
   15  O  2  S    0.112528   0.075419   0.031737  -0.077811   0.046188
   16  O  2  X    0.012174   0.005617  -0.017812  -0.023742   0.022729
   17  O  2  Y    0.003624   0.004732   0.005503  -0.015425   0.029556
   18  O  2  Z   -0.016772  -0.018478  -0.012312   0.055186  -0.054812
   19  O  3  S    0.046158   0.022876   0.014386  -0.004149  -0.001295
   20  O  3  S   -0.040055  -0.020311  -0.013650   0.001719   0.001392
   21  O  3  X   -0.016635  -0.001903   0.014425   0.029478   0.003963
   22  O  3  Y    0.027853   0.015141   0.009534  -0.010813   0.000846
   23  O  3  Z   -0.029306  -0.016155  -0.008469   0.019414   0.002694
   24  O  3  S   -0.179229  -0.088640  -0.054094   0.025778   0.004115
   25  O  3  X   -0.014085  -0.001227   0.012958   0.025802   0.004632
   26  O  3  Y    0.010006   0.006534   0.004694  -0.006495   0.000313
   27  O  3  Z   -0.010825  -0.007228  -0.003704   0.014612   0.002480
   28  O  4  S   -0.025035   0.033481   0.004542  -0.003953   0.008838
   29  O  4  S    0.022026  -0.032240  -0.002625   0.003429  -0.008855
   30  O  4  X   -0.027322  -0.036650   0.029336   0.040284   0.076985
   31  O  4  Y    0.016136  -0.018456   0.004593  -0.022458   0.011835
   32  O  4  Z    0.035621  -0.012243  -0.055653   0.004596  -0.150421
   33  O  4  S    0.101350  -0.127237  -0.027317   0.018685  -0.038368
   34  O  4  X   -0.026897  -0.032311   0.031235   0.030145   0.069094
   35  O  4  Y    0.008655  -0.015336   0.008301  -0.019205   0.012761
   36  O  4  Z    0.030508  -0.009991  -0.049913   0.006939  -0.127979
   37  O  5  S    0.034010   0.025672   0.035223   0.034431  -0.002183
   38  O  5  S   -0.030508  -0.023194  -0.031949  -0.031115   0.001983
   39  O  5  X   -0.026689  -0.023612  -0.040350  -0.055261   0.003321
   40  O  5  Y    0.024856   0.021624   0.037894   0.060285  -0.004098
   41  O  5  Z    0.004358   0.003918   0.006979   0.011563   0.000014
   42  O  5  S   -0.129622  -0.098876  -0.138572  -0.141362   0.008941
   43  O  5  X   -0.014420  -0.014324  -0.027312  -0.040928   0.002518
[...]
   14 H             0.001522                     0.001218
   15 H            -0.000150                    -0.000089
   16 H            -0.012098                    -0.008702
   17 H            -0.000043                    -0.000025
   18 H            -0.000017                    -0.000019
   19 H             0.000107                     0.000103
   20 H             0.000118                     0.000084
   21 H             0.103719                     0.079660
   22 H             0.000012                     0.000016
   23 H             0.001274                     0.002484
   24 H            -0.000031                    -0.000024


          ********* ALL ELECTRONS ********

               ----- POPULATIONS IN EACH AO -----
                             MULLIKEN      LOWDIN
              1  O  1  S      1.98605     1.98045
              2  O  1  S      0.41445     0.57494
              3  O  1  X      0.78976     0.79589
              4  O  1  Y      0.61415     0.59909
              5  O  1  Z      0.66637     0.66486
              6  O  1  S      1.51767     1.05436
              7  O  1  X      1.00891     1.00275
              8  O  1  Y      0.77761     0.79944
              9  O  1  Z      0.89085     0.92086
             10  O  2  S      1.98623     1.98061
             11  O  2  S      0.41534     0.57647
             12  O  2  X      0.80850     0.81590
             13  O  2  Y      0.71108     0.70915
             14  O  2  Z      0.54974     0.53411
             15  O  2  S      1.52777     1.05165
             16  O  2  X      1.02516     1.02174
             17  O  2  Y      0.92713     0.93699
             18  O  2  Z      0.71542     0.77002
             19  O  3  S      1.98610     1.98037
             20  O  3  S      0.41165     0.57216
             21  O  3  X      0.66228     0.65318
             22  O  3  Y      0.77198     0.77914
             23  O  3  Z      0.64548     0.64062
             24  O  3  S      1.52551     1.04914
             25  O  3  X      0.88020     0.87628
             26  O  3  Y      0.97244     0.98434
             27  O  3  Z      0.84159     0.88405
             28  O  4  S      1.98644     1.98070
             29  O  4  S      0.41955     0.58075
             30  O  4  X      0.70815     0.70149
             31  O  4  Y      0.75742     0.76141
             32  O  4  Z      0.60142     0.58795
             33  O  4  S      1.53266     1.04211
             34  O  4  X      0.89946     0.90572
             35  O  4  Y      0.95532     0.97572
             36  O  4  Z      0.75341     0.80574
             37  O  5  S      1.98595     1.98053
             38  O  5  S      0.41790     0.57578
             39  O  5  X      0.70639     0.70733
             40  O  5  Y      0.68082     0.67405
             41  O  5  Z      0.67925     0.67177
             42  O  5  S      1.50791     1.05746
             43  O  5  X      0.91278     0.92490
             44  O  5  Y      0.86180     0.88450
             45  O  5  Z      0.89460     0.90507
             46  O  6  S      1.98782     1.98293
             47  O  6  S      0.46156     0.61803
             48  O  6  X      0.67322     0.66313
             49  O  6  Y      0.61936     0.61326
             50  O  6  Z      0.71129     0.69940
             51  O  6  S      1.56922     1.05154
             52  O  6  X      0.71211     0.73424
             53  O  6  Y      0.66270     0.66876
             54  O  6  Z      0.76111     0.78471
             55  C  7  S      1.99032     1.97581
             56  C  7  S      0.35667     0.42948
             57  C  7  X      0.55272     0.54415
             58  C  7  Y      0.51680     0.50522
             59  C  7  Z      0.47580     0.45610
             60  C  7  S      1.03094     0.55702
             61  C  7  X      0.31089     0.50447
             62  C  7  Y      0.40664     0.49845
             63  C  7  Z      0.35987     0.46942
             64  C  8  S      1.99018     1.97585
             65  C  8  S      0.35411     0.43053
             66  C  8  X      0.50907     0.50199
             67  C  8  Y      0.55653     0.53435
             68  C  8  Z      0.47986     0.46813
             69  C  8  S      1.02383     0.55762
             70  C  8  X      0.28474     0.49211
             71  C  8  Y      0.42941     0.52645
             72  C  8  Z      0.34568     0.45862
             73  C  9  S      1.99004     1.97565
             74  C  9  S      0.35557     0.42463
             75  C  9  X      0.55315     0.54096
             76  C  9  Y      0.51903     0.50215
             77  C  9  Z      0.48918     0.46962
             78  C  9  S      1.00395     0.55252
             79  C  9  X      0.30117     0.49837
             80  C  9  Y      0.38701     0.50680
             81  C  9  Z      0.35413     0.47588
             82  C 10  S      1.99020     1.97597
             83  C 10  S      0.35920     0.43492
             84  C 10  X      0.51600     0.50028
             85  C 10  Y      0.52109     0.49767
             86  C 10  Z      0.52211     0.50355
             87  C 10  S      1.06346     0.56066
             88  C 10  X      0.31011     0.50445
             89  C 10  Y      0.36378     0.50156
             90  C 10  Z      0.41297     0.49055
             91  C 11  S      1.98856     1.97585
             92  C 11  S      0.36108     0.42470
             93  C 11  X      0.46530     0.45467
             94  C 11  Y      0.50560     0.48388
             95  C 11  Z      0.58091     0.54530
             96  C 11  S      1.03209     0.57654
             97  C 11  X      0.25321     0.44613
             98  C 11  Y      0.36828     0.50356
             99  C 11  Z      0.57022     0.58493
            100  C 12  S      1.98817     1.97817
            101  C 12  S      0.45088     0.47468
            102  C 12  X      0.50999     0.49364
            103  C 12  Y      0.48486     0.45979
            104  C 12  Z      0.51381     0.49126
            105  C 12  S      0.79799     0.57664
            106  C 12  X      0.18632     0.38533
            107  C 12  Y      0.43641     0.45031
            108  C 12  Z      0.25646     0.40245
            109  H 13  S      0.46841     0.47806
            110  H 13  S      0.23877     0.40492
            111  H 14  S      0.46297     0.47336
            112  H 14  S      0.21408     0.39395
            113  H 15  S      0.47380     0.48753
            114  H 15  S      0.29379     0.43081
            115  H 16  S      0.45009     0.46036
            116  H 16  S      0.21260     0.38849
            117  H 17  S      0.47467     0.47982
            118  H 17  S      0.27607     0.41885
            119  H 18  S      0.47535     0.47772
            120  H 18  S      0.28503     0.42489
            121  H 19  S      0.40620     0.42212
            122  H 19  S      0.19112     0.30940
            123  H 20  S      0.38568     0.40272
            124  H 20  S      0.19187     0.32393
            125  H 21  S      0.42825     0.41613
            126  H 21  S      0.10926     0.35241
            127  H 22  S      0.38515     0.40289
            128  H 22  S      0.19042     0.32186
            129  H 23  S      0.40647     0.41924
            130  H 23  S      0.18334     0.31344
            131  H 24  S      0.40783     0.42425
            132  H 24  S      0.20331     0.31555

          ----- MULLIKEN ATOMIC OVERLAP POPULATIONS -----
          (OFF-DIAGONAL ELEMENTS NEED TO BE MULTIPLIED BY 2)

             1           2           3           4           5

    1    8.2884268
    2   -0.0068553   8.2894511
    3    0.0002159   0.0000070   8.3303430
    4   -0.0000263   0.0002253  -0.0000002   8.2384995
    5    0.0000014   0.0000000  -0.0071820   0.0000000   8.2258204
    6   -0.0000000   0.0000047   0.0000000  -0.0036158  -0.0000000
    7    0.1923327  -0.0389588  -0.0515701  -0.0018722   0.0020256
    8   -0.0571184   0.2210346   0.0001838  -0.0348831  -0.0000151
    9   -0.0444395  -0.0025622   0.2187738   0.0000244  -0.0440685
   10    0.0004647  -0.0548244   0.0000007   0.1984415   0.0000000
   11    0.0028217   0.0000317  -0.0388561  -0.0000002   0.2270064
   12    0.0000360   0.0006396  -0.0000002  -0.0386946  -0.0000000
   13   -0.0185266   0.0012948   0.0024874   0.0102048   0.0000059
   14    0.0014161  -0.0218591   0.0120541   0.0020394  -0.0000001
   15    0.0023870   0.0078427  -0.0306004  -0.0000020  -0.0000346
   16    0.0057787   0.0025878  -0.0000011  -0.0249585  -0.0000000
   17   -0.0000661  -0.0000004   0.0014121  -0.0000005  -0.0273106
   18    0.0052176   0.0000003   0.0015530  -0.0000000  -0.0223681
   19    0.2609591   0.0003567  -0.0000213   0.0001530   0.0000001
   20    0.0328203   0.2571091  -0.0000116  -0.0000118  -0.0000000
   21    0.0000005   0.0108722  -0.0000000   0.0012108  -0.0000000
   22   -0.0000285  -0.0000024   0.2579783   0.0000000   0.0337654
   23   -0.0000028  -0.0000180   0.0000001   0.2670923  -0.0000000
   24    0.0000007  -0.0000001   0.0004673   0.0000000   0.2597619

             6           7           8           9          10

    6    7.9323949
    7   -0.0000150   5.5438828
    8   -0.0001665   0.1439212   5.6439378
    9   -0.0000000   0.1351315  -0.0877767   5.4347390
   10   -0.0377667  -0.0741340   0.0324935   0.0044475   5.6402538
   11    0.0000000  -0.0620557   0.0044269   0.1752938  -0.0000502
   12    0.2853331   0.0047116  -0.0741551  -0.0000471   0.1413560
   13   -0.0000001   0.3531137  -0.0510344  -0.0318854  -0.0033676
   14    0.0002274  -0.0370336   0.3567235  -0.0034704  -0.0499647
   15   -0.0000000  -0.0609555  -0.0067220   0.3625027   0.0001364
   16    0.0004865  -0.0015857  -0.0507678   0.0000588   0.3439089
   17   -0.0000000  -0.0005495  -0.0001411  -0.0579925  -0.0000009
   18    0.0000000   0.0014106  -0.0000949  -0.0511681   0.0000002
   19   -0.0000000  -0.0418663   0.0020886   0.0045546   0.0010930
   20   -0.0000005  -0.0126147  -0.0706232  -0.0001529   0.0004427
   21   -0.0252047   0.0002093  -0.0011214  -0.0000021  -0.0269778
   22   -0.0000000   0.0071141  -0.0002872  -0.0599349   0.0000025
   23    0.0067146   0.0000177   0.0035124  -0.0000040  -0.0570191
   24   -0.0000000   0.0000065   0.0000011   0.0012116  -0.0000000

            11          12          13          14          15

   11    5.2055442
   12    0.0000001   5.0854529
   13   -0.0032142   0.0000858   0.4423713
   14    0.0002158  -0.0034692   0.0022239   0.4107062
   15   -0.0469353  -0.0000034   0.0032946   0.0001905   0.5286570
   16   -0.0000035  -0.0420990   0.0008133   0.0025876  -0.0000027
   17    0.3760398  -0.0000000   0.0026660   0.0000049   0.0031714
   18    0.3471952  -0.0000000   0.0003444  -0.0000102   0.0008071
   19   -0.0000673   0.0000302  -0.0046241  -0.0000721  -0.0001417
   20   -0.0001015  -0.0002873   0.0009606   0.0042230   0.0015258
   21    0.0000000   0.2788783  -0.0000152   0.0004340  -0.0000018
   22   -0.0122617   0.0000000   0.0001009  -0.0002264   0.0007219
   23    0.0000000  -0.0128664  -0.0001169   0.0001122   0.0000001
   24   -0.0497791   0.0000000   0.0000029  -0.0000003   0.0017517

            16          17          18          19          20

   16    0.4171713
   17   -0.0000000   0.4715286
   18   -0.0000003  -0.0217751   0.5026466
   19    0.0003290  -0.0000098  -0.0001458   0.3760200
   20    0.0042101   0.0000015   0.0000154  -0.0013128   0.3615498
   21    0.0012185   0.0000000  -0.0000000  -0.0000010  -0.0001948
   22    0.0000001  -0.0004806   0.0010245   0.0000026   0.0000014
   23    0.0029584   0.0000000   0.0000000  -0.0000106   0.0000007
   24   -0.0000000   0.0042478  -0.0042708  -0.0000001  -0.0000001

            21          22          23          24

   21    0.2976194
   22    0.0000000   0.3496720
   23    0.0005840  -0.0000000   0.3788554
   24    0.0000000  -0.0015909  -0.0000000   0.3993371

          TOTAL MULLIKEN AND LOWDIN ATOMIC POPULATIONS
       ATOM         MULL.POP.    CHARGE          LOW.POP.     CHARGE
    1 O             8.665816   -0.665816         8.392637   -0.392637
    2 O             8.666377   -0.666377         8.396640   -0.396640
    3 O             8.697234   -0.697234         8.419267   -0.419267
    4 O             8.613826   -0.613826         8.341592   -0.341592
    5 O             8.647408   -0.647408         8.381389   -0.381389
    6 O             8.158392   -0.158392         7.815999    0.184001
    7 C             6.000666   -0.000666         5.940122    0.059878
    8 C             5.973416    0.026584         5.945664    0.054336
    9 C             5.953233    0.046767         5.946578    0.053422
   10 C             6.058936   -0.058936         5.969603    0.030397
   11 C             6.125251   -0.125251         5.995569    0.004431
   12 C             5.624901    0.375099         5.712266    0.287734
   13 H             0.707186    0.292814         0.882972    0.117028
   14 H             0.677052    0.322948         0.867314    0.132686
   15 H             0.767590    0.232410         0.918334    0.081666
   16 H             0.662690    0.337310         0.848844    0.151156
   17 H             0.750745    0.249255         0.898666    0.101334
   18 H             0.760381    0.239619         0.902609    0.097391
   19 H             0.597314    0.402686         0.731521    0.268479
   20 H             0.577549    0.422451         0.726654    0.273346
   21 H             0.537508    0.462492         0.768539    0.231461
   22 H             0.575571    0.424429         0.724752    0.275248
   23 H             0.589810    0.410190         0.732675    0.267325
   24 H             0.611147    0.388853         0.739793    0.260207

          -------------------------------
          BOND ORDER AND VALENCE ANALYSIS     BOND ORDER THRESHOLD=0.050
          -------------------------------

                   BOND                       BOND                       BOND
  ATOM PAIR DIST  ORDER      ATOM PAIR DIST  ORDER      ATOM PAIR DIST  ORDER
    1   7  1.483  0.841        1  19  0.994  0.797        1  20  1.996  0.062
    2   8  1.455  0.900        2  20  1.006  0.740        3   9  1.454  0.885
    3  22  1.004  0.738        4  10  1.440  0.887        4  23  1.006  0.780
    5  11  1.477  0.867        5  22  1.993  0.066        5  24  0.997  0.807
    6  12  1.237  1.330        7   8  1.528  0.844        7   9  1.516  0.863
    7  13  1.092  0.857        8  10  1.548  0.746        8  14  1.091  0.849
    9  11  1.531  0.869        9  15  1.102  0.876       10  12  1.511  0.868
   10  16  1.102  0.812       11  17  1.092  0.900       11  18  1.093  0.881
   12  21  1.097  0.715

                       TOTAL       BONDED        FREE
      ATOM            VALENCE     VALENCE     VALENCE
    1 O                 1.779       1.779       0.000
    2 O                 1.761       1.761       0.000
    3 O                 1.721       1.721       0.000
    4 O                 1.778       1.778       0.000
    5 O                 1.798       1.798       0.000
    6 O                 2.254       1.433       0.821
    7 C                 3.388       3.388       0.000
    8 C                 3.342       3.342       0.000
    9 C                 3.475       3.475       0.000
   10 C                 3.365       3.350       0.016
   11 C                 3.512       3.512       0.000
   12 C                 2.997       2.970       0.027
   13 H                 0.883       0.883       0.000
   14 H                 0.867       0.867       0.000
   15 H                 0.903       0.903       0.000
   16 H                 0.851       0.851       0.000
   17 H                 0.898       0.898       0.000
   18 H                 0.902       0.902       0.000
   19 H                 0.813       0.813       0.000
   20 H                 0.814       0.814       0.000
   21 H                 0.766       0.756       0.011
   22 H                 0.815       0.815       0.000
   23 H                 0.807       0.807       0.000
   24 H                 0.821       0.821       0.000

          -----------------------------------------
          ATOMIC SPIN DENSITY AT THE NUCLEUS (A.U.)
          -----------------------------------------
                            SPIN DENS    ALPHA DENS     BETA DENS
    1  O            8.0    -0.0000536     116.75466     116.75471
    2  O            8.0     0.0021301     116.78213     116.78000
    3  O            8.0    -0.0000308     116.74782     116.74785
    4  O            8.0     0.0069932     116.81495     116.80796
    5  O            8.0     0.0000228     116.75037     116.75035
    6  O            8.0     0.2356222     117.23756     117.00194
    7  C            6.0     0.0042082      47.08790      47.08370
    8  C            6.0    -0.0072301      47.08318      47.09041
    9  C            6.0     0.0001239      47.06671      47.06659
   10  C            6.0     0.0410092      47.11554      47.07454
   11  C            6.0     0.0003147      47.00465      47.00433
   12  C            6.0    -0.1029270      47.03511      47.13804
   13  H            1.0    -0.0002370       0.18344       0.18368
   14  H            1.0     0.0005462       0.18178       0.18123
   15  H            1.0    -0.0000316       0.18582       0.18585
   16  H            1.0    -0.0040128       0.17375       0.17776
   17  H            1.0    -0.0000097       0.18578       0.18579
   18  H            1.0    -0.0000082       0.18558       0.18559
   19  H            1.0     0.0000198       0.16423       0.16421
   20  H            1.0     0.0000085       0.15581       0.15580
   21  H            1.0     0.0434020       0.18547       0.14207
   22  H            1.0     0.0000099       0.15560       0.15559
   23  H            1.0    -0.0002460       0.16346       0.16370
   24  H            1.0    -0.0000115       0.16484       0.16485

          ---------------------
          ELECTROSTATIC MOMENTS
          ---------------------

 POINT   1           X           Y           Z (BOHR)    CHARGE
                 0.018899    0.105554   -0.027019        1.00 (A.U.)
         DX          DY          DZ         /D/  (DEBYE)
   -11.227495    0.877116   -2.615868   11.561520
 ...... END OF PROPERTY EVALUATION ......
 CPU     0: STEP CPU TIME=     0.07 TOTAL CPU TIME=          6.0 (      0.1 MIN)
 TOTAL WALL CLOCK TIME=         11.4 SECONDS, CPU UTILIZATION IS    52.54%
               580000  WORDS OF DYNAMIC MEMORY USED
 EXECUTION OF GAMESS TERMINATED NORMALLY Thu May 21 20:01:46 2020
 DDI: 263640 bytes (0.3 MB / 0 MWords) used by master data server.
Note: The following floating-point exceptions are signalling: IEEE_DENORMALNote: The following floating-point exceptions are signalling:Note: The following floating-point exceptions are signalling:Note: The following floating-point exceptions are signalling:
Note: The following floating-point exceptions are signalling: IEEE_DENORMAL IEEE_DENORMAL
Note: The following floating-point exceptions are signalling: IEEE_DENORMAL IEEE_DENORMAL

 ----------------------------------------
 CPU timing information for all processes
 ========================================
 0: 5.766 + 0.232 = 5.999
 1: 6.47 + 0.52 = 6.100
 2: 5.773 + 0.40 = 5.813
 3: 5.882 + 0.32 = 5.914
 4: 5.749 + 0.47 = 5.797
 5: 5.755 + 0.47 = 5.803
 6: 5.793 + 0.27 = 5.821
 7: 5.574 + 0.24 = 5.598
 ----------------------------------------
 IEEE_DENORMAL


Note: The following floating-point exceptions are signalling: IEEE_DENORMAL
Note: The following floating-point exceptions are signalling: IEEE_DENORMAL
 ddikick.x: exited gracefully.
unset echo
----- accounting info -----
Files used on the master node pietdev were:
-rwxr-xr-x 1 piet piet     1461 mei 21 20:01 /home/piet/scr/d-mannose_fukui_base.F05*
-rw-r--r-- 1 piet piet 68812800 mei 21 20:01 /home/piet/scr/d-mannose_fukui_base.F10
ls: No match.
ls: No match.
ls: No match.
do 21 mei 2020 20:01:49 CEST
0.134u 0.031s 0:14.59 1.0%	0+0k 0+8io 0pf+0w
