----- GAMESS execution script 'rungms' -----
This job is running on host pietdev
under operating system Linux at vr 22 mei 2020 15:36:57 CEST
Available scratch disk space (Kbyte units) at beginning of the job is
Filesystem     1K-blocks     Used Available Use% Mounted on
/dev/sda2      244568380 31372664 200702660  14% /
GAMESS temporary binary files will be written to /home/piet/scr
GAMESS supplementary output files will be written to /home/piet/gamess/scr
Copying input file d-fructose_fukui_acid.inp to your run's scratch directory...
cp d-fructose_fukui_acid.inp /home/piet/scr/d-fructose_fukui_acid.F05
unset echo
 
Assuming a single but multicore node.
 
/home/piet/gamess/ddikick.x /home/piet/gamess/gamess.03.x d-fructose_fukui_acid -ddi 1 8 pietdev:cpus=8 -scr /home/piet/scr

 Distributed Data Interface kickoff program.
 Initiating 8 compute processes on 1 nodes to run the following command:
 /home/piet/gamess/gamess.03.x d-fructose_fukui_acid 

          ******************************************************
          *         GAMESS VERSION = 30 SEP 2019 (R2)          *
          *             FROM IOWA STATE UNIVERSITY             *
          * M.W.SCHMIDT, K.K.BALDRIDGE, J.A.BOATZ, S.T.ELBERT, *
          *   M.S.GORDON, J.H.JENSEN, S.KOSEKI, N.MATSUNAGA,   *
          *          K.A.NGUYEN, S.J.SU, T.L.WINDUS,           *
          *       TOGETHER WITH M.DUPUIS, J.A.MONTGOMERY       *
          *         J.COMPUT.CHEM.  14, 1347-1363(1993)        *
          **************** 64 BIT LINUX VERSION ****************

  SINCE 1993, STUDENTS AND POSTDOCS WORKING AT IOWA STATE UNIVERSITY
  AND ALSO IN THEIR VARIOUS JOBS AFTER LEAVING ISU HAVE MADE IMPORTANT
  CONTRIBUTIONS TO THE CODE:
     IVANA ADAMOVIC, CHRISTINE AIKENS, YURI ALEXEEV, POOJA ARORA,
     ANDREY ASADCHEV, ROB BELL, PRADIPTA BANDYOPADHYAY, JONATHAN BENTZ,
     COLLEEN BERTONI, BRETT BODE, KURT BRORSEN, CALEB CARLIN, GALINA CHABAN,
     WEI CHEN, CHEOL HO CHOI, PAUL DAY, ALBERT DEFUSCO, NUWAN DESILVA,
     TIM DUDLEY, DMITRI FEDOROV, ALEX FINDLATER, GRAHAM FLETCHER, 
     MARK FREITAG, KURT GLAESEMANN, EMILIE B GUIDEZ, ANASTASIA GUNINA, 
     DAN KEMP, SAROM SOK LEANG, GRANT MERRILL,
     NORIYUKI MINEZAWA, JONATHAN MULLIN,
     TAKESHI NAGATA, SEAN NEDD, HEATHER NETZLOFF, BOSILJKA NJEGIC, RYAN OLSON,
     MIKE PAK, BUU PHAM, DAVID POOLE,
     SPENCER PRUITT, LUKE ROSKOP, TOSAPORN SATTASATHUCHANA,
     JIM SHOEMAKER, LYUDMILA SLIPCHENKO,
     TONY SMITH, JIE SONG, TETSUYA TAKETSUGU, SIMON WEBB,
     JORGE LUIS GALVEZ VALLEJO, PENG XU, SOOHAENG YOO,
     FEDERICO ZAHARIEV

  ADDITIONAL CODE HAS BEEN PROVIDED BY COLLABORATORS IN OTHER GROUPS:
     IOWA STATE UNIVERSITY:
          JOE IVANIC, AARON WEST, LAIMUTIS BYTAUTAS, KLAUS RUEDENBERG
     UNIVERSITY OF TOKYO: KIMIHIKO HIRAO, TAKAHITO NAKAJIMA,
          TAKAO TSUNEDA, MUNEAKI KAMIYA, SUSUMU YANAGISAWA,
          KIYOSHI YAGI, MAHITO CHIBA, SEIKEN TOKURA, NAOAKI KAWAKAMI
     UNIVERSITY OF AARHUS: FRANK JENSEN
     UNIVERSITY OF IOWA: VISVALDAS KAIRYS, HUI LI
     NATIONAL INST. OF STANDARDS AND TECHNOLOGY: WALT STEVENS, DAVID GARMER
     UNIVERSITY OF PISA: BENEDETTA MENNUCCI, JACOPO TOMASI
     UNIVERSITY OF MEMPHIS: HENRY KURTZ, PRAKASHAN KORAMBATH
     UNIVERSITY OF ALBERTA: TOBY ZENG, MARIUSZ KLOBUKOWSKI
     UNIVERSITY OF NEW ENGLAND: MARK SPACKMAN
     MIE UNIVERSITY: HIROAKI UMEDA
     NAT. INST. OF ADVANCED INDUSTRIAL SCIENCE AND TECHNOLOGY: KAZUO KITAURA
     MICHIGAN STATE UNIVERSITY:
          KAROL KOWALSKI, MARTA WLOCH, JEFFREY GOUR, JESSE LUTZ,
          WEI LI, JUN SHEN, J. EMILIANO DEUSTUA, PIOTR PIECUCH
     UNIVERSITY OF MINNESOTA:
          ANDREW SAND, PRACHI SHARMA, YINAN SHU
     UNIVERSITY OF SILESIA: MONIKA MUSIAL, STANISLAW KUCHARSKI
     FACULTES UNIVERSITAIRES NOTRE-DAME DE LA PAIX:
          OLIVIER QUINET, BENOIT CHAMPAGNE
     UNIVERSITY OF CALIFORNIA - SANTA BARBARA: BERNARD KIRTMAN
     INSTITUTE FOR MOLECULAR SCIENCE:
          KAZUYA ISHIMURA, MICHIO KATOUDA, AND SHIGERU NAGASE
     UNIVERSITY OF NOTRE DAME: ANNA POMOGAEVA, DAN CHIPMAN
     KYUSHU UNIVERSITY:
          HARUYUKI NAKANO,
          FENG LONG GU, JACEK KORCHOWIEC, MARCIN MAKOWSKI, AND YURIKO AOKI,
          HIROTOSHI MORI AND EISAKU MIYOSHI
     PENNSYLVANIA STATE UNIVERSITY:
          TZVETELIN IORDANOV, CHET SWALINA, JONATHAN SKONE,
          SHARON HAMMES-SCHIFFER
     WASEDA UNIVERSITY:
          MASATO KOBAYASHI, TOMOKO AKAMA, TSUGUKI TOUMA,
          TAKESHI YOSHIKAWA, YASUHIRO IKABATA, JUNJI SEINO,
          YUYA NAKAJIMA, HIROMI NAKAI
     NANJING UNIVERSITY: SHUHUA LI
     UNIVERSITY OF NEBRASKA:
          PEIFENG SU, DEJUN SI, NANDUN THELLAMUREGE, YALI WANG, HUI LI
     UNIVERSITY OF ZURICH: ROBERTO PEVERATI, KIM BALDRIDGE
     N. COPERNICUS UNIVERSITY AND JACKSON STATE UNIVERSITY:
          MARIA BARYSZ
     UNIVERSITY OF COPENHAGEN: Jimmy Kromann, CASPER STEINMANN
     TOKYO INSTITUTE OF TECHNOLOGY: HIROYA NAKATA
     NAGOYA UNIVERSITY: YOSHIO NISHIMOTO, STEPHAN IRLE
     MOSCOW STATE UNIVERSITY: VLADIMIR MIRONOV
     A.N.NESMEYANOV INSTITUTE OF ORGANOELEMENT COMPOUNDS OF RUSSIAN ACADEMY OF SCIENCES:
          IGOR S. GERASIMOV
     JOHANNES KEPLER UNIVERSITY LINZ:
          CHRISTIAN FRIEDL


 PARALLEL VERSION RUNNING ON        8 PROCESSORS IN        1 NODES.

 EXECUTION OF GAMESS BEGUN Fri May 22 15:36:57 2020

            ECHO OF THE FIRST FEW INPUT CARDS -
 INPUT CARD> $BASIS GBASIS=N21 NGAUSS=3 $END                                                
 INPUT CARD> $CONTRL SCFTYP=UHF MAXIT=60 MULT=2 ICHARG=-1 $END                              
 INPUT CARD> $SYSTEM MEMDDI=1000 MWORDS=30 $END                                             
 INPUT CARD> $SCF DIRSCF=.TRUE. $END                                                        
 INPUT CARD> $STATPT OPTTOL=0.0001 NSTEP=999 $END                                           
 INPUT CARD> $DATA                                                                          
 INPUT CARD>                                                                                
 INPUT CARD>C1                                                                              
 INPUT CARD>O 8.0000000 3.9286894678 1.0572931887 -0.5415047047                             
 INPUT CARD>C 6.0000000 2.4833712585 1.0366658812 -0.5734078136                             
 INPUT CARD>C 6.0000000 2.0382411208 -0.3161328909 -0.0606686607                            
 INPUT CARD>O 8.0000000 2.7793525845 -1.1164965879 0.5209794551                             
 INPUT CARD>C 6.0000000 0.5827751173 -0.7030124452 -0.3063454594                            
 INPUT CARD>H 1.0000000 0.3680867719 -0.7720782624 -1.3800863918                            
 INPUT CARD>O 8.0000000 0.3566307559 -1.9691520766 0.3895138932                             
 INPUT CARD>C 6.0000000 -0.4106853106 0.2920531172 0.3333928366                             
 INPUT CARD>H 1.0000000 -0.1524239427 1.3242605970 0.0822451324                             
 INPUT CARD>O 8.0000000 -0.3611362355 0.1191388882 1.7705070764                             
 INPUT CARD>C 6.0000000 -1.8097792831 0.0120040602 -0.1975476768                            
 INPUT CARD>H 1.0000000 -2.0568528533 -1.0438716062 -0.0214302865                           
 INPUT CARD>O 8.0000000 -1.7742683519 0.3333341702 -1.6181624140                            
 INPUT CARD>C 6.0000000 -2.8575273233 0.8918365971 0.4754326183                             
 INPUT CARD>O 8.0000000 -4.0574996409 0.6545941763 -0.3418149507                            
 INPUT CARD>H 1.0000000 4.2228282421 1.9828265842 -0.7543373623                             
 INPUT CARD>H 1.0000000 2.0246305856 1.7948824250 0.0848288216                              
 INPUT CARD>H 1.0000000 2.0558384288 1.1793291705 -1.5799152545                             
 INPUT CARD>H 1.0000000 1.2883650935 -2.2597941753 0.6498479494                             
 INPUT CARD>H 1.0000000 -0.2119415732 -0.8768666587 1.8360286095                            
 INPUT CARD>H 1.0000000 -2.7420965883 0.4338905362 -1.8527417088                            
 INPUT CARD>H 1.0000000 -2.9752318416 0.6020751970 1.5234447944                             
 INPUT CARD>H 1.0000000 -2.5364112319 1.9417193777 0.4183462882                             
 INPUT CARD>H 1.0000000 -4.7631552505 1.2983007365 -0.0718046914                            
 INPUT CARD> $END                                                                           
   30000000 WORDS OF MEMORY AVAILABLE

     BASIS OPTIONS
     -------------
     GBASIS=N21          IGAUSS=       3      POLAR=NONE    
     NDFUNC=       0     NFFUNC=       0     DIFFSP=       F
     NPFUNC=       0      DIFFS=       F     BASNAM=        


     RUN TITLE
     ---------
                                                                                 

 THE POINT GROUP OF THE MOLECULE IS C1      
 THE ORDER OF THE PRINCIPAL AXIS IS     0

 ATOM      ATOMIC                      COORDINATES (BOHR)
           CHARGE         X                   Y                   Z
 O           8.0     7.4241465850        1.9979944153       -1.0232955129
 C           6.0     4.6928912043        1.9590144563       -1.0835836469
 C           6.0     3.8517172152       -0.5974045395       -0.1146471448
 O           8.0     5.2522148080       -2.1098726174        0.9845084154
 C           6.0     1.1012852842       -1.3285008874       -0.5789089758
 H           1.0     0.6955831386       -1.4590163570       -2.6079851199
 O           8.0     0.6739344074       -3.7211578529        0.7360745266
 C           6.0    -0.7760827042        0.5519003654        0.6300211074
 H           1.0    -0.2880394857        2.5024896647        0.1554207641
 O           8.0    -0.6824485293        0.2251398532        3.3457732337
 C           6.0    -3.4199869433        0.0226843845       -0.3733109787
 H           1.0    -3.8868882898       -1.9726313021       -0.0404973693
 O           8.0    -3.3528810138        0.6299102440       -3.0578835661
 C           6.0    -5.3999436435        1.6853267943        0.8984373742
 O           8.0    -7.6675625166        1.2370036264       -0.6459365953
 H           1.0     7.9799882708        3.7469989253       -1.4254909170
 H           1.0     3.8259970331        3.3918359634        0.1603032287
 H           1.0     3.8849713055        2.2286089816       -2.9856069148
 H           1.0     2.4346569989       -4.2703917800        1.2280345580
 H           1.0    -0.4005114988       -1.6570377127        3.4695909776
 H           1.0    -5.1818111838        0.8199342221       -3.5011741557
 H           1.0    -5.6223729306        1.1377571463        2.8788932188
 H           1.0    -4.7931222205        3.6693175689        0.7905598527
 H           1.0    -9.0010582604        2.4534326416       -0.1356911914

          INTERNUCLEAR DISTANCES (ANGS.)
          ------------------------------

                1 O          2 C          3 C          4 O          5 C     

   1 O       0.0000000    1.4458174 *  2.3856440 *  2.6786582 *  3.7880231  
   2 C       1.4458174 *  0.0000000    1.5136402 *  2.4333921 *  2.5903800 *
   3 C       2.3856440 *  1.5136402 *  0.0000000    1.2361807 *  1.5259142 *
   4 O       2.6786582 *  2.4333921 *  1.2361807 *  0.0000000    2.3833565 *
   5 C       3.7880231    2.5903800 *  1.5259142 *  2.3833565 *  0.0000000  
   6 H       4.0899524    2.8977084 *  2.1767326 *  3.0898023    1.0971694 *
   7 O       4.7734443    3.8059407    2.4006145 *  2.5717476 *  1.4623512 *
   8 C       4.4923503    3.1228671    2.5539020 *  3.4922117    1.5447926 *
   9 H       4.1371273    2.7313015 *  2.7404979 *  3.8399345    2.1911997 *
  10 O       4.9626743    3.7982912    3.0495373    3.5987198    2.4249161 *
  11 C       5.8430266    4.4297115    3.8644108    4.7801596    2.4994804 *
  12 H       6.3649107    5.0246344    4.1594396    4.8670695    2.6767513 *
  13 O       5.8486782    4.4400093    4.1692712    5.2357808    2.8897287 *
  14 C       6.8639840    5.4448360    5.0710101    5.9841367    3.8717440  
  15 O       7.9988286    6.5561121    6.1789489    7.1150351    4.8349254  
  16 H       0.9941969 *  1.9883828 *  3.2463536    3.6490902    4.5458129  
  17 H       2.1358305 *  1.1039071 *  2.1160672 *  3.0390723    2.9105744 *
  18 H       2.1449383 *  1.1028120 *  2.1318599 *  3.1950035    2.7083400 *
  19 H       4.4038282    3.7136294    2.2011286 *  1.8832897 *  1.9585026 *
  20 H       5.1515497    4.0904403    2.9958647 *  3.2763726    2.2916297 *
  21 H       6.8269583    5.4134599    5.1600087    6.2068231    3.8390965  
  22 H       7.2204826    5.8636173    5.3373620    6.0888150    4.2084201  
  23 H       6.5955326    5.1962404    5.1239434    6.1335604    4.1532045  
  24 H       8.7078624    7.2685765    6.9903872    7.9417922    5.7130758  

                6 H          7 O          8 C          9 H         10 O     

   1 O       4.0899524    4.7734443    4.4923503    4.1371273    4.9626743  
   2 C       2.8977084 *  3.8059407    3.1228671    2.7313015 *  3.7982912  
   3 C       2.1767326 *  2.4006145 *  2.5539020 *  2.7404979 *  3.0495373  
   4 O       3.0898023    2.5717476 *  3.4922117    3.8399345    3.5987198  
   5 C       1.0971694 *  1.4623512 *  1.5447926 *  2.1911997 *  2.4249161 *
   6 H       0.0000000    2.1364930 *  2.1621454 *  2.6084443 *  3.3544408  
   7 O       2.1364930 *  0.0000000    2.3885084 *  3.3466577    2.6044751 *
   8 C       2.1621454 *  2.3885084 *  0.0000000    1.0932641 *  1.4483272 *
   9 H       2.6084443 *  3.3466577    1.0932641 *  0.0000000    2.0847320 *
  10 O       3.3544408    2.6044751 *  1.4483272 *  2.0847320 *  0.0000000  
  11 C       2.5992852 *  2.9938192 *  1.5224287 *  2.1323996 *  2.4460752 *
  12 H       2.7928749 *  2.6172356 *  2.1495260 *  3.0406657    2.7274691 *
  13 O       2.4224579 *  3.7246393    2.3810986 *  2.5502353 *  3.6777579  
  14 C       4.0762912    4.3038878    2.5232819 *  2.7675208 *  2.9165473 *
  15 O       4.7643695    5.1868520    3.7264724    3.9847078    4.2908879  
  16 H       4.7791311    5.6457076    5.0508732    4.5029336    5.5552589  
  17 H       3.3881265    4.1283183    2.8724630 *  2.2273433 *  3.3677160  
  18 H       2.5877458 *  4.0839799    3.2452652    2.7677075 *  4.2651025  
  19 H       2.6797097 *  1.0101364 *  3.0820189    3.9042918    3.1041994  
  20 H       3.2696803    1.8996754 *  1.9141021 *  2.8150062 *  1.0092468 *
  21 H       3.3691252    4.5171269    3.1991844    3.3531086    4.3469498  
  22 H       4.6364394    4.3587059    2.8441583 *  3.2506696    2.6697871 *
  23 H       4.3629309    4.8647136    2.6920859 *  2.4854808 *  3.1435585  
  24 H       5.6857466    6.0910813    4.4856119    4.6133771    4.9155169  

               11 C         12 H         13 O         14 C         15 O     

   1 O       5.8430266    6.3649107    5.8486782    6.8639840    7.9988286  
   2 C       4.4297115    5.0246344    4.4400093    5.4448360    6.5561121  
   3 C       3.8644108    4.1594396    4.1692712    5.0710101    6.1789489  
   4 O       4.7801596    4.8670695    5.2357808    5.9841367    7.1150351  
   5 C       2.4994804 *  2.6767513 *  2.8897287 *  3.8717440    4.8349254  
   6 H       2.5992852 *  2.7928749 *  2.4224579 *  4.0762912    4.7643695  
   7 O       2.9938192 *  2.6172356 *  3.7246393    4.3038878    5.1868520  
   8 C       1.5224287 *  2.1495260 *  2.3810986 *  2.5232819 *  3.7264724  
   9 H       2.1323996 *  3.0406657    2.5502353 *  2.7675208 *  3.9847078  
  10 O       2.4460752 *  2.7274691 *  3.6777579    2.9165473 *  4.2908879  
  11 C       0.0000000    1.0986064 *  1.4569352 *  1.5247241 *  2.3422173 *
  12 H       1.0986064 *  0.0000000    2.1274640 *  2.1528861 *  2.6438646 *
  13 O       1.4569352 *  2.1274640 *  0.0000000    2.4225018 *  2.6354157 *
  14 C       1.5247241 *  2.1528861 *  2.4225018 *  0.0000000    1.4710918 *
  15 O       2.3422173 *  2.6438646 *  2.6354157 *  1.4710918 *  0.0000000  
  16 H       6.3707543    7.0094543    6.2795053    7.2687020    8.3963210  
  17 H       4.2380527    4.9727580    4.4122484    4.9803141    6.2027889  
  18 H       4.2680895    4.9280551    3.9226124    5.3336920    6.2594841  
  19 H       3.9341638    3.6220940    4.6095454    5.2107218    6.1688998  
  20 H       2.7347046 *  2.6233074 *  3.9795586    3.4610196    4.6772526  
  21 H       1.9459884 *  2.4509267 *  1.0009148 *  2.3755914 *  2.0154143 *
  22 H       2.1606200 *  2.4370474 *  3.3740526    1.0936844 *  2.1571406 *
  23 H       2.1520039 *  3.0556723    2.7046502 *  1.0993763 *  2.1326618 *
  24 H       3.2237866    3.5794387    3.5008324    2.0238823 *  0.9925792 *

               16 H         17 H         18 H         19 H         20 H     

   1 O       0.9941969 *  2.1358305 *  2.1449383 *  4.4038282    5.1515497  
   2 C       1.9883828 *  1.1039071 *  1.1028120 *  3.7136294    4.0904403  
   3 C       3.2463536    2.1160672 *  2.1318599 *  2.2011286 *  2.9958647 *
   4 O       3.6490902    3.0390723    3.1950035    1.8832897 *  3.2763726  
   5 C       4.5458129    2.9105744 *  2.7083400 *  1.9585026 *  2.2916297 *
   6 H       4.7791311    3.3881265    2.5877458 *  2.6797097 *  3.2696803  
   7 O       5.6457076    4.1283183    4.0839799    1.0101364 *  1.8996754 *
   8 C       5.0508732    2.8724630 *  3.2452652    3.0820189    1.9141021 *
   9 H       4.5029336    2.2273433 *  2.7677075 *  3.9042918    2.8150062 *
  10 O       5.5552589    3.3677160    4.2651025    3.1041994    1.0092468 *
  11 C       6.3707543    4.2380527    4.2680895    3.9341638    2.7347046 *
  12 H       7.0094543    4.9727580    4.9280551    3.6220940    2.6233074 *
  13 O       6.2795053    4.4122484    3.9226124    4.6095454    3.9795586  
  14 C       7.2687020    4.9803141    5.3336920    5.2107218    3.4610196  
  15 O       8.3963210    6.2027889    6.2594841    6.1688998    4.6772526  
  16 H       0.0000000    2.3604228 *  2.4541866 *  5.3462736    5.8783522  
  17 H       2.3604228 *  0.0000000    1.7751768 *  4.1595355    3.8996409  
  18 H       2.4541866 *  1.7751768 *  0.0000000    4.1699435    4.5868769  
  19 H       5.3462736    4.1595355    4.1699435    0.0000000    2.3601765 *
  20 H       5.8783522    3.8996409    4.5868769    2.3601765 *  0.0000000  
  21 H       7.2191324    5.3224211    4.8631567    5.4555947    4.6612011  
  22 H       7.6750788    5.3376989    5.9393378    5.2088124    3.1497223  
  23 H       6.8603349    4.5755762    5.0658706    5.6864069    3.9188531  
  24 H       9.0378275    6.8077283    6.9847854    7.0570334    5.3930258  

               21 H         22 H         23 H         24 H     

   1 O       6.8269583    7.2204826    6.5955326    8.7078624  
   2 C       5.4134599    5.8636173    5.1962404    7.2685765  
   3 C       5.1600087    5.3373620    5.1239434    6.9903872  
   4 O       6.2068231    6.0888150    6.1335604    7.9417922  
   5 C       3.8390965    4.2084201    4.1532045    5.7130758  
   6 H       3.3691252    4.6364394    4.3629309    5.6857466  
   7 O       4.5171269    4.3587059    4.8647136    6.0910813  
   8 C       3.1991844    2.8441583 *  2.6920859 *  4.4856119  
   9 H       3.3531086    3.2506696    2.4854808 *  4.6133771  
  10 O       4.3469498    2.6697871 *  3.1435585    4.9155169  
  11 C       1.9459884 *  2.1606200 *  2.1520039 *  3.2237866  
  12 H       2.4509267 *  2.4370474 *  3.0556723    3.5794387  
  13 O       1.0009148 *  3.3740526    2.7046502 *  3.5008324  
  14 C       2.3755914 *  1.0936844 *  1.0993763 *  2.0238823 *
  15 O       2.0154143 *  2.1571406 *  2.1326618 *  0.9925792 *
  16 H       7.2191324    7.6750788    6.8603349    9.0378275  
  17 H       5.3224211    5.3376989    4.5755762    6.8077283  
  18 H       4.8631567    5.9393378    5.0658706    6.9847854  
  19 H       5.4555947    5.2088124    5.6864069    7.0570334  
  20 H       4.6612011    3.1497223    3.9188531    5.3930258  
  21 H       0.0000000    3.3884028    2.7338059 *  2.8290669 *
  22 H       3.3884028    0.0000000    1.7912154 *  2.4952397 *
  23 H       2.7338059 *  1.7912154 *  0.0000000    2.3690978 *
  24 H       2.8290669 *  2.4952397 *  2.3690978 *  0.0000000  

  * ... LESS THAN  3.000


     ATOMIC BASIS SET
     ----------------
 THE CONTRACTED PRIMITIVE FUNCTIONS HAVE BEEN UNNORMALIZED
 THE CONTRACTED BASIS FUNCTIONS ARE NOW NORMALIZED TO UNITY

  SHELL TYPE  PRIMITIVE        EXPONENT          CONTRACTION COEFFICIENT(S)

 O         

      1   S       1           322.0370000    0.059239393389
      1   S       2            48.4308000    0.351499960776
      1   S       3            10.4206000    0.707657921031

      2   L       4             7.4029400   -0.404453583190    0.244586106967
      2   L       5             1.5762000    1.221561761397    0.853955373466

      3   L       6             0.3736840    1.000000000000    1.000000000000

 C         

      4   S       7           172.2560000    0.061766907377
      4   S       8            25.9109000    0.358794042852
      4   S       9             5.5333500    0.700713083689

      5   L      10             3.6649800   -0.395895162119    0.236459946619
      5   L      11             0.7705450    1.215834355681    0.860618805716

      6   L      12             0.1958570    1.000000000000    1.000000000000

 C         

      7   S      13           172.2560000    0.061766907377
      7   S      14            25.9109000    0.358794042852
      7   S      15             5.5333500    0.700713083689

      8   L      16             3.6649800   -0.395895162119    0.236459946619
      8   L      17             0.7705450    1.215834355681    0.860618805716

      9   L      18             0.1958570    1.000000000000    1.000000000000

 O         

     10   S      19           322.0370000    0.059239393389
     10   S      20            48.4308000    0.351499960776
     10   S      21            10.4206000    0.707657921031

     11   L      22             7.4029400   -0.404453583190    0.244586106967
     11   L      23             1.5762000    1.221561761397    0.853955373466

     12   L      24             0.3736840    1.000000000000    1.000000000000

 C         

     13   S      25           172.2560000    0.061766907377
     13   S      26            25.9109000    0.358794042852
     13   S      27             5.5333500    0.700713083689

     14   L      28             3.6649800   -0.395895162119    0.236459946619
     14   L      29             0.7705450    1.215834355681    0.860618805716

     15   L      30             0.1958570    1.000000000000    1.000000000000

 H         

     16   S      31             5.4471780    0.156284978695
     16   S      32             0.8245472    0.904690876670

     17   S      33             0.1831916    1.000000000000

 O         

     18   S      34           322.0370000    0.059239393389
     18   S      35            48.4308000    0.351499960776
     18   S      36            10.4206000    0.707657921031

     19   L      37             7.4029400   -0.404453583190    0.244586106967
     19   L      38             1.5762000    1.221561761397    0.853955373466

     20   L      39             0.3736840    1.000000000000    1.000000000000

 C         

     21   S      40           172.2560000    0.061766907377
     21   S      41            25.9109000    0.358794042852
     21   S      42             5.5333500    0.700713083689

     22   L      43             3.6649800   -0.395895162119    0.236459946619
     22   L      44             0.7705450    1.215834355681    0.860618805716

     23   L      45             0.1958570    1.000000000000    1.000000000000

 H         

     24   S      46             5.4471780    0.156284978695
     24   S      47             0.8245472    0.904690876670

     25   S      48             0.1831916    1.000000000000

 O         

     26   S      49           322.0370000    0.059239393389
     26   S      50            48.4308000    0.351499960776
     26   S      51            10.4206000    0.707657921031

     27   L      52             7.4029400   -0.404453583190    0.244586106967
     27   L      53             1.5762000    1.221561761397    0.853955373466

     28   L      54             0.3736840    1.000000000000    1.000000000000

 C         

     29   S      55           172.2560000    0.061766907377
     29   S      56            25.9109000    0.358794042852
     29   S      57             5.5333500    0.700713083689

     30   L      58             3.6649800   -0.395895162119    0.236459946619
     30   L      59             0.7705450    1.215834355681    0.860618805716

     31   L      60             0.1958570    1.000000000000    1.000000000000

 H         

     32   S      61             5.4471780    0.156284978695
     32   S      62             0.8245472    0.904690876670

     33   S      63             0.1831916    1.000000000000

 O         

     34   S      64           322.0370000    0.059239393389
     34   S      65            48.4308000    0.351499960776
     34   S      66            10.4206000    0.707657921031

     35   L      67             7.4029400   -0.404453583190    0.244586106967
     35   L      68             1.5762000    1.221561761397    0.853955373466

     36   L      69             0.3736840    1.000000000000    1.000000000000

 C         

     37   S      70           172.2560000    0.061766907377
     37   S      71            25.9109000    0.358794042852
     37   S      72             5.5333500    0.700713083689

     38   L      73             3.6649800   -0.395895162119    0.236459946619
     38   L      74             0.7705450    1.215834355681    0.860618805716

     39   L      75             0.1958570    1.000000000000    1.000000000000

 O         

     40   S      76           322.0370000    0.059239393389
     40   S      77            48.4308000    0.351499960776
     40   S      78            10.4206000    0.707657921031

     41   L      79             7.4029400   -0.404453583190    0.244586106967
     41   L      80             1.5762000    1.221561761397    0.853955373466

     42   L      81             0.3736840    1.000000000000    1.000000000000

 H         

     43   S      82             5.4471780    0.156284978695
     43   S      83             0.8245472    0.904690876670

     44   S      84             0.1831916    1.000000000000

 H         

     45   S      85             5.4471780    0.156284978695
     45   S      86             0.8245472    0.904690876670

     46   S      87             0.1831916    1.000000000000

 H         

     47   S      88             5.4471780    0.156284978695
     47   S      89             0.8245472    0.904690876670

     48   S      90             0.1831916    1.000000000000

 H         

     49   S      91             5.4471780    0.156284978695
     49   S      92             0.8245472    0.904690876670

     50   S      93             0.1831916    1.000000000000

 H         

     51   S      94             5.4471780    0.156284978695
     51   S      95             0.8245472    0.904690876670

     52   S      96             0.1831916    1.000000000000

 H         

     53   S      97             5.4471780    0.156284978695
     53   S      98             0.8245472    0.904690876670

     54   S      99             0.1831916    1.000000000000

 H         

     55   S     100             5.4471780    0.156284978695
     55   S     101             0.8245472    0.904690876670

     56   S     102             0.1831916    1.000000000000

 H         

     57   S     103             5.4471780    0.156284978695
     57   S     104             0.8245472    0.904690876670

     58   S     105             0.1831916    1.000000000000

 H         

     59   S     106             5.4471780    0.156284978695
     59   S     107             0.8245472    0.904690876670

     60   S     108             0.1831916    1.000000000000

 TOTAL NUMBER OF BASIS SET SHELLS             =   60
 NUMBER OF CARTESIAN GAUSSIAN BASIS FUNCTIONS =  132
 NUMBER OF ELECTRONS                          =   97
 CHARGE OF MOLECULE                           =   -1
 SPIN MULTIPLICITY                            =    2
 NUMBER OF OCCUPIED ORBITALS (ALPHA)          =   49
 NUMBER OF OCCUPIED ORBITALS (BETA )          =   48
 TOTAL NUMBER OF ATOMS                        =   24
 THE NUCLEAR REPULSION ENERGY IS      780.8260165249

     $CONTRL OPTIONS
     ---------------
 SCFTYP=UHF          RUNTYP=ENERGY       EXETYP=RUN     
 MPLEVL=       0     CITYP =NONE         CCTYP =NONE         VBTYP =NONE    
 DFTTYP=NONE         TDDFT =NONE    
 MULT  =       2     ICHARG=      -1     NZVAR =       0     COORD =UNIQUE  
 PP    =NONE         RELWFN=NONE         LOCAL =NONE         NUMGRD=       F
 ISPHER=      -1     NOSYM =       0     MAXIT =      60     UNITS =ANGS    
 PLTORB=       F     MOLPLT=       F     AIMPAC=       F     FRIEND=        
 NPRINT=       7     IREST =       0     GEOM  =INPUT   
 NORMF =       0     NORMP =       0     ITOL  =      20     ICUT  =       9
 INTTYP=BEST         GRDTYP=BEST         QMTTOL= 1.0E-06

     $SYSTEM OPTIONS
     ---------------
  REPLICATED MEMORY=    30000000 WORDS (ON EVERY NODE).
 DISTRIBUTED MEMDDI=        1000 MILLION WORDS IN AGGREGATE,
 MEMDDI DISTRIBUTED OVER   8 PROCESSORS IS   125000000 WORDS/PROCESSOR.
 TOTAL MEMORY REQUESTED ON EACH PROCESSOR=   155000000 WORDS.
 TIMLIM=      525600.00 MINUTES, OR     365.0 DAYS.
 PARALL= T  BALTYP=  DLB     KDIAG=    0  COREFL= F
 MXSEQ2=     300 MXSEQ3=     150  mem10=         0

          ----------------
          PROPERTIES INPUT
          ----------------

     MOMENTS            FIELD           POTENTIAL          DENSITY
 IEMOM =       1   IEFLD =       0   IEPOT =       0   IEDEN =       0
 WHERE =COMASS     WHERE =NUCLEI     WHERE =NUCLEI     WHERE =NUCLEI  
 OUTPUT=BOTH       OUTPUT=BOTH       OUTPUT=BOTH       OUTPUT=BOTH    
 IEMINT=       0   IEFINT=       0                     IEDINT=       0
                                                       MORB  =       0
          EXTRAPOLATION IN EFFECT
          SOSCF IN EFFECT
          DIIS or SOSCF will be reset if energy rises
 ORBITAL PRINTING OPTION: NPREO=     1   132     2     1

     -------------------------------
     INTEGRAL TRANSFORMATION OPTIONS
     -------------------------------
     NWORD  =            0
     CUTOFF = 1.0E-09     MPTRAN =       0
     DIRTRF =       T     AOINTS =DUP     

          ----------------------
          INTEGRAL INPUT OPTIONS
          ----------------------
 NOPK  =       1 NORDER=       0 SCHWRZ=       T

     ------------------------------------------
     THE POINT GROUP IS C1 , NAXIS= 0, ORDER= 1
     ------------------------------------------

     DIMENSIONS OF THE SYMMETRY SUBSPACES ARE
 A   =  132

 ..... DONE SETTING UP THE RUN .....
 CPU     0: STEP CPU TIME=     0.03 TOTAL CPU TIME=          0.0 (      0.0 MIN)
 TOTAL WALL CLOCK TIME=          0.1 SECONDS, CPU UTILIZATION IS    60.00%

          ********************
          1 ELECTRON INTEGRALS
          ********************
 ...... END OF ONE-ELECTRON INTEGRALS ......
 CPU     0: STEP CPU TIME=     0.00 TOTAL CPU TIME=          0.0 (      0.0 MIN)
 TOTAL WALL CLOCK TIME=          0.1 SECONDS, CPU UTILIZATION IS    42.86%

          -------------
          GUESS OPTIONS
          -------------
          GUESS =HUCKEL            NORB  =       0          NORDER=       0
          MIX   =       F          PRTMO =       F          PUNMO =       F
          TOLZ  = 1.0E-08          TOLE  = 1.0E-05
          SYMDEN=       F          PURIFY=       F

 INITIAL GUESS ORBITALS GENERATED BY HUCKEL   ROUTINE.
 HUCKEL GUESS REQUIRES    164928 WORDS.

 SYMMETRIES FOR INITIAL GUESS ORBITALS FOLLOW.  ALPHA SET(S).
    49 ORBITALS ARE OCCUPIED (   12 CORE ORBITALS).
    13=A       14=A       15=A       16=A       17=A       18=A       19=A   
    20=A       21=A       22=A       23=A       24=A       25=A       26=A   
    27=A       28=A       29=A       30=A       31=A       32=A       33=A   
    34=A       35=A       36=A       37=A       38=A       39=A       40=A   
    41=A       42=A       43=A       44=A       45=A       46=A       47=A   
    48=A       49=A       50=A       51=A       52=A       53=A       54=A   
    55=A       56=A       57=A       58=A       59=A   

 SYMMETRIES FOR INITIAL GUESS ORBITALS FOLLOW.   BETA SET(S).
    48 ORBITALS ARE OCCUPIED (   12 CORE ORBITALS).
    13=A       14=A       15=A       16=A       17=A       18=A       19=A   
    20=A       21=A       22=A       23=A       24=A       25=A       26=A   
    27=A       28=A       29=A       30=A       31=A       32=A       33=A   
    34=A       35=A       36=A       37=A       38=A       39=A       40=A   
    41=A       42=A       43=A       44=A       45=A       46=A       47=A   
    48=A       49=A       50=A       51=A       52=A       53=A       54=A   
    55=A       56=A       57=A       58=A   
 ...... END OF INITIAL ORBITAL SELECTION ......
 CPU     0: STEP CPU TIME=     0.06 TOTAL CPU TIME=          0.1 (      0.0 MIN)
 TOTAL WALL CLOCK TIME=          0.1 SECONDS, CPU UTILIZATION IS    69.23%

                    ----------------------
                    AO INTEGRAL TECHNOLOGY
                    ----------------------
     S,P,L SHELL ROTATED AXIS INTEGRALS, REPROGRAMMED BY
        KAZUYA ISHIMURA (IMS) AND JOSE SIERRA (SYNSTAR).
     S,P,D,L SHELL ROTATED AXIS INTEGRALS PROGRAMMED BY
        KAZUYA ISHIMURA (INSTITUTE FOR MOLECULAR SCIENCE).
     S,P,D,F,G SHELL TO TOTAL QUARTET ANGULAR MOMENTUM SUM 5,
        ERIC PROGRAM BY GRAHAM FLETCHER (ELORET AND NASA ADVANCED
        SUPERCOMPUTING DIVISION, AMES RESEARCH CENTER).
     S,P,D,F,G,L SHELL GENERAL RYS QUADRATURE PROGRAMMED BY
        MICHEL DUPUIS (PACIFIC NORTHWEST NATIONAL LABORATORY).

          --------------------
          2 ELECTRON INTEGRALS
          --------------------

 DIRECT SCF METHOD SKIPS INTEGRAL STORAGE ON DISK.
 DIRECT TRANSFORMATION SKIPS AO INTEGRAL STORAGE ON DISK.
  ...... END OF TWO-ELECTRON INTEGRALS .....
 CPU     0: STEP CPU TIME=     0.01 TOTAL CPU TIME=          0.1 (      0.0 MIN)
 TOTAL WALL CLOCK TIME=          0.2 SECONDS, CPU UTILIZATION IS    62.50%

          ---------------------------
                  UHF SCF CALCULATION
          ---------------------------

     NUCLEAR ENERGY =       780.8260165249
     MAXIT = 60     NPUNCH=  2     MULT=  2
     EXTRAP=T  DAMP=F  SHIFT=F  RSTRCT=F  DIIS=F  SOSCF=T
     DENSITY MATRIX CONV=  2.00E-05
     SOSCF WILL OPTIMIZE    4067 ALPHA AND    4032 BETA ROTATION ANGLES.
     SOGTOL= 2.500E-01
     MEMORY REQUIRED FOR UHF/ROHF ITERS=    281061 WORDS.

 DIRECT SCF CALCULATION, SCHWRZ=T   FDIFF=T
 SCHWARZ INEQUALITY OVERHEAD:      7818 INTEGRALS, T=        0.00

                                                                                NONZERO     BLOCKS
 ITER EX      TOTAL ENERGY        E CHANGE  DENSITY CHANGE    ORB. GRAD       INTEGRALS    SKIPPED
   1  0     -677.5296387745  -677.5296387745   0.864950728   0.000000000       18049491     986234
          ---------------START SECOND ORDER SCF---------------
   2  1     -679.2984630604    -1.7688242859   0.162641515   0.079527792       18011410     996601
   3  2     -679.3986188914    -0.1001558310   0.146890544   0.050872012       17776529    1029788
   4  3     -679.4391872443    -0.0405683529   0.023290195   0.003725111       17484592    1057011
   5  4     -679.4401828679    -0.0009956236   0.006865642   0.001324193       16854100    1098591
   6  5     -679.4403404953    -0.0001576274   0.002876532   0.000876161       16083504    1138319
   7  6     -679.4403654312    -0.0000249359   0.001768741   0.000383425       15396204    1171771
   8  7     -679.4403705806    -0.0000051494   0.001187402   0.000216890       14694594    1199847
   9  8     -679.4403724090    -0.0000018284   0.000459943   0.000081542       14217812    1220862
  10  9     -679.4403728467    -0.0000004377   0.000132132   0.000029327       13609187    1245250
  11 10     -679.4403729180    -0.0000000713   0.000091069   0.000011397       12906605    1273243
  12 11     -679.4403729320    -0.0000000140   0.000053770   0.000008940       12326640    1297039
  13 12     -679.4403729351    -0.0000000031   0.000029655   0.000006768       11623509    1326118
  14 13     -679.4403729360    -0.0000000009   0.000011687   0.000002170       10990455    1346588
  15 14     -679.4403729375    -0.0000000014   0.000004842   0.000000857       10295473    1370960

          -----------------
          DENSITY CONVERGED
          -----------------
     TIME TO FORM FOCK OPERATORS=       2.7 SECONDS (       0.2 SEC/ITER)
     FOCK TIME ON FIRST ITERATION=       0.2, LAST ITERATION=       0.1
     TIME TO SOLVE SCF EQUATIONS=       0.2 SECONDS (       0.0 SEC/ITER)

 FINAL UHF ENERGY IS     -679.4403729375 AFTER  15 ITERATIONS

          --------------------
          SPIN SZ   =    0.500
          S-SQUARED =    0.762
          --------------------

  ----- ALPHA SET ----- 

          ------------
          EIGENVECTORS
          ------------

                      1          2          3          4          5
                  -20.3666   -20.3152   -20.2837   -20.2833   -20.2695
                     A          A          A          A          A   
    1  O  1  S   -0.000091   0.000488   0.981806  -0.057148   0.003000
    2  O  1  S   -0.000045   0.000120   0.097443  -0.005551   0.000079
    3  O  1  X    0.000005  -0.000016  -0.002690   0.000143   0.000016
    4  O  1  Y   -0.000010  -0.000014   0.002641  -0.000175  -0.000088
    5  O  1  Z    0.000004   0.000009  -0.000708   0.000039   0.000033
    6  O  1  S    0.000173  -0.000273  -0.044127   0.002113   0.000925
    7  O  1  X   -0.000077   0.000152   0.008441  -0.000246  -0.000423
    8  O  1  Y    0.000036   0.000068  -0.004563   0.000390   0.000326
    9  O  1  Z   -0.000004  -0.000026   0.001176  -0.000069  -0.000151
   10  C  2  S    0.000012  -0.000043  -0.000854  -0.000072   0.000005
   11  C  2  S    0.000054  -0.000217  -0.003446  -0.000440  -0.000134
   12  C  2  X    0.000048  -0.000040   0.001555  -0.000165   0.000390
   13  C  2  Y    0.000025  -0.000116   0.000345  -0.000256   0.000356
   14  C  2  Z    0.000000   0.000038  -0.000155   0.000131  -0.000134
   15  C  2  S   -0.000561   0.001888   0.021466   0.003706  -0.003167
   16  C  2  X   -0.000177  -0.000244   0.009843  -0.001479  -0.001407
   17  C  2  Y    0.000121  -0.000401  -0.003340  -0.001285   0.000704
   18  C  2  Z   -0.000219   0.000071   0.002305   0.000267   0.000044
   19  C  3  S    0.000001   0.000057   0.000200   0.000106   0.000191
   20  C  3  S   -0.000080   0.000469   0.000739   0.001011   0.000348
   21  C  3  X    0.000110  -0.000097  -0.000316  -0.000247   0.000486
   22  C  3  Y   -0.000066   0.000090  -0.000108   0.000363   0.000015
   23  C  3  Z   -0.000020  -0.000046   0.000019  -0.000173   0.000107
   24  C  3  S   -0.000868  -0.001789  -0.007068  -0.001887  -0.007830
   25  C  3  X    0.000667   0.000773  -0.004528   0.000723   0.003444
   26  C  3  Y    0.000788  -0.001462  -0.004401  -0.004446   0.006866
   27  C  3  Z    0.000030   0.001101   0.001447   0.002582  -0.003669
   28  O  4  S   -0.000023   0.000191  -0.000386   0.000605  -0.000491
   29  O  4  S   -0.000029   0.000165  -0.000286   0.000442  -0.000400
   30  O  4  X    0.000000   0.000018  -0.000110   0.000015  -0.000052
   31  O  4  Y    0.000020   0.000004  -0.000074   0.000034  -0.000278
   32  O  4  Z    0.000018   0.000011   0.000069   0.000003   0.000034
   33  O  4  S    0.000204  -0.000800   0.001296  -0.002238   0.003321
   34  O  4  X   -0.000104   0.000074   0.000394   0.000407  -0.000855
   35  O  4  Y   -0.000086  -0.000079   0.000927  -0.000286   0.001510
   36  O  4  Z   -0.000097   0.000016  -0.000562   0.000193  -0.000566
   37  C  5  S   -0.000045   0.000138  -0.000006   0.000182  -0.001033
   38  C  5  S   -0.000291   0.000973  -0.000221   0.000574  -0.004634
   39  C  5  X   -0.000231  -0.000257  -0.000148   0.000659  -0.000232
   40  C  5  Y   -0.000010  -0.000212  -0.000439  -0.000906  -0.001337
   41  C  5  Z   -0.000080   0.000156   0.000177  -0.000248  -0.000061
   42  C  5  S    0.002437  -0.002826  -0.001604  -0.005038   0.023505
   43  C  5  X    0.001084   0.001987  -0.000122   0.000876   0.001515
   44  C  5  Y    0.000768   0.002217   0.002335   0.002988  -0.010095
   45  C  5  Z    0.001133  -0.002124  -0.002531  -0.005680   0.012242
   46  H  6  S    0.000096  -0.000436  -0.000369  -0.000499  -0.000609
   47  H  6  S    0.000212   0.000612  -0.000565  -0.000643   0.001520
   48  O  7  S    0.000082  -0.001965  -0.002874   0.003286   0.983565
   49  O  7  S    0.000049  -0.000639  -0.000520   0.000364   0.098626
   50  O  7  X    0.000025   0.000023   0.000039  -0.000356   0.002671
   51  O  7  Y    0.000023  -0.000051  -0.000000   0.000269   0.002282
   52  O  7  Z    0.000035   0.000128   0.000079   0.000392  -0.000671
   53  O  7  S   -0.000189   0.002134   0.001566   0.001756  -0.047763
   54  O  7  X   -0.000188  -0.000047  -0.000054   0.001544  -0.006408
   55  O  7  Y   -0.000159   0.000845   0.000482  -0.000029  -0.008310
   56  O  7  Z   -0.000123  -0.000793  -0.000495  -0.001882   0.002909
   57  C  8  S   -0.000164   0.000140  -0.000002  -0.000923   0.000164
   58  C  8  S   -0.001013   0.000296   0.000097  -0.003981   0.000381
   59  C  8  X    0.000434   0.000540  -0.000329  -0.000011  -0.000425
   60  C  8  Y   -0.000241   0.000470   0.000190   0.000452   0.000592
   61  C  8  Z   -0.000205   0.000188   0.000034   0.001356   0.000523
   62  C  8  S    0.003750  -0.004904  -0.001175   0.020594  -0.004197
   63  C  8  X   -0.004232   0.003039   0.001282   0.000029  -0.002578
   64  C  8  Y    0.001802  -0.004208  -0.001973  -0.007011   0.004024
   65  C  8  Z    0.000698   0.004473   0.002075   0.013553  -0.005264
   66  H  9  S   -0.000499   0.000862  -0.000320  -0.000635  -0.000386
   67  H  9  S   -0.000365   0.001871   0.002587   0.000835  -0.000540
   68  O 10  S    0.000263   0.000353   0.057191   0.981895  -0.003145
   69  O 10  S    0.000171   0.000159   0.005831   0.098269  -0.000260
   70  O 10  X    0.000018   0.000276   0.000043   0.000128   0.000164
   71  O 10  Y    0.000063  -0.000053  -0.000106  -0.002068  -0.000352
   72  O 10  Z   -0.000039   0.000088  -0.000211  -0.003270   0.000176
   73  O 10  S   -0.000850  -0.001336  -0.003189  -0.047252   0.001282
   74  O 10  X    0.000286  -0.001064  -0.000207  -0.000285  -0.000574
   75  O 10  Y   -0.000402   0.000355   0.000255   0.004048   0.001642
   76  O 10  Z    0.000514   0.000185   0.000776   0.010557  -0.001738
   77  C 11  S    0.000322  -0.000989  -0.000036   0.000120   0.000117
   78  C 11  S    0.001426  -0.004447  -0.000216   0.000135   0.000842
   79  C 11  X    0.000590  -0.000230   0.000040  -0.000558   0.000282
   80  C 11  Y    0.000020  -0.000286  -0.000025  -0.000457   0.000063
   81  C 11  Z   -0.000038  -0.001449  -0.000023  -0.000150  -0.000115
   82  C 11  S   -0.010701   0.022295   0.001468  -0.003459  -0.002673
   83  C 11  X    0.001879   0.001791   0.000472  -0.001279  -0.001898
   84  C 11  Y   -0.004168   0.007505   0.000884   0.003549  -0.001544
   85  C 11  Z   -0.001251  -0.011363  -0.000147  -0.004759   0.002176
   86  H 12  S    0.000470  -0.000928   0.000021   0.000955  -0.000197
   87  H 12  S   -0.000927   0.000791   0.000241   0.001125  -0.000447
   88  O 13  S    0.001645   0.983538  -0.000492  -0.000267   0.001854
   89  O 13  S    0.000414   0.098211   0.000031   0.000108  -0.000239
   90  O 13  X   -0.000195  -0.002654   0.000002  -0.000348  -0.000062
   91  O 13  Y    0.000087  -0.000498   0.000012  -0.000025   0.000056
   92  O 13  Z   -0.000103   0.002732   0.000004  -0.000102  -0.000070
   93  O 13  S   -0.000235  -0.046460  -0.000345  -0.001395   0.001681
   94  O 13  X    0.000819   0.005231   0.000020   0.001371   0.000245
   95  O 13  Y   -0.000222   0.001541  -0.000042   0.000051  -0.000286
   96  O 13  Z    0.001079  -0.009227  -0.000167  -0.000219   0.000873
   97  C 14  S   -0.000854   0.000157   0.000004   0.000058  -0.000008
   98  C 14  S   -0.003424   0.000342  -0.000013   0.000452  -0.000020
   99  C 14  X   -0.001366  -0.000708  -0.000032   0.000116   0.000031
  100  C 14  Y   -0.000074   0.000563   0.000018   0.000215  -0.000112
  101  C 14  Z   -0.000644   0.000521  -0.000015  -0.000122   0.000020
  102  C 14  S    0.020036  -0.005142  -0.000203  -0.001135   0.000036
  103  C 14  X   -0.004945  -0.001077  -0.000130  -0.000680   0.000079
  104  C 14  Y   -0.003052  -0.001470   0.000026  -0.001896   0.001065
  105  C 14  Z   -0.007657   0.003638   0.000347   0.001102  -0.000585
  106  O 15  S    0.983444  -0.001616   0.000070  -0.000238  -0.000075
  107  O 15  S    0.097477   0.000118  -0.000021   0.000052   0.000028
  108  O 15  X    0.000904   0.000274  -0.000013   0.000052   0.000014
  109  O 15  Y    0.002323  -0.000368   0.000000  -0.000130   0.000023
  110  O 15  Z    0.002400  -0.000274   0.000007   0.000029  -0.000025
  111  O 15  S   -0.043267   0.000187   0.000099  -0.000137  -0.000109
  112  O 15  X   -0.004476  -0.000743   0.000083  -0.000184  -0.000095
  113  O 15  Y   -0.004637   0.001454   0.000003   0.000559  -0.000133
  114  O 15  Z   -0.005900   0.001190  -0.000019  -0.000127   0.000098
  115  H 16  S   -0.000024  -0.000010   0.003150  -0.000197  -0.000215
  116  H 16  S    0.000013   0.000013   0.005002  -0.000193   0.000208
  117  H 17  S   -0.000034  -0.000019  -0.001032   0.000034  -0.000193
  118  H 17  S    0.000228  -0.000356  -0.001683  -0.000701   0.000107
  119  H 18  S   -0.000001  -0.000020  -0.000995  -0.000255  -0.000264
  120  H 18  S   -0.000087  -0.000413  -0.000597  -0.000297   0.000754
  121  H 19  S    0.000049  -0.000024  -0.000026  -0.000016   0.003323
  122  H 19  S    0.000015   0.000176   0.000040  -0.000708   0.005790
  123  H 20  S   -0.000099  -0.000132   0.000227   0.002974  -0.000496
  124  H 20  S   -0.000031   0.000423   0.000287   0.005940   0.003408
  125  H 21  S   -0.000542   0.003090   0.000031   0.000429  -0.000059
  126  H 21  S    0.002397   0.005752  -0.000026  -0.000145   0.000313
  127  H 22  S   -0.001054  -0.000402  -0.000041  -0.000479   0.000154
  128  H 22  S   -0.000317  -0.000137  -0.000117   0.000205   0.000219
  129  H 23  S   -0.001223   0.000688   0.000096   0.000500  -0.000071
  130  H 23  S   -0.001534   0.000888  -0.000183   0.000771  -0.000681
  131  H 24  S    0.002891  -0.000538   0.000001  -0.000141   0.000019
  132  H 24  S    0.005136  -0.000291   0.000023  -0.000020  -0.000056

                      6          7          8          9         10
                  -20.1469   -11.1188   -11.0896   -11.0652   -11.0396
                     A          A          A          A          A   
    1  O  1  S    0.000338  -0.000006  -0.000004   0.000023  -0.000181
    2  O  1  S   -0.000275  -0.000059  -0.000059   0.000191  -0.000425
    3  O  1  X    0.000016   0.000024   0.000036  -0.000042  -0.000635
    4  O  1  Y   -0.000419   0.000016   0.000087   0.000042   0.000147
    5  O  1  Z    0.000048   0.000007  -0.000032   0.000049  -0.000067
    6  O  1  S    0.002095   0.000208   0.000050  -0.000866   0.007869
    7  O  1  X   -0.000801  -0.000132  -0.000132   0.000425  -0.002673
    8  O  1  Y    0.001679  -0.000049  -0.000335  -0.000216  -0.001045
    9  O  1  Z   -0.000201  -0.000034   0.000143  -0.000235   0.000342
   10  C  2  S   -0.000056  -0.000175  -0.000210  -0.000225   0.986853
   11  C  2  S   -0.000481  -0.000161   0.000019   0.000052   0.101627
   12  C  2  X    0.000139   0.000093   0.000053  -0.000127  -0.000392
   13  C  2  Y   -0.000033  -0.000022   0.000160  -0.000068   0.000391
   14  C  2  Z    0.000126  -0.000016  -0.000036  -0.000283  -0.000066
   15  C  2  S    0.007595   0.000900  -0.001168   0.000321  -0.084197
   16  C  2  X   -0.007677  -0.000577   0.000725   0.001583   0.006391
   17  C  2  Y   -0.002381  -0.000590  -0.000002   0.001172   0.009051
   18  C  2  Z   -0.001438   0.000308  -0.000334   0.001476  -0.004181
   19  C  3  S    0.000146  -0.000109  -0.001036  -0.001884  -0.002448
   20  C  3  S    0.001434  -0.000171  -0.001409  -0.001541  -0.002621
   21  C  3  X    0.000904   0.000093   0.000371   0.001008  -0.000384
   22  C  3  Y   -0.000911   0.000086  -0.000175  -0.000177  -0.000558
   23  C  3  Z    0.000727  -0.000011  -0.000123   0.000018   0.000191
   24  C  3  S    0.015694   0.001542   0.005725   0.002508   0.020805
   25  C  3  X    0.014731  -0.000997  -0.004042  -0.001271   0.010912
   26  C  3  Y   -0.020334  -0.002004   0.000615  -0.000410   0.018325
   27  C  3  Z    0.013922   0.000223  -0.000201  -0.001273  -0.005837
   28  O  4  S    0.983588   0.000017  -0.000008   0.000002   0.000002
   29  O  4  S    0.100870   0.000141  -0.000087   0.000038  -0.000231
   30  O  4  X   -0.002986  -0.000028  -0.000104  -0.000068   0.000244
   31  O  4  Y    0.002592  -0.000023   0.000000   0.000025  -0.000026
   32  O  4  Z   -0.002034  -0.000001   0.000075   0.000068   0.000067
   33  O  4  S   -0.057180  -0.000810   0.000448   0.000020   0.000235
   34  O  4  X    0.010201   0.000349   0.000607   0.000234  -0.001966
   35  O  4  Y   -0.009509   0.000047   0.000065  -0.000052  -0.001868
   36  O  4  Z    0.007244   0.000137  -0.000330  -0.000070   0.000398
   37  C  5  S    0.000076  -0.001307  -0.001896  -0.005145  -0.043231
   38  C  5  S    0.000123  -0.001262  -0.000684  -0.003473  -0.006757
   39  C  5  X   -0.000069   0.000503   0.001019  -0.000816  -0.000596
   40  C  5  Y   -0.000333  -0.000109  -0.000270   0.000305  -0.000599
   41  C  5  Z    0.000364   0.000099  -0.000114   0.000111  -0.000079
   42  C  5  S    0.002033   0.004576  -0.002708   0.023881   0.012128
   43  C  5  X   -0.000846  -0.005132  -0.003907  -0.010898   0.003852
   44  C  5  Y    0.008480   0.001851  -0.001091   0.008725   0.000884
   45  C  5  Z   -0.006064   0.000205   0.001020   0.005755   0.002558
   46  H  6  S   -0.000740  -0.000715  -0.000293  -0.001351   0.000002
   47  H  6  S   -0.001894   0.000094   0.001163   0.000190  -0.001236
   48  O  7  S    0.000375   0.000010   0.000047   0.000031   0.000018
   49  O  7  S   -0.000323   0.000054   0.000503  -0.000141  -0.000040
   50  O  7  X    0.000384  -0.000047  -0.000337   0.000268  -0.000100
   51  O  7  Y   -0.000183   0.000013   0.000179  -0.000538  -0.000225
   52  O  7  Z    0.000205  -0.000047  -0.000055   0.000071   0.000093
   53  O  7  S    0.002790  -0.000361  -0.001397  -0.001339  -0.001130
   54  O  7  X   -0.001425   0.000404   0.001471  -0.000612   0.000060
   55  O  7  Y    0.001931  -0.000317  -0.000939   0.000305   0.000166
   56  O  7  Z   -0.001403   0.000295   0.000339  -0.000093  -0.000096
   57  C  8  S   -0.000003  -0.003301  -0.007377   0.988221   0.000146
   58  C  8  S    0.000014  -0.001488  -0.004098   0.105608   0.000464
   59  C  8  X   -0.000199   0.001069  -0.000305  -0.000766  -0.000249
   60  C  8  Y    0.000034  -0.000568   0.000158  -0.000685  -0.000171
   61  C  8  Z   -0.000194  -0.000317  -0.000101  -0.000456   0.000427
   62  C  8  S   -0.002036   0.000103   0.028007  -0.096236  -0.003156
   63  C  8  X    0.001196  -0.003205  -0.016800   0.005177  -0.001059
   64  C  8  Y   -0.000655   0.003629  -0.000722   0.008650   0.002249
   65  C  8  Z    0.004416   0.002736  -0.005636   0.007755  -0.001849
   66  H  9  S    0.000416  -0.000082  -0.001977   0.000475  -0.000106
   67  H  9  S    0.000156  -0.002353   0.000665   0.015427  -0.000886
   68  O 10  S   -0.000489   0.000046   0.000008  -0.000250  -0.000040
   69  O 10  S    0.000317   0.000361  -0.000293  -0.000928  -0.000286
   70  O 10  X    0.000048  -0.000045   0.000085   0.000148   0.000071
   71  O 10  Y    0.000155   0.000044   0.000234  -0.000044  -0.000006
   72  O 10  Z   -0.000077  -0.000044   0.000305  -0.000469   0.000014
   73  O 10  S   -0.001657  -0.001440  -0.000511   0.010021   0.001576
   74  O 10  X   -0.000105   0.000592   0.000849  -0.001068  -0.000158
   75  O 10  Y   -0.000634  -0.000550  -0.000884   0.000525   0.000003
   76  O 10  Z    0.000877   0.000667   0.000276  -0.004523  -0.000724
   77  C 11  S   -0.000066  -0.005077   0.988302   0.006256   0.000136
   78  C 11  S   -0.000329  -0.002938   0.105917  -0.002602  -0.000088
   79  C 11  X    0.000102  -0.000006  -0.000005   0.000562  -0.000094
   80  C 11  Y   -0.000128  -0.000264   0.000832  -0.000047   0.000214
   81  C 11  Z   -0.000011   0.000062   0.000313  -0.000138  -0.000048
   82  C 11  S    0.002604   0.022234  -0.098242   0.027796   0.000022
   83  C 11  X    0.000922  -0.010753  -0.004478   0.014407   0.000810
   84  C 11  Y    0.001668   0.009013  -0.009549   0.001431  -0.001750
   85  C 11  Z   -0.000359   0.005812  -0.007433   0.007141   0.000706
   86  H 12  S   -0.000013  -0.001223   0.000904  -0.001800  -0.000301
   87  H 12  S    0.000814   0.001480   0.013725   0.000148  -0.000455
   88  O 13  S   -0.000153   0.000018  -0.000296   0.000017  -0.000012
   89  O 13  S    0.000129  -0.000186  -0.001271  -0.000215  -0.000105
   90  O 13  X    0.000032   0.000110  -0.000229  -0.000469   0.000021
   91  O 13  Y   -0.000029  -0.000134  -0.000264  -0.000042   0.000007
   92  O 13  Z    0.000018  -0.000441   0.000440  -0.000514  -0.000001
   93  O 13  S   -0.000656  -0.001056   0.011518  -0.000711   0.000484
   94  O 13  X   -0.000049   0.000442   0.001016   0.001084  -0.000133
   95  O 13  Y    0.000060   0.000003   0.000027   0.000140   0.000044
   96  O 13  Z   -0.000352   0.000245   0.005167   0.000758   0.000172
   97  C 14  S    0.000043   0.987690   0.004138   0.003217   0.000085
   98  C 14  S    0.000257   0.101762  -0.002688  -0.000643  -0.000112
   99  C 14  X    0.000021   0.000318   0.000561  -0.000923   0.000009
  100  C 14  Y    0.000029   0.000035  -0.000433   0.000151  -0.000062
  101  C 14  Z    0.000021  -0.000136   0.000129  -0.000094   0.000032
  102  C 14  S   -0.001176  -0.080544   0.026101  -0.000279   0.000879
  103  C 14  X   -0.000696  -0.008881   0.011188   0.000925   0.000296
  104  C 14  Y   -0.000148   0.003931  -0.006421   0.001296   0.000212
  105  C 14  Z    0.000397   0.002837  -0.008247   0.001049  -0.000743
  106  O 15  S    0.000017  -0.000197   0.000075  -0.000053   0.000004
  107  O 15  S   -0.000022  -0.000427   0.000348  -0.000522   0.000025
  108  O 15  X   -0.000012   0.000536  -0.000394  -0.000335  -0.000012
  109  O 15  Y    0.000002   0.000186   0.000251   0.000238   0.000033
  110  O 15  Z    0.000018   0.000392  -0.000073  -0.000020  -0.000004
  111  O 15  S    0.000072   0.007738  -0.002614   0.001655  -0.000159
  112  O 15  X    0.000097   0.002690  -0.000169   0.001727  -0.000025
  113  O 15  Y    0.000003  -0.000040  -0.000832  -0.000943  -0.000152
  114  O 15  Z   -0.000071   0.001305  -0.000043   0.000205  -0.000002
  115  H 16  S   -0.000815   0.000004   0.000120   0.000082  -0.000371
  116  H 16  S    0.000784   0.000092   0.000001  -0.000161   0.002036
  117  H 17  S   -0.000195  -0.000250  -0.000030   0.000251   0.000542
  118  H 17  S   -0.000783   0.000502   0.000748  -0.002136   0.015373
  119  H 18  S   -0.000795  -0.000065   0.000148   0.000432   0.000439
  120  H 18  S   -0.001756   0.000022  -0.000138   0.000247   0.014618
  121  H 19  S   -0.000457  -0.000127  -0.000347   0.000372   0.000014
  122  H 19  S    0.002533   0.000086  -0.000296   0.000464   0.001240
  123  H 20  S    0.000310   0.000235  -0.000745  -0.000202  -0.000042
  124  H 20  S   -0.000922  -0.000690   0.000196   0.003202   0.000156
  125  H 21  S    0.000029  -0.000513  -0.000309   0.000561  -0.000054
  126  H 21  S   -0.000110   0.001602   0.002390   0.001489   0.000094
  127  H 22  S    0.000063   0.000167  -0.001310  -0.000192   0.000048
  128  H 22  S   -0.000159   0.014617   0.001972  -0.000354   0.000249
  129  H 23  S    0.000116   0.000514  -0.001797  -0.000166  -0.000104
  130  H 23  S    0.000321   0.014956  -0.000539  -0.001274  -0.000215
  131  H 24  S    0.000024  -0.000515   0.000455   0.000310   0.000049
  132  H 24  S   -0.000042   0.002004   0.001068   0.000551   0.000002

                     11         12         13         14         15
                  -11.0337   -10.9500    -1.2569    -1.2077    -1.1922
                     A          A          A          A          A   
    1  O  1  S   -0.000014   0.000018  -0.000147  -0.006628  -0.024640
    2  O  1  S   -0.000211  -0.000066   0.000208   0.006306   0.023227
    3  O  1  X    0.000175   0.000253  -0.000075  -0.001831  -0.005953
    4  O  1  Y    0.000374   0.000058   0.000034   0.001270   0.005277
    5  O  1  Z   -0.000184  -0.000059  -0.000016  -0.000299  -0.001344
    6  O  1  S    0.000276  -0.000426   0.000066   0.019791   0.075091
    7  O  1  X   -0.000583  -0.000293   0.000152  -0.001756  -0.006958
    8  O  1  Y   -0.001452   0.000528  -0.000057   0.001528   0.006194
    9  O  1  Z    0.000648   0.000086   0.000055  -0.000391  -0.001539
   10  C  2  S    0.042721   0.001833  -0.000190  -0.003887  -0.011362
   11  C  2  S    0.002218  -0.002416   0.000399   0.005665   0.014116
   12  C  2  X    0.000569  -0.000184  -0.000240   0.000610   0.005615
   13  C  2  Y    0.000353   0.000504  -0.000118  -0.001945  -0.003817
   14  C  2  Z    0.000014   0.000097   0.000078   0.000903   0.002043
   15  C  2  S    0.004701   0.022453  -0.000571  -0.002405   0.005320
   16  C  2  X   -0.000641  -0.007002   0.001260   0.003911   0.006375
   17  C  2  Y   -0.002466  -0.012894   0.000391   0.003019   0.004776
   18  C  2  Z    0.001132   0.002212  -0.000010  -0.001076  -0.002569
   19  C  3  S   -0.001516   0.986692  -0.001007  -0.014083  -0.029487
   20  C  3  S   -0.002482   0.099333   0.000996   0.014200   0.029287
   21  C  3  X   -0.000081  -0.000660  -0.000738  -0.001744   0.001792
   22  C  3  Y    0.000327   0.000303  -0.000374  -0.007679  -0.016774
   23  C  3  Z   -0.000164  -0.000074   0.000252   0.004538   0.010193
   24  C  3  S    0.024409  -0.062176   0.004041   0.019825   0.039369
   25  C  3  X   -0.019093   0.012383  -0.001997  -0.002243  -0.006492
   26  C  3  Y   -0.008739  -0.016132   0.000704   0.008029   0.014842
   27  C  3  Z    0.000874   0.011477  -0.000772  -0.004375  -0.005492
   28  O  4  S    0.000034   0.000262  -0.000833  -0.015860  -0.036467
   29  O  4  S   -0.000048   0.001988   0.000716   0.014444   0.033312
   30  O  4  X   -0.000050   0.000171  -0.000459  -0.007113  -0.015309
   31  O  4  Y   -0.000401  -0.000331   0.000204   0.004430   0.010392
   32  O  4  Z    0.000225   0.000172  -0.000227  -0.003897  -0.008809
   33  O  4  S   -0.001737  -0.006138   0.002825   0.049714   0.114053
   34  O  4  X    0.002751   0.003417  -0.000321  -0.008330  -0.017716
   35  O  4  Y    0.001683  -0.002848   0.000323   0.003464   0.008651
   36  O  4  Z   -0.000415   0.002341  -0.000123  -0.003689  -0.009313
   37  C  5  S    0.987499   0.000922  -0.003494  -0.030266  -0.045683
   38  C  5  S    0.105961  -0.000831   0.005335   0.030861   0.047098
   39  C  5  X   -0.000402  -0.000246  -0.001754  -0.008849  -0.005724
   40  C  5  Y    0.000443  -0.000125   0.000498  -0.006585  -0.019690
   41  C  5  Z    0.000972   0.000227   0.001218   0.014720   0.028110
   42  C  5  S   -0.099847   0.013742  -0.007822   0.047207   0.077031
   43  C  5  X   -0.003901   0.011264   0.000500  -0.001235   0.005338
   44  C  5  Y   -0.008066   0.006338  -0.006018  -0.003706  -0.003164
   45  C  5  Z   -0.010199  -0.004875  -0.000603   0.013066   0.006031
   46  H  6  S    0.000593  -0.001826   0.002047   0.010350   0.012111
   47  H  6  S    0.013325   0.000083   0.002517   0.006646  -0.010380
   48  O  7  S   -0.000316  -0.000054  -0.004549  -0.056566  -0.106043
   49  O  7  S   -0.001352  -0.000609   0.004193   0.052071   0.096843
   50  O  7  X    0.000206   0.000044   0.000667   0.012174   0.025168
   51  O  7  Y    0.000379  -0.000314   0.001563   0.014687   0.024090
   52  O  7  Z   -0.000210   0.000117  -0.000323  -0.002052  -0.002767
   53  O  7  S    0.012241   0.002295   0.013453   0.172049   0.329464
   54  O  7  X    0.000385  -0.000874   0.000958   0.014723   0.030011
   55  O  7  Y    0.005227   0.001556   0.001764   0.016332   0.030981
   56  O  7  Z   -0.002115  -0.000700   0.000517   0.000510  -0.001078
   57  C  8  S    0.004059   0.001604  -0.011436  -0.051032  -0.049845
   58  C  8  S   -0.002766  -0.001525   0.013280   0.052730   0.051772
   59  C  8  X    0.000398  -0.001666  -0.008957  -0.008180   0.014971
   60  C  8  Y   -0.000172   0.000226  -0.000789  -0.014256  -0.018626
   61  C  8  Z   -0.000301  -0.000457   0.000098   0.018410   0.048716
   62  C  8  S    0.025772   0.001337   0.020551   0.086499   0.095762
   63  C  8  X    0.012335   0.008980   0.009035  -0.007828  -0.013889
   64  C  8  Y   -0.010830  -0.001658  -0.006349   0.008304  -0.009221
   65  C  8  Z   -0.003888   0.006417  -0.013353  -0.022404  -0.000211
   66  H  9  S   -0.001376   0.000156   0.004195   0.014455   0.014274
   67  H  9  S    0.001079  -0.001469   0.000146  -0.007788  -0.003444
   68  O 10  S    0.000051   0.000118  -0.011912  -0.091110  -0.139895
   69  O 10  S    0.000046   0.000968   0.010357   0.082966   0.128789
   70  O 10  X   -0.000182   0.000063  -0.000958  -0.000035   0.003132
   71  O 10  Y    0.000198   0.000110  -0.002339  -0.019622  -0.031622
   72  O 10  Z    0.000469  -0.000170  -0.004460  -0.027811  -0.038391
   73  O 10  S   -0.002502  -0.004347   0.040169   0.289120   0.436703
   74  O 10  X   -0.000131  -0.000904  -0.000695   0.002628   0.002486
   75  O 10  Y   -0.000076  -0.000507  -0.001090  -0.023721  -0.037740
   76  O 10  Z    0.000275   0.002046  -0.006569  -0.037162  -0.050827
   77  C 11  S    0.001918   0.000615  -0.040913  -0.063579   0.024647
   78  C 11  S   -0.000416  -0.001525   0.041025   0.068855  -0.024704
   79  C 11  X   -0.001006  -0.000277  -0.015138   0.013094   0.012107
   80  C 11  Y    0.000246  -0.000212   0.015369   0.014604  -0.009004
   81  C 11  Z    0.000151   0.000120  -0.017042  -0.048851   0.048131
   82  C 11  S   -0.001534   0.008388   0.076035   0.102137  -0.059286
   83  C 11  X    0.002807   0.005361  -0.016055  -0.002910  -0.007119
   84  C 11  Y   -0.000289   0.002825   0.001354  -0.009058  -0.003419
   85  C 11  Z   -0.002372  -0.000991   0.006006   0.020761  -0.003061
   86  H 12  S   -0.000161  -0.000301   0.011059   0.018660  -0.005836
   87  H 12  S    0.000787   0.001585  -0.004894  -0.008964   0.006242
   88  O 13  S    0.000059   0.000056  -0.074828  -0.169047   0.118724
   89  O 13  S    0.000583   0.000432   0.069683   0.155203  -0.109384
   90  O 13  X    0.000303   0.000034  -0.022009  -0.038661   0.031233
   91  O 13  Y   -0.000109  -0.000032  -0.001236  -0.004766   0.002499
   92  O 13  Z    0.000061   0.000041   0.020172   0.036985  -0.021454
   93  O 13  S   -0.001793  -0.002115   0.227694   0.538692  -0.376592
   94  O 13  X   -0.001435  -0.000264  -0.025995  -0.053541   0.036876
   95  O 13  Y    0.000597   0.000176  -0.002066  -0.008269   0.004682
   96  O 13  Z   -0.000648  -0.001035   0.025919   0.052643  -0.034200
   97  C 14  S    0.001009   0.000118  -0.069255   0.008404  -0.004941
   98  C 14  S   -0.001024   0.000019   0.074945  -0.009369   0.005438
   99  C 14  X   -0.000325  -0.000124  -0.044273   0.036600  -0.013582
  100  C 14  Y    0.000044   0.000149  -0.012978  -0.005882   0.001631
  101  C 14  Z   -0.000163  -0.000024  -0.040785   0.002501   0.002643
  102  C 14  S    0.004363  -0.000529   0.110904  -0.018300   0.009802
  103  C 14  X    0.003042  -0.000349   0.001630   0.000425   0.004908
  104  C 14  Y   -0.001496  -0.001207   0.008815   0.008282  -0.000738
  105  C 14  Z    0.000587   0.000904   0.004193  -0.014557   0.007493
  106  O 15  S   -0.000015  -0.000013  -0.205429   0.084566  -0.034489
  107  O 15  S   -0.000159  -0.000126   0.190638  -0.078787   0.032143
  108  O 15  X   -0.000052  -0.000089   0.010600   0.006577  -0.004153
  109  O 15  Y   -0.000008   0.000026   0.042288  -0.019584   0.008246
  110  O 15  Z   -0.000027   0.000036   0.040376  -0.018968   0.008781
  111  O 15  S    0.000598   0.000362   0.643288  -0.271231   0.112175
  112  O 15  X    0.000259   0.000458   0.023136   0.000482  -0.002675
  113  O 15  Y    0.000115  -0.000051   0.052369  -0.026375   0.012015
  114  O 15  Z    0.000165  -0.000145   0.053179  -0.027954   0.014184
  115  H 16  S    0.000403  -0.000107   0.000123   0.002977   0.011165
  116  H 16  S    0.000756   0.001376  -0.000179  -0.000315   0.000981
  117  H 17  S   -0.000076  -0.001429   0.000304   0.001564   0.003906
  118  H 17  S   -0.001320   0.002424  -0.000179   0.002416   0.003215
  119  H 18  S   -0.000687  -0.001759   0.000178   0.002011   0.004589
  120  H 18  S    0.000572   0.000146   0.000331   0.000063  -0.001524
  121  H 19  S   -0.000689  -0.000144   0.001511   0.021957   0.043062
  122  H 19  S    0.002749   0.001219  -0.000206   0.001950   0.005914
  123  H 20  S   -0.000490  -0.000079   0.005208   0.041376   0.064996
  124  H 20  S    0.001894  -0.000076   0.000103   0.003624   0.008889
  125  H 21  S   -0.000210   0.000112   0.038637   0.070794  -0.053648
  126  H 21  S   -0.000368  -0.000102   0.009484   0.007433  -0.008870
  127  H 22  S   -0.000489  -0.000065   0.020222  -0.001195   0.002181
  128  H 22  S   -0.000617  -0.000593  -0.007245   0.005767   0.002798
  129  H 23  S   -0.000500   0.000028   0.021129  -0.002544   0.001447
  130  H 23  S    0.000444   0.001071  -0.005929  -0.002459  -0.000637
  131  H 24  S   -0.000103   0.000076   0.092771  -0.042662   0.017823
  132  H 24  S    0.000453   0.000114   0.019360  -0.011839   0.005240

                     16         17         18         19         20
                   -1.1734    -1.1531    -1.1035    -0.9052    -0.8386
                     A          A          A          A          A   
    1  O  1  S   -0.211580   0.053491   0.044037   0.003771   0.023891
    2  O  1  S    0.197081  -0.048756  -0.040138  -0.003559  -0.021630
    3  O  1  X   -0.042433   0.008226   0.001953  -0.002835  -0.028071
    4  O  1  Y    0.051156  -0.014622  -0.015909  -0.002243  -0.016622
    5  O  1  Z   -0.013790   0.004255   0.005090   0.000484   0.003347
    6  O  1  S    0.663090  -0.174768  -0.148746  -0.012628  -0.090192
    7  O  1  X   -0.062568   0.017577   0.011317  -0.001635  -0.017298
    8  O  1  Y    0.063475  -0.019961  -0.024370  -0.000651  -0.011884
    9  O  1  Z   -0.018047   0.005322   0.007140   0.000026   0.001860
   10  C  2  S   -0.069702   0.010782  -0.002898  -0.009073  -0.065241
   11  C  2  S    0.075104  -0.012039   0.002963   0.009884   0.067833
   12  C  2  X    0.067517  -0.020098  -0.017697  -0.006886  -0.038435
   13  C  2  Y   -0.000289  -0.008927  -0.019745  -0.004215  -0.023877
   14  C  2  Z    0.002888   0.002078   0.007723   0.001290   0.005895
   15  C  2  S    0.105655  -0.017524  -0.025781   0.018581   0.161211
   16  C  2  X   -0.009038   0.016460   0.028403  -0.006547  -0.022289
   17  C  2  Y    0.010116   0.000909   0.009071   0.001975   0.002803
   18  C  2  Z   -0.003294   0.005951   0.006914  -0.001610  -0.001625
   19  C  3  S   -0.034422  -0.043032  -0.100708  -0.010505  -0.060137
   20  C  3  S    0.035043   0.044521   0.101515   0.015985   0.068414
   21  C  3  X    0.022950   0.010302   0.076914  -0.016557  -0.061922
   22  C  3  Y   -0.003459  -0.037738  -0.076907   0.008634   0.049411
   23  C  3  Z    0.006184   0.020197   0.057525  -0.006038  -0.035367
   24  C  3  S    0.048456   0.057831   0.135332   0.001282   0.113390
   25  C  3  X    0.003949  -0.024070  -0.048250   0.011335  -0.015771
   26  C  3  Y    0.012540   0.002979   0.061168   0.011147   0.030816
   27  C  3  Z   -0.009437  -0.009131  -0.042650  -0.003414  -0.020950
   28  O  4  S   -0.042505  -0.070201  -0.195916   0.008290   0.043952
   29  O  4  S    0.039909   0.064466   0.180744  -0.008005  -0.041557
   30  O  4  X   -0.012592  -0.027744  -0.059119   0.000598  -0.002259
   31  O  4  Y    0.016378   0.017745   0.059890   0.000709   0.005967
   32  O  4  Z   -0.011755  -0.016080  -0.044938  -0.000210  -0.002766
   33  O  4  S    0.128250   0.220485   0.637711  -0.026302  -0.149006
   34  O  4  X   -0.013821  -0.031695  -0.069857  -0.001418   0.000400
   35  O  4  Y    0.015095   0.017558   0.065497  -0.000383   0.001807
   36  O  4  Z   -0.010631  -0.016650  -0.050271   0.000725   0.000524
   37  C  5  S   -0.003302  -0.048474   0.013957  -0.039300  -0.114174
   38  C  5  S    0.003672   0.050669  -0.016493   0.041716   0.109024
   39  C  5  X    0.009022   0.009096   0.024797  -0.023314  -0.005651
   40  C  5  Y   -0.001290  -0.050155   0.032893   0.029377   0.065644
   41  C  5  Z   -0.002125   0.021129  -0.012343  -0.000874  -0.005248
   42  C  5  S    0.007897   0.077597  -0.043785   0.085774   0.303333
   43  C  5  X   -0.002025  -0.010167   0.002559   0.019732   0.003286
   44  C  5  Y   -0.007740   0.007097  -0.030769   0.000574   0.029193
   45  C  5  Z    0.008571  -0.011086   0.029633  -0.010790   0.009997
   46  H  6  S    0.002077   0.013239  -0.001249   0.024935   0.066802
   47  H  6  S    0.003245  -0.007665   0.008908  -0.010478   0.009582
   48  O  7  S   -0.005142  -0.159601   0.101859   0.020541   0.046963
   49  O  7  S    0.005999   0.146169  -0.090734  -0.017870  -0.040063
   50  O  7  X    0.003544   0.044511  -0.018392  -0.011469  -0.021032
   51  O  7  Y    0.000236   0.023480  -0.011542   0.013989   0.046771
   52  O  7  Z   -0.001258  -0.008959   0.003547  -0.009871  -0.026413
   53  O  7  S    0.010326   0.508178  -0.346251  -0.075671  -0.185197
   54  O  7  X    0.004717   0.057263  -0.023855  -0.013422  -0.020030
   55  O  7  Y   -0.002439   0.036088  -0.023859   0.006179   0.022074
   56  O  7  Z   -0.000619  -0.014390   0.009110  -0.006705  -0.016512
   57  C  8  S    0.015473   0.035366  -0.002735  -0.087017  -0.091248
   58  C  8  S   -0.016029  -0.035775   0.005394   0.090638   0.086074
   59  C  8  X    0.001693   0.008807   0.000656  -0.050640   0.054616
   60  C  8  Y    0.002884  -0.002580   0.005027  -0.002997  -0.023659
   61  C  8  Z   -0.017066  -0.050109   0.010943  -0.051997  -0.055590
   62  C  8  S   -0.025567  -0.074754   0.010181   0.206585   0.270947
   63  C  8  X   -0.004340  -0.004294  -0.012310   0.004466  -0.024600
   64  C  8  Y    0.004545  -0.013882   0.013253  -0.019701  -0.006270
   65  C  8  Z   -0.001974   0.014446  -0.023807  -0.019626  -0.038210
   66  H  9  S   -0.003205  -0.009402   0.000498   0.050945   0.056227
   67  H  9  S   -0.003753   0.010365  -0.002291   0.002734   0.003889
   68  O 10  S    0.048396   0.132018  -0.022225   0.056723   0.037952
   69  O 10  S   -0.044791  -0.120709   0.018375  -0.049992  -0.034101
   70  O 10  X   -0.000240   0.000814  -0.000133  -0.015826   0.010898
   71  O 10  Y    0.009932   0.023555  -0.002130   0.026323   0.018489
   72  O 10  Z    0.012390   0.030819  -0.003784  -0.029692  -0.036453
   73  O 10  S   -0.151571  -0.425572   0.083411  -0.209777  -0.143716
   74  O 10  X    0.000993   0.003648   0.000160  -0.012119   0.014293
   75  O 10  Y    0.012434   0.030682  -0.001782   0.026573   0.015853
   76  O 10  Z    0.016362   0.045192  -0.011138  -0.007672  -0.018195
   77  C 11  S    0.000605   0.005496   0.000000  -0.130198   0.020043
   78  C 11  S    0.000117  -0.004837   0.001630   0.126947  -0.014411
   79  C 11  X   -0.003820  -0.007716  -0.000120   0.004110   0.087557
   80  C 11  Y    0.000310  -0.002662   0.002105   0.027888  -0.026232
   81  C 11  Z   -0.006962  -0.012010   0.000323   0.075812  -0.022628
   82  C 11  S   -0.004482  -0.013223  -0.010491   0.344698  -0.081648
   83  C 11  X   -0.000752   0.005071  -0.010078   0.000659  -0.009957
   84  C 11  Y   -0.000572   0.008830  -0.010970   0.024953  -0.006618
   85  C 11  Z   -0.003190  -0.013101   0.004908   0.031525  -0.017663
   86  H 12  S   -0.000101  -0.000702  -0.000425   0.066697  -0.008236
   87  H 12  S   -0.000355   0.010035  -0.010309  -0.002875  -0.004674
   88  O 13  S   -0.011765  -0.012462  -0.001201   0.067995  -0.007320
   89  O 13  S    0.010769   0.011925   0.000392  -0.059553   0.007424
   90  O 13  X   -0.003510  -0.003969  -0.000624   0.036565   0.021913
   91  O 13  Y   -0.000254  -0.000587   0.000336  -0.005385  -0.005953
   92  O 13  Z    0.001496   0.000799  -0.000054   0.056890  -0.004898
   93  O 13  S    0.037622   0.037019   0.007735  -0.258610   0.026568
   94  O 13  X   -0.003161  -0.002592  -0.000342   0.031809   0.021871
   95  O 13  Y   -0.000221  -0.000348  -0.000005  -0.005168  -0.005766
   96  O 13  Z    0.003377   0.001530   0.002419   0.021956  -0.001714
   97  C 14  S    0.001033   0.003106  -0.000669  -0.119053   0.097939
   98  C 14  S   -0.001014  -0.002847   0.000056   0.123763  -0.092902
   99  C 14  X    0.000024  -0.002552   0.000510   0.069373  -0.026996
  100  C 14  Y    0.000280   0.001305  -0.000282  -0.028249   0.008458
  101  C 14  Z   -0.000620  -0.001222   0.000103  -0.002001  -0.005669
  102  C 14  S   -0.000772  -0.003479   0.003339   0.300151  -0.299663
  103  C 14  X   -0.001428  -0.005764   0.003389   0.010884  -0.023586
  104  C 14  Y   -0.001064  -0.004080   0.002624  -0.000942   0.001906
  105  C 14  Z   -0.001386  -0.000049  -0.002228   0.016452  -0.002378
  106  O 15  S    0.001265  -0.001441   0.000543   0.044184  -0.033731
  107  O 15  S   -0.001042   0.001651  -0.000478  -0.038495   0.030292
  108  O 15  X    0.000267  -0.000291   0.000282   0.065508  -0.069799
  109  O 15  Y   -0.000335   0.000329  -0.000150  -0.017882   0.014414
  110  O 15  Z   -0.000522  -0.000135  -0.000159   0.019571  -0.019667
  111  O 15  S   -0.004806   0.003147  -0.001745  -0.174056   0.135972
  112  O 15  X   -0.000071  -0.000315  -0.000350   0.042095  -0.056373
  113  O 15  Y   -0.000498   0.000290  -0.000143  -0.015699   0.015635
  114  O 15  Z   -0.001099  -0.001377   0.000430   0.008667  -0.011365
  115  H 16  S    0.097165  -0.024904  -0.022514  -0.003521  -0.025132
  116  H 16  S    0.022832  -0.008757  -0.010494  -0.002090  -0.017455
  117  H 17  S    0.020482  -0.002695   0.001995   0.005726   0.039194
  118  H 17  S   -0.005777  -0.003240  -0.001741   0.001102   0.008314
  119  H 18  S    0.020185  -0.001393   0.003033   0.005543   0.041952
  120  H 18  S   -0.006776   0.001533   0.004075   0.000399   0.005004
  121  H 19  S    0.005015   0.071084  -0.032308  -0.016039  -0.041249
  122  H 19  S    0.000667   0.012155   0.002551  -0.009594  -0.032499
  123  H 20  S   -0.020558  -0.048316   0.003636  -0.037909  -0.027036
  124  H 20  S   -0.002520  -0.004242  -0.000355  -0.026730  -0.031496
  125  H 21  S    0.005762   0.006796   0.000472  -0.054895  -0.007566
  126  H 21  S    0.001180   0.001126   0.000726  -0.044152   0.004717
  127  H 22  S   -0.000631  -0.001835   0.000221   0.069246  -0.061039
  128  H 22  S   -0.001050  -0.005003   0.002465  -0.006159  -0.010362
  129  H 23  S   -0.000360  -0.000748  -0.000035   0.067454  -0.057504
  130  H 23  S    0.000616   0.001407  -0.002159   0.003953  -0.004430
  131  H 24  S   -0.000659   0.001001  -0.000496  -0.049774   0.047653
  132  H 24  S   -0.000363  -0.000100  -0.000028  -0.033820   0.030855

                     21         22         23         24         25
                   -0.7761    -0.7053    -0.6503    -0.5894    -0.5603
                     A          A          A          A          A   
    1  O  1  S    0.047865  -0.029870   0.007845  -0.001691  -0.014965
    2  O  1  S   -0.042703   0.027648  -0.008076   0.001339   0.016088
    3  O  1  X   -0.081327   0.075375  -0.023959   0.014986   0.076160
    4  O  1  Y   -0.040795   0.031371  -0.004462   0.010642   0.007878
    5  O  1  Z    0.007943  -0.006775   0.003106   0.001317  -0.003630
    6  O  1  S   -0.191420   0.120270  -0.029289   0.008158   0.055888
    7  O  1  X   -0.056953   0.062980  -0.023558   0.013080   0.078357
    8  O  1  Y   -0.035304   0.030079  -0.005618   0.009466   0.008935
    9  O  1  Z    0.006766  -0.007344   0.003529   0.001282  -0.004809
   10  C  2  S   -0.140778   0.092396  -0.023619   0.007074   0.040125
   11  C  2  S    0.138424  -0.085935   0.020609  -0.006783  -0.036564
   12  C  2  X   -0.056725   0.013141   0.000095  -0.008056  -0.027164
   13  C  2  Y   -0.028794  -0.014408   0.027313   0.004910  -0.086479
   14  C  2  Z    0.006324   0.001183   0.001733   0.009448   0.017107
   15  C  2  S    0.405630  -0.302157   0.086333  -0.026690  -0.150007
   16  C  2  X   -0.035031   0.026465  -0.014413  -0.005460   0.011055
   17  C  2  Y   -0.000604  -0.003741   0.010347   0.002183  -0.058242
   18  C  2  Z    0.003659  -0.001025   0.000854   0.004323   0.013284
   19  C  3  S   -0.070199  -0.018953   0.033627  -0.002534  -0.088534
   20  C  3  S    0.073322   0.020885  -0.035028   0.001354   0.086953
   21  C  3  X   -0.011504  -0.086851   0.044133  -0.015123  -0.074272
   22  C  3  Y    0.090828  -0.057247   0.020390   0.003512  -0.014010
   23  C  3  Z   -0.048824   0.000532   0.020620   0.013588  -0.037883
   24  C  3  S    0.177446   0.036189  -0.087896   0.011978   0.282649
   25  C  3  X   -0.055778   0.002495   0.016463  -0.011883  -0.089178
   26  C  3  Y    0.022026   0.004880  -0.003342   0.008097   0.009403
   27  C  3  Z   -0.027817  -0.006914   0.019180   0.007836  -0.040685
   28  O  4  S    0.047197   0.011812  -0.019018   0.002063   0.053088
   29  O  4  S   -0.044863  -0.010417   0.017226  -0.002346  -0.049084
   30  O  4  X    0.000487  -0.022025   0.017106  -0.007159  -0.065991
   31  O  4  Y    0.015459  -0.008258  -0.004940  -0.002794   0.013177
   32  O  4  Z   -0.007254  -0.003225   0.012255   0.006450  -0.034531
   33  O  4  S   -0.163947  -0.046175   0.073322  -0.006033  -0.209289
   34  O  4  X    0.006431  -0.019255   0.013512  -0.006293  -0.054967
   35  O  4  Y    0.012952  -0.011007  -0.002657  -0.002670   0.011119
   36  O  4  Z   -0.004315  -0.000330   0.008193   0.004439  -0.030193
   37  C  5  S    0.002522  -0.116042   0.064980   0.014381   0.007521
   38  C  5  S    0.001060   0.100668  -0.054989  -0.011886  -0.006692
   39  C  5  X    0.069775   0.023556  -0.036950   0.019389   0.182571
   40  C  5  Y   -0.004248   0.020637   0.027356   0.032070   0.010810
   41  C  5  Z   -0.009412  -0.013749   0.033198   0.038937  -0.028541
   42  C  5  S   -0.026578   0.394868  -0.242938  -0.063199  -0.033885
   43  C  5  X   -0.007937   0.024544  -0.003439   0.023432   0.087475
   44  C  5  Y   -0.004987   0.037431  -0.006711   0.005231  -0.002339
   45  C  5  Z    0.003149   0.018305   0.010022   0.023556  -0.014420
   46  H  6  S   -0.003061   0.074403  -0.057565  -0.037234  -0.008655
   47  H  6  S    0.004649   0.026960  -0.017340  -0.030072  -0.013500
   48  O  7  S   -0.005008   0.040920  -0.026354  -0.004030   0.008756
   49  O  7  S    0.004094  -0.035415   0.023686   0.003788  -0.008807
   50  O  7  X    0.013032  -0.007535   0.021597   0.031407   0.128574
   51  O  7  Y   -0.008631   0.071154  -0.059481  -0.023603  -0.072672
   52  O  7  Z    0.003793  -0.041425   0.035143   0.021534   0.019773
   53  O  7  S    0.020098  -0.173159   0.110003   0.016374  -0.032150
   54  O  7  X    0.013607  -0.007198   0.021179   0.029947   0.131141
   55  O  7  Y   -0.009205   0.053021  -0.051091  -0.023476  -0.075527
   56  O  7  Z    0.004234  -0.034264   0.029397   0.020114   0.018506
   57  C  8  S    0.078831   0.011061  -0.097066  -0.046827   0.032593
   58  C  8  S   -0.071189  -0.005432   0.084477   0.037565  -0.024018
   59  C  8  X    0.032280   0.112690   0.006189   0.060191  -0.051260
[...]
   14 C             0.000320                     0.000713
   15 O             0.000379                     0.000490
   16 H            -0.000327                    -0.000537
   17 H             0.055051                     0.044718
   18 H             0.036446                     0.028884
   19 H            -0.006451                    -0.004450
   20 H             0.000881                     0.000633
   21 H             0.000382                     0.000339
   22 H            -0.000063                    -0.000043
   23 H            -0.000075                    -0.000001
   24 H             0.000212                     0.000166


          ********* ALL ELECTRONS ********

               ----- POPULATIONS IN EACH AO -----
                             MULLIKEN      LOWDIN
              1  O  1  S      1.98604     1.98057
              2  O  1  S      0.41714     0.57649
              3  O  1  X      0.58338     0.57355
              4  O  1  Y      0.63103     0.61596
              5  O  1  Z      0.85809     0.87065
              6  O  1  S      1.51614     1.05358
              7  O  1  X      0.78835     0.82448
              8  O  1  Y      0.80850     0.83080
              9  O  1  Z      1.06085     1.05515
             10  C  2  S      1.98851     1.97561
             11  C  2  S      0.36169     0.42081
             12  C  2  X      0.41102     0.40085
             13  C  2  Y      0.58871     0.56676
             14  C  2  Z      0.54103     0.49951
             15  C  2  S      1.00530     0.57009
             16  C  2  X      0.22337     0.40254
             17  C  2  Y      0.50711     0.59458
             18  C  2  Z      0.50249     0.57700
             19  C  3  S      1.98700     1.97494
             20  C  3  S      0.37389     0.40607
             21  C  3  X      0.52102     0.50782
             22  C  3  Y      0.53762     0.52606
             23  C  3  Z      0.57784     0.58577
             24  C  3  S      0.65025     0.51873
             25  C  3  X      0.22305     0.47468
             26  C  3  Y      0.27784     0.50648
             27  C  3  Z      0.57490     0.64222
             28  O  4  S      1.98672     1.98095
             29  O  4  S      0.41165     0.57030
             30  O  4  X      0.72910     0.73160
             31  O  4  Y      0.68863     0.68754
             32  O  4  Z      0.68324     0.68980
             33  O  4  S      1.55472     1.04941
             34  O  4  X      0.92222     0.95485
             35  O  4  Y      0.88499     0.91894
             36  O  4  Z      0.87845     0.88912
             37  C  5  S      1.99020     1.97566
             38  C  5  S      0.34859     0.42508
             39  C  5  X      0.58562     0.57908
             40  C  5  Y      0.42171     0.41451
             41  C  5  Z      0.52757     0.50096
             42  C  5  S      1.03755     0.56023
             43  C  5  X      0.39360     0.53697
             44  C  5  Y      0.22969     0.43122
             45  C  5  Z      0.47576     0.53802
             46  H  6  S      0.48085     0.49666
             47  H  6  S      0.33660     0.45219
             48  O  7  S      1.98602     1.98013
             49  O  7  S      0.40723     0.56724
             50  O  7  X      0.67968     0.67423
             51  O  7  Y      0.64700     0.64600
             52  O  7  Z      0.75890     0.76409
             53  O  7  S      1.51903     1.04678
             54  O  7  X      0.91015     0.89881
             55  O  7  Y      0.86569     0.88630
             56  O  7  Z      0.98221     0.99098
             57  C  8  S      1.99000     1.97574
             58  C  8  S      0.35331     0.42774
             59  C  8  X      0.54691     0.53720
             60  C  8  Y      0.57178     0.54956
             61  C  8  Z      0.43271     0.42350
             62  C  8  S      1.00416     0.55288
             63  C  8  X      0.29510     0.50129
             64  C  8  Y      0.52199     0.56302
             65  C  8  Z      0.20565     0.41224
             66  H  9  S      0.48105     0.49349
             67  H  9  S      0.31750     0.43954
             68  O 10  S      1.98612     1.98038
             69  O 10  S      0.41102     0.57125
             70  O 10  X      0.84766     0.86088
             71  O 10  Y      0.63738     0.62465
             72  O 10  Z      0.59475     0.58981
             73  O 10  S      1.52258     1.04897
             74  O 10  X      1.07023     1.06296
             75  O 10  Y      0.83353     0.84213
             76  O 10  Z      0.81549     0.85584
             77  C 11  S      1.99009     1.97571
             78  C 11  S      0.35520     0.42696
             79  C 11  X      0.58064     0.57264
             80  C 11  Y      0.55482     0.52677
             81  C 11  Z      0.42154     0.41283
             82  C 11  S      1.00907     0.55319
             83  C 11  X      0.34608     0.51144
             84  C 11  Y      0.48540     0.55677
             85  C 11  Z      0.20812     0.40835
             86  H 12  S      0.47550     0.48943
             87  H 12  S      0.30585     0.43514
             88  O 13  S      1.98613     1.98046
             89  O 13  S      0.41258     0.57384
             90  O 13  X      0.64065     0.62831
             91  O 13  Y      0.84409     0.85573
             92  O 13  Z      0.59190     0.58540
             93  O 13  S      1.52493     1.05197
             94  O 13  X      0.84085     0.84617
             95  O 13  Y      1.05467     1.05650
             96  O 13  Z      0.79692     0.83786
             97  C 14  S      1.98860     1.97592
             98  C 14  S      0.36430     0.42763
             99  C 14  X      0.44454     0.44046
            100  C 14  Y      0.56491     0.53287
            101  C 14  Z      0.53580     0.50613
            102  C 14  S      1.00997     0.57625
            103  C 14  X      0.27572     0.43179
            104  C 14  Y      0.49591     0.57593
            105  C 14  Z      0.43781     0.53383
            106  O 15  S      1.98584     1.98030
            107  O 15  S      0.41302     0.57154
            108  O 15  X      0.57868     0.56468
            109  O 15  Y      0.75212     0.75331
            110  O 15  Z      0.74825     0.75330
            111  O 15  S      1.50714     1.05447
            112  O 15  X      0.75144     0.77718
            113  O 15  Y      0.96564     0.96834
            114  O 15  Z      0.98605     0.99066
            115  H 16  S      0.43006     0.44704
            116  H 16  S      0.25009     0.34511
            117  H 17  S      0.48370     0.49853
            118  H 17  S      0.38820     0.47897
            119  H 18  S      0.48403     0.49643
            120  H 18  S      0.39385     0.48118
            121  H 19  S      0.37136     0.39428
            122  H 19  S      0.22958     0.34857
            123  H 20  S      0.38565     0.40491
            124  H 20  S      0.22310     0.34418
            125  H 21  S      0.40362     0.42190
            126  H 21  S      0.21792     0.33662
            127  H 22  S      0.47869     0.48178
            128  H 22  S      0.31231     0.43864
            129  H 23  S      0.47859     0.48573
            130  H 23  S      0.33526     0.45006
            131  H 24  S      0.41769     0.43523
            132  H 24  S      0.22102     0.32827

          ----- MULLIKEN ATOMIC OVERLAP POPULATIONS -----
          (OFF-DIAGONAL ELEMENTS NEED TO BE MULTIPLIED BY 2)

             1           2           3           4           5

    1    8.2750063
    2    0.2169419   5.3914790
    3   -0.0319219   0.1556108   5.3133221
    4    0.0014929  -0.0828477   0.4184112   8.4434901
    5    0.0010927  -0.1836641   0.1673143  -0.0958197   5.6555537
    6    0.0000032   0.0034400  -0.0536581   0.0015512   0.3544448
    7   -0.0000002   0.0014536  -0.0361184  -0.0133978   0.2266659
    8    0.0000013   0.0042895  -0.0796350   0.0013379   0.1407912
    9   -0.0000123   0.0013568  -0.0069159   0.0000625  -0.0387497
   10   -0.0000000  -0.0003062   0.0026567  -0.0000244  -0.0399938
   11    0.0000000  -0.0002567   0.0043036  -0.0000306  -0.0795722
   12    0.0000000  -0.0000067   0.0001093   0.0000004  -0.0072672
   13   -0.0000000  -0.0000055   0.0000094  -0.0000000  -0.0017525
   14   -0.0000000   0.0000050  -0.0000651   0.0000000   0.0051272
   15    0.0000000  -0.0000000   0.0000000  -0.0000000  -0.0000141
   16    0.2502660  -0.0499521   0.0060348  -0.0000102  -0.0001357
   17   -0.0347322   0.3336267  -0.0789704   0.0016153   0.0054002
   18   -0.0285964   0.3346106  -0.0683420   0.0017271   0.0075481
   19   -0.0000091   0.0035460   0.0087746   0.0619292  -0.0928488
   20    0.0000001  -0.0000854   0.0024915   0.0002217  -0.0135693
   21    0.0000000  -0.0000002   0.0000024   0.0000000  -0.0001510
   22    0.0000000   0.0000000   0.0000005   0.0000000  -0.0000082
   23    0.0000000  -0.0000008  -0.0000022  -0.0000000  -0.0001049
   24   -0.0000000   0.0000000  -0.0000000   0.0000000   0.0000017

             6           7           8           9          10

    6    0.6068146
    7   -0.0271555   8.3811341
    8   -0.0910791  -0.0536222   5.5209650
    9    0.0024362   0.0014430   0.3784646   0.5435370
   10    0.0015401  -0.0107539   0.2358670  -0.0250204   8.3450317
   11    0.0010470  -0.0016365   0.0949634  -0.0748250  -0.0548803
   12    0.0009627   0.0067987  -0.0477262   0.0040235   0.0014290
   13    0.0088009   0.0000147  -0.0361166   0.0056772   0.0002229
   14    0.0000925   0.0000063  -0.0773271  -0.0037933   0.0022826
   15    0.0000006   0.0000000   0.0015444  -0.0000257   0.0000016
   16   -0.0000010   0.0000001   0.0000049   0.0000005   0.0000000
   17   -0.0010741  -0.0000069   0.0000751   0.0018879   0.0003973
   18    0.0053735  -0.0000132  -0.0021480  -0.0002488   0.0000035
   19    0.0025050   0.2352606   0.0074351  -0.0001155   0.0002526
   20    0.0014540   0.0458409  -0.0833355   0.0054929   0.2526155
   21   -0.0000383  -0.0000023   0.0056026  -0.0002621  -0.0000299
   22   -0.0000145   0.0000000   0.0007978   0.0005039   0.0075310
   23    0.0000043  -0.0000003   0.0006264   0.0036343  -0.0000649
   24   -0.0000001  -0.0000000  -0.0001569   0.0000020   0.0000012

            11          12          13          14          15

   11    5.4926524
   12    0.3671317   0.5380077
   13    0.1989996  -0.0296215   8.3338772
   14    0.1966298  -0.0605854  -0.0434930   5.2581622
   15   -0.0487294   0.0011766  -0.0048845   0.2060645   8.3063835
   16   -0.0000001  -0.0000000   0.0000000   0.0000000  -0.0000000
   17   -0.0000381  -0.0000027  -0.0000051   0.0000016  -0.0000000
   18    0.0001212   0.0000023   0.0000065  -0.0000017   0.0000000
   19   -0.0003250  -0.0001169  -0.0000017   0.0000028  -0.0000000
   20    0.0022744   0.0027250  -0.0000197  -0.0005255  -0.0000005
   21   -0.0595917   0.0000584   0.2577066  -0.0120030   0.0265764
   22   -0.0430936   0.0004790   0.0017453   0.3375192  -0.0272560
   23   -0.0500802   0.0039169   0.0014200   0.3534148  -0.0311650
   24    0.0059074  -0.0001382   0.0001450  -0.0439397   0.2585059

            16          17          18          19          20

   16    0.4796123
   17   -0.0028504   0.7189982
   18   -0.0028183  -0.0723149   0.7030392
   19    0.0000007  -0.0000561  -0.0000759   0.3769213
   20   -0.0000000  -0.0000567   0.0000073  -0.0021380   0.3952793
   21   -0.0000000  -0.0000001   0.0000013   0.0000001   0.0000037
   22   -0.0000000  -0.0000003   0.0000000  -0.0000002   0.0000651
   23    0.0000000  -0.0000015   0.0000001   0.0000000   0.0000097
   24    0.0000000   0.0000000  -0.0000000   0.0000000  -0.0000001

            21          22          23          24

   21    0.4041323
   22    0.0006618   0.5484523
   23    0.0000483  -0.0353710   0.5707151
   24   -0.0011697  -0.0010124  -0.0031430   0.4237026

          TOTAL MULLIKEN AND LOWDIN ATOMIC POPULATIONS
       ATOM         MULL.POP.    CHARGE          LOW.POP.     CHARGE
    1 O             8.649532   -0.649532         8.381237   -0.381237
    2 C             6.129234   -0.129234         6.007749   -0.007749
    3 C             5.723412    0.276588         6.142778   -0.142778
    4 O             8.739709   -0.739709         8.472513   -0.472513
    5 C             6.010289   -0.010289         5.961730    0.038270
    6 H             0.817450    0.182550         0.948850    0.051150
    7 O             8.755911   -0.755911         8.454562   -0.454562
    8 C             5.921620    0.078380         5.943176    0.056824
    9 H             0.798554    0.201446         0.933037    0.066963
   10 O             8.718759   -0.718759         8.436873   -0.436873
   11 C             5.950971    0.049029         5.944662    0.055338
   12 H             0.781357    0.218643         0.924572    0.075428
   13 O             8.692725   -0.692725         8.416240   -0.416240
   14 C             6.117575   -0.117575         6.000821   -0.000821
   15 O             8.688178   -0.688178         8.413781   -0.413781
   16 H             0.680152    0.319848         0.792143    0.207857
   17 H             0.871893    0.128107         0.977499    0.022501
   18 H             0.877882    0.122118         0.977610    0.022390
   19 H             0.600941    0.399059         0.742854    0.257146
   20 H             0.608750    0.391250         0.749086    0.250914
   21 H             0.621546    0.378454         0.758512    0.241488
   22 H             0.791000    0.209000         0.920416    0.079584
   23 H             0.813856    0.186144         0.935797    0.064203
   24 H             0.638706    0.361294         0.763502    0.236498

          -------------------------------
          BOND ORDER AND VALENCE ANALYSIS     BOND ORDER THRESHOLD=0.050
          -------------------------------

                   BOND                       BOND                       BOND
  ATOM PAIR DIST  ORDER      ATOM PAIR DIST  ORDER      ATOM PAIR DIST  ORDER
    1   2  1.446  0.845        1  16  0.994  0.850        2   3  1.514  0.850
    2  17  1.104  0.888        2  18  1.103  0.896        3   4  1.236  1.482
    3   5  1.526  0.851        4  19  1.883  0.137        5   6  1.097  0.882
    5   7  1.462  0.831        5   8  1.545  0.828        7  19  1.010  0.700
    7  20  1.900  0.093        8   9  1.093  0.905        8  10  1.448  0.877
    8  11  1.522  0.838       10  20  1.009  0.745       11  12  1.099  0.887
   11  13  1.457  0.846       11  14  1.525  0.888       13  21  1.001  0.786
   14  15  1.471  0.819       14  22  1.094  0.888       14  23  1.099  0.905
   15  24  0.993  0.826

                       TOTAL       BONDED        FREE
      ATOM            VALENCE     VALENCE     VALENCE
    1 O                 1.735       1.735       0.000
    2 C                 3.498       3.490       0.008
    3 C                 3.504       3.180       0.324
    4 O                 1.834       1.678       0.156
    5 C                 3.379       3.371       0.008
    6 H                 0.918       0.916       0.002
    7 O                 1.721       1.721       0.000
    8 C                 3.424       3.422       0.001
    9 H                 0.914       0.914       0.000
   10 O                 1.714       1.714       0.000
   11 C                 3.427       3.427      -0.000
   12 H                 0.908       0.908       0.000
   13 O                 1.723       1.723       0.000
   14 C                 3.493       3.493       0.000
   15 O                 1.736       1.736       0.000
   16 H                 0.867       0.867       0.000
   17 H                 0.911       0.908       0.003
   18 H                 0.917       0.916       0.001
   19 H                 0.854       0.854       0.000
   20 H                 0.845       0.845       0.000
   21 H                 0.845       0.845       0.000
   22 H                 0.914       0.914       0.000
   23 H                 0.915       0.915       0.000
   24 H                 0.841       0.841       0.000

          -----------------------------------------
          ATOMIC SPIN DENSITY AT THE NUCLEUS (A.U.)
          -----------------------------------------
                            SPIN DENS    ALPHA DENS     BETA DENS
    1  O            8.0     0.0057524     116.76978     116.76403
    2  C            6.0    -0.0521522      46.96977      47.02192
    3  C            6.0     0.1421988      47.00604      46.86384
    4  O            8.0     0.1675513     116.89614     116.72859
    5  C            6.0    -0.0519459      47.05030      47.10225
    6  H            1.0     0.0137403       0.19601       0.18227
    7  O            8.0    -0.0048454     116.71074     116.71558
    8  C            6.0     0.0368555      47.09358      47.05672
    9  H            1.0    -0.0009819       0.18852       0.18950
   10  O            8.0     0.0012842     116.74619     116.74491
   11  C            6.0    -0.0000005      47.07429      47.07429
   12  H            1.0     0.0000488       0.18665       0.18660
   13  O            8.0     0.0010982     116.76036     116.75926
   14  C            6.0     0.0018550      47.01099      47.00914
   15  O            8.0     0.0011717     116.72253     116.72136
   16  H            1.0    -0.0005998       0.17387       0.17447
   17  H            1.0     0.0163325       0.19836       0.18203
   18  H            1.0     0.0110304       0.19557       0.18454
   19  H            1.0    -0.0001977       0.15006       0.15026
   20  H            1.0     0.0002568       0.15613       0.15588
   21  H            1.0     0.0001233       0.16361       0.16348
   22  H            1.0    -0.0000258       0.18702       0.18705
   23  H            1.0     0.0000096       0.18728       0.18727
   24  H            1.0     0.0000553       0.16909       0.16903

          ---------------------
          ELECTROSTATIC MOMENTS
          ---------------------

 POINT   1           X           Y           Z (BOHR)    CHARGE
                 0.091718    0.057444   -0.022588       -1.00 (A.U.)
         DX          DY          DZ         /D/  (DEBYE)
    -9.738812    5.216422   -0.766877   11.074458
 ...... END OF PROPERTY EVALUATION ......
 CPU     0: STEP CPU TIME=     0.08 TOTAL CPU TIME=          3.3 (      0.1 MIN)
 TOTAL WALL CLOCK TIME=          9.5 SECONDS, CPU UTILIZATION IS    34.46%
               580000  WORDS OF DYNAMIC MEMORY USED
 EXECUTION OF GAMESS TERMINATED NORMALLY Fri May 22 15:37:07 2020
 DDI: 263640 bytes (0.3 MB / 0 MWords) used by master data server.
Note: The following floating-point exceptions are signalling: IEEE_DENORMALNote: The following floating-point exceptions are signalling: IEEE_DENORMALNote: The following floating-point exceptions are signalling: IEEE_DENORMAL
Note: The following floating-point exceptions are signalling: IEEE_DENORMALNote: The following floating-point exceptions are signalling:

 ----------------------------------------
 CPU timing information for all processes
 ========================================
 0: 3.116 + 0.155 = 3.271
 1: 3.36 + 0.27 = 3.63
 2: 2.941 + 0.56 = 2.997
 3: 2.900 + 0.40 = 2.940
 4: 2.969 + 0.39 = 3.08
 5: 2.891 + 0.24 = 2.916
 6: 2.768 + 0.49 = 2.818
 7: 2.781 + 0.24 = 2.805
 ----------------------------------------


 IEEE_DENORMAL
Note: The following floating-point exceptions are signalling: IEEE_DENORMALNote: The following floating-point exceptions are signalling: IEEE_DENORMALNote: The following floating-point exceptions are signalling: IEEE_DENORMAL


 ddikick.x: exited gracefully.
unset echo
----- accounting info -----
Files used on the master node pietdev were:
-rwxr-xr-x 1 piet piet     1458 mei 22 15:36 /home/piet/scr/d-fructose_fukui_acid.F05*
-rw-r--r-- 1 piet piet 68812800 mei 22 15:37 /home/piet/scr/d-fructose_fukui_acid.F10
ls: No match.
ls: No match.
ls: No match.
vr 22 mei 2020 15:37:10 CEST
0.106u 0.031s 0:12.62 1.0%	0+0k 0+8io 0pf+0w
