----- GAMESS execution script 'rungms' -----
This job is running on host pietdev
under operating system Linux at vr 22 mei 2020 15:35:52 CEST
Available scratch disk space (Kbyte units) at beginning of the job is
Filesystem     1K-blocks     Used Available Use% Mounted on
/dev/sda2      244568380 31372664 200702660  14% /
GAMESS temporary binary files will be written to /home/piet/scr
GAMESS supplementary output files will be written to /home/piet/gamess/scr
Copying input file d-fructose_charge_geodisk.inp to your run's scratch directory...
cp d-fructose_charge_geodisk.inp /home/piet/scr/d-fructose_charge_geodisk.F05
unset echo
 
Assuming a single but multicore node.
 
/home/piet/gamess/ddikick.x /home/piet/gamess/gamess.03.x d-fructose_charge_geodisk -ddi 1 8 pietdev:cpus=8 -scr /home/piet/scr

 Distributed Data Interface kickoff program.
 Initiating 8 compute processes on 1 nodes to run the following command:
 /home/piet/gamess/gamess.03.x d-fructose_charge_geodisk 

          ******************************************************
          *         GAMESS VERSION = 30 SEP 2019 (R2)          *
          *             FROM IOWA STATE UNIVERSITY             *
          * M.W.SCHMIDT, K.K.BALDRIDGE, J.A.BOATZ, S.T.ELBERT, *
          *   M.S.GORDON, J.H.JENSEN, S.KOSEKI, N.MATSUNAGA,   *
          *          K.A.NGUYEN, S.J.SU, T.L.WINDUS,           *
          *       TOGETHER WITH M.DUPUIS, J.A.MONTGOMERY       *
          *         J.COMPUT.CHEM.  14, 1347-1363(1993)        *
          **************** 64 BIT LINUX VERSION ****************

  SINCE 1993, STUDENTS AND POSTDOCS WORKING AT IOWA STATE UNIVERSITY
  AND ALSO IN THEIR VARIOUS JOBS AFTER LEAVING ISU HAVE MADE IMPORTANT
  CONTRIBUTIONS TO THE CODE:
     IVANA ADAMOVIC, CHRISTINE AIKENS, YURI ALEXEEV, POOJA ARORA,
     ANDREY ASADCHEV, ROB BELL, PRADIPTA BANDYOPADHYAY, JONATHAN BENTZ,
     COLLEEN BERTONI, BRETT BODE, KURT BRORSEN, CALEB CARLIN, GALINA CHABAN,
     WEI CHEN, CHEOL HO CHOI, PAUL DAY, ALBERT DEFUSCO, NUWAN DESILVA,
     TIM DUDLEY, DMITRI FEDOROV, ALEX FINDLATER, GRAHAM FLETCHER, 
     MARK FREITAG, KURT GLAESEMANN, EMILIE B GUIDEZ, ANASTASIA GUNINA, 
     DAN KEMP, SAROM SOK LEANG, GRANT MERRILL,
     NORIYUKI MINEZAWA, JONATHAN MULLIN,
     TAKESHI NAGATA, SEAN NEDD, HEATHER NETZLOFF, BOSILJKA NJEGIC, RYAN OLSON,
     MIKE PAK, BUU PHAM, DAVID POOLE,
     SPENCER PRUITT, LUKE ROSKOP, TOSAPORN SATTASATHUCHANA,
     JIM SHOEMAKER, LYUDMILA SLIPCHENKO,
     TONY SMITH, JIE SONG, TETSUYA TAKETSUGU, SIMON WEBB,
     JORGE LUIS GALVEZ VALLEJO, PENG XU, SOOHAENG YOO,
     FEDERICO ZAHARIEV

  ADDITIONAL CODE HAS BEEN PROVIDED BY COLLABORATORS IN OTHER GROUPS:
     IOWA STATE UNIVERSITY:
          JOE IVANIC, AARON WEST, LAIMUTIS BYTAUTAS, KLAUS RUEDENBERG
     UNIVERSITY OF TOKYO: KIMIHIKO HIRAO, TAKAHITO NAKAJIMA,
          TAKAO TSUNEDA, MUNEAKI KAMIYA, SUSUMU YANAGISAWA,
          KIYOSHI YAGI, MAHITO CHIBA, SEIKEN TOKURA, NAOAKI KAWAKAMI
     UNIVERSITY OF AARHUS: FRANK JENSEN
     UNIVERSITY OF IOWA: VISVALDAS KAIRYS, HUI LI
     NATIONAL INST. OF STANDARDS AND TECHNOLOGY: WALT STEVENS, DAVID GARMER
     UNIVERSITY OF PISA: BENEDETTA MENNUCCI, JACOPO TOMASI
     UNIVERSITY OF MEMPHIS: HENRY KURTZ, PRAKASHAN KORAMBATH
     UNIVERSITY OF ALBERTA: TOBY ZENG, MARIUSZ KLOBUKOWSKI
     UNIVERSITY OF NEW ENGLAND: MARK SPACKMAN
     MIE UNIVERSITY: HIROAKI UMEDA
     NAT. INST. OF ADVANCED INDUSTRIAL SCIENCE AND TECHNOLOGY: KAZUO KITAURA
     MICHIGAN STATE UNIVERSITY:
          KAROL KOWALSKI, MARTA WLOCH, JEFFREY GOUR, JESSE LUTZ,
          WEI LI, JUN SHEN, J. EMILIANO DEUSTUA, PIOTR PIECUCH
     UNIVERSITY OF MINNESOTA:
          ANDREW SAND, PRACHI SHARMA, YINAN SHU
     UNIVERSITY OF SILESIA: MONIKA MUSIAL, STANISLAW KUCHARSKI
     FACULTES UNIVERSITAIRES NOTRE-DAME DE LA PAIX:
          OLIVIER QUINET, BENOIT CHAMPAGNE
     UNIVERSITY OF CALIFORNIA - SANTA BARBARA: BERNARD KIRTMAN
     INSTITUTE FOR MOLECULAR SCIENCE:
          KAZUYA ISHIMURA, MICHIO KATOUDA, AND SHIGERU NAGASE
     UNIVERSITY OF NOTRE DAME: ANNA POMOGAEVA, DAN CHIPMAN
     KYUSHU UNIVERSITY:
          HARUYUKI NAKANO,
          FENG LONG GU, JACEK KORCHOWIEC, MARCIN MAKOWSKI, AND YURIKO AOKI,
          HIROTOSHI MORI AND EISAKU MIYOSHI
     PENNSYLVANIA STATE UNIVERSITY:
          TZVETELIN IORDANOV, CHET SWALINA, JONATHAN SKONE,
          SHARON HAMMES-SCHIFFER
     WASEDA UNIVERSITY:
          MASATO KOBAYASHI, TOMOKO AKAMA, TSUGUKI TOUMA,
          TAKESHI YOSHIKAWA, YASUHIRO IKABATA, JUNJI SEINO,
          YUYA NAKAJIMA, HIROMI NAKAI
     NANJING UNIVERSITY: SHUHUA LI
     UNIVERSITY OF NEBRASKA:
          PEIFENG SU, DEJUN SI, NANDUN THELLAMUREGE, YALI WANG, HUI LI
     UNIVERSITY OF ZURICH: ROBERTO PEVERATI, KIM BALDRIDGE
     N. COPERNICUS UNIVERSITY AND JACKSON STATE UNIVERSITY:
          MARIA BARYSZ
     UNIVERSITY OF COPENHAGEN: Jimmy Kromann, CASPER STEINMANN
     TOKYO INSTITUTE OF TECHNOLOGY: HIROYA NAKATA
     NAGOYA UNIVERSITY: YOSHIO NISHIMOTO, STEPHAN IRLE
     MOSCOW STATE UNIVERSITY: VLADIMIR MIRONOV
     A.N.NESMEYANOV INSTITUTE OF ORGANOELEMENT COMPOUNDS OF RUSSIAN ACADEMY OF SCIENCES:
          IGOR S. GERASIMOV
     JOHANNES KEPLER UNIVERSITY LINZ:
          CHRISTIAN FRIEDL


 PARALLEL VERSION RUNNING ON        8 PROCESSORS IN        1 NODES.

 EXECUTION OF GAMESS BEGUN Fri May 22 15:35:52 2020

            ECHO OF THE FIRST FEW INPUT CARDS -
 INPUT CARD> $BASIS GBASIS=N21 NGAUSS=3 $END                                                
 INPUT CARD> $CONTRL SCFTYP=RHF DFTTYP=B3LYP MAXIT=60 MULT=1 ICHARG=0 $END                  
 INPUT CARD> $SYSTEM MEMDDI=1000 MWORDS=30 $END                                             
 INPUT CARD> $SCF DIRSCF=.TRUE. $END                                                        
 INPUT CARD> $ELPOT  IEPOT=1 WHERE=PDC $END                                                 
 INPUT CARD> $PDC PTSEL=GEODESIC CONSTR=CHARGE $END                                         
 INPUT CARD> $DATA                                                                          
 INPUT CARD>                                                                                
 INPUT CARD>C1                                                                              
 INPUT CARD>O 8.0000000 3.9286894678 1.0572931887 -0.5415047047                             
 INPUT CARD>C 6.0000000 2.4833712585 1.0366658812 -0.5734078136                             
 INPUT CARD>C 6.0000000 2.0382411208 -0.3161328909 -0.0606686607                            
 INPUT CARD>O 8.0000000 2.7793525845 -1.1164965879 0.5209794551                             
 INPUT CARD>C 6.0000000 0.5827751173 -0.7030124452 -0.3063454594                            
 INPUT CARD>H 1.0000000 0.3680867719 -0.7720782624 -1.3800863918                            
 INPUT CARD>O 8.0000000 0.3566307559 -1.9691520766 0.3895138932                             
 INPUT CARD>C 6.0000000 -0.4106853106 0.2920531172 0.3333928366                             
 INPUT CARD>H 1.0000000 -0.1524239427 1.3242605970 0.0822451324                             
 INPUT CARD>O 8.0000000 -0.3611362355 0.1191388882 1.7705070764                             
 INPUT CARD>C 6.0000000 -1.8097792831 0.0120040602 -0.1975476768                            
 INPUT CARD>H 1.0000000 -2.0568528533 -1.0438716062 -0.0214302865                           
 INPUT CARD>O 8.0000000 -1.7742683519 0.3333341702 -1.6181624140                            
 INPUT CARD>C 6.0000000 -2.8575273233 0.8918365971 0.4754326183                             
 INPUT CARD>O 8.0000000 -4.0574996409 0.6545941763 -0.3418149507                            
 INPUT CARD>H 1.0000000 4.2228282421 1.9828265842 -0.7543373623                             
 INPUT CARD>H 1.0000000 2.0246305856 1.7948824250 0.0848288216                              
 INPUT CARD>H 1.0000000 2.0558384288 1.1793291705 -1.5799152545                             
 INPUT CARD>H 1.0000000 1.2883650935 -2.2597941753 0.6498479494                             
 INPUT CARD>H 1.0000000 -0.2119415732 -0.8768666587 1.8360286095                            
 INPUT CARD>H 1.0000000 -2.7420965883 0.4338905362 -1.8527417088                            
 INPUT CARD>H 1.0000000 -2.9752318416 0.6020751970 1.5234447944                             
 INPUT CARD>H 1.0000000 -2.5364112319 1.9417193777 0.4183462882                             
 INPUT CARD>H 1.0000000 -4.7631552505 1.2983007365 -0.0718046914                            
 INPUT CARD> $END                                                                           
   30000000 WORDS OF MEMORY AVAILABLE

     BASIS OPTIONS
     -------------
     GBASIS=N21          IGAUSS=       3      POLAR=NONE    
     NDFUNC=       0     NFFUNC=       0     DIFFSP=       F
     NPFUNC=       0      DIFFS=       F     BASNAM=        


     RUN TITLE
     ---------
                                                                                 

 THE POINT GROUP OF THE MOLECULE IS C1      
 THE ORDER OF THE PRINCIPAL AXIS IS     0

 ATOM      ATOMIC                      COORDINATES (BOHR)
           CHARGE         X                   Y                   Z
 O           8.0     7.4241465850        1.9979944153       -1.0232955129
 C           6.0     4.6928912043        1.9590144563       -1.0835836469
 C           6.0     3.8517172152       -0.5974045395       -0.1146471448
 O           8.0     5.2522148080       -2.1098726174        0.9845084154
 C           6.0     1.1012852842       -1.3285008874       -0.5789089758
 H           1.0     0.6955831386       -1.4590163570       -2.6079851199
 O           8.0     0.6739344074       -3.7211578529        0.7360745266
 C           6.0    -0.7760827042        0.5519003654        0.6300211074
 H           1.0    -0.2880394857        2.5024896647        0.1554207641
 O           8.0    -0.6824485293        0.2251398532        3.3457732337
 C           6.0    -3.4199869433        0.0226843845       -0.3733109787
 H           1.0    -3.8868882898       -1.9726313021       -0.0404973693
 O           8.0    -3.3528810138        0.6299102440       -3.0578835661
 C           6.0    -5.3999436435        1.6853267943        0.8984373742
 O           8.0    -7.6675625166        1.2370036264       -0.6459365953
 H           1.0     7.9799882708        3.7469989253       -1.4254909170
 H           1.0     3.8259970331        3.3918359634        0.1603032287
 H           1.0     3.8849713055        2.2286089816       -2.9856069148
 H           1.0     2.4346569989       -4.2703917800        1.2280345580
 H           1.0    -0.4005114988       -1.6570377127        3.4695909776
 H           1.0    -5.1818111838        0.8199342221       -3.5011741557
 H           1.0    -5.6223729306        1.1377571463        2.8788932188
 H           1.0    -4.7931222205        3.6693175689        0.7905598527
 H           1.0    -9.0010582604        2.4534326416       -0.1356911914

          INTERNUCLEAR DISTANCES (ANGS.)
          ------------------------------

                1 O          2 C          3 C          4 O          5 C     

   1 O       0.0000000    1.4458174 *  2.3856440 *  2.6786582 *  3.7880231  
   2 C       1.4458174 *  0.0000000    1.5136402 *  2.4333921 *  2.5903800 *
   3 C       2.3856440 *  1.5136402 *  0.0000000    1.2361807 *  1.5259142 *
   4 O       2.6786582 *  2.4333921 *  1.2361807 *  0.0000000    2.3833565 *
   5 C       3.7880231    2.5903800 *  1.5259142 *  2.3833565 *  0.0000000  
   6 H       4.0899524    2.8977084 *  2.1767326 *  3.0898023    1.0971694 *
   7 O       4.7734443    3.8059407    2.4006145 *  2.5717476 *  1.4623512 *
   8 C       4.4923503    3.1228671    2.5539020 *  3.4922117    1.5447926 *
   9 H       4.1371273    2.7313015 *  2.7404979 *  3.8399345    2.1911997 *
  10 O       4.9626743    3.7982912    3.0495373    3.5987198    2.4249161 *
  11 C       5.8430266    4.4297115    3.8644108    4.7801596    2.4994804 *
  12 H       6.3649107    5.0246344    4.1594396    4.8670695    2.6767513 *
  13 O       5.8486782    4.4400093    4.1692712    5.2357808    2.8897287 *
  14 C       6.8639840    5.4448360    5.0710101    5.9841367    3.8717440  
  15 O       7.9988286    6.5561121    6.1789489    7.1150351    4.8349254  
  16 H       0.9941969 *  1.9883828 *  3.2463536    3.6490902    4.5458129  
  17 H       2.1358305 *  1.1039071 *  2.1160672 *  3.0390723    2.9105744 *
  18 H       2.1449383 *  1.1028120 *  2.1318599 *  3.1950035    2.7083400 *
  19 H       4.4038282    3.7136294    2.2011286 *  1.8832897 *  1.9585026 *
  20 H       5.1515497    4.0904403    2.9958647 *  3.2763726    2.2916297 *
  21 H       6.8269583    5.4134599    5.1600087    6.2068231    3.8390965  
  22 H       7.2204826    5.8636173    5.3373620    6.0888150    4.2084201  
  23 H       6.5955326    5.1962404    5.1239434    6.1335604    4.1532045  
  24 H       8.7078624    7.2685765    6.9903872    7.9417922    5.7130758  

                6 H          7 O          8 C          9 H         10 O     

   1 O       4.0899524    4.7734443    4.4923503    4.1371273    4.9626743  
   2 C       2.8977084 *  3.8059407    3.1228671    2.7313015 *  3.7982912  
   3 C       2.1767326 *  2.4006145 *  2.5539020 *  2.7404979 *  3.0495373  
   4 O       3.0898023    2.5717476 *  3.4922117    3.8399345    3.5987198  
   5 C       1.0971694 *  1.4623512 *  1.5447926 *  2.1911997 *  2.4249161 *
   6 H       0.0000000    2.1364930 *  2.1621454 *  2.6084443 *  3.3544408  
   7 O       2.1364930 *  0.0000000    2.3885084 *  3.3466577    2.6044751 *
   8 C       2.1621454 *  2.3885084 *  0.0000000    1.0932641 *  1.4483272 *
   9 H       2.6084443 *  3.3466577    1.0932641 *  0.0000000    2.0847320 *
  10 O       3.3544408    2.6044751 *  1.4483272 *  2.0847320 *  0.0000000  
  11 C       2.5992852 *  2.9938192 *  1.5224287 *  2.1323996 *  2.4460752 *
  12 H       2.7928749 *  2.6172356 *  2.1495260 *  3.0406657    2.7274691 *
  13 O       2.4224579 *  3.7246393    2.3810986 *  2.5502353 *  3.6777579  
  14 C       4.0762912    4.3038878    2.5232819 *  2.7675208 *  2.9165473 *
  15 O       4.7643695    5.1868520    3.7264724    3.9847078    4.2908879  
  16 H       4.7791311    5.6457076    5.0508732    4.5029336    5.5552589  
  17 H       3.3881265    4.1283183    2.8724630 *  2.2273433 *  3.3677160  
  18 H       2.5877458 *  4.0839799    3.2452652    2.7677075 *  4.2651025  
  19 H       2.6797097 *  1.0101364 *  3.0820189    3.9042918    3.1041994  
  20 H       3.2696803    1.8996754 *  1.9141021 *  2.8150062 *  1.0092468 *
  21 H       3.3691252    4.5171269    3.1991844    3.3531086    4.3469498  
  22 H       4.6364394    4.3587059    2.8441583 *  3.2506696    2.6697871 *
  23 H       4.3629309    4.8647136    2.6920859 *  2.4854808 *  3.1435585  
  24 H       5.6857466    6.0910813    4.4856119    4.6133771    4.9155169  

               11 C         12 H         13 O         14 C         15 O     

   1 O       5.8430266    6.3649107    5.8486782    6.8639840    7.9988286  
   2 C       4.4297115    5.0246344    4.4400093    5.4448360    6.5561121  
   3 C       3.8644108    4.1594396    4.1692712    5.0710101    6.1789489  
   4 O       4.7801596    4.8670695    5.2357808    5.9841367    7.1150351  
   5 C       2.4994804 *  2.6767513 *  2.8897287 *  3.8717440    4.8349254  
   6 H       2.5992852 *  2.7928749 *  2.4224579 *  4.0762912    4.7643695  
   7 O       2.9938192 *  2.6172356 *  3.7246393    4.3038878    5.1868520  
   8 C       1.5224287 *  2.1495260 *  2.3810986 *  2.5232819 *  3.7264724  
   9 H       2.1323996 *  3.0406657    2.5502353 *  2.7675208 *  3.9847078  
  10 O       2.4460752 *  2.7274691 *  3.6777579    2.9165473 *  4.2908879  
  11 C       0.0000000    1.0986064 *  1.4569352 *  1.5247241 *  2.3422173 *
  12 H       1.0986064 *  0.0000000    2.1274640 *  2.1528861 *  2.6438646 *
  13 O       1.4569352 *  2.1274640 *  0.0000000    2.4225018 *  2.6354157 *
  14 C       1.5247241 *  2.1528861 *  2.4225018 *  0.0000000    1.4710918 *
  15 O       2.3422173 *  2.6438646 *  2.6354157 *  1.4710918 *  0.0000000  
  16 H       6.3707543    7.0094543    6.2795053    7.2687020    8.3963210  
  17 H       4.2380527    4.9727580    4.4122484    4.9803141    6.2027889  
  18 H       4.2680895    4.9280551    3.9226124    5.3336920    6.2594841  
  19 H       3.9341638    3.6220940    4.6095454    5.2107218    6.1688998  
  20 H       2.7347046 *  2.6233074 *  3.9795586    3.4610196    4.6772526  
  21 H       1.9459884 *  2.4509267 *  1.0009148 *  2.3755914 *  2.0154143 *
  22 H       2.1606200 *  2.4370474 *  3.3740526    1.0936844 *  2.1571406 *
  23 H       2.1520039 *  3.0556723    2.7046502 *  1.0993763 *  2.1326618 *
  24 H       3.2237866    3.5794387    3.5008324    2.0238823 *  0.9925792 *

               16 H         17 H         18 H         19 H         20 H     

   1 O       0.9941969 *  2.1358305 *  2.1449383 *  4.4038282    5.1515497  
   2 C       1.9883828 *  1.1039071 *  1.1028120 *  3.7136294    4.0904403  
   3 C       3.2463536    2.1160672 *  2.1318599 *  2.2011286 *  2.9958647 *
   4 O       3.6490902    3.0390723    3.1950035    1.8832897 *  3.2763726  
   5 C       4.5458129    2.9105744 *  2.7083400 *  1.9585026 *  2.2916297 *
   6 H       4.7791311    3.3881265    2.5877458 *  2.6797097 *  3.2696803  
   7 O       5.6457076    4.1283183    4.0839799    1.0101364 *  1.8996754 *
   8 C       5.0508732    2.8724630 *  3.2452652    3.0820189    1.9141021 *
   9 H       4.5029336    2.2273433 *  2.7677075 *  3.9042918    2.8150062 *
  10 O       5.5552589    3.3677160    4.2651025    3.1041994    1.0092468 *
  11 C       6.3707543    4.2380527    4.2680895    3.9341638    2.7347046 *
  12 H       7.0094543    4.9727580    4.9280551    3.6220940    2.6233074 *
  13 O       6.2795053    4.4122484    3.9226124    4.6095454    3.9795586  
  14 C       7.2687020    4.9803141    5.3336920    5.2107218    3.4610196  
  15 O       8.3963210    6.2027889    6.2594841    6.1688998    4.6772526  
  16 H       0.0000000    2.3604228 *  2.4541866 *  5.3462736    5.8783522  
  17 H       2.3604228 *  0.0000000    1.7751768 *  4.1595355    3.8996409  
  18 H       2.4541866 *  1.7751768 *  0.0000000    4.1699435    4.5868769  
  19 H       5.3462736    4.1595355    4.1699435    0.0000000    2.3601765 *
  20 H       5.8783522    3.8996409    4.5868769    2.3601765 *  0.0000000  
  21 H       7.2191324    5.3224211    4.8631567    5.4555947    4.6612011  
  22 H       7.6750788    5.3376989    5.9393378    5.2088124    3.1497223  
  23 H       6.8603349    4.5755762    5.0658706    5.6864069    3.9188531  
  24 H       9.0378275    6.8077283    6.9847854    7.0570334    5.3930258  

               21 H         22 H         23 H         24 H     

   1 O       6.8269583    7.2204826    6.5955326    8.7078624  
   2 C       5.4134599    5.8636173    5.1962404    7.2685765  
   3 C       5.1600087    5.3373620    5.1239434    6.9903872  
   4 O       6.2068231    6.0888150    6.1335604    7.9417922  
   5 C       3.8390965    4.2084201    4.1532045    5.7130758  
   6 H       3.3691252    4.6364394    4.3629309    5.6857466  
   7 O       4.5171269    4.3587059    4.8647136    6.0910813  
   8 C       3.1991844    2.8441583 *  2.6920859 *  4.4856119  
   9 H       3.3531086    3.2506696    2.4854808 *  4.6133771  
  10 O       4.3469498    2.6697871 *  3.1435585    4.9155169  
  11 C       1.9459884 *  2.1606200 *  2.1520039 *  3.2237866  
  12 H       2.4509267 *  2.4370474 *  3.0556723    3.5794387  
  13 O       1.0009148 *  3.3740526    2.7046502 *  3.5008324  
  14 C       2.3755914 *  1.0936844 *  1.0993763 *  2.0238823 *
  15 O       2.0154143 *  2.1571406 *  2.1326618 *  0.9925792 *
  16 H       7.2191324    7.6750788    6.8603349    9.0378275  
  17 H       5.3224211    5.3376989    4.5755762    6.8077283  
  18 H       4.8631567    5.9393378    5.0658706    6.9847854  
  19 H       5.4555947    5.2088124    5.6864069    7.0570334  
  20 H       4.6612011    3.1497223    3.9188531    5.3930258  
  21 H       0.0000000    3.3884028    2.7338059 *  2.8290669 *
  22 H       3.3884028    0.0000000    1.7912154 *  2.4952397 *
  23 H       2.7338059 *  1.7912154 *  0.0000000    2.3690978 *
  24 H       2.8290669 *  2.4952397 *  2.3690978 *  0.0000000  

  * ... LESS THAN  3.000


     ATOMIC BASIS SET
     ----------------
 THE CONTRACTED PRIMITIVE FUNCTIONS HAVE BEEN UNNORMALIZED
 THE CONTRACTED BASIS FUNCTIONS ARE NOW NORMALIZED TO UNITY

  SHELL TYPE  PRIMITIVE        EXPONENT          CONTRACTION COEFFICIENT(S)

 O         

      1   S       1           322.0370000    0.059239393389
      1   S       2            48.4308000    0.351499960776
      1   S       3            10.4206000    0.707657921031

      2   L       4             7.4029400   -0.404453583190    0.244586106967
      2   L       5             1.5762000    1.221561761397    0.853955373466

      3   L       6             0.3736840    1.000000000000    1.000000000000

 C         

      4   S       7           172.2560000    0.061766907377
      4   S       8            25.9109000    0.358794042852
      4   S       9             5.5333500    0.700713083689

      5   L      10             3.6649800   -0.395895162119    0.236459946619
      5   L      11             0.7705450    1.215834355681    0.860618805716

      6   L      12             0.1958570    1.000000000000    1.000000000000

 C         

      7   S      13           172.2560000    0.061766907377
      7   S      14            25.9109000    0.358794042852
      7   S      15             5.5333500    0.700713083689

      8   L      16             3.6649800   -0.395895162119    0.236459946619
      8   L      17             0.7705450    1.215834355681    0.860618805716

      9   L      18             0.1958570    1.000000000000    1.000000000000

 O         

     10   S      19           322.0370000    0.059239393389
     10   S      20            48.4308000    0.351499960776
     10   S      21            10.4206000    0.707657921031

     11   L      22             7.4029400   -0.404453583190    0.244586106967
     11   L      23             1.5762000    1.221561761397    0.853955373466

     12   L      24             0.3736840    1.000000000000    1.000000000000

 C         

     13   S      25           172.2560000    0.061766907377
     13   S      26            25.9109000    0.358794042852
     13   S      27             5.5333500    0.700713083689

     14   L      28             3.6649800   -0.395895162119    0.236459946619
     14   L      29             0.7705450    1.215834355681    0.860618805716

     15   L      30             0.1958570    1.000000000000    1.000000000000

 H         

     16   S      31             5.4471780    0.156284978695
     16   S      32             0.8245472    0.904690876670

     17   S      33             0.1831916    1.000000000000

 O         

     18   S      34           322.0370000    0.059239393389
     18   S      35            48.4308000    0.351499960776
     18   S      36            10.4206000    0.707657921031

     19   L      37             7.4029400   -0.404453583190    0.244586106967
     19   L      38             1.5762000    1.221561761397    0.853955373466

     20   L      39             0.3736840    1.000000000000    1.000000000000

 C         

     21   S      40           172.2560000    0.061766907377
     21   S      41            25.9109000    0.358794042852
     21   S      42             5.5333500    0.700713083689

     22   L      43             3.6649800   -0.395895162119    0.236459946619
     22   L      44             0.7705450    1.215834355681    0.860618805716

     23   L      45             0.1958570    1.000000000000    1.000000000000

 H         

     24   S      46             5.4471780    0.156284978695
     24   S      47             0.8245472    0.904690876670

     25   S      48             0.1831916    1.000000000000

 O         

     26   S      49           322.0370000    0.059239393389
     26   S      50            48.4308000    0.351499960776
     26   S      51            10.4206000    0.707657921031

     27   L      52             7.4029400   -0.404453583190    0.244586106967
     27   L      53             1.5762000    1.221561761397    0.853955373466

     28   L      54             0.3736840    1.000000000000    1.000000000000

 C         

     29   S      55           172.2560000    0.061766907377
     29   S      56            25.9109000    0.358794042852
     29   S      57             5.5333500    0.700713083689

     30   L      58             3.6649800   -0.395895162119    0.236459946619
     30   L      59             0.7705450    1.215834355681    0.860618805716

     31   L      60             0.1958570    1.000000000000    1.000000000000

 H         

     32   S      61             5.4471780    0.156284978695
     32   S      62             0.8245472    0.904690876670

     33   S      63             0.1831916    1.000000000000

 O         

     34   S      64           322.0370000    0.059239393389
     34   S      65            48.4308000    0.351499960776
     34   S      66            10.4206000    0.707657921031

     35   L      67             7.4029400   -0.404453583190    0.244586106967
     35   L      68             1.5762000    1.221561761397    0.853955373466

     36   L      69             0.3736840    1.000000000000    1.000000000000

 C         

     37   S      70           172.2560000    0.061766907377
     37   S      71            25.9109000    0.358794042852
     37   S      72             5.5333500    0.700713083689

     38   L      73             3.6649800   -0.395895162119    0.236459946619
     38   L      74             0.7705450    1.215834355681    0.860618805716

     39   L      75             0.1958570    1.000000000000    1.000000000000

 O         

     40   S      76           322.0370000    0.059239393389
     40   S      77            48.4308000    0.351499960776
     40   S      78            10.4206000    0.707657921031

     41   L      79             7.4029400   -0.404453583190    0.244586106967
     41   L      80             1.5762000    1.221561761397    0.853955373466

     42   L      81             0.3736840    1.000000000000    1.000000000000

 H         

     43   S      82             5.4471780    0.156284978695
     43   S      83             0.8245472    0.904690876670

     44   S      84             0.1831916    1.000000000000

 H         

     45   S      85             5.4471780    0.156284978695
     45   S      86             0.8245472    0.904690876670

     46   S      87             0.1831916    1.000000000000

 H         

     47   S      88             5.4471780    0.156284978695
     47   S      89             0.8245472    0.904690876670

     48   S      90             0.1831916    1.000000000000

 H         

     49   S      91             5.4471780    0.156284978695
     49   S      92             0.8245472    0.904690876670

     50   S      93             0.1831916    1.000000000000

 H         

     51   S      94             5.4471780    0.156284978695
     51   S      95             0.8245472    0.904690876670

     52   S      96             0.1831916    1.000000000000

 H         

     53   S      97             5.4471780    0.156284978695
     53   S      98             0.8245472    0.904690876670

     54   S      99             0.1831916    1.000000000000

 H         

     55   S     100             5.4471780    0.156284978695
     55   S     101             0.8245472    0.904690876670

     56   S     102             0.1831916    1.000000000000

 H         

     57   S     103             5.4471780    0.156284978695
     57   S     104             0.8245472    0.904690876670

     58   S     105             0.1831916    1.000000000000

 H         

     59   S     106             5.4471780    0.156284978695
     59   S     107             0.8245472    0.904690876670

     60   S     108             0.1831916    1.000000000000

 TOTAL NUMBER OF BASIS SET SHELLS             =   60
 NUMBER OF CARTESIAN GAUSSIAN BASIS FUNCTIONS =  132
 NUMBER OF ELECTRONS                          =   96
 CHARGE OF MOLECULE                           =    0
 SPIN MULTIPLICITY                            =    1
 NUMBER OF OCCUPIED ORBITALS (ALPHA)          =   48
 NUMBER OF OCCUPIED ORBITALS (BETA )          =   48
 TOTAL NUMBER OF ATOMS                        =   24
 THE NUCLEAR REPULSION ENERGY IS      780.8260165249

 SELECTED MURRAY-HANDY-LAMING RADIAL GRID

 LEGACY BECKE'S FUZZY CELL METHOD

 SELECTED ORIGINAL BECKE'S PARTITION FUNCTION

     LEBEDEV GRID-BASED DFT OPTIONS
     ------------------------------
     DFTTYP=B3LYP   
     NRAD  =      96     NLEB  =     302
     NRAD0 =      24     NLEB0 =     110
     SWOFF =    5.00E-03 (PURE SCF -> DFT)
     SWITCH=    3.00E-04 (COARSE -> TIGHT GRID)
     THRESH=    0.00E+00 GTHRE=    1.00E+00

 GRIMME'S EMPIRICAL DISPERSION CORRECTION= F

     $CONTRL OPTIONS
     ---------------
 SCFTYP=RHF          RUNTYP=ENERGY       EXETYP=RUN     
 MPLEVL=       0     CITYP =NONE         CCTYP =NONE         VBTYP =NONE    
 DFTTYP=B3LYP        TDDFT =NONE    
 MULT  =       1     ICHARG=       0     NZVAR =       0     COORD =UNIQUE  
 PP    =NONE         RELWFN=NONE         LOCAL =NONE         NUMGRD=       F
 ISPHER=      -1     NOSYM =       0     MAXIT =      60     UNITS =ANGS    
 PLTORB=       F     MOLPLT=       F     AIMPAC=       F     FRIEND=        
 NPRINT=       7     IREST =       0     GEOM  =INPUT   
 NORMF =       0     NORMP =       0     ITOL  =      20     ICUT  =       9
 INTTYP=BEST         GRDTYP=BEST         QMTTOL= 1.0E-06

     $SYSTEM OPTIONS
     ---------------
  REPLICATED MEMORY=    30000000 WORDS (ON EVERY NODE).
 DISTRIBUTED MEMDDI=        1000 MILLION WORDS IN AGGREGATE,
 MEMDDI DISTRIBUTED OVER   8 PROCESSORS IS   125000000 WORDS/PROCESSOR.
 TOTAL MEMORY REQUESTED ON EACH PROCESSOR=   155000000 WORDS.
 TIMLIM=      525600.00 MINUTES, OR     365.0 DAYS.
 PARALL= T  BALTYP=  DLB     KDIAG=    0  COREFL= F
 MXSEQ2=     300 MXSEQ3=     150  mem10=         0

     INPUT FOR POTENTIAL-DERIVED CHARGES 
     -----------------------------------
     VDWSCL=    1.40   RMAX=    3.00   DELR=    0.80
     VDWINC=    0.20 PTDENS=    0.28
     LAYER =       4  NFREQ=      30 MAXPDC=   10000
     CONSTR=CHARGE    UNITS=ANGS      PTSEL=GEODESIC
     CENTER=  0.0000  0.0000  0.0000
     DPOLE =  0.0000  0.0000  0.0000
     QPOLE =  0.0000  0.0000  0.0000  0.0000  0.0000  0.0000


          ----------------
          PROPERTIES INPUT
          ----------------

     MOMENTS            FIELD           POTENTIAL          DENSITY
 IEMOM =       1   IEFLD =       0   IEPOT =       1   IEDEN =       0
 WHERE =COMASS     WHERE =NUCLEI     WHERE =PDC        WHERE =NUCLEI  
 OUTPUT=BOTH       OUTPUT=BOTH       OUTPUT=BOTH       OUTPUT=BOTH    
 IEMINT=       0   IEFINT=       0                     IEDINT=       0
                                                       MORB  =       0
          EXTRAPOLATION IN EFFECT
          DIIS IN EFFECT
 ORBITAL PRINTING OPTION: NPREO=     1   132     2     1

     -------------------------------
     INTEGRAL TRANSFORMATION OPTIONS
     -------------------------------
     NWORD  =            0
     CUTOFF = 1.0E-09     MPTRAN =       0
     DIRTRF =       T     AOINTS =DUP     

          ----------------------
          INTEGRAL INPUT OPTIONS
          ----------------------
 NOPK  =       1 NORDER=       0 SCHWRZ=       T

     ------------------------------------------
     THE POINT GROUP IS C1 , NAXIS= 0, ORDER= 1
     ------------------------------------------

     DIMENSIONS OF THE SYMMETRY SUBSPACES ARE
 A   =  132

 ..... DONE SETTING UP THE RUN .....
 CPU     0: STEP CPU TIME=     0.02 TOTAL CPU TIME=          0.0 (      0.0 MIN)
 TOTAL WALL CLOCK TIME=          0.0 SECONDS, CPU UTILIZATION IS    66.67%

          ********************
          1 ELECTRON INTEGRALS
          ********************
 ...... END OF ONE-ELECTRON INTEGRALS ......
 CPU     0: STEP CPU TIME=     0.02 TOTAL CPU TIME=          0.0 (      0.0 MIN)
 TOTAL WALL CLOCK TIME=          0.1 SECONDS, CPU UTILIZATION IS    80.00%

          -------------
          GUESS OPTIONS
          -------------
          GUESS =HUCKEL            NORB  =       0          NORDER=       0
          MIX   =       F          PRTMO =       F          PUNMO =       F
          TOLZ  = 1.0E-08          TOLE  = 1.0E-05
          SYMDEN=       F          PURIFY=       F

 INITIAL GUESS ORBITALS GENERATED BY HUCKEL   ROUTINE.
 HUCKEL GUESS REQUIRES    164928 WORDS.

 SYMMETRIES FOR INITIAL GUESS ORBITALS FOLLOW.   BOTH SET(S).
    48 ORBITALS ARE OCCUPIED (   12 CORE ORBITALS).
    13=A       14=A       15=A       16=A       17=A       18=A       19=A   
    20=A       21=A       22=A       23=A       24=A       25=A       26=A   
    27=A       28=A       29=A       30=A       31=A       32=A       33=A   
    34=A       35=A       36=A       37=A       38=A       39=A       40=A   
    41=A       42=A       43=A       44=A       45=A       46=A       47=A   
    48=A       49=A       50=A       51=A       52=A       53=A       54=A   
    55=A       56=A       57=A       58=A   
 ...... END OF INITIAL ORBITAL SELECTION ......
 CPU     0: STEP CPU TIME=     0.03 TOTAL CPU TIME=          0.1 (      0.0 MIN)
 TOTAL WALL CLOCK TIME=          0.1 SECONDS, CPU UTILIZATION IS    77.78%

                    ----------------------
                    AO INTEGRAL TECHNOLOGY
                    ----------------------
     S,P,L SHELL ROTATED AXIS INTEGRALS, REPROGRAMMED BY
        KAZUYA ISHIMURA (IMS) AND JOSE SIERRA (SYNSTAR).
     S,P,D,L SHELL ROTATED AXIS INTEGRALS PROGRAMMED BY
        KAZUYA ISHIMURA (INSTITUTE FOR MOLECULAR SCIENCE).
     S,P,D,F,G SHELL TO TOTAL QUARTET ANGULAR MOMENTUM SUM 5,
        ERIC PROGRAM BY GRAHAM FLETCHER (ELORET AND NASA ADVANCED
        SUPERCOMPUTING DIVISION, AMES RESEARCH CENTER).
     S,P,D,F,G,L SHELL GENERAL RYS QUADRATURE PROGRAMMED BY
        MICHEL DUPUIS (PACIFIC NORTHWEST NATIONAL LABORATORY).

          --------------------
          2 ELECTRON INTEGRALS
          --------------------

 DIRECT SCF METHOD SKIPS INTEGRAL STORAGE ON DISK.
 DIRECT TRANSFORMATION SKIPS AO INTEGRAL STORAGE ON DISK.
  ...... END OF TWO-ELECTRON INTEGRALS .....
 CPU     0: STEP CPU TIME=     0.02 TOTAL CPU TIME=          0.1 (      0.0 MIN)
 TOTAL WALL CLOCK TIME=          0.1 SECONDS, CPU UTILIZATION IS    81.82%

          --------------------------
             R-B3LYP SCF CALCULATION
          --------------------------

     NUCLEAR ENERGY =       780.8260165249
     MAXIT =   60     NPUNCH=    2
     EXTRAP=T  DAMP=F  SHIFT=F  RSTRCT=F  DIIS=T  DEM=F  SOSCF=F
         DENSITY MATRIX CONVERGENCE THRESHOLD=  2.00E-05
     COARSE -> FINE DFT GRID SWITCH THRESHOLD=  3.00E-04 (SWITCH IN $DFT)
                   HF -> DFT SWITCH THRESHOLD=  5.00E-03 (SWOFF IN $DFT)
     MEMORY REQUIRED FOR RHF ITERS=    955663 WORDS.

 DIRECT SCF CALCULATION, SCHWRZ=T   FDIFF=T,  DIRTHR=  0.00E+00 NITDIR=10
 SCHWARZ INEQUALITY OVERHEAD:      7818 INTEGRALS, T=        0.00

 DFT CODE IS SWITCHING FROM THE FINE GRID NRAD= 96,  NLEB=  302
                      TO THE COARSE GRID NRAD0= 24, NLEB0=  110

     EXCHANGE FUNCTIONAL   =B88&HFX   
     CORRELATION FUNCTIONAL=LYP88&VWN5
     DFT THRESHOLD         =.575E-08
     GRID CHANGE THRESHOLD =.300E-03
 FOR AN EULER-MACLAURIN QUADRATURE USING  96 RADIAL POINTS:
 SMALLEST GAUSSIAN PRIMITIVE EXPONENT=        0.1831915800 OF TYPE -S-
 ON ATOM NUMBER   6 HAS RADIAL NORMALIZATION=  1.000000
  LARGEST GAUSSIAN PRIMITIVE EXPONENT=      322.0370000000 OF TYPE -S-
 ON ATOM NUMBER   1 HAS RADIAL NORMALIZATION=  1.000000
 DFT IS SWITCHED OFF, PERFORMING PURE SCF UNTIL SWOFF THRESHOLD IS REACHED.

                                                                                   NONZERO     BLOCKS
 ITER EX DEM     TOTAL ENERGY        E CHANGE  DENSITY CHANGE    DIIS ERROR      INTEGRALS    SKIPPED
   1  0  0     -677.6089352017  -677.6089352017   0.874867983   0.635074598       18105770     967744
          * * *   INITIATING DIIS PROCEDURE   * * *
   2  1  0     -679.3456643970    -1.7367291953   0.133132741   0.189870827       18077231     980504
   3  2  0     -679.4471707585    -0.1015063615   0.131369549   0.146148905       17878908    1018545
   4  3  0     -679.5080442273    -0.0608734688   0.029561098   0.020500344       17612623    1049413
   5  4  0     -679.5112315032    -0.0031872758   0.005828186   0.005131079       17216901    1076752
   6  5  0     -679.5114571201    -0.0002256169   0.002364995   0.001501358       16349064    1124635
 CONVERGED TO SWOFF, SO DFT CALCULATION IS NOW SWITCHED ON.
          * * *   INITIATING DIIS PROCEDURE   * * *
   7  6  0     -682.9236821034    -3.4122249833   0.138487313   0.066499535       18125837     958958
   8  7  0     -682.9718013616    -0.0481192582   0.135612597   0.061422389       17943445    1010633
   9  8  0     -682.9624939981     0.0093073635   0.080003252   0.104990258       17714018    1036811
  10  9  0     -682.9851469921    -0.0226529941   0.012090794   0.022156283       17447323    1061922
  11 10  0     -682.9862944076    -0.0011474155   0.003122791   0.003333479       16794009    1101456
  12 11  0     -682.9863330161    -0.0000386086   0.000584780   0.000674277       15717852    1158003
  13 12  0     -682.9863359812    -0.0000029651   0.000212043   0.000158487       14819926    1192550
 DFT CODE IS SWITCHING BACK TO THE FINE GRID
          * * *   INITIATING DIIS PROCEDURE   * * *
  14 13  0     -682.9891532022    -0.0028172210   0.002622619   0.000968945       18133195     955031
  15 14  0     -682.9891973213    -0.0000441191   0.001580094   0.000319488       16338614    1130347
  16 15  0     -682.9891980609    -0.0000007396   0.000523318   0.000379900       15226347    1177735
  17 16  0     -682.9891999799    -0.0000019189   0.000194188   0.000172005       14461623    1209608
  18 17  0     -682.9892001010    -0.0000001211   0.000075640   0.000094166       13385370    1257418
  19 18  0     -682.9892001178    -0.0000000169   0.000017550   0.000032867       12161947    1306431
  20 19  0     -682.9892001201    -0.0000000023   0.000004447   0.000008170       11312191    1336528

          -----------------
          DENSITY CONVERGED
          -----------------
     TIME TO FORM FOCK OPERATORS=      23.3 SECONDS (       1.2 SEC/ITER)
     FOCK TIME ON FIRST ITERATION=       0.2, LAST ITERATION=       2.8
     TIME TO SOLVE SCF EQUATIONS=       0.4 SECONDS (       0.0 SEC/ITER)

 FINAL R-B3LYP ENERGY IS     -682.9892001201 AFTER  20 ITERATIONS
 DFT EXCHANGE + CORRELATION ENERGY =       -71.1004105705
 TOTAL ELECTRON NUMBER             =        96.0000851562

          ------------
          EIGENVECTORS
          ------------

                      1          2          3          4          5
                  -19.0611   -19.0417   -19.0399   -19.0393   -19.0152
                     A          A          A          A          A   
    1  O  1  S   -0.002601  -0.003487  -0.083046   0.978927  -0.001144
    2  O  1  S   -0.000614  -0.000412  -0.009088   0.104278   0.000013
    3  O  1  X    0.000024   0.000016   0.000268  -0.002835  -0.000011
    4  O  1  Y   -0.000470  -0.000020  -0.000323   0.002552  -0.000024
    5  O  1  Z    0.000056   0.000007   0.000096  -0.000665  -0.000002
    6  O  1  S    0.002449   0.000366   0.005336  -0.049010  -0.000455
    7  O  1  X   -0.000906  -0.000119  -0.001277   0.009166   0.000264
    8  O  1  Y    0.001857   0.000057   0.000783  -0.004783   0.000136
    9  O  1  Z   -0.000223  -0.000009  -0.000275   0.001220  -0.000001
   10  C  2  S   -0.000059   0.000016   0.000086  -0.000923  -0.000134
   11  C  2  S   -0.000503   0.000070   0.000185  -0.003815  -0.000700
   12  C  2  X    0.000145   0.000050   0.000287   0.001662  -0.000086
   13  C  2  Y   -0.000046   0.000028   0.000359   0.000430  -0.000265
   14  C  2  Z    0.000143   0.000001  -0.000133  -0.000190   0.000135
   15  C  2  S    0.008237  -0.000706  -0.005503   0.022972   0.005445
   16  C  2  X   -0.008447  -0.000242  -0.002515   0.010682  -0.000987
   17  C  2  Y   -0.002587   0.000145   0.001090  -0.003583  -0.001626
   18  C  2  Z   -0.001593  -0.000251  -0.000166   0.002502   0.000447
   19  C  3  S    0.000171   0.000001   0.000188   0.000233   0.000129
   20  C  3  S    0.001499  -0.000091   0.000318   0.000794   0.001157
   21  C  3  X    0.000935   0.000127   0.000559  -0.000304  -0.000300
   22  C  3  Y   -0.000946  -0.000073   0.000022  -0.000151   0.000399
   23  C  3  Z    0.000755  -0.000022   0.000120   0.000045  -0.000191
   24  C  3  S    0.017299  -0.000956  -0.007788  -0.008419  -0.002512
   25  C  3  X    0.016186   0.000761   0.004205  -0.004452   0.000454
   26  C  3  Y   -0.022287   0.000908   0.007861  -0.003947  -0.005188
   27  C  3  Z    0.015273   0.000020  -0.004129   0.001152   0.002927
   28  O  4  S    0.982779   0.000245   0.002322   0.002714  -0.001751
   29  O  4  S    0.107508  -0.000002  -0.000105  -0.000015   0.000214
   30  O  4  X   -0.003069  -0.000001  -0.000060  -0.000137   0.000018
   31  O  4  Y    0.002708   0.000022  -0.000296  -0.000098   0.000028
   32  O  4  Z   -0.002117   0.000020   0.000025   0.000071   0.000012
   33  O  4  S   -0.063565   0.000217   0.003343   0.001613  -0.002264
   34  O  4  X    0.011099  -0.000115  -0.000943   0.000352   0.000453
   35  O  4  Y   -0.010385  -0.000094   0.001543   0.001121  -0.000241
   36  O  4  Z    0.007902  -0.000107  -0.000543  -0.000647   0.000164
   37  C  5  S    0.000085  -0.000055  -0.001124  -0.000122   0.000205
   38  C  5  S    0.000160  -0.000340  -0.005101  -0.000755   0.000654
   39  C  5  X   -0.000062  -0.000253  -0.000205  -0.000225   0.000714
   40  C  5  Y   -0.000362  -0.000018  -0.001354  -0.000550  -0.001013
   41  C  5  Z    0.000401  -0.000089  -0.000127   0.000198  -0.000249
   42  C  5  S    0.002147   0.002778   0.025816   0.001000  -0.005745
   43  C  5  X   -0.000923   0.001204   0.001587   0.000029   0.000913
   44  C  5  Y    0.009332   0.000792  -0.011265   0.001464   0.003500
   45  C  5  Z   -0.006697   0.001299   0.013582  -0.001226  -0.006492
   46  H  6  S   -0.000813   0.000103  -0.000630  -0.000440  -0.000576
   47  H  6  S   -0.002081   0.000241   0.001694  -0.000434  -0.000764
   48  O  7  S   -0.002673   0.004669   0.979047   0.082998  -0.002116
   49  O  7  S   -0.000681   0.000547   0.105410   0.008681  -0.000207
   50  O  7  X    0.000418   0.000040   0.002800   0.000316  -0.000408
   51  O  7  Y   -0.000208   0.000037   0.002394   0.000194   0.000287
   52  O  7  Z    0.000229   0.000036  -0.000685   0.000003   0.000444
   53  O  7  S    0.003238  -0.000453  -0.053218  -0.003063   0.002329
   54  O  7  X   -0.001527  -0.000238  -0.006918  -0.000781   0.001737
   55  O  7  Y    0.002142  -0.000217  -0.009105  -0.000270   0.000052
   56  O  7  Z   -0.001550  -0.000124   0.003200  -0.000153  -0.002113
   57  C  8  S   -0.000006  -0.000183   0.000167   0.000071  -0.001008
   58  C  8  S    0.000002  -0.001133   0.000367   0.000390  -0.004421
   59  C  8  X   -0.000217   0.000481  -0.000438  -0.000405  -0.000031
   60  C  8  Y    0.000038  -0.000258   0.000636   0.000238   0.000508
   61  C  8  Z   -0.000210  -0.000223   0.000583   0.000003   0.001385
   62  C  8  S   -0.002161   0.004222  -0.004243  -0.003005   0.022523
   63  C  8  X    0.001324  -0.004720  -0.002943   0.001146   0.000146
   64  C  8  Y   -0.000748   0.001965   0.004520  -0.001324  -0.007774
   65  C  8  Z    0.004894   0.000751  -0.005827   0.000955   0.015108
   66  H  9  S    0.000457  -0.000552  -0.000403  -0.000347  -0.000718
   67  H  9  S    0.000168  -0.000401  -0.000831   0.002728   0.001060
   68  O 10  S    0.001843   0.000919   0.001982   0.001353   0.982549
   69  O 10  S    0.000597   0.000261   0.000262   0.000269   0.105582
   70  O 10  X    0.000053   0.000022   0.000177   0.000056   0.000234
   71  O 10  Y    0.000167   0.000066  -0.000403  -0.000022  -0.002085
   72  O 10  Z   -0.000093  -0.000044   0.000173  -0.000012  -0.003369
   73  O 10  S   -0.001944  -0.000982   0.001194  -0.000449  -0.052839
   74  O 10  X   -0.000114   0.000315  -0.000607  -0.000266  -0.000357
   75  O 10  Y   -0.000691  -0.000428   0.001810   0.000182   0.004333
   76  O 10  Z    0.000994   0.000574  -0.001856   0.000033   0.011547
   77  C 11  S   -0.000074   0.000353   0.000138  -0.000036   0.000123
   78  C 11  S   -0.000367   0.001560   0.000970  -0.000168   0.000125
   79  C 11  X    0.000110   0.000667   0.000300   0.000106  -0.000606
   80  C 11  Y   -0.000143   0.000024   0.000065   0.000008  -0.000503
   81  C 11  Z   -0.000014  -0.000039  -0.000118  -0.000027  -0.000160
   82  C 11  S    0.002875  -0.011798  -0.003199   0.001571  -0.003585
   83  C 11  X    0.001014   0.001959  -0.002175   0.000448  -0.001336
   84  C 11  Y    0.001849  -0.004598  -0.001735   0.000586   0.003972
   85  C 11  Z   -0.000423  -0.001443   0.002429   0.000328  -0.005329
   86  H 12  S   -0.000012   0.000516  -0.000204  -0.000058   0.001052
   87  H 12  S    0.000898  -0.001042  -0.000481   0.000151   0.001246
   88  O 13  S    0.000696   0.003376  -0.003691   0.000339   0.003487
   89  O 13  S    0.000234   0.000645  -0.000868   0.000077   0.000530
   90  O 13  X    0.000032  -0.000227  -0.000057   0.000016  -0.000395
   91  O 13  Y   -0.000033   0.000095   0.000063   0.000019  -0.000031
   92  O 13  Z    0.000023  -0.000110  -0.000095   0.000006  -0.000102
   93  O 13  S   -0.000771  -0.000377   0.002155  -0.000169  -0.001776
   94  O 13  X   -0.000047   0.000934   0.000248  -0.000034   0.001529
   95  O 13  Y    0.000068  -0.000238  -0.000321  -0.000074   0.000070
   96  O 13  Z   -0.000397   0.001172   0.001023  -0.000090  -0.000300
   97  C 14  S    0.000048  -0.000932  -0.000004  -0.000003   0.000065
   98  C 14  S    0.000284  -0.003813   0.000004  -0.000056   0.000499
   99  C 14  X    0.000023  -0.001433   0.000050  -0.000044   0.000129
  100  C 14  Y    0.000033  -0.000065  -0.000126  -0.000005   0.000239
  101  C 14  Z    0.000024  -0.000661   0.000022  -0.000008  -0.000131
  102  C 14  S   -0.001303   0.022002  -0.000049  -0.000078  -0.001263
  103  C 14  X   -0.000763  -0.005413   0.000118  -0.000112  -0.000762
  104  C 14  Y   -0.000171  -0.003394   0.001175   0.000233  -0.002106
  105  C 14  Z    0.000445  -0.008435  -0.000638   0.000227   0.001248
  106  O 15  S   -0.000254   0.982407  -0.004925   0.003068  -0.000892
  107  O 15  S   -0.000052   0.104524  -0.000484   0.000295  -0.000010
  108  O 15  X   -0.000013   0.001006   0.000011  -0.000013   0.000058
  109  O 15  Y    0.000001   0.002329   0.000015   0.000018  -0.000147
  110  O 15  Z    0.000019   0.002394  -0.000037   0.000010   0.000030
  111  O 15  S    0.000093  -0.048315   0.000109  -0.000043  -0.000121
  112  O 15  X    0.000107  -0.004960  -0.000084   0.000079  -0.000202
  113  O 15  Y    0.000008  -0.004968  -0.000124  -0.000060   0.000625
  114  O 15  Z   -0.000075  -0.006362   0.000132  -0.000023  -0.000137
  115  H 16  S   -0.000906  -0.000039  -0.000529   0.003289  -0.000015
  116  H 16  S    0.000840  -0.000003  -0.000248   0.005467   0.000099
  117  H 17  S   -0.000208  -0.000035  -0.000114  -0.001136  -0.000027
  118  H 17  S   -0.000855   0.000259   0.000263  -0.001765  -0.000878
  119  H 18  S   -0.000870   0.000001  -0.000199  -0.001092  -0.000341
  120  H 18  S   -0.001929  -0.000093   0.000888  -0.000568  -0.000364
  121  H 19  S   -0.000517   0.000070   0.003506   0.000284  -0.000038
  122  H 19  S    0.002741   0.000047   0.006360   0.000652  -0.000818
  123  H 20  S    0.000349  -0.000110  -0.000527   0.000017   0.003134
  124  H 20  S   -0.001006  -0.000011   0.003742   0.000269   0.006532
  125  H 21  S    0.000036  -0.000589  -0.000078   0.000002   0.000490
  126  H 21  S   -0.000117   0.002670   0.000296   0.000022  -0.000143
  127  H 22  S    0.000067  -0.001148   0.000177  -0.000003  -0.000530
  128  H 22  S   -0.000175  -0.000341   0.000255  -0.000120   0.000210
  129  H 23  S    0.000130  -0.001329  -0.000078   0.000064   0.000561
  130  H 23  S    0.000358  -0.001674  -0.000718  -0.000317   0.000845
  131  H 24  S    0.000025   0.003035   0.000007   0.000021  -0.000159
  132  H 24  S   -0.000047   0.005627  -0.000090   0.000037  -0.000027

                      6          7          8          9         10
                  -19.0122   -10.2317   -10.1946   -10.1837   -10.1756
                     A          A          A          A          A   
    1  O  1  S   -0.000613   0.000017  -0.000112  -0.000011   0.000025
    2  O  1  S    0.000012  -0.000064  -0.000555  -0.000252   0.000199
    3  O  1  X   -0.000014   0.000291  -0.000457   0.000223  -0.000032
    4  O  1  Y   -0.000018   0.000062   0.000168   0.000408   0.000072
    5  O  1  Z    0.000010  -0.000066  -0.000073  -0.000209   0.000041
    6  O  1  S   -0.000241  -0.000583   0.008616   0.000253  -0.000964
    7  O  1  X    0.000155  -0.000307  -0.002827  -0.000644   0.000439
    8  O  1  Y    0.000080   0.000583  -0.001230  -0.001556  -0.000332
    9  O  1  Z   -0.000031   0.000096   0.000417   0.000729  -0.000215
   10  C  2  S   -0.000046  -0.012672   0.986071   0.026001   0.001247
   11  C  2  S   -0.000231  -0.004512   0.112457   0.000465   0.000072
   12  C  2  X   -0.000045  -0.000152  -0.000770   0.000660  -0.000108
   13  C  2  Y   -0.000127   0.000748  -0.000123   0.000380  -0.000050
   14  C  2  Z    0.000041   0.000032   0.000172   0.000046  -0.000310
   15  C  2  S    0.002005   0.026571  -0.094042   0.007210   0.000891
   16  C  2  X   -0.000276  -0.007978   0.007206  -0.001184   0.001683
   17  C  2  Y   -0.000423  -0.014631   0.010025  -0.003211   0.001070
   18  C  2  Z    0.000074   0.002588  -0.004708   0.001286   0.001709
   19  C  3  S    0.000064   0.985672   0.011886   0.006551   0.004084
   20  C  3  S    0.000514   0.108457  -0.001482  -0.001852  -0.001200
   21  C  3  X   -0.000105  -0.000374  -0.000550   0.000116   0.001126
   22  C  3  Y    0.000099   0.000017  -0.000893   0.000473  -0.000176
   23  C  3  Z   -0.000051   0.000157   0.000309  -0.000130   0.000023
   24  C  3  S   -0.002016  -0.071666   0.022445   0.025970   0.003799
   25  C  3  X    0.000866   0.013862   0.012042  -0.021243  -0.002546
   26  C  3  Y   -0.001527  -0.018011   0.019835  -0.010321  -0.001045
   27  C  3  Z    0.001163   0.012815  -0.006190   0.001289  -0.001226
   28  O  4  S   -0.000643   0.000424   0.000005   0.000034   0.000007
   29  O  4  S    0.000087   0.001974  -0.000228  -0.000052   0.000048
   30  O  4  X    0.000022   0.000426   0.000274  -0.000052  -0.000078
   31  O  4  Y   -0.000000  -0.000635  -0.000049  -0.000457  -0.000003
   32  O  4  Z    0.000014   0.000378   0.000085   0.000246   0.000095
   33  O  4  S   -0.000803  -0.006491   0.000104  -0.001964  -0.000098
   34  O  4  X    0.000066   0.003834  -0.002019   0.003029   0.000462
   35  O  4  Y   -0.000069  -0.003193  -0.002021   0.001875   0.000029
   36  O  4  Z    0.000008   0.002627   0.000452  -0.000452  -0.000119
   37  C  5  S    0.000148  -0.006832  -0.026703   0.985656   0.047998
   38  C  5  S    0.001055  -0.002033  -0.005582   0.117469   0.002511
   39  C  5  X   -0.000288  -0.000475  -0.000699   0.000316  -0.000776
   40  C  5  Y   -0.000240  -0.000183  -0.000699   0.000644   0.000202
   41  C  5  Z    0.000169   0.000199  -0.000043   0.001030   0.000053
   42  C  5  S   -0.003006   0.016494   0.012036  -0.113549   0.020111
   43  C  5  X    0.002211   0.012888   0.004513  -0.004090  -0.012023
   44  C  5  Y    0.002361   0.007178   0.001184  -0.009632   0.009292
   45  C  5  Z   -0.002202  -0.005257   0.002398  -0.011829   0.005621
   46  H  6  S   -0.000486  -0.002019  -0.000042   0.000313  -0.001427
   47  H  6  S    0.000742   0.000009  -0.001191   0.014880   0.001055
   48  O  7  S    0.003521  -0.000059   0.000009  -0.000267   0.000007
   49  O  7  S   -0.000108  -0.000652  -0.000101  -0.001559  -0.000312
   50  O  7  X    0.000043   0.000059  -0.000099   0.000174   0.000330
   51  O  7  Y   -0.000044  -0.000348  -0.000250   0.000246  -0.000611
   52  O  7  Z    0.000136   0.000137   0.000106  -0.000123   0.000083
   53  O  7  S    0.002048   0.002407  -0.000872   0.013584  -0.000496
   54  O  7  X   -0.000098  -0.000997   0.000035   0.000458  -0.000765
   55  O  7  Y    0.000882   0.001697   0.000358   0.005690   0.000854
   56  O  7  Z   -0.000852  -0.000777  -0.000196  -0.002263  -0.000290
   57  C  8  S    0.000157  -0.004151   0.000081  -0.049454   0.984920
   58  C  8  S    0.000340  -0.002281   0.000437  -0.009514   0.116329
   59  C  8  X    0.000594  -0.001833  -0.000320   0.000238  -0.000401
   60  C  8  Y    0.000518   0.000248  -0.000188   0.000052  -0.000887
   61  C  8  Z    0.000217  -0.000514   0.000456  -0.000202  -0.000706
   62  C  8  S   -0.005530   0.001635  -0.003155   0.034214  -0.107425
   63  C  8  X    0.003351   0.009793  -0.000693   0.013886   0.007116
   64  C  8  Y   -0.004557  -0.001762   0.002212  -0.012601   0.008951
   65  C  8  Z    0.004781   0.007163  -0.001885  -0.004670   0.008748
   66  H  9  S    0.000947   0.000210  -0.000137  -0.001521   0.000120
   67  H  9  S    0.002033  -0.001732  -0.000918   0.000287   0.017371
   68  O 10  S   -0.003426   0.000128  -0.000040   0.000066  -0.000186
   69  O 10  S   -0.000240   0.001074  -0.000286   0.000113  -0.001090
   70  O 10  X    0.000307   0.000072   0.000079  -0.000208   0.000153
   71  O 10  Y   -0.000054   0.000121   0.000001   0.000225  -0.000072
   72  O 10  Z    0.000115  -0.000193   0.000019   0.000536  -0.000250
   73  O 10  S   -0.001232  -0.004840   0.001575  -0.003404   0.010887
   74  O 10  X   -0.001177  -0.000984  -0.000207  -0.000100  -0.001212
   75  O 10  Y    0.000390  -0.000563  -0.000014  -0.000128   0.000598
   76  O 10  Z    0.000133   0.002289  -0.000743   0.000549  -0.004890
   77  C 11  S   -0.001082  -0.002249  -0.000479  -0.004297  -0.032772
   78  C 11  S   -0.004943  -0.002008  -0.000231  -0.000989  -0.007584
   79  C 11  X   -0.000264  -0.000320  -0.000131  -0.001106   0.000259
   80  C 11  Y   -0.000333  -0.000231   0.000239   0.000254  -0.000103
   81  C 11  Z   -0.001498   0.000136  -0.000049   0.000176  -0.000260
   82  C 11  S    0.024502   0.009437   0.000332  -0.002603   0.034116
   83  C 11  X    0.002064   0.005942   0.001137   0.002375   0.016912
   84  C 11  Y    0.008228   0.003090  -0.001859  -0.000225   0.001540
   85  C 11  Z   -0.012473  -0.001148   0.000711  -0.002964   0.007845
   86  H 12  S   -0.001012  -0.000334  -0.000349  -0.000052  -0.001982
   87  H 12  S    0.000870   0.001702  -0.000452   0.000798  -0.000431
   88  O 13  S    0.982511   0.000062  -0.000011   0.000064   0.000028
   89  O 13  S    0.105328   0.000480  -0.000090   0.000674  -0.000146
   90  O 13  X   -0.002583   0.000039   0.000031   0.000374  -0.000504
   91  O 13  Y   -0.000530  -0.000036   0.000005  -0.000119  -0.000040
   92  O 13  Z    0.002779   0.000047   0.000002   0.000101  -0.000571
   93  O 13  S   -0.051791  -0.002377   0.000427  -0.002027  -0.001319
   94  O 13  X    0.005552  -0.000297  -0.000186  -0.001676   0.001094
   95  O 13  Y    0.001689   0.000203   0.000065   0.000638   0.000210
   96  O 13  Z   -0.010051  -0.001169   0.000140  -0.000813   0.000628
   97  C 14  S    0.000172  -0.000237  -0.000483  -0.007250  -0.030145
   98  C 14  S    0.000386  -0.000001  -0.000206  -0.001976  -0.004451
   99  C 14  X   -0.000767  -0.000125   0.000001  -0.000329  -0.001064
  100  C 14  Y    0.000620   0.000165  -0.000064   0.000050   0.000177
  101  C 14  Z    0.000559  -0.000025   0.000032  -0.000176  -0.000129
  102  C 14  S   -0.005633  -0.000596   0.001078   0.005224   0.002050
  103  C 14  X   -0.001169  -0.000448   0.000366   0.003289   0.001069
  104  C 14  Y   -0.001652  -0.001347   0.000178  -0.001698   0.001433
  105  C 14  Z    0.004032   0.000982  -0.000784   0.000703   0.001389
  106  O 15  S   -0.003361  -0.000013   0.000004  -0.000015  -0.000054
  107  O 15  S   -0.000052  -0.000131   0.000022  -0.000153  -0.000573
  108  O 15  X    0.000302  -0.000097  -0.000017  -0.000041  -0.000378
  109  O 15  Y   -0.000410   0.000028   0.000037  -0.000026   0.000252
  110  O 15  Z   -0.000308   0.000042  -0.000004  -0.000031  -0.000031
  111  O 15  S    0.000301   0.000370  -0.000160   0.000561   0.001642
  112  O 15  X   -0.000799   0.000489  -0.000011   0.000188   0.001827
  113  O 15  Y    0.001608  -0.000053  -0.000169   0.000193  -0.001011
  114  O 15  Z    0.001313  -0.000172  -0.000006   0.000168   0.000175
  115  H 16  S   -0.000015  -0.000115  -0.000359   0.000438   0.000117
  116  H 16  S    0.000008   0.001522   0.002286   0.000858  -0.000124
  117  H 17  S   -0.000020  -0.001598   0.000206  -0.000151   0.000279
  118  H 17  S   -0.000384   0.002483   0.017196  -0.001647  -0.002501
  119  H 18  S   -0.000018  -0.001958   0.000070  -0.000867   0.000424
  120  H 18  S   -0.000451  -0.000069   0.016319   0.000351   0.000289
  121  H 19  S   -0.000005  -0.000152   0.000002  -0.000765   0.000385
  122  H 19  S    0.000231   0.001400   0.001477   0.003063   0.000741
  123  H 20  S   -0.000162  -0.000083  -0.000053  -0.000553  -0.000209
  124  H 20  S    0.000472  -0.000131   0.000204   0.001967   0.003753
  125  H 21  S    0.003241   0.000125  -0.000061  -0.000264   0.000650
  126  H 21  S    0.006309  -0.000129   0.000091  -0.000528   0.001483
  127  H 22  S   -0.000447  -0.000064   0.000044  -0.000520  -0.000184
  128  H 22  S   -0.000175  -0.000658   0.000235  -0.000826  -0.001066
  129  H 23  S    0.000764   0.000042  -0.000121  -0.000531  -0.000134
  130  H 23  S    0.000991   0.001190  -0.000218   0.000460  -0.001960
  131  H 24  S   -0.000597   0.000086   0.000056  -0.000133   0.000346
  132  H 24  S   -0.000329   0.000115   0.000011   0.000447   0.000516

                     11         12         13         14         15
                  -10.1694   -10.1621    -1.0827    -1.0293    -1.0214
                     A          A          A          A          A   
    1  O  1  S   -0.000006  -0.000003  -0.032221   0.062274  -0.095315
    2  O  1  S   -0.000061  -0.000059   0.031366  -0.058590   0.089656
    3  O  1  X    0.000026   0.000042  -0.014678   0.020432  -0.029502
    4  O  1  Y    0.000018   0.000105   0.007393  -0.020896   0.033701
    5  O  1  Z    0.000009  -0.000035  -0.001390   0.005294  -0.008821
    6  O  1  S    0.000220   0.000016   0.086927  -0.188652   0.291482
    7  O  1  X   -0.000140  -0.000136  -0.010435   0.023835  -0.035652
    8  O  1  Y   -0.000058  -0.000404   0.001818  -0.018826   0.033472
    9  O  1  Z   -0.000046   0.000151  -0.000544   0.005176  -0.008985
   10  C  2  S    0.000621   0.000646  -0.026470   0.026114  -0.036426
   11  C  2  S   -0.000110   0.000072   0.028496  -0.026947   0.038723
   12  C  2  X    0.000107   0.000061   0.008447  -0.025872   0.037437
   13  C  2  Y   -0.000031   0.000178  -0.018516   0.003272   0.000429
   14  C  2  Z   -0.000025  -0.000058   0.008211  -0.002635   0.001736
   15  C  2  S    0.001072  -0.001075   0.013724  -0.036995   0.060136
   16  C  2  X   -0.000654   0.000831   0.028953  -0.001998  -0.004639
   17  C  2  Y   -0.000647  -0.000067   0.013174  -0.006954   0.005822
   18  C  2  Z    0.000409  -0.000233   0.005852  -0.002044  -0.001366
   19  C  3  S    0.000299   0.001949  -0.119352   0.023950  -0.007338
   20  C  3  S   -0.000154  -0.001348   0.125697  -0.025601   0.007581
   21  C  3  X    0.000126   0.000476   0.076797  -0.046865   0.019946
   22  C  3  Y    0.000101  -0.000191  -0.094789   0.014545   0.008044
   23  C  3  Z   -0.000008  -0.000139   0.065761  -0.017239   0.000486
   24  C  3  S    0.001696   0.006744   0.152922  -0.034405   0.015569
   25  C  3  X   -0.001102  -0.004855  -0.047124   0.006004   0.005762
   26  C  3  Y   -0.002344   0.000298   0.052804  -0.022470   0.011496
   27  C  3  Z    0.000234  -0.000220  -0.039267   0.016623  -0.007141
   28  O  4  S    0.000020  -0.000006  -0.188310   0.052721  -0.010447
   29  O  4  S    0.000161  -0.000073   0.176324  -0.050309   0.010348
   30  O  4  X   -0.000028  -0.000123  -0.088139   0.017775  -0.000650
   31  O  4  Y   -0.000029  -0.000006   0.081689  -0.026802   0.008437
   32  O  4  Z    0.000001   0.000091  -0.062685   0.018218  -0.004618
   33  O  4  S   -0.000941   0.000376   0.591820  -0.169909   0.032732
   34  O  4  X    0.000392   0.000766  -0.091834   0.018157  -0.000061
   35  O  4  Y    0.000060   0.000081   0.077237  -0.027849   0.008748
   36  O  4  Z    0.000159  -0.000349  -0.061415   0.018246  -0.004034
   37  C  5  S    0.007994   0.006310  -0.041413  -0.053465   0.027249
   38  C  5  S   -0.000381  -0.000035   0.040606   0.055106  -0.026492
   39  C  5  X    0.000476   0.001155   0.019115  -0.017064   0.003824
   40  C  5  Y   -0.000100  -0.000295  -0.015902  -0.030954   0.024051
   41  C  5  Z    0.000121  -0.000096   0.018620   0.032466  -0.018540
   42  C  5  S    0.005116  -0.002388   0.054361   0.094171  -0.060588
   43  C  5  X   -0.005878  -0.005471  -0.001633   0.006515  -0.002187
   44  C  5  Y    0.002397  -0.000671  -0.025280   0.009619  -0.012196
   45  C  5  Z    0.000332   0.001272   0.026973  -0.000970   0.003572
   46  H  6  S   -0.000824  -0.000471   0.013192   0.014329  -0.005356
   47  H  6  S    0.000228   0.001416   0.000940  -0.004181   0.009469
   48  O  7  S    0.000006   0.000050  -0.064976  -0.121566   0.073783
   49  O  7  S    0.000011   0.000542   0.062131   0.111926  -0.067905
   50  O  7  X   -0.000020  -0.000373   0.029328   0.042247  -0.027883
   51  O  7  Y   -0.000012   0.000178   0.020929   0.036076  -0.019698
   52  O  7  Z   -0.000047  -0.000063  -0.005249  -0.007710   0.004447
   53  O  7  S   -0.000238  -0.001523   0.180474   0.376514  -0.230547
   54  O  7  X    0.000341   0.001670   0.033409   0.043133  -0.029193
   55  O  7  Y   -0.000236  -0.001006   0.018557   0.042958  -0.025069
   56  O  7  Z    0.000277   0.000378  -0.001093  -0.006113   0.005455
   57  C  8  S    0.027765   0.033139  -0.013749  -0.058433   0.008620
   58  C  8  S    0.002112   0.000095   0.016255   0.058841  -0.008295
   59  C  8  X    0.001204   0.000001   0.009029  -0.000507  -0.013778
   60  C  8  Y   -0.000692   0.000168  -0.008480  -0.020811   0.009524
   61  C  8  Z   -0.000388  -0.000079   0.005501   0.031308  -0.014128
   62  C  8  S   -0.004289   0.026541   0.024362   0.103529  -0.009860
   63  C  8  X   -0.002573  -0.018557  -0.021577   0.001113   0.009243
   64  C  8  Y    0.004399  -0.000242   0.002602  -0.012778   0.002856
   65  C  8  Z    0.003632  -0.005711  -0.017511  -0.007904  -0.017471
   66  H  9  S   -0.000013  -0.002179   0.003981   0.016614  -0.001187
   67  H  9  S   -0.002183   0.001431  -0.001215  -0.002253  -0.001845
   68  O 10  S    0.000046  -0.000003  -0.019399  -0.104293   0.029837
   69  O 10  S    0.000398  -0.000378   0.016432   0.097052  -0.028738
   70  O 10  X   -0.000058   0.000101   0.001569   0.003928  -0.002863
   71  O 10  Y    0.000041   0.000265  -0.007148  -0.033808   0.011060
   72  O 10  Z   -0.000075   0.000338  -0.008850  -0.044328   0.011742
   73  O 10  S   -0.001313  -0.000123   0.064728   0.315309  -0.084767
   74  O 10  X    0.000608   0.000869   0.004527   0.006151  -0.003497
   75  O 10  Y   -0.000576  -0.001011  -0.005568  -0.034417   0.013059
   76  O 10  Z    0.000617   0.000058  -0.013488  -0.047567   0.010911
   77  C 11  S   -0.057975   0.984923  -0.003317  -0.044093  -0.038844
   78  C 11  S   -0.009671   0.116424   0.006261   0.044789   0.037981
   79  C 11  X    0.000192   0.000335   0.002512   0.003835  -0.017799
   80  C 11  Y   -0.000514   0.000748   0.000564   0.011136   0.016034
   81  C 11  Z   -0.000087   0.000465   0.000253  -0.013922  -0.026861
   82  C 11  S    0.031022  -0.107431  -0.014816   0.072662   0.078671
   83  C 11  X   -0.011227  -0.005116  -0.009682  -0.009935  -0.016424
   84  C 11  Y    0.010487  -0.009865  -0.008450  -0.000882  -0.000206
   85  C 11  Z    0.007109  -0.007704   0.000136   0.008507   0.004973
   86  H 12  S   -0.001425   0.000434   0.001570   0.012381   0.009610
   87  H 12  S    0.000892   0.015533  -0.002385  -0.000291  -0.009505
   88  O 13  S    0.000026  -0.000240  -0.003192  -0.066559  -0.079457
   89  O 13  S   -0.000169  -0.001496   0.002447   0.062190   0.074447
   90  O 13  X    0.000124  -0.000266  -0.000557  -0.022560  -0.031706
   91  O 13  Y   -0.000141  -0.000250  -0.000298  -0.003224  -0.002802
   92  O 13  Z   -0.000528   0.000196   0.001442   0.024450   0.026406
   93  O 13  S   -0.001748   0.012569   0.012252   0.200384   0.238162
   94  O 13  X    0.000421   0.001257  -0.000689  -0.025466  -0.030575
   95  O 13  Y    0.000043   0.000075  -0.000282  -0.003660  -0.003021
   96  O 13  Z    0.000120   0.005656   0.002824   0.025454   0.030498
   97  C 14  S    0.984390   0.056074  -0.001111  -0.036053  -0.059130
   98  C 14  S    0.112335   0.002764   0.000839   0.038260   0.062955
   99  C 14  X    0.000552   0.000399   0.000735  -0.014407  -0.039282
  100  C 14  Y   -0.000003  -0.000300  -0.000703  -0.008970  -0.011110
  101  C 14  Z   -0.000163   0.000274  -0.000340  -0.021218  -0.037777
  102  C 14  S   -0.091887   0.024014   0.004710   0.056915   0.097464
  103  C 14  X   -0.010582   0.012033   0.001783   0.001431  -0.001107
  104  C 14  Y    0.004765  -0.006830   0.001681   0.008047   0.009015
  105  C 14  Z    0.003607  -0.008890  -0.002663  -0.001573   0.000467
  106  O 15  S   -0.000143   0.000066  -0.000940  -0.080116  -0.156772
  107  O 15  S   -0.000590   0.000313   0.001071   0.074981   0.147167
  108  O 15  X    0.000420  -0.000432   0.000362   0.007492   0.010701
  109  O 15  Y    0.000156   0.000294   0.000206   0.024157   0.048495
  110  O 15  Z    0.000299  -0.000072   0.000236   0.023254   0.045873
  111  O 15  S    0.008710  -0.002268   0.002081   0.243517   0.477728
  112  O 15  X    0.002973   0.000109  -0.000695   0.011898   0.020044
  113  O 15  Y   -0.000077  -0.000965   0.000359   0.023991   0.048521
  114  O 15  Z    0.001374   0.000069   0.000403   0.023833   0.047693
  115  H 16  S    0.000004   0.000144   0.015337  -0.030541   0.047242
  116  H 16  S    0.000109   0.000013  -0.001863  -0.006178   0.010393
  117  H 17  S   -0.000275  -0.000044   0.008525  -0.007217   0.010544
  118  H 17  S    0.000464   0.000746  -0.004034   0.006958  -0.005268
  119  H 18  S   -0.000075   0.000171   0.010076  -0.006889   0.009749
  120  H 18  S    0.000047  -0.000121   0.000113   0.001682  -0.003796
  121  H 19  S   -0.000116  -0.000391   0.039334   0.051237  -0.033548
  122  H 19  S    0.000163  -0.000277   0.007270   0.005053  -0.005187
  123  H 20  S    0.000292  -0.000859   0.012144   0.056293  -0.018701
  124  H 20  S   -0.000664   0.000387   0.002125   0.006082  -0.002750
  125  H 21  S   -0.000567  -0.000309   0.001062   0.032987   0.044015
  126  H 21  S    0.001742   0.002859  -0.000165   0.005362   0.011024
  127  H 22  S   -0.000164  -0.001477   0.000404   0.010810   0.016278
  128  H 22  S    0.016246   0.003099   0.001576  -0.000730  -0.006545
  129  H 23  S    0.000260  -0.001987   0.000175   0.010511   0.017238
  130  H 23  S    0.016737   0.000271  -0.001985  -0.004310  -0.005693
  131  H 24  S   -0.000553   0.000481   0.000293   0.038879   0.077842
  132  H 24  S    0.002215   0.001356  -0.000160   0.007943   0.016978

                     16         17         18         19         20
                   -1.0159    -0.9897    -0.9835    -0.7891    -0.7549
                     A          A          A          A          A   
    1  O  1  S   -0.181899  -0.016800  -0.006634   0.036789  -0.034785
    2  O  1  S    0.171070   0.016300   0.006598  -0.034725   0.032197
    3  O  1  X   -0.053866  -0.003945  -0.001487  -0.028581   0.037591
    4  O  1  Y    0.066578   0.007222   0.002963  -0.033282   0.036297
    5  O  1  Z   -0.017748  -0.002023  -0.000815   0.007554  -0.008122
    6  O  1  S    0.560191   0.050833   0.019456  -0.131483   0.131312
    7  O  1  X   -0.066918  -0.004124  -0.001057  -0.012959   0.018980
    8  O  1  Y    0.070419   0.008716   0.003614  -0.023557   0.028250
    9  O  1  Z   -0.018845  -0.002681  -0.001392   0.004548  -0.005934
   10  C  2  S   -0.064612  -0.003438  -0.001206  -0.086430   0.087864
   11  C  2  S    0.069470   0.001941   0.000042   0.088064  -0.087622
   12  C  2  X    0.069269   0.006114   0.002212  -0.058917   0.047337
   13  C  2  Y    0.007493   0.002935   0.001104  -0.042060   0.034754
   14  C  2  Z    0.000166  -0.001801  -0.001143   0.011478  -0.009867
   15  C  2  S    0.125121   0.029823   0.017262   0.224999  -0.251813
   16  C  2  X   -0.022167  -0.005627  -0.002487  -0.036321   0.025334
   17  C  2  Y    0.002484  -0.006568  -0.003652  -0.006989   0.012553
   18  C  2  Z   -0.008004   0.001842   0.003120   0.003642  -0.007262
   19  C  3  S    0.020601   0.012911   0.005859  -0.080537   0.058040
   20  C  3  S   -0.022317  -0.012967  -0.005249   0.095965  -0.063218
   21  C  3  X   -0.030093  -0.027079  -0.013231  -0.078578   0.024344
   22  C  3  Y    0.049183   0.011137   0.004617   0.079840  -0.075249
   23  C  3  Z   -0.031455  -0.014078  -0.007006  -0.055726   0.043984
   24  C  3  S   -0.029548  -0.021166  -0.008259   0.145768  -0.140763
   25  C  3  X    0.037408   0.005696   0.001478  -0.024714   0.043668
   26  C  3  Y   -0.015375  -0.034276  -0.022337   0.041700  -0.018855
   27  C  3  Z    0.015836   0.016806   0.006870  -0.029941   0.021608
   28  O  4  S    0.067514   0.033713   0.015259   0.047821  -0.034843
   29  O  4  S   -0.063343  -0.031885  -0.014284  -0.048780   0.035396
   30  O  4  X    0.029634   0.010378   0.004418   0.004516  -0.004907
   31  O  4  Y   -0.025868  -0.017755  -0.008465   0.003415  -0.006621
   32  O  4  Z    0.020272   0.010904   0.004761  -0.000189   0.001636
   33  O  4  S   -0.225099  -0.117256  -0.054807  -0.153762   0.116332
   34  O  4  X    0.030909   0.011343   0.005155   0.003750  -0.008049
   35  O  4  Y   -0.028765  -0.019520  -0.009154   0.003144  -0.006444
   36  O  4  Z    0.022218   0.012301   0.006215   0.000778   0.000985
   37  C  5  S   -0.023228  -0.029264  -0.017275  -0.113603   0.014640
   38  C  5  S    0.022870   0.032362   0.018804   0.110822  -0.012434
   39  C  5  X   -0.010312   0.005538   0.001271   0.013653  -0.057371
   40  C  5  Y   -0.011028  -0.052640  -0.028048   0.073114  -0.006627
   41  C  5  Z    0.014086   0.016493   0.002917  -0.010662   0.006053
   42  C  5  S    0.064987   0.063667   0.034712   0.298055  -0.040167
   43  C  5  X    0.007933  -0.001497  -0.010542   0.018582   0.011727
   44  C  5  Y    0.009729   0.019044   0.011949   0.029672  -0.010375
   45  C  5  Z    0.004568  -0.028021  -0.011230  -0.001793  -0.015916
   46  H  6  S    0.005833   0.004825   0.005546   0.063489  -0.004866
   47  H  6  S   -0.001862  -0.017447   0.003278  -0.005703  -0.013525
   48  O  7  S   -0.054679  -0.125814  -0.065913   0.050463  -0.004102
   49  O  7  S    0.050745   0.116670   0.061632  -0.045588   0.003663
   50  O  7  X    0.017484   0.051959   0.027606  -0.030957  -0.005625
   51  O  7  Y    0.016372   0.024570   0.011942   0.034967  -0.001056
   52  O  7  Z   -0.003123  -0.009445  -0.006635  -0.024173  -0.000856
   53  O  7  S    0.169183   0.402228   0.210034  -0.186415   0.016975
   54  O  7  X    0.016351   0.056951   0.031616  -0.030102  -0.006747
   55  O  7  Y    0.017551   0.035006   0.015872   0.009414   0.003196
   56  O  7  Z   -0.001857  -0.016080  -0.010664  -0.014514  -0.002840
   57  C  8  S   -0.028352   0.051998   0.028940  -0.088410  -0.066406
   58  C  8  S    0.027393  -0.053113  -0.030542   0.089916   0.066741
   59  C  8  X    0.006028   0.011340  -0.010608   0.017982  -0.074560
   60  C  8  Y   -0.011252   0.003847   0.004238  -0.013630   0.003900
   61  C  8  Z    0.022521  -0.044831  -0.060215  -0.064300  -0.034359
   62  C  8  S    0.052551  -0.104074  -0.069852   0.214212   0.167961
   63  C  8  X   -0.003738   0.001284   0.000120  -0.009183   0.004948
   64  C  8  Y    0.000776  -0.018540   0.005186  -0.006640  -0.019974
   65  C  8  Z    0.005334   0.033173  -0.000893  -0.025802  -0.007021
   66  H  9  S    0.008632  -0.013597  -0.007059   0.054645   0.035622
   67  H  9  S   -0.007618   0.011729   0.003253   0.004467  -0.000283
   68  O 10  S   -0.062475   0.123861   0.120133   0.056861   0.039348
   69  O 10  S    0.058772  -0.113909  -0.112205  -0.053024  -0.035143
   70  O 10  X    0.002942  -0.002473  -0.005083  -0.003274  -0.019894
   71  O 10  Y   -0.020173   0.034713   0.036148   0.034436   0.029638
   72  O 10  Z   -0.025414   0.047339   0.043284  -0.019741  -0.020120
   73  O 10  S    0.187060  -0.392806  -0.371642  -0.198881  -0.148492
   74  O 10  X    0.003991  -0.003409  -0.002942  -0.001333  -0.018973
   75  O 10  Y   -0.022162   0.035782   0.036931   0.029664   0.026741
   76  O 10  Z   -0.026182   0.057106   0.049437   0.000456  -0.002332
   77  C 11  S    0.003611   0.044044  -0.045638  -0.051373  -0.117806
   78  C 11  S   -0.002958  -0.047125   0.048645   0.052812   0.113320
   79  C 11  X    0.011657  -0.014915  -0.003491   0.035023   0.004345
   80  C 11  Y   -0.004080  -0.011341   0.012047   0.004837   0.025216
   81  C 11  Z    0.008994   0.031129  -0.068656   0.030461   0.072201
   82  C 11  S   -0.012802  -0.074040   0.089184   0.115438   0.314500
   83  C 11  X    0.005675   0.005776   0.011796  -0.007600   0.015218
   84  C 11  Y   -0.001917   0.014212   0.002524   0.008314   0.021668
   85  C 11  Z    0.001558  -0.023113   0.001563   0.003719   0.026469
   86  H 12  S   -0.000468  -0.011831   0.012513   0.026513   0.059168
   87  H 12  S    0.003395   0.016777  -0.002629  -0.006373   0.000703
   88  O 13  S    0.016094   0.101853  -0.158180   0.036952   0.062087
   89  O 13  S   -0.015202  -0.093866   0.147613  -0.033816  -0.056339
   90  O 13  X    0.008115   0.033196  -0.056011   0.033909   0.046318
   91  O 13  Y    0.000216   0.004745  -0.007444  -0.003582  -0.004793
   92  O 13  Z   -0.004551  -0.031508   0.045157   0.019534   0.045227
   93  O 13  S   -0.047342  -0.321705   0.489338  -0.132577  -0.230177
   94  O 13  X    0.006247   0.037636  -0.056911   0.030620   0.035558
   95  O 13  Y    0.000318   0.006964  -0.009125  -0.003085  -0.003000
   96  O 13  Z   -0.006085  -0.038241   0.053187   0.003648   0.013764
   97  C 14  S    0.019653  -0.014984   0.017020  -0.026336  -0.101909
   98  C 14  S   -0.020923   0.017265  -0.018711   0.030051   0.104604
   99  C 14  X    0.017667  -0.035852   0.034236   0.022165   0.062314
  100  C 14  Y    0.002707   0.002888  -0.002189  -0.008210  -0.027132
  101  C 14  Z    0.013315  -0.008770   0.003538  -0.000477  -0.002849
  102  C 14  S   -0.033747   0.031805  -0.031436   0.052154   0.256060
  103  C 14  X    0.001345  -0.005485  -0.006211  -0.004150   0.014885
  104  C 14  Y   -0.002074  -0.008224   0.000890   0.000204  -0.006801
  105  C 14  Z   -0.001591   0.011519  -0.015054   0.008875   0.014001
  106  O 15  S    0.059638  -0.085255   0.084270   0.009960   0.038866
  107  O 15  S   -0.056091   0.081018  -0.079653  -0.008624  -0.035823
  108  O 15  X   -0.002992  -0.003543   0.005543   0.011743   0.058905
  109  O 15  Y   -0.018774   0.029106  -0.029339  -0.005755  -0.025379
  110  O 15  Z   -0.017575   0.026967  -0.027651   0.002629   0.008942
  111  O 15  S   -0.182156   0.263252  -0.264672  -0.037650  -0.145311
  112  O 15  X   -0.006738   0.001642   0.000369   0.003540   0.036121
  113  O 15  Y   -0.018901   0.031205  -0.032567  -0.003125  -0.020501
  114  O 15  Z   -0.018475   0.030242  -0.034821   0.000813   0.001468
  115  H 16  S    0.090713   0.008938   0.003626  -0.038695   0.041445
  116  H 16  S    0.021520   0.002733   0.001085  -0.021456   0.024693
  117  H 17  S    0.018269   0.000313  -0.000077   0.048809  -0.050066
  118  H 17  S   -0.002681  -0.003664  -0.003526  -0.000568   0.002330
  119  H 18  S    0.017254   0.000667   0.000317   0.050868  -0.051989
  120  H 18  S   -0.010993  -0.002605  -0.000444   0.000206  -0.001210
  121  H 19  S    0.020507   0.060756   0.032430  -0.045699   0.002234
  122  H 19  S   -0.000426   0.008894   0.004138  -0.033227   0.008144
  123  H 20  S    0.032988  -0.051203  -0.053825  -0.042192  -0.032940
  124  H 20  S    0.003473  -0.006093  -0.008329  -0.033272  -0.019301
  125  H 21  S   -0.010720  -0.044941   0.075194  -0.033756  -0.055556
  126  H 21  S   -0.003896  -0.004926   0.010301  -0.020401  -0.040576
  127  H 22  S   -0.004994   0.003000  -0.004835   0.014575   0.056489
  128  H 22  S    0.003967  -0.009023   0.000278  -0.006079  -0.007353
  129  H 23  S   -0.005790   0.004803  -0.004843   0.015603   0.055394
  130  H 23  S    0.002146   0.002087   0.000929   0.001521   0.003363
  131  H 24  S   -0.030082   0.046387  -0.046136  -0.010569  -0.048303
  132  H 24  S   -0.006857   0.011877  -0.013020  -0.008174  -0.030068

                     21         22         23         24         25
                   -0.7111    -0.6473    -0.5839    -0.5553    -0.5344
                     A          A          A          A          A   
    1  O  1  S    0.043553  -0.022134   0.000109  -0.013702   0.033515
    2  O  1  S   -0.040169   0.021477   0.000641   0.014450  -0.031680
    3  O  1  X   -0.068627   0.058364  -0.019363   0.096218   0.091590
    4  O  1  Y   -0.055722   0.037843  -0.022244   0.051901   0.170972
    5  O  1  Z    0.012763  -0.010337   0.000802  -0.012159  -0.047508
    6  O  1  S   -0.170316   0.085482  -0.004387   0.050687  -0.132905
    7  O  1  X   -0.041515   0.045060  -0.013138   0.084287   0.077049
    8  O  1  Y   -0.045869   0.033325  -0.018457   0.045611   0.147222
    9  O  1  Z    0.010585  -0.009722   0.000493  -0.011698  -0.040820
   10  C  2  S   -0.116971   0.062291  -0.003336   0.040365  -0.043057
   11  C  2  S    0.113058  -0.058672   0.005069  -0.040996   0.034524
   12  C  2  X   -0.038102  -0.004275   0.019308  -0.055472  -0.149796
   13  C  2  Y   -0.024483  -0.022526  -0.029192  -0.069013   0.231670
   14  C  2  Z    0.010526  -0.005290  -0.010003   0.014059  -0.087229
   15  C  2  S    0.372814  -0.218165   0.004986  -0.141196   0.200707
   16  C  2  X   -0.029227   0.018264   0.021222  -0.012028  -0.113505
   17  C  2  Y   -0.018559   0.000797  -0.010134  -0.043328   0.142209
   18  C  2  Z    0.012083  -0.005506  -0.004077   0.009801  -0.053426
   19  C  3  S   -0.020836  -0.051497  -0.011827  -0.090590   0.065322
   20  C  3  S    0.021789   0.057481   0.014877   0.096808  -0.079336
   21  C  3  X    0.073645  -0.127947   0.019562  -0.112287  -0.120861
   22  C  3  Y    0.097491  -0.059410  -0.006292  -0.015190  -0.073269
   23  C  3  Z   -0.028119  -0.022994  -0.023032  -0.033062   0.018795
   24  C  3  S    0.064744   0.135198   0.031626   0.311742  -0.201979
   25  C  3  X   -0.024696  -0.042582   0.012985  -0.125018  -0.068594
   26  C  3  Y    0.005319  -0.001817   0.002688  -0.013349  -0.090329
   27  C  3  Z   -0.006293  -0.025507  -0.024526  -0.029391   0.038527
   28  O  4  S    0.012735   0.030290   0.007821   0.054151  -0.053741
   29  O  4  S   -0.013409  -0.029567  -0.006774  -0.053430   0.049836
   30  O  4  X    0.019417  -0.039615   0.004531  -0.083134  -0.016424
   31  O  4  Y    0.016114  -0.012228   0.016004  -0.003532  -0.124122
   32  O  4  Z   -0.002332  -0.010668  -0.020362  -0.025369   0.065240
   33  O  4  S   -0.043468  -0.111238  -0.030226  -0.210557   0.213797
   34  O  4  X    0.018727  -0.031200   0.004753  -0.066262  -0.018244
[...]
   1665   -8.73520   -2.62573    2.80900       -10.679520      10.673879      -0.005641
   1666    9.46067    5.57723    2.45100        -9.233691       9.242012       0.008322
   1667    7.97999    6.13137    2.43250        -9.749829       9.763169       0.013340
   1668   11.85648    5.22769    0.40474        -8.253129       8.262875       0.009746
   1669   11.29090    6.70837   -0.51038        -7.989108       8.007004       0.017896
   1670   10.36436    7.60499   -1.42549        -7.992565       8.015133       0.022568
   1671   10.59847    6.36548    1.19299        -8.423427       8.437700       0.014273
   1672    9.81022    7.62349    0.05520        -8.270498       8.291884       0.021386
   1673    8.89510    7.05791    1.53588        -8.889689       8.907720       0.018031
   1674   11.29090    6.70837   -2.34061        -7.860239       7.880188       0.019949
   1675   12.21678    5.36531   -1.42549        -7.969316       7.982522       0.013206
   1676   12.42205    3.74700   -0.51038        -8.404603       8.407513       0.002910
   1677   11.85648    5.22769   -3.25572        -7.967096       7.981967       0.014870
   1678   12.42205    3.74700   -2.34061        -8.242763       8.248900       0.006137
   1679   11.83798    3.74700   -3.80986        -8.297303       8.305484       0.008181
   1680    7.97999    6.13137   -5.28348        -8.890057       8.913331       0.023274
   1681    9.46067    5.57723   -5.30198        -8.472655       8.492237       0.019582
   1682   10.94136    4.66211   -4.73641        -8.262346       8.276521       0.014175
   1683    7.97999    4.66211   -5.86755        -9.301744       9.320019       0.018276
   1684    9.59830    3.74700   -5.66228        -8.917974       8.929381       0.011407
   1685    9.81022    7.62349   -2.90618        -8.049167       8.073504       0.024336
   1686   10.59847    6.36548   -4.04397        -8.012762       8.033397       0.020635
   1687    8.89510    7.05791   -4.38686        -8.367307       8.391818       0.024511
   1688    8.89510    8.18906   -1.42549        -8.323548       8.349070       0.025523
   1689    7.06487    8.18906   -1.42549        -9.045103       9.072995       0.027892
   1690    5.59562    7.60499   -1.42549       -10.051047      10.080743       0.029696
   1691    7.97999    7.98379    0.19282        -8.863291       8.887651       0.024360
   1692    6.14976    7.62349    0.05520        -9.892656       9.919858       0.027202
   1693    7.06487    7.05791    1.53588        -9.771471       9.792604       0.021134
   1694    6.14976    7.62349   -2.90618        -9.529791       9.558926       0.029135
   1695    7.97999    7.98379   -3.04380        -8.574203       8.601430       0.027227
   1696    7.06487    7.05791   -4.38686        -9.099998       9.126868       0.026870
   1697    6.49930    5.57723   -5.30198        -9.814382       9.838789       0.024407
   1698    5.44431    3.39184    4.39709       -11.834015      11.830734      -0.003281
   1699    3.82600    4.30695    4.60236       -11.726353      11.724944      -0.001409
   1700    5.30668    5.22207    4.03679       -10.840471      10.845658       0.005187
   1701    3.82600    5.77621    4.01830       -10.929298      10.935374       0.006076
   1702    6.44448    6.01032    2.77878       -10.460047      10.472956       0.012909
   1703    5.65623    7.26832    1.64099       -10.103601      10.123299       0.019698
   1704    4.74111    6.70275    3.12168       -10.343285      10.355338       0.012053
   1705    4.74111    7.83390    0.16030       -10.103712      10.126493       0.022781
   1706    2.91088    7.83390    0.16030       -10.462032      10.481243       0.019212
   1707    1.44163    7.24983    0.16030       -11.248880      11.266999       0.018119
   1708    3.82600    7.62863    1.77861       -10.235310      10.251856       0.016547
   1709    1.99577    7.26832    1.64099       -10.942324      10.957506       0.015182
   1710    2.91088    6.70275    3.12168       -10.815757      10.826283       0.010526
   1711    1.99577    7.26832   -1.32038       -11.086065      11.106063       0.019998
   1712    3.82600    7.62863   -1.45801       -10.443753      10.467356       0.023602
   1713    2.34531    5.22207    4.03679       -11.842506      11.843627       0.001120
   1714    1.20752    6.01032    2.77878       -12.008308      12.016872       0.008564
   1715    3.88497   -0.15576   -6.84360       -11.179784      11.187738       0.007954
   1716    5.36566    0.39838   -6.86209       -10.662213      10.668667       0.006454
   1717    6.84634    1.31349   -6.29652       -10.538514      10.542680       0.004166
   1718    4.80009   -1.08231   -5.94698       -11.729497      11.736271       0.006774
   1719    3.88497    4.61298   -6.84360        -9.948601       9.962621       0.014020
   1720    5.36566    4.05884   -6.86209        -9.826523       9.840961       0.014439
   1721    6.84634    3.14372   -6.29652       -10.127325      10.139708       0.012384
   1722    3.88497    3.14372   -7.42767       -10.069057      10.080159       0.011101
   1723    5.50328    2.22861   -7.22240       -10.059988      10.069729       0.009741
   1724    3.88497    1.31349   -7.42767       -10.502303      10.510970       0.008667
   1725    4.80009    5.53952   -5.94698        -9.905147       9.923790       0.018643
   1726    2.05474    6.10510   -4.46629       -10.943179      10.959468       0.016289
   1727    3.88497    6.46540   -4.60392       -10.313261      10.334219       0.020958
   1728    2.96986    5.53952   -5.94698       -10.252200      10.267285       0.015085
   1729    0.57406    5.18998   -3.90072       -12.303946      12.314955       0.011009
   1730    1.26649    4.84709   -5.60409       -11.184912      11.194702       0.009789
   1731    2.40428    4.05884   -6.86209       -10.453628      10.464230       0.010602
   1732    0.92360    3.14372   -6.29652       -11.647783      11.651203       0.003420
   1733    0.92360    1.31349   -6.29652       -12.398290      12.398338       0.000048
   1734    2.26666    2.22861   -7.22240       -10.857660      10.865138       0.007477
   1735    2.40428    0.39838   -6.86209       -11.550059      11.557089       0.007030
   1736    2.43466   -6.65476    5.08603       -10.588374      10.588362      -0.000013
   1737    3.91534   -6.10062    5.10452       -10.622368      10.620233      -0.002135
   1738    2.43466   -5.18551    5.67009       -11.300521      11.301224       0.000703
   1739    4.81903   -8.12838    1.22803       -10.089625      10.086755      -0.002871
   1740    4.26489   -8.14688    2.70872        -9.955809       9.954341      -0.001468
   1741    5.05314   -6.88887    3.84652       -10.316847      10.312007      -0.004840
   1742    3.34977   -7.58131    4.18941       -10.126528      10.126065      -0.000463
   1743    3.34977   -7.58131   -1.73334       -10.906144      10.901210      -0.004934
   1744    5.05314   -6.88887   -1.39045       -11.062948      11.058097      -0.004851
   1745    4.26489   -8.14688   -0.25265       -10.307303      10.304273      -0.003030
   1746    3.34977   -8.71245    1.22803        -9.999927       9.997706      -0.002221
   1747    2.43466   -8.50718    2.84634       -10.042354      10.040372      -0.001982
   1748   -0.40051   -4.04141    7.32758       -10.604485      10.603260      -0.001225
   1749    1.08018   -3.48727    7.34608       -10.840501      10.838343      -0.002157
   1750    2.56086   -2.57215    6.78051       -11.565104      11.559703      -0.005401
   1751   -0.40051   -2.57215    7.91165       -10.650806      10.645371      -0.005435
   1752    2.21797   -4.27552    6.08807       -11.572885      11.573346       0.000461
   1753    0.51460   -4.96795    6.43096       -10.948510      10.948736       0.000226
   1754   -3.71143   -4.61841    4.38471       -11.901384      11.896626      -0.004758
   1755   -4.27700   -3.13772    5.29982       -11.897173      11.893804      -0.003369
   1756   -3.01899   -4.27552    6.08807       -11.035568      11.033242      -0.002326
   1757   -2.23074   -5.53353    4.95028       -11.351006      11.345795      -0.005211
   1758   -1.88120   -3.48727    7.34608       -10.646866      10.643996      -0.002870
   1759   -1.31563   -4.96795    6.43096       -10.769700      10.768582      -0.001118
   1760   -5.18181    3.20430   -7.35917       -10.014501      10.015321       0.000820
   1761   -5.18181    1.73505   -7.94323        -9.890568       9.889885      -0.000682
   1762   -7.01204    4.69642   -4.98186       -10.371292      10.379175       0.007883
   1763   -6.09693    4.13085   -6.46255       -10.005244      10.009938       0.004694
   1764   -7.80029    3.43842   -6.11966        -9.749024       9.756352       0.007328
   1765   -6.66250    2.65016   -7.37766        -9.586559       9.591331       0.004773
   1766   -8.14318    1.73505   -6.81209        -9.470787       9.476384       0.005597
   1767   -9.03980    0.81993   -5.88554        -9.686864       9.689486       0.002622
   1768   -8.14318   -0.09518   -6.81209        -9.520309       9.522994       0.002685
   1769   -6.80012    0.81993   -7.73797        -9.504797       9.507745       0.002948
   1770   -6.66250   -1.01030   -7.37766        -9.738630       9.738185      -0.000445
   1771   -6.09693   -2.49098   -6.46255       -10.344923      10.339276      -0.005647
   1772   -7.01204   -3.05655   -4.98186       -10.689840      10.682982      -0.006858
   1773   -7.80029   -1.79855   -6.11966        -9.907846       9.906200      -0.001645
   1774   -5.62237   -1.24661    6.73689       -10.525402      10.522507      -0.002895
   1775   -5.62237    0.22264    7.32095       -10.163824      10.160846      -0.002978
   1776   -5.62237    2.05287    7.32095        -9.976708       9.975038      -0.001670
   1777   -4.14169    2.96799    6.75538       -10.831936      10.823040      -0.008897
   1778   -5.62237    3.52213    6.73689       -10.020642      10.021496       0.000854
   1779   -4.70726   -2.17316    5.84027       -11.629887      11.625280      -0.004607
   1780   -4.70726    4.44867    5.84027       -10.663968      10.663779      -0.000189
   1781   -6.53749    4.44867    5.84027        -9.895763       9.902960       0.007197
   1782   -7.10306    2.96799    6.75538        -9.520729       9.526088       0.005359
   1783   -8.24085    3.75624    5.49737        -9.549640       9.562115       0.012475
   1784   -8.58375    2.05287    6.18981        -9.326213       9.334981       0.008769
   1785   -9.49886    2.61844    4.70912        -9.607183       9.624101       0.016918
   1786   -9.48037    1.13776    5.26326        -9.464959       9.475228       0.010268
   1787   -8.93329   -1.82362    3.79401       -10.359763      10.359156      -0.000608
   1788   -9.49886   -0.34293    4.70912        -9.737448       9.743398       0.005950
   1789   -8.58375    0.22264    6.18981        -9.426565       9.432023       0.005458
   1790   -8.24085   -1.48072    5.49737        -9.864182       9.866232       0.002050
   1791   -7.45260   -2.73873    4.35958       -10.712791      10.711379      -0.001412
   1792   -7.10306   -0.69247    6.75538        -9.792365       9.793607       0.001242
   1793   -6.53749   -2.17316    5.84027       -10.481531      10.480713      -0.000818
   1794   -5.62237   -3.09903    4.49720       -11.734760      11.732374      -0.002386
   1795   -7.24068    1.13776    7.11568        -9.497829       9.501011       0.003182
   1796   -3.31244    5.49955    4.66705       -11.214109      11.213976      -0.000133
   1797   -4.79312    6.05369    4.64855       -10.344707      10.351070       0.006363
   1798   -1.48221    6.63069    1.70567       -11.809261      11.820175       0.010915
   1799   -2.40875    7.52731    0.79056       -10.882055      10.894093       0.012038
   1800   -2.17464    6.28780    3.40904       -11.430732      11.434950       0.004218
   1801   -2.96289    7.54581    2.27125       -10.491564      10.501623       0.010058
   1802   -3.87801    6.98023    3.75193       -10.290881      10.298449       0.007568
   1803   -4.79312    6.05369   -3.06743       -11.359295      11.365702       0.006407
   1804   -2.96289    7.54581   -0.69013       -10.805499      10.817292       0.011793
   1805   -2.17464    6.28780   -1.82792       -12.139062      12.148180       0.009118
   1806   -3.87801    6.98023   -2.17081       -10.957123      10.966240       0.009116
   1807   -3.87801    8.11138    0.79056       -10.066205      10.078491       0.012286
   1808   -5.70824    8.11138    0.79056        -9.607263       9.621679       0.014416
   1809   -7.17749    7.52731    0.79056        -9.571841       9.590548       0.018707
   1810   -4.79312    7.90611    2.40887        -9.751277       9.763150       0.011873
   1811   -6.62335    7.54581    2.27125        -9.509034       9.524765       0.015731
   1812   -5.70824    6.98023    3.75193        -9.777829       9.789175       0.011346
   1813   -6.62335    7.54581   -0.69013        -9.810556       9.827010       0.016455
   1814   -4.79312    7.90611   -0.82775       -10.059832      10.072501       0.012669
   1815   -5.70824    6.98023   -2.17081       -10.431140      10.443158       0.012017
   1816   -8.10404    6.63069    1.70567        -9.716863       9.741172       0.024310
   1817   -8.08594    6.89549   -0.13569        -9.726685       9.750593       0.023908
   1818   -9.91617    6.89549   -0.13569        -8.683088       8.708410       0.025322
   1819  -11.38543    6.31143   -0.13569        -8.141008       8.166612       0.025604
   1820   -9.00106    6.69022    1.48262        -9.203055       9.228947       0.025892
   1821  -10.83129    6.32992    1.34500        -8.357609       8.384113       0.026504
   1822   -9.91617    5.76435    2.82568        -8.886801       8.912594       0.025793
   1823  -10.83129    6.32992   -1.61638        -8.377494       8.400874       0.023379
   1824   -9.00106    6.69022   -1.75400        -9.212980       9.234715       0.021734
   1825   -9.91617    5.76435   -3.09706        -8.929772       8.948507       0.018735
   1826  -12.31197    5.41481   -1.05081        -7.926865       7.950704       0.023839
   1827  -11.61954    5.07191   -2.75417        -8.263804       8.283935       0.020131
   1828  -10.48174    4.28366   -4.01218        -8.956926       8.971165       0.014239
   1829  -12.87755    3.93412   -1.96592        -7.935935       7.956000       0.020064
   1830  -11.96243    3.36855   -3.44661        -8.408342       8.423340       0.014998
   1831  -12.85905    2.45343   -2.52006        -8.165194       8.180157       0.014963
   1832  -10.48174    4.28366    3.74080        -8.868808       8.892607       0.023800
   1833  -11.61954    5.07191    2.48279        -8.215853       8.241487       0.025634
   1834  -12.31197    5.41481    0.77942        -7.911562       7.937169       0.025606
   1835  -11.96243    3.36855    3.17522        -8.325242       8.347869       0.022626
   1836  -12.87755    3.93412    1.69454        -7.897387       7.921146       0.023759
   1837  -12.85905    2.45343    2.24868        -8.100773       8.121165       0.020392
   1838  -13.44312    2.45343    0.77942        -7.897909       7.917671       0.019762
   1839  -13.23785    4.07174   -0.13569        -7.769880       7.792717       0.022837
   1840  -13.44312    2.45343   -1.05081        -7.921171       7.938972       0.017802
   1841  -12.87755    0.97275    1.69454        -8.315427       8.330392       0.014966
   1842  -13.23785    0.83512   -0.13569        -8.215627       8.228499       0.012872
   1843  -12.87755    0.97275   -1.96592        -8.378548       8.388675       0.010127
   1844  -11.96243    1.53832    3.17522        -8.616295       8.633524       0.017229
   1845  -10.61937    2.45343    4.10110        -9.144967       9.164489       0.019522

 NET CHARGES:
 -------------------------------------
 ATOM                CHARGE    E.S.D.
 -------------------------------------
 O                  -0.5975    0.0108
 C                   0.0587    0.1530
 C                   0.5421    0.1007
 O                  -0.4173    0.0079
 C                   0.0359    0.2236
 H                   0.0862    0.0205
 O                  -0.5891    0.0231
 C                   0.0321    0.2187
 H                   0.0694    0.0240
 O                  -0.5970    0.0183
 C                   0.3273    0.2074
 H                   0.0430    0.0227
 O                  -0.6637    0.0204
 C                   0.0843    0.1357
 O                  -0.6519    0.0163
 H                   0.4177    0.0030
 H                   0.0643    0.0140
 H                   0.0283    0.0134
 H                   0.3950    0.0066
 H                   0.3914    0.0042
 H                   0.4213    0.0064
 H                   0.0464    0.0136
 H                   0.0434    0.0128
 H                   0.4298    0.0037
 -------------------------------------

 RMS DEVIATION IS            0.849 KCAL/MOLE
 RELATIVE RMS DEVIATION IS   6.912 %

 MULTIPOLE MOMENTS:
 ---------------------------------------------------------
 STATUS  ACTUAL VALUE       QUANTITY        FITTED VALUE 
 ---------------------------------------------------------
 FIXED       0.0000       TOTAL CHARGE         0.0000
             4.3878 D    DIPOLE MOMENT         4.3900 D
 FREE       -1.8905 D          DX             -1.8908 D
 FREE        3.8436 D          DY              3.8548 D
 FREE       -0.9516 D          DZ             -0.9148 D
 FREE        0.0000 BU         QXX             3.3325 BU
 FREE        0.0000 BU         QYY             6.3220 BU
 FREE        0.0000 BU         QZZ            -9.6546 BU
 FREE        0.0000 BU         QXY             1.6645 BU
 FREE        0.0000 BU         QXZ            -8.9510 BU
 FREE        0.0000 BU         QYZ            -4.5185 BU
 ---------------------------------------------------------
 ...... END OF PROPERTY EVALUATION ......
 CPU     0: STEP CPU TIME=     0.78 TOTAL CPU TIME=         25.3 (      0.4 MIN)
 TOTAL WALL CLOCK TIME=         51.1 SECONDS, CPU UTILIZATION IS    49.56%
               956059  WORDS OF DYNAMIC MEMORY USED
 EXECUTION OF GAMESS TERMINATED NORMALLY Fri May 22 15:36:43 2020
 DDI: 263640 bytes (0.3 MB / 0 MWords) used by master data server.
Note: The following floating-point exceptions are signalling: IEEE_UNDERFLOW_FLAGNote: The following floating-point exceptions are signalling:Note: The following floating-point exceptions are signalling: IEEE_UNDERFLOW_FLAGNote: The following floating-point exceptions are signalling: IEEE_UNDERFLOW_FLAGNote: The following floating-point exceptions are signalling: IEEE_UNDERFLOW_FLAG IEEE_DENORMAL
Note: The following floating-point exceptions are signalling:
 ----------------------------------------
 CPU timing information for all processes
 ========================================
 0: 25.53 + 0.299 = 25.352
 1: 25.295 + 0.98 = 25.393
 2: 25.315 + 0.113 = 25.429
 3: 25.124 + 0.61 = 25.186
 4: 25.90 + 0.113 = 25.204
 5: 25.242 + 0.65 = 25.308
 6: 24.817 + 0.101 = 24.919
 7: 24.669 + 0.73 = 24.743
 ----------------------------------------
 IEEE_UNDERFLOW_FLAG IEEE_DENORMAL IEEE_DENORMAL
 IEEE_DENORMAL
 IEEE_DENORMAL
 IEEE_UNDERFLOW_FLAG IEEE_DENORMALNote: The following floating-point exceptions are signalling: IEEE_UNDERFLOW_FLAGNote: The following floating-point exceptions are signalling:

 IEEE_DENORMAL
 IEEE_UNDERFLOW_FLAG IEEE_DENORMAL
 ddikick.x: exited gracefully.
unset echo
----- accounting info -----
Files used on the master node pietdev were:
-rwxr-xr-x 1 piet piet     1504 mei 22 15:35 /home/piet/scr/d-fructose_charge_geodisk.F05*
-rw-r--r-- 1 piet piet 50790400 mei 22 15:36 /home/piet/scr/d-fructose_charge_geodisk.F10
ls: No match.
ls: No match.
ls: No match.
vr 22 mei 2020 15:36:46 CEST
0.112u 0.019s 0:54.28 0.2%	0+0k 0+8io 0pf+0w
