----- GAMESS execution script 'rungms' -----
This job is running on host pietdev
under operating system Linux at ma 25 mei 2020 18:28:02 CEST
Available scratch disk space (Kbyte units) at beginning of the job is
Filesystem     1K-blocks     Used Available Use% Mounted on
/dev/sda2      244568380 31071320 201004004  14% /
GAMESS temporary binary files will be written to /home/piet/scr
GAMESS supplementary output files will be written to /home/piet/gamess/scr
Copying input file caryophylene_charge_geodisk.inp to your run's scratch directory...
cp caryophylene_charge_geodisk.inp /home/piet/scr/caryophylene_charge_geodisk.F05
unset echo
 
Assuming a single but multicore node.
 
/home/piet/gamess/ddikick.x /home/piet/gamess/gamess.03.x caryophylene_charge_geodisk -ddi 1 6 pietdev:cpus=6 -scr /home/piet/scr

 Distributed Data Interface kickoff program.
 Initiating 6 compute processes on 1 nodes to run the following command:
 /home/piet/gamess/gamess.03.x caryophylene_charge_geodisk 

          ******************************************************
          *         GAMESS VERSION = 30 SEP 2019 (R2)          *
          *             FROM IOWA STATE UNIVERSITY             *
          * M.W.SCHMIDT, K.K.BALDRIDGE, J.A.BOATZ, S.T.ELBERT, *
          *   M.S.GORDON, J.H.JENSEN, S.KOSEKI, N.MATSUNAGA,   *
          *          K.A.NGUYEN, S.J.SU, T.L.WINDUS,           *
          *       TOGETHER WITH M.DUPUIS, J.A.MONTGOMERY       *
          *         J.COMPUT.CHEM.  14, 1347-1363(1993)        *
          **************** 64 BIT LINUX VERSION ****************

  SINCE 1993, STUDENTS AND POSTDOCS WORKING AT IOWA STATE UNIVERSITY
  AND ALSO IN THEIR VARIOUS JOBS AFTER LEAVING ISU HAVE MADE IMPORTANT
  CONTRIBUTIONS TO THE CODE:
     IVANA ADAMOVIC, CHRISTINE AIKENS, YURI ALEXEEV, POOJA ARORA,
     ANDREY ASADCHEV, ROB BELL, PRADIPTA BANDYOPADHYAY, JONATHAN BENTZ,
     COLLEEN BERTONI, BRETT BODE, KURT BRORSEN, CALEB CARLIN, GALINA CHABAN,
     WEI CHEN, CHEOL HO CHOI, PAUL DAY, ALBERT DEFUSCO, NUWAN DESILVA,
     TIM DUDLEY, DMITRI FEDOROV, ALEX FINDLATER, GRAHAM FLETCHER, 
     MARK FREITAG, KURT GLAESEMANN, EMILIE B GUIDEZ, ANASTASIA GUNINA, 
     DAN KEMP, SAROM SOK LEANG, GRANT MERRILL,
     NORIYUKI MINEZAWA, JONATHAN MULLIN,
     TAKESHI NAGATA, SEAN NEDD, HEATHER NETZLOFF, BOSILJKA NJEGIC, RYAN OLSON,
     MIKE PAK, BUU PHAM, DAVID POOLE,
     SPENCER PRUITT, LUKE ROSKOP, TOSAPORN SATTASATHUCHANA,
     JIM SHOEMAKER, LYUDMILA SLIPCHENKO,
     TONY SMITH, JIE SONG, TETSUYA TAKETSUGU, SIMON WEBB,
     JORGE LUIS GALVEZ VALLEJO, PENG XU, SOOHAENG YOO,
     FEDERICO ZAHARIEV

  ADDITIONAL CODE HAS BEEN PROVIDED BY COLLABORATORS IN OTHER GROUPS:
     IOWA STATE UNIVERSITY:
          JOE IVANIC, AARON WEST, LAIMUTIS BYTAUTAS, KLAUS RUEDENBERG
     UNIVERSITY OF TOKYO: KIMIHIKO HIRAO, TAKAHITO NAKAJIMA,
          TAKAO TSUNEDA, MUNEAKI KAMIYA, SUSUMU YANAGISAWA,
          KIYOSHI YAGI, MAHITO CHIBA, SEIKEN TOKURA, NAOAKI KAWAKAMI
     UNIVERSITY OF AARHUS: FRANK JENSEN
     UNIVERSITY OF IOWA: VISVALDAS KAIRYS, HUI LI
     NATIONAL INST. OF STANDARDS AND TECHNOLOGY: WALT STEVENS, DAVID GARMER
     UNIVERSITY OF PISA: BENEDETTA MENNUCCI, JACOPO TOMASI
     UNIVERSITY OF MEMPHIS: HENRY KURTZ, PRAKASHAN KORAMBATH
     UNIVERSITY OF ALBERTA: TOBY ZENG, MARIUSZ KLOBUKOWSKI
     UNIVERSITY OF NEW ENGLAND: MARK SPACKMAN
     MIE UNIVERSITY: HIROAKI UMEDA
     NAT. INST. OF ADVANCED INDUSTRIAL SCIENCE AND TECHNOLOGY: KAZUO KITAURA
     MICHIGAN STATE UNIVERSITY:
          KAROL KOWALSKI, MARTA WLOCH, JEFFREY GOUR, JESSE LUTZ,
          WEI LI, JUN SHEN, J. EMILIANO DEUSTUA, PIOTR PIECUCH
     UNIVERSITY OF MINNESOTA:
          ANDREW SAND, PRACHI SHARMA, YINAN SHU
     UNIVERSITY OF SILESIA: MONIKA MUSIAL, STANISLAW KUCHARSKI
     FACULTES UNIVERSITAIRES NOTRE-DAME DE LA PAIX:
          OLIVIER QUINET, BENOIT CHAMPAGNE
     UNIVERSITY OF CALIFORNIA - SANTA BARBARA: BERNARD KIRTMAN
     INSTITUTE FOR MOLECULAR SCIENCE:
          KAZUYA ISHIMURA, MICHIO KATOUDA, AND SHIGERU NAGASE
     UNIVERSITY OF NOTRE DAME: ANNA POMOGAEVA, DAN CHIPMAN
     KYUSHU UNIVERSITY:
          HARUYUKI NAKANO,
          FENG LONG GU, JACEK KORCHOWIEC, MARCIN MAKOWSKI, AND YURIKO AOKI,
          HIROTOSHI MORI AND EISAKU MIYOSHI
     PENNSYLVANIA STATE UNIVERSITY:
          TZVETELIN IORDANOV, CHET SWALINA, JONATHAN SKONE,
          SHARON HAMMES-SCHIFFER
     WASEDA UNIVERSITY:
          MASATO KOBAYASHI, TOMOKO AKAMA, TSUGUKI TOUMA,
          TAKESHI YOSHIKAWA, YASUHIRO IKABATA, JUNJI SEINO,
          YUYA NAKAJIMA, HIROMI NAKAI
     NANJING UNIVERSITY: SHUHUA LI
     UNIVERSITY OF NEBRASKA:
          PEIFENG SU, DEJUN SI, NANDUN THELLAMUREGE, YALI WANG, HUI LI
     UNIVERSITY OF ZURICH: ROBERTO PEVERATI, KIM BALDRIDGE
     N. COPERNICUS UNIVERSITY AND JACKSON STATE UNIVERSITY:
          MARIA BARYSZ
     UNIVERSITY OF COPENHAGEN: Jimmy Kromann, CASPER STEINMANN
     TOKYO INSTITUTE OF TECHNOLOGY: HIROYA NAKATA
     NAGOYA UNIVERSITY: YOSHIO NISHIMOTO, STEPHAN IRLE
     MOSCOW STATE UNIVERSITY: VLADIMIR MIRONOV
     A.N.NESMEYANOV INSTITUTE OF ORGANOELEMENT COMPOUNDS OF RUSSIAN ACADEMY OF SCIENCES:
          IGOR S. GERASIMOV
     JOHANNES KEPLER UNIVERSITY LINZ:
          CHRISTIAN FRIEDL


 PARALLEL VERSION RUNNING ON        6 PROCESSORS IN        1 NODES.

 EXECUTION OF GAMESS BEGUN Mon May 25 18:28:02 2020

            ECHO OF THE FIRST FEW INPUT CARDS -
 INPUT CARD> $BASIS GBASIS=N21 NGAUSS=3 $END                                                
 INPUT CARD> $CONTRL SCFTYP=RHF DFTTYP=B3LYP MAXIT=60 MULT=1 ICHARG=0 $END                  
 INPUT CARD> $SYSTEM MEMDDI=1000 MWORDS=30 $END                                             
 INPUT CARD> $SCF DIRSCF=.TRUE. $END                                                        
 INPUT CARD> $ELPOT  IEPOT=1 WHERE=PDC $END                                                 
 INPUT CARD> $PDC PTSEL=GEODESIC CONSTR=CHARGE $END                                         
 INPUT CARD> $DATA                                                                          
 INPUT CARD>                                                                                
 INPUT CARD>C1                                                                              
 INPUT CARD>C 6.0000000 -2.49753 -0.59686 -1.63028                                          
 INPUT CARD>C 6.0000000 -3.36637 1.06612 0.03147                                            
 INPUT CARD>C 6.0000000 2.22048 1.94518 -1.34781                                            
 INPUT CARD>C 6.0000000 -1.98560 -0.99731 0.84808                                           
 INPUT CARD>C 6.0000000 -0.51165 1.92664 0.48241                                            
 INPUT CARD>C 6.0000000 1.57236 -1.62161 -0.74331                                           
 INPUT CARD>C 6.0000000 0.96626 2.29246 0.87084                                             
 INPUT CARD>C 6.0000000 2.83113 -0.90290 -0.16213                                           
 INPUT CARD>C 6.0000000 0.42552 -1.87038 0.23286                                            
 INPUT CARD>C 6.0000000 1.95748 1.48475 0.06481                                             
 INPUT CARD>C 6.0000000 2.38545 0.32228 0.58628                                             
 INPUT CARD>C 6.0000000 -0.74617 0.53181 -0.13407                                           
 INPUT CARD>C 6.0000000 -0.44731 -0.72227 0.76506                                           
 INPUT CARD>C 6.0000000 -2.25020 0.06020 -0.26398                                           
 INPUT CARD>C 6.0000000 0.19328 -3.12446 0.65355                                            
 INPUT CARD>H 1.0000000 -0.24156 0.49548 -1.10458                                           
 INPUT CARD>H 1.0000000 -0.04097 -0.42282 1.73760                                           
 INPUT CARD>H 1.0000000 -2.30916 -2.01676 0.61698                                           
 INPUT CARD>H 1.0000000 -2.41063 -0.71079 1.81638                                           
 INPUT CARD>H 1.0000000 -1.12658 2.04975 1.38223                                            
 INPUT CARD>H 1.0000000 -0.88739 2.66600 -0.23668                                           
 INPUT CARD>H 1.0000000 -1.72557 -1.33708 -1.86763                                          
 INPUT CARD>H 1.0000000 -3.46674 -1.11122 -1.64722                                          
 INPUT CARD>H 1.0000000 -2.50078 0.15507 -2.43030                                           
 INPUT CARD>H 1.0000000 -3.39851 1.86688 -0.71804                                           
 INPUT CARD>H 1.0000000 -4.33909 0.55831 0.01219                                            
 INPUT CARD>H 1.0000000 -3.26104 1.53069 1.01707                                            
 INPUT CARD>H 1.0000000 1.20850 -1.01795 -1.58428                                           
 INPUT CARD>H 1.0000000 1.88158 -2.58617 -1.16348                                           
 INPUT CARD>H 1.0000000 1.10602 3.37407 0.74180                                             
 INPUT CARD>H 1.0000000 1.11910 2.08058 1.93478                                             
 INPUT CARD>H 1.0000000 -0.61181 -3.36385 1.34318                                           
 INPUT CARD>H 1.0000000 0.80911 -3.95735 0.32361                                            
 INPUT CARD>H 1.0000000 3.36186 -1.58820 0.50884                                            
 INPUT CARD>H 1.0000000 3.51044 -0.67588 -0.99250                                           
 INPUT CARD>H 1.0000000 2.14643 0.14170 1.63399                                             
 INPUT CARD>H 1.0000000 2.70007 2.93353 -1.33372                                            
 INPUT CARD>H 1.0000000 2.87423 1.26579 -1.90109                                            
 INPUT CARD>H 1.0000000 1.28969 2.06182 -1.91912                                            
 INPUT CARD> $END                                                                           
   30000000 WORDS OF MEMORY AVAILABLE

     BASIS OPTIONS
     -------------
     GBASIS=N21          IGAUSS=       3      POLAR=NONE    
     NDFUNC=       0     NFFUNC=       0     DIFFSP=       F
     NPFUNC=       0      DIFFS=       F     BASNAM=        


     RUN TITLE
     ---------
                                                                                 

 THE POINT GROUP OF THE MOLECULE IS C1      
 THE ORDER OF THE PRINCIPAL AXIS IS     0

 ATOM      ATOMIC                      COORDINATES (BOHR)
           CHARGE         X                   Y                   Z
 C           6.0    -4.7196473461       -1.1279018530       -3.0807824833
 C           6.0    -6.3615168733        2.0146746700        0.0594696768
 C           6.0     4.1960987612        3.6758571968       -2.5469915835
 C           6.0    -3.7522399212       -1.8846426248        1.6026388157
 C           6.0    -0.9668783016        3.6408216770        0.9116227137
 C           6.0     2.9713295541       -3.0643985589       -1.4046522239
 C           6.0     1.8259666329        4.3321212378        1.6456489791
 C           6.0     5.3500599356       -1.7062335943       -0.3063812744
 C           6.0     0.8041162023       -3.5345056929        0.4400415935
 C           6.0     3.6991008264        2.8057706603        0.1224731413
 C           6.0     4.5078468574        0.6090208913        1.1079085521
 C           6.0    -1.4100568403        1.0049751775       -0.2533555632
 C           6.0    -0.8452933316       -1.3648923892        1.4457537642
 C           6.0    -4.2522614176        0.1137615045       -0.4988498662
 C           6.0     0.3652462389       -5.9043732596        1.2350304193
 H           1.0    -0.4564822096        0.9363214324       -2.0873535315
 H           1.0    -0.0774220737       -0.7990139421        3.2835878763
 H           1.0    -4.3636796618       -3.8111237830        1.1659231399
 H           1.0    -4.5554301578       -1.3431983348        3.4324604896
 H           1.0    -2.1289275032        3.8734658433        2.6120359520
 H           1.0    -1.6769239442        5.0380094833       -0.4472603468
 H           1.0    -3.2608544726       -2.5267148237       -3.5293089464
 H           1.0    -6.5511886707       -2.0999013121       -3.1127944415
 H           1.0    -4.7257889556        0.2930398089       -4.5926010680
 H           1.0    -6.4222526665        3.5278916520       -1.3568988482
 H           1.0    -8.1996911361        1.0550529162        0.0230357598
 H           1.0    -6.1624720350        2.8925846721        1.9219836103
 H           1.0     2.2837338562       -1.9236465692       -2.9938550878
 H           1.0     3.5556706240       -4.8871526577       -2.1986583922
 H           1.0     2.0900747369        6.3760677634        1.4017987377
 H           1.0     2.1147923529        3.9317260955        3.6562040465
 H           1.0    -1.1561532565       -6.3567547638        2.5382421522
 H           1.0     1.5289961939       -7.4783071375        0.6115342269
 H           1.0     6.3529942091       -3.0012628137        0.9615681716
 H           1.0     6.6337696963       -1.2772280006       -1.8755530428
 H           1.0     4.0561645518        0.2677741725        3.0877933667
 H           1.0     5.1023924477        5.5435678768       -2.5203653443
 H           1.0     5.4315071257        2.3919962580       -3.5925391780
 H           1.0     2.4371607091        3.8962748360       -3.6266109376

          INTERNUCLEAR DISTANCES (ANGS.)
          ------------------------------

                1 C          2 C          3 C          4 C          5 C     

   1 C       0.0000000    2.5063516 *  5.3666913    2.5621672 *  3.8438562  
   2 C       2.5063516 *  0.0000000    5.8213446    2.6136413 *  3.0155046  
   3 C       5.3666913    5.8213446    0.0000000    5.5831254    3.2885534  
   4 C       2.5621672 *  2.6136413 *  5.5831254    0.0000000    3.2948030  
   5 C       3.8438562    3.0155046    3.2885534    3.2948030    0.0000000  
   6 C       4.2896192    5.6758462    3.6752511    3.9473221    4.2936657  
   7 C       5.1576751    4.5804077    2.5721740 *  4.4200206    1.5712798 *
   8 C       5.5356790    6.5056535    3.1448832    4.9224308    4.4267264  
   9 C       3.6928803    4.8002104    4.5032097    2.6370905 *  3.9189187  
  10 C       5.2013022    5.3403878    1.5088605 *  4.7246178    2.5428841 *
  11 C       5.4407215    5.8261948    2.5301628 *  4.5733943    3.3132987  
  12 C       2.5651125 *  2.6792422 *  3.5031117    2.1997757 *  1.5429186 *
  13 C       3.1554371    3.5010576    4.3239580    1.5648883 *  2.6647242 *
  14 C       1.5361236 *  1.5313397 *  4.9713999    1.5572469 *  2.6576780 *
  15 C       4.3410943    5.5334485    5.8151725    3.0512501    5.1029233  
  16 H       2.5610482 *  3.3735259    2.8674783 *  3.0137980    2.1539974 *
  17 H       4.1722407    4.0231961    4.4990371    2.2142426 *  2.7049961 *
  18 H       2.6649159 *  3.3112934    6.3304824    1.0942470 *  4.3358453  
  19 H       3.4496372    2.6938359 *  6.2059209    1.0956044 *  3.5130668  
  20 H       4.2378373    2.7944122 *  4.3205166    3.2105772    1.0968004 *
  21 H       3.8962709    2.9625770 *  3.3783202    3.9752496    1.0976904 *
  22 H       1.0955286 *  3.4747915    5.1589489    2.7492072 *  4.2009711  
  23 H       1.0973701 *  2.7511604 *  6.4634123    2.9040099 *  4.7430448  
  24 H       1.0979259 *  2.7639771 *  5.1639689    3.5129995    3.9470214  
  25 H       2.7774019 *  1.0972761 *  5.6547139    3.5570537    3.1270772  
  26 H       2.7246043 *  1.0974639 *  6.8411232    2.9423767 *  4.0917882  
  27 H       3.4810743    1.0946813 *  5.9842728    2.8365629 *  2.8287423 *
  28 H       3.7301597    5.2804764    3.1400893    4.0148569    3.9875724  
  29 H       4.8323763    6.5044682    4.5477427    4.6396046    5.3667456  
  30 H       5.8634991    5.0826641    2.7659027 *  5.3552192    2.1861365 *
  31 H       5.7409364    4.9770633    3.4650784    4.5048292    2.1891600 *
  32 H       4.4781288    5.3789235    6.5915926    2.7808154 *  5.3609926  
  33 H       5.1033761    6.5387483    6.2948765    4.1045474    6.0324922  
  34 H       6.3159354    7.2486120    4.1514662    5.3906923    5.2305715  
  35 H       6.0422439    7.1675375    2.9428214 *  5.8049554    5.0125520  
  36 H       5.7242724    5.8149451    3.4855638    4.3575991    3.4025779  
  37 H       6.2902025    6.4925078    1.0986541 *  6.4936321    3.8245655  
  38 H       5.6919776    6.5360343    1.0931965 *  6.0247411    4.1930870  
  39 H       4.6362747    5.1453974    1.0983488 *  5.2671811    3.0050700  

                6 C          7 C          8 C          9 C         10 C     

   1 C       4.2896192    5.1576751    5.5356790    3.6928803    5.2013022  
   2 C       5.6758462    4.5804077    6.5056535    4.8002104    5.3403878  
   3 C       3.6752511    2.5721740 *  3.1448832    4.5032097    1.5088605 *
   4 C       3.9473221    4.4200206    4.9224308    2.6370905 *  4.7246178  
   5 C       4.2936657    1.5712798 *  4.4267264    3.9189187    2.5428841 *
   6 C       0.0000000    4.2770061    1.5616710 *  1.5264457 *  3.2327771  
   7 C       4.2770061    0.0000000    3.8412358    4.2460164    1.5114883 *
   8 C       1.5616710 *  3.8412358    0.0000000    2.6227837 *  2.5525749 *
   9 C       1.5264457 *  4.2460164    2.6227837 *  0.0000000    3.6921592  
  10 C       3.2327771    1.5114883 *  2.5525749 *  3.6921592    0.0000000  
  11 C       2.4915122 *  2.4447257 *  1.5032678 *  2.9620920 *  1.3440334 *
  12 C       3.2224172    2.6537048 *  3.8543813    2.6977791 *  2.8735642 *
  13 C       2.6763892 *  3.3313611    3.4118144    1.5372786 *  3.3383083  
  14 C       4.2035945    4.0763238    5.1727990    3.3366850    4.4544378  
  15 C       2.4721727 *  5.4761059    3.5438560    1.3429937 *  4.9702951  
  16 H       2.8112083 *  2.9309129 *  3.5050111    2.7983987 *  2.6799077 *
  17 H       3.1929368    3.0230003    3.4768390    2.1394591 *  3.2296830  
  18 H       4.1319160    5.4186897    5.3169801    2.7654023 *  5.5470425  
  19 H       4.8213914    4.6170275    5.6060196    3.4490479    5.1931472  
  20 H       5.0280296    2.1680422 *  5.1736504    4.3700669    3.4009185  
  21 H       4.9689681    2.1913811 *  5.1546092    4.7458344    3.0950821  
  22 H       3.4959112    5.2838175    4.8847474    3.0534661    5.0261224  
  23 H       5.1449082    6.1300206    6.4739521    4.3887028    6.2523811  
  24 H       4.7532091    5.2427405    5.8900900    4.4450085    5.2791765  
  25 H       6.0728700    4.6644266    6.8402582    5.4308865    5.4263714  
  26 H       6.3457129    5.6472378    7.3196706    5.3524517    6.3645780  
  27 H       6.0330497    4.2978765    6.6653888    5.0767103    5.3048903  
  28 H       1.0972830 *  4.1285722    2.1607117 *  2.1544587 *  3.0893326  
  29 H       1.0966019 *  5.3644477    2.1766361 *  2.1406147 *  4.2528634  
  30 H       5.2325752    1.0982096 *  4.6995283    5.3128482    2.1800985 *
  31 H       4.5917123    1.0955462 *  4.0285520    4.3574843    2.1341701 *
  32 H       3.4870388    5.8912862    4.4917779    2.1305672 *  5.6342172  
  33 H       2.6789084 *  6.2756897    3.6951553    2.1238693 *  5.5679604  
  34 H       2.1843320 *  4.5748733    1.0961346 *  2.9627492 *  3.4077071  
  35 H       2.1708650 *  4.3308117    1.0965922 *  3.5277569    2.8631995 *
  36 H       3.0150247    2.5692349 *  2.1877043 *  2.9955237 *  2.0740808 *
  37 H       4.7296527    2.8770041 *  4.0134767    5.5412365    2.1462268 *
  38 H       3.3722987    3.5182377    2.7801179 *  4.5150289    2.1801690 *
  39 H       3.8768658    2.8180984 *  3.7752637    4.5650854    2.1713893 *

               11 C         12 C         13 C         14 C         15 C     

   1 C       5.4407215    2.5651125 *  3.1554371    1.5361236 *  4.3410943  
   2 C       5.8261948    2.6792422 *  3.5010576    1.5313397 *  5.5334485  
   3 C       2.5301628 *  3.5031117    4.3239580    4.9713999    5.8151725  
   4 C       4.5733943    2.1997757 *  1.5648883 *  1.5572469 *  3.0512501  
   5 C       3.3132987    1.5429186 *  2.6647242 *  2.6576780 *  5.1029233  
   6 C       2.4915122 *  3.2224172    2.6763892 *  4.2035945    2.4721727 *
   7 C       2.4447257 *  2.6537048 *  3.3313611    4.0763238    5.4761059  
   8 C       1.5032678 *  3.8543813    3.4118144    5.1727990    3.5438560  
   9 C       2.9620920 *  2.6977791 *  1.5372786 *  3.3366850    1.3429937 *
  10 C       1.3440334 *  2.8735642 *  3.3383083    4.4544378    4.9702951  
  11 C       0.0000000    3.2202253    3.0244960    4.7202626    4.0853581  
  12 C       3.2202253    0.0000000    1.5717725 *  1.5815811 *  3.8563223  
  13 C       3.0244960    1.5717725 *  0.0000000    2.2184668 *  2.4886355 *
  14 C       4.7202626    1.5815811 *  2.2184668 *  0.0000000    4.1175861  
  15 C       4.0853581    3.8563223    2.4886355 *  4.1175861    0.0000000  
  16 H       3.1289275    1.0944591 *  2.2407146 *  2.2205206 *  4.0477244  
  17 H       2.7871537 *  2.2162523 *  1.0957265 *  3.0199881    2.9204274 *
  18 H       5.2451324    3.0825676    2.2724695 *  2.2568406 *  2.7368856 *
  19 H       5.0579406    2.8493398 *  2.2271127 *  2.2244238 *  3.7360840  
  20 H       3.9940010    2.1789950 *  2.9200002 *  2.8161744 *  5.3893835  
  21 H       4.1087429    2.1413171 *  3.5605515    2.9407805 *  5.9573303  
  22 H       5.0671131    2.7307882 *  2.9904843 *  2.1907353 *  3.6377275  
  23 H       6.4258519    3.5200386    3.8842418    2.1830133 *  4.7689018  
  24 H       5.7448201    2.9143201 *  3.8983060    2.1828268 *  5.2462755  
  25 H       6.1270901    3.0262750    4.1967684    2.1883507 *  6.3004515  
  26 H       6.7531273    3.5959934    4.1656512    2.1651432 *  5.8750758  
  27 H       5.7903958    2.9406557 *  3.6133661    2.1966400 *  5.8081748  
  28 H       2.8094054 *  2.8854116 *  2.8893826 *  3.8559312    3.2366555  
  29 H       3.4314176    4.2055385    3.5520583    4.9883845    2.5380526 *
  30 H       3.3127858    3.5037406    4.3810246    4.8226072    6.5629090  
  31 H       2.5521978 *  3.1871713    3.4172874    4.5020732    5.4397734  
  32 H       4.8108232    4.1685114    2.7091009 *  4.1220630    1.0867691 *
  33 H       4.5682684    4.7729367    3.4984585    5.0838320    1.0871121 *
  34 H       2.1469297 *  4.6672997    3.9147490    5.8999738    3.5243347  
  35 H       2.1804752 *  4.5071217    4.3306990    5.8529931    4.4394341  
  36 H       1.0896953 *  3.4125294    2.8686183 *  4.7894976    3.9298675  
  37 H       3.2563802    4.3685225    5.2607748    5.8228466    6.8507285  
  38 H       2.7048339 *  4.0949215    4.7003581    5.5130173    5.7435158  
  39 H       3.2409441    3.1099936    4.2394750    4.3905344    5.8922191  

               16 H         17 H         18 H         19 H         20 H     

   1 C       2.5610482 *  4.1722407    2.6649159 *  3.4496372    4.2378373  
   2 C       3.3735259    4.0231961    3.3112934    2.6938359 *  2.7944122 *
   3 C       2.8674783 *  4.4990371    6.3304824    6.2059209    4.3205166  
   4 C       3.0137980    2.2142426 *  1.0942470 *  1.0956044 *  3.2105772  
   5 C       2.1539974 *  2.7049961 *  4.3358453    3.5130668    1.0968004 *
   6 C       2.8112083 *  3.1929368    4.1319160    4.8213914    5.0280296  
   7 C       2.9309129 *  3.0230003    5.4186897    4.6170275    2.1680422 *
   8 C       3.5050111    3.4768390    5.3169801    5.6060196    5.1736504  
   9 C       2.7983987 *  2.1394591 *  2.7654023 *  3.4490479    4.3700669  
  10 C       2.6799077 *  3.2296830    5.5470425    5.1931472    3.4009185  
  11 C       3.1289275    2.7871537 *  5.2451324    5.0579406    3.9940010  
  12 C       1.0944591 *  2.2162523 *  3.0825676    2.8493398 *  2.1789950 *
  13 C       2.2407146 *  1.0957265 *  2.2724695 *  2.2271127 *  2.9200002 *
  14 C       2.2205206 *  3.0199881    2.2568406 *  2.2244238 *  2.8161744 *
  15 C       4.0477244    2.9204274 *  2.7368856 *  3.7360840    5.3893835  
  16 H       0.0000000    2.9935762 *  3.6810445    3.8330092    3.0632074  
  17 H       2.9935762 *  0.0000000    2.9901705 *  2.3883931 *  2.7236812 *
  18 H       3.6810445    2.9901705 *  0.0000000    1.7760670 *  4.3035574  
  19 H       3.8330092    2.3883931 *  1.7760670 *  0.0000000    3.0753620  
  20 H       3.0632074    2.7236812 *  4.3035574    3.0753620    0.0000000  
  21 H       2.4251812 *  3.7623154    4.9677366    4.2353307    1.7486696 *
  22 H       2.4784687 *  4.0830665    2.6411795 *  3.7991415    4.7319126  
  23 H       3.6438618    4.8648537    2.6993695 *  3.6431082    4.9644383  
  24 H       2.6414934 *  4.8740140    3.7469293    4.3349892    4.4736588  
  25 H       3.4635941    4.7482595    4.2487200    3.7474757    3.0993937  
  26 H       4.2474551    4.7342889    3.3342724    2.9299615 *  3.7975813  
  27 H       3.8327951    3.8346076    3.6946649    2.5271182 *  2.2268104 *
  28 H       2.1501759 *  3.5986444    4.2681494    4.9756344    4.8645209  
  29 H       3.7426941    4.0978710    4.5887435    5.5515478    6.0845230  
  30 H       3.6757817    4.0894471    6.3827958    5.4961469    2.6736636 *
  31 H       3.6880411    2.7661623 *  5.5025229    4.5016396    2.3128642 *
  32 H       4.5850891    3.0217682    2.2853916 *  3.2401233    5.4381594  
  33 H       4.7928414    3.9006289    3.6845031    4.8099106    6.3994392  
  34 H       4.4642449    3.8009491    5.6882182    5.9834062    5.8432511  
  35 H       3.9321941    4.4866467    6.1851539    6.5536322    5.8796561  
  36 H       3.6506742    2.2614457 *  5.0542597    4.6396984    3.7969241  
  37 H       3.8275031    5.3114397    7.3077347    7.0230658    4.7750080  
  38 H       3.3069552    4.9588164    6.6319939    6.7569369    5.2346217  
  39 H       2.3370115 *  4.6168921    6.0015281    5.9442152    4.0911390  

               21 H         22 H         23 H         24 H         25 H     

   1 C       3.8962709    1.0955286 *  1.0973701 *  1.0979259 *  2.7774019 *
   2 C       2.9625770 *  3.4747915    2.7511604 *  2.7639771 *  1.0972761 *
   3 C       3.3783202    5.1589489    6.4634123    5.1639689    5.6547139  
   4 C       3.9752496    2.7492072 *  2.9040099 *  3.5129995    3.5570537  
   5 C       1.0976904 *  4.2009711    4.7430448    3.9470214    3.1270772  
   6 C       4.9689681    3.4959112    5.1449082    4.7532091    6.0728700  
   7 C       2.1913811 *  5.2838175    6.1300206    5.2427405    4.6644266  
   8 C       5.1546092    4.8847474    6.4739521    5.8900900    6.8402582  
   9 C       4.7458344    3.0534661    4.3887028    4.4450085    5.4308865  
  10 C       3.0950821    5.0261224    6.2523811    5.2791765    5.4263714  
  11 C       4.1087429    5.0671131    6.4258519    5.7448201    6.1270901  
  12 C       2.1413171 *  2.7307882 *  3.5200386    2.9143201 *  3.0262750  
  13 C       3.5605515    2.9904843 *  3.8842418    3.8983060    4.1967684  
  14 C       2.9407805 *  2.1907353 *  2.1830133 *  2.1828268 *  2.1883507 *
  15 C       5.9573303    3.6377275    4.7689018    5.2462755    6.3004515  
  16 H       2.4251812 *  2.4784687 *  3.6438618    2.6414934 *  3.4635941  
  17 H       3.7623154    4.0830665    4.8648537    4.8740140    4.7482595  
  18 H       4.9677366    2.6411795 *  2.6993695 *  3.7469293    4.2487200  
  19 H       4.2353307    3.7991415    3.6431082    4.3349892    3.7474757  
  20 H       1.7486696 *  4.7319126    4.9644383    4.4736588    3.0993937  
  21 H       0.0000000    4.4030890    4.7864455    3.7040202    2.6788102 *
  22 H       4.4030890    0.0000000    1.7695384 *  1.7731497 *  3.7928413  
  23 H       4.7864455    1.7695384 *  0.0000000    1.7747629 *  3.1204343  
  24 H       3.7040202    1.7731497 *  1.7747629 *  0.0000000    2.5822562 *
  25 H       2.6788102 *  3.7928413    3.1204343    2.5822562 *  0.0000000  
  26 H       4.0519781    3.7358685    2.5103718 *  3.0834629    1.7692603 *
  27 H       2.9146238 *  4.3477887    3.7577177    3.7887578    1.7727178 *
  28 H       4.4475013    2.9649448 *  4.6765938    3.9812666    5.5042853  
  29 H       6.0092797    3.8816986    5.5690222    5.3220587    6.9215187  
  30 H       2.3307659 *  6.0845675    6.8363277    5.7821437    4.9692600  
  31 H       3.0139604    5.8507153    6.6368848    5.9887431    5.2432740  
  32 H       6.2394706    3.9569633    4.7082331    5.4945570    6.2749391  
  33 H       6.8600876    4.2534633    5.5015925    5.9541070    7.2602173  
  34 H       6.0588896    5.6207308    7.1767599    6.7858737    7.6906056  
  35 H       5.5749739    5.3496578    7.0213403    6.2363862    7.3671261  
  36 H       4.3675577    5.4259116    6.6214670    6.1737503    6.2653532  
  37 H       3.7609757    6.1732859    7.3815873    5.9975969    6.2216945  
  38 H       4.3451851    5.2852826    6.7766162    5.5140271    6.4115664  
  39 H       2.8169691 *  4.5438932    5.7241365    4.2737177    4.8435332  

               26 H         27 H         28 H         29 H         30 H     

   1 C       2.7246043 *  3.4810743    3.7301597    4.8323763    5.8634991  
   2 C       1.0974639 *  1.0946813 *  5.2804764    6.5044682    5.0826641  
   3 C       6.8411232    5.9842728    3.1400893    4.5477427    2.7659027 *
   4 C       2.9423767 *  2.8365629 *  4.0148569    4.6396046    5.3552192  
   5 C       4.0917882    2.8287423 *  3.9875724    5.3667456    2.1861365 *
   6 C       6.3457129    6.0330497    1.0972830 *  1.0966019 *  5.2325752  
   7 C       5.6472378    4.2978765    4.1285722    5.3644477    1.0982096 *
   8 C       7.3196706    6.6653888    2.1607117 *  2.1766361 *  4.6995283  
   9 C       5.3524517    5.0767103    2.1544587 *  2.1406147 *  5.3128482  
  10 C       6.3645780    5.3048903    3.0893326    4.2528634    2.1800985 *
  11 C       6.7531273    5.7903958    2.8094054 *  3.4314176    3.3127858  
  12 C       3.5959934    2.9406557 *  2.8854116 *  4.2055385    3.5037406  
  13 C       4.1656512    3.6133661    2.8893826 *  3.5520583    4.3810246  
  14 C       2.1651432 *  2.1966400 *  3.8559312    4.9883845    4.8226072  
  15 C       5.8750758    5.8081748    3.2366555    2.5380526 *  6.5629090  
  16 H       4.2474551    3.8327951    2.1501759 *  3.7426941    3.6757817  
  17 H       4.7342889    3.8346076    3.5986444    4.0978710    4.0894471  
  18 H       3.3342724    3.6946649    4.2681494    4.5887435    6.3827958  
  19 H       2.9299615 *  2.5271182 *  4.9756344    5.5515478    5.4961469  
  20 H       3.7975813    2.2268104 *  4.8645209    6.0845230    2.6736636 *
  21 H       4.0519781    2.9146238 *  4.4475013    6.0092797    2.3307659 *
  22 H       3.7358685    4.3477887    2.9649448 *  3.8816986    6.0845675  
  23 H       2.5103718 *  3.7577177    4.6765938    5.5690222    6.8363277  
  24 H       3.0834629    3.7887578    3.9812666    5.3220587    5.7821437  
  25 H       1.7692603 *  1.7727178 *  5.5042853    6.9215187    4.9692600  
  26 H       0.0000000    1.7656439 *  5.9840678    7.0687120    6.1733344  
  27 H       1.7656439 *  0.0000000    5.7653600    6.9390111    4.7481614  
  28 H       5.9840678    5.7653600    0.0000000    1.7576755 *  4.9710150  
  29 H       7.0687120    6.9390111    1.7576755 *  0.0000000    6.3052396  
  30 H       6.1733344    4.7481614    4.9710150    6.3052396    0.0000000  
  31 H       5.9837694    4.5089020    4.6896337    5.6532421    1.7596843 *
  32 H       5.5720274    5.5750596    4.1697479    3.6201000    6.9794100  
  33 H       6.8550807    6.8677209    3.5269858    2.2894897 *  7.3493372  
  34 H       8.0099187    7.3381590    3.0566805    2.4461863 *  5.4559333  
  35 H       8.0092289    7.4000178    2.4012795 *  2.5162724 *  5.0190763  
  36 H       6.6981915    5.6169934    3.5470780    3.9162812    3.5109360  
  37 H       7.5500276    6.5596498    4.2310466    5.5826513    2.6538376 *
  38 H       7.4962093    6.7990711    2.8443793 *  4.0456172    3.8152692  
  39 H       6.1378877    5.4417327    3.0989826    4.7460654    2.9725797 *

               31 H         32 H         33 H         34 H         35 H     

   1 C       5.7409364    4.4781288    5.1033761    6.3159354    6.0422439  
   2 C       4.9770633    5.3789235    6.5387483    7.2486120    7.1675375  
   3 C       3.4650784    6.5915926    6.2948765    4.1514662    2.9428214 *
   4 C       4.5048292    2.7808154 *  4.1045474    5.3906923    5.8049554  
   5 C       2.1891600 *  5.3609926    6.0324922    5.2305715    5.0125520  
   6 C       4.5917123    3.4870388    2.6789084 *  2.1843320 *  2.1708650 *
   7 C       1.0955462 *  5.8912862    6.2756897    4.5748733    4.3308117  
   8 C       4.0285520    4.4917779    3.6951553    1.0961346 *  1.0965922 *
   9 C       4.3574843    2.1305672 *  2.1238693 *  2.9627492 *  3.5277569  
  10 C       2.1341701 *  5.6342172    5.5679604    3.4077071    2.8631995 *
  11 C       2.5521978 *  4.8108232    4.5682684    2.1469297 *  2.1804752 *
  12 C       3.1871713    4.1685114    4.7729367    4.6672997    4.5071217  
  13 C       3.4172874    2.7091009 *  3.4984585    3.9147490    4.3306990  
  14 C       4.5020732    4.1220630    5.0838320    5.8999738    5.8529931  
  15 C       5.4397734    1.0867691 *  1.0871121 *  3.5243347    4.4394341  
  16 H       3.6880411    4.5850891    4.7928414    4.4642449    3.9321941  
  17 H       2.7661623 *  3.0217682    3.9006289    3.8009491    4.4866467  
  18 H       5.5025229    2.2853916 *  3.6845031    5.6882182    6.1851539  
  19 H       4.5016396    3.2401233    4.8099106    5.9834062    6.5536322  
  20 H       2.3128642 *  5.4381594    6.3994392    5.8432511    5.8796561  
  21 H       3.0139604    6.2394706    6.8600876    6.0588896    5.5749739  
  22 H       5.8507153    3.9569633    4.2534633    5.6207308    5.3496578  
  23 H       6.6368848    4.7082331    5.5015925    7.1767599    7.0213403  
  24 H       5.9887431    5.4945570    5.9541070    6.7858737    6.2363862  
  25 H       5.2432740    6.2749391    7.2602173    7.6906056    7.3671261  
  26 H       5.9837694    5.5720274    6.8550807    8.0099187    8.0092289  
  27 H       4.5089020    5.5750596    6.8677209    7.3381590    7.4000178  
  28 H       4.6896337    4.1697479    3.5269858    3.0566805    2.4012795 *
  29 H       5.6532421    3.6201000    2.2894897 *  2.4461863 *  2.5162724 *
  30 H       1.7596843 *  6.9794100    7.3493372    5.4559333    5.0190763  
  31 H       0.0000000    5.7435057    6.2568811    4.5302565    4.6781991  
  32 H       5.7435057    0.0000000    1.8468294 *  4.4316035    5.4473414  
  33 H       6.2568811    1.8468294 *  0.0000000    3.4876517    4.4494241  
  34 H       4.5302565    4.4316035    3.4876517    0.0000000    1.7630728 *
  35 H       4.6781991    5.4473414    4.4494241    1.7630728 *  0.0000000  
  36 H       2.2147544 *  4.4700491    4.5064100    2.3949502 *  3.0704088  
  37 H       3.7296222    7.6020614    7.3353050    4.9273761    3.7149658  
  38 H       4.2963080    6.6416360    6.0411259    3.7670684    2.2361532 *
  39 H       3.8577193    6.6103100    6.4413665    4.8488683    3.6449083  

               36 H         37 H         38 H         39 H     

   1 C       5.7242724    6.2902025    5.6919776    4.6362747  
   2 C       5.8149451    6.4925078    6.5360343    5.1453974  
   3 C       3.4855638    1.0986541 *  1.0931965 *  1.0983488 *
   4 C       4.3575991    6.4936321    6.0247411    5.2671811  
   5 C       3.4025779    3.8245655    4.1930870    3.0050700  
   6 C       3.0150247    4.7296527    3.3722987    3.8768658  
   7 C       2.5692349 *  2.8770041 *  3.5182377    2.8180984 *
   8 C       2.1877043 *  4.0134767    2.7801179 *  3.7752637  
   9 C       2.9955237 *  5.5412365    4.5150289    4.5650854  
  10 C       2.0740808 *  2.1462268 *  2.1801690 *  2.1713893 *
  11 C       1.0896953 *  3.2563802    2.7048339 *  3.2409441  
  12 C       3.4125294    4.3685225    4.0949215    3.1099936  
  13 C       2.8686183 *  5.2607748    4.7003581    4.2394750  
  14 C       4.7894976    5.8228466    5.5130173    4.3905344  
  15 C       3.9298675    6.8507285    5.7435158    5.8922191  
  16 H       3.6506742    3.8275031    3.3069552    2.3370115 *
  17 H       2.2614457 *  5.3114397    4.9588164    4.6168921  
  18 H       5.0542597    7.3077347    6.6319939    6.0015281  
  19 H       4.6396984    7.0230658    6.7569369    5.9442152  
  20 H       3.7969241    4.7750080    5.2346217    4.0911390  
  21 H       4.3675577    3.7609757    4.3451851    2.8169691 *
  22 H       5.4259116    6.1732859    5.2852826    4.5438932  
  23 H       6.6214670    7.3815873    6.7766162    5.7241365  
  24 H       6.1737503    5.9975969    5.5140271    4.2737177  
  25 H       6.2653532    6.2216945    6.4115664    4.8435332  
  26 H       6.6981915    7.5500276    7.4962093    6.1378877  
  27 H       5.6169934    6.5596498    6.7990711    5.4417327  
  28 H       3.5470780    4.2310466    2.8443793 *  3.0989826  
  29 H       3.9162812    5.5826513    4.0456172    4.7460654  
  30 H       3.5109360    2.6538376 *  3.8152692    2.9725797 *
  31 H       2.2147544 *  3.7296222    4.2963080    3.8577193  
  32 H       4.4700491    7.6020614    6.6416360    6.6103100  
  33 H       4.5064100    7.3353050    6.0411259    6.4413665  
  34 H       2.3949502 *  4.9273761    3.7670684    4.8488683  
  35 H       3.0704088    3.7149658    2.2361532 *  3.6449083  
  36 H       0.0000000    4.1119502    3.7802198    4.1286142  
  37 H       4.1119502    0.0000000    1.7701969 *  1.7583354 *
  38 H       3.7802198    1.7701969 *  0.0000000    1.7733459 *
  39 H       4.1286142    1.7583354 *  1.7733459 *  0.0000000  

  * ... LESS THAN  3.000


     ATOMIC BASIS SET
     ----------------
 THE CONTRACTED PRIMITIVE FUNCTIONS HAVE BEEN UNNORMALIZED
 THE CONTRACTED BASIS FUNCTIONS ARE NOW NORMALIZED TO UNITY

  SHELL TYPE  PRIMITIVE        EXPONENT          CONTRACTION COEFFICIENT(S)

 C         

      1   S       1           172.2560000    0.061766907377
      1   S       2            25.9109000    0.358794042852
      1   S       3             5.5333500    0.700713083689

      2   L       4             3.6649800   -0.395895162119    0.236459946619
      2   L       5             0.7705450    1.215834355681    0.860618805716

      3   L       6             0.1958570    1.000000000000    1.000000000000

 C         

      4   S       7           172.2560000    0.061766907377
      4   S       8            25.9109000    0.358794042852
      4   S       9             5.5333500    0.700713083689

      5   L      10             3.6649800   -0.395895162119    0.236459946619
      5   L      11             0.7705450    1.215834355681    0.860618805716

      6   L      12             0.1958570    1.000000000000    1.000000000000

 C         

      7   S      13           172.2560000    0.061766907377
      7   S      14            25.9109000    0.358794042852
      7   S      15             5.5333500    0.700713083689

      8   L      16             3.6649800   -0.395895162119    0.236459946619
      8   L      17             0.7705450    1.215834355681    0.860618805716

      9   L      18             0.1958570    1.000000000000    1.000000000000

 C         

     10   S      19           172.2560000    0.061766907377
     10   S      20            25.9109000    0.358794042852
     10   S      21             5.5333500    0.700713083689

     11   L      22             3.6649800   -0.395895162119    0.236459946619
     11   L      23             0.7705450    1.215834355681    0.860618805716

     12   L      24             0.1958570    1.000000000000    1.000000000000

 C         

     13   S      25           172.2560000    0.061766907377
     13   S      26            25.9109000    0.358794042852
     13   S      27             5.5333500    0.700713083689

     14   L      28             3.6649800   -0.395895162119    0.236459946619
     14   L      29             0.7705450    1.215834355681    0.860618805716

     15   L      30             0.1958570    1.000000000000    1.000000000000

 C         

     16   S      31           172.2560000    0.061766907377
     16   S      32            25.9109000    0.358794042852
     16   S      33             5.5333500    0.700713083689

     17   L      34             3.6649800   -0.395895162119    0.236459946619
     17   L      35             0.7705450    1.215834355681    0.860618805716

     18   L      36             0.1958570    1.000000000000    1.000000000000

 C         

     19   S      37           172.2560000    0.061766907377
     19   S      38            25.9109000    0.358794042852
     19   S      39             5.5333500    0.700713083689

     20   L      40             3.6649800   -0.395895162119    0.236459946619
     20   L      41             0.7705450    1.215834355681    0.860618805716

     21   L      42             0.1958570    1.000000000000    1.000000000000

 C         

     22   S      43           172.2560000    0.061766907377
     22   S      44            25.9109000    0.358794042852
     22   S      45             5.5333500    0.700713083689

     23   L      46             3.6649800   -0.395895162119    0.236459946619
     23   L      47             0.7705450    1.215834355681    0.860618805716

     24   L      48             0.1958570    1.000000000000    1.000000000000

 C         

     25   S      49           172.2560000    0.061766907377
     25   S      50            25.9109000    0.358794042852
     25   S      51             5.5333500    0.700713083689

     26   L      52             3.6649800   -0.395895162119    0.236459946619
     26   L      53             0.7705450    1.215834355681    0.860618805716

     27   L      54             0.1958570    1.000000000000    1.000000000000

 C         

     28   S      55           172.2560000    0.061766907377
     28   S      56            25.9109000    0.358794042852
     28   S      57             5.5333500    0.700713083689

     29   L      58             3.6649800   -0.395895162119    0.236459946619
     29   L      59             0.7705450    1.215834355681    0.860618805716

     30   L      60             0.1958570    1.000000000000    1.000000000000

 C         

     31   S      61           172.2560000    0.061766907377
     31   S      62            25.9109000    0.358794042852
     31   S      63             5.5333500    0.700713083689

     32   L      64             3.6649800   -0.395895162119    0.236459946619
     32   L      65             0.7705450    1.215834355681    0.860618805716

     33   L      66             0.1958570    1.000000000000    1.000000000000

 C         

     34   S      67           172.2560000    0.061766907377
     34   S      68            25.9109000    0.358794042852
     34   S      69             5.5333500    0.700713083689

     35   L      70             3.6649800   -0.395895162119    0.236459946619
     35   L      71             0.7705450    1.215834355681    0.860618805716

     36   L      72             0.1958570    1.000000000000    1.000000000000

 C         

     37   S      73           172.2560000    0.061766907377
     37   S      74            25.9109000    0.358794042852
     37   S      75             5.5333500    0.700713083689

     38   L      76             3.6649800   -0.395895162119    0.236459946619
     38   L      77             0.7705450    1.215834355681    0.860618805716

     39   L      78             0.1958570    1.000000000000    1.000000000000

 C         

     40   S      79           172.2560000    0.061766907377
     40   S      80            25.9109000    0.358794042852
     40   S      81             5.5333500    0.700713083689

     41   L      82             3.6649800   -0.395895162119    0.236459946619
     41   L      83             0.7705450    1.215834355681    0.860618805716

     42   L      84             0.1958570    1.000000000000    1.000000000000

 C         

     43   S      85           172.2560000    0.061766907377
     43   S      86            25.9109000    0.358794042852
     43   S      87             5.5333500    0.700713083689

     44   L      88             3.6649800   -0.395895162119    0.236459946619
     44   L      89             0.7705450    1.215834355681    0.860618805716

     45   L      90             0.1958570    1.000000000000    1.000000000000

 H         

     46   S      91             5.4471780    0.156284978695
     46   S      92             0.8245472    0.904690876670

     47   S      93             0.1831916    1.000000000000

 H         

     48   S      94             5.4471780    0.156284978695
     48   S      95             0.8245472    0.904690876670

     49   S      96             0.1831916    1.000000000000

 H         

     50   S      97             5.4471780    0.156284978695
     50   S      98             0.8245472    0.904690876670

     51   S      99             0.1831916    1.000000000000

 H         

     52   S     100             5.4471780    0.156284978695
     52   S     101             0.8245472    0.904690876670

     53   S     102             0.1831916    1.000000000000

 H         

     54   S     103             5.4471780    0.156284978695
     54   S     104             0.8245472    0.904690876670

     55   S     105             0.1831916    1.000000000000

 H         

     56   S     106             5.4471780    0.156284978695
     56   S     107             0.8245472    0.904690876670

     57   S     108             0.1831916    1.000000000000

 H         

     58   S     109             5.4471780    0.156284978695
     58   S     110             0.8245472    0.904690876670

     59   S     111             0.1831916    1.000000000000

 H         

     60   S     112             5.4471780    0.156284978695
     60   S     113             0.8245472    0.904690876670

     61   S     114             0.1831916    1.000000000000

 H         

     62   S     115             5.4471780    0.156284978695
     62   S     116             0.8245472    0.904690876670

     63   S     117             0.1831916    1.000000000000

 H         

     64   S     118             5.4471780    0.156284978695
     64   S     119             0.8245472    0.904690876670

     65   S     120             0.1831916    1.000000000000

 H         

     66   S     121             5.4471780    0.156284978695
     66   S     122             0.8245472    0.904690876670

     67   S     123             0.1831916    1.000000000000

 H         

     68   S     124             5.4471780    0.156284978695
     68   S     125             0.8245472    0.904690876670

     69   S     126             0.1831916    1.000000000000

 H         

     70   S     127             5.4471780    0.156284978695
     70   S     128             0.8245472    0.904690876670

     71   S     129             0.1831916    1.000000000000

 H         

     72   S     130             5.4471780    0.156284978695
     72   S     131             0.8245472    0.904690876670

     73   S     132             0.1831916    1.000000000000

 H         

     74   S     133             5.4471780    0.156284978695
     74   S     134             0.8245472    0.904690876670

     75   S     135             0.1831916    1.000000000000

 H         

     76   S     136             5.4471780    0.156284978695
     76   S     137             0.8245472    0.904690876670

     77   S     138             0.1831916    1.000000000000

 H         

     78   S     139             5.4471780    0.156284978695
     78   S     140             0.8245472    0.904690876670

     79   S     141             0.1831916    1.000000000000

 H         

     80   S     142             5.4471780    0.156284978695
     80   S     143             0.8245472    0.904690876670

     81   S     144             0.1831916    1.000000000000

 H         

     82   S     145             5.4471780    0.156284978695
     82   S     146             0.8245472    0.904690876670

     83   S     147             0.1831916    1.000000000000

 H         

     84   S     148             5.4471780    0.156284978695
     84   S     149             0.8245472    0.904690876670

     85   S     150             0.1831916    1.000000000000

 H         

     86   S     151             5.4471780    0.156284978695
     86   S     152             0.8245472    0.904690876670

     87   S     153             0.1831916    1.000000000000

 H         

     88   S     154             5.4471780    0.156284978695
     88   S     155             0.8245472    0.904690876670

     89   S     156             0.1831916    1.000000000000

 H         

     90   S     157             5.4471780    0.156284978695
     90   S     158             0.8245472    0.904690876670

     91   S     159             0.1831916    1.000000000000

 H         

     92   S     160             5.4471780    0.156284978695
     92   S     161             0.8245472    0.904690876670

     93   S     162             0.1831916    1.000000000000

 TOTAL NUMBER OF BASIS SET SHELLS             =   93
 NUMBER OF CARTESIAN GAUSSIAN BASIS FUNCTIONS =  183
 NUMBER OF ELECTRONS                          =  114
 CHARGE OF MOLECULE                           =    0
 SPIN MULTIPLICITY                            =    1
 NUMBER OF OCCUPIED ORBITALS (ALPHA)          =   57
 NUMBER OF OCCUPIED ORBITALS (BETA )          =   57
 TOTAL NUMBER OF ATOMS                        =   39
 THE NUCLEAR REPULSION ENERGY IS     1074.1997639685

 SELECTED MURRAY-HANDY-LAMING RADIAL GRID

 LEGACY BECKE'S FUZZY CELL METHOD

 SELECTED ORIGINAL BECKE'S PARTITION FUNCTION

     LEBEDEV GRID-BASED DFT OPTIONS
     ------------------------------
     DFTTYP=B3LYP   
     NRAD  =      96     NLEB  =     302
     NRAD0 =      24     NLEB0 =     110
     SWOFF =    5.00E-03 (PURE SCF -> DFT)
     SWITCH=    3.00E-04 (COARSE -> TIGHT GRID)
     THRESH=    0.00E+00 GTHRE=    1.00E+00

 GRIMME'S EMPIRICAL DISPERSION CORRECTION= F

     $CONTRL OPTIONS
     ---------------
 SCFTYP=RHF          RUNTYP=ENERGY       EXETYP=RUN     
 MPLEVL=       0     CITYP =NONE         CCTYP =NONE         VBTYP =NONE    
 DFTTYP=B3LYP        TDDFT =NONE    
 MULT  =       1     ICHARG=       0     NZVAR =       0     COORD =UNIQUE  
 PP    =NONE         RELWFN=NONE         LOCAL =NONE         NUMGRD=       F
 ISPHER=      -1     NOSYM =       0     MAXIT =      60     UNITS =ANGS    
 PLTORB=       F     MOLPLT=       F     AIMPAC=       F     FRIEND=        
 NPRINT=       7     IREST =       0     GEOM  =INPUT   
 NORMF =       0     NORMP =       0     ITOL  =      20     ICUT  =       9
 INTTYP=BEST         GRDTYP=BEST         QMTTOL= 1.0E-06

     $SYSTEM OPTIONS
     ---------------
  REPLICATED MEMORY=    30000000 WORDS (ON EVERY NODE).
 DISTRIBUTED MEMDDI=        1000 MILLION WORDS IN AGGREGATE,
 MEMDDI DISTRIBUTED OVER   6 PROCESSORS IS   166666666 WORDS/PROCESSOR.
 TOTAL MEMORY REQUESTED ON EACH PROCESSOR=   196666666 WORDS.
 TIMLIM=      525600.00 MINUTES, OR     365.0 DAYS.
 PARALL= T  BALTYP=  DLB     KDIAG=    0  COREFL= F
 MXSEQ2=     300 MXSEQ3=     150  mem10=         0

     INPUT FOR POTENTIAL-DERIVED CHARGES 
     -----------------------------------
     VDWSCL=    1.40   RMAX=    3.00   DELR=    0.80
     VDWINC=    0.20 PTDENS=    0.28
     LAYER =       4  NFREQ=      30 MAXPDC=   10000
     CONSTR=CHARGE    UNITS=ANGS      PTSEL=GEODESIC
     CENTER=  0.0000  0.0000  0.0000
     DPOLE =  0.0000  0.0000  0.0000
     QPOLE =  0.0000  0.0000  0.0000  0.0000  0.0000  0.0000


          ----------------
          PROPERTIES INPUT
          ----------------

     MOMENTS            FIELD           POTENTIAL          DENSITY
 IEMOM =       1   IEFLD =       0   IEPOT =       1   IEDEN =       0
 WHERE =COMASS     WHERE =NUCLEI     WHERE =PDC        WHERE =NUCLEI  
 OUTPUT=BOTH       OUTPUT=BOTH       OUTPUT=BOTH       OUTPUT=BOTH    
 IEMINT=       0   IEFINT=       0                     IEDINT=       0
                                                       MORB  =       0
          EXTRAPOLATION IN EFFECT
          DIIS IN EFFECT
 ORBITAL PRINTING OPTION: NPREO=     1   183     2     1

     -------------------------------
     INTEGRAL TRANSFORMATION OPTIONS
     -------------------------------
     NWORD  =            0
     CUTOFF = 1.0E-09     MPTRAN =       0
     DIRTRF =       T     AOINTS =DUP     

          ----------------------
          INTEGRAL INPUT OPTIONS
          ----------------------
 NOPK  =       1 NORDER=       0 SCHWRZ=       T

     ------------------------------------------
     THE POINT GROUP IS C1 , NAXIS= 0, ORDER= 1
     ------------------------------------------

     DIMENSIONS OF THE SYMMETRY SUBSPACES ARE
 A   =  183

 ..... DONE SETTING UP THE RUN .....
 CPU     0: STEP CPU TIME=     0.03 TOTAL CPU TIME=          0.0 (      0.0 MIN)
 TOTAL WALL CLOCK TIME=          0.0 SECONDS, CPU UTILIZATION IS    75.00%

          ********************
          1 ELECTRON INTEGRALS
          ********************
 ...... END OF ONE-ELECTRON INTEGRALS ......
 CPU     0: STEP CPU TIME=     0.01 TOTAL CPU TIME=          0.0 (      0.0 MIN)
 TOTAL WALL CLOCK TIME=          0.1 SECONDS, CPU UTILIZATION IS    66.67%

          -------------
          GUESS OPTIONS
          -------------
          GUESS =HUCKEL            NORB  =       0          NORDER=       0
          MIX   =       F          PRTMO =       F          PUNMO =       F
          TOLZ  = 1.0E-08          TOLE  = 1.0E-05
          SYMDEN=       F          PURIFY=       F

 INITIAL GUESS ORBITALS GENERATED BY HUCKEL   ROUTINE.
 HUCKEL GUESS REQUIRES    310380 WORDS.

 SYMMETRIES FOR INITIAL GUESS ORBITALS FOLLOW.   BOTH SET(S).
    57 ORBITALS ARE OCCUPIED (   15 CORE ORBITALS).
    16=A       17=A       18=A       19=A       20=A       21=A       22=A   
    23=A       24=A       25=A       26=A       27=A       28=A       29=A   
    30=A       31=A       32=A       33=A       34=A       35=A       36=A   
    37=A       38=A       39=A       40=A       41=A       42=A       43=A   
    44=A       45=A       46=A       47=A       48=A       49=A       50=A   
    51=A       52=A       53=A       54=A       55=A       56=A       57=A   
    58=A       59=A       60=A       61=A       62=A       63=A       64=A   
    65=A       66=A       67=A   
 ...... END OF INITIAL ORBITAL SELECTION ......
 CPU     0: STEP CPU TIME=     0.06 TOTAL CPU TIME=          0.1 (      0.0 MIN)
 TOTAL WALL CLOCK TIME=          0.1 SECONDS, CPU UTILIZATION IS    71.43%

                    ----------------------
                    AO INTEGRAL TECHNOLOGY
                    ----------------------
     S,P,L SHELL ROTATED AXIS INTEGRALS, REPROGRAMMED BY
        KAZUYA ISHIMURA (IMS) AND JOSE SIERRA (SYNSTAR).
     S,P,D,L SHELL ROTATED AXIS INTEGRALS PROGRAMMED BY
        KAZUYA ISHIMURA (INSTITUTE FOR MOLECULAR SCIENCE).
     S,P,D,F,G SHELL TO TOTAL QUARTET ANGULAR MOMENTUM SUM 5,
        ERIC PROGRAM BY GRAHAM FLETCHER (ELORET AND NASA ADVANCED
        SUPERCOMPUTING DIVISION, AMES RESEARCH CENTER).
     S,P,D,F,G,L SHELL GENERAL RYS QUADRATURE PROGRAMMED BY
        MICHEL DUPUIS (PACIFIC NORTHWEST NATIONAL LABORATORY).

          --------------------
          2 ELECTRON INTEGRALS
          --------------------

 DIRECT SCF METHOD SKIPS INTEGRAL STORAGE ON DISK.
 DIRECT TRANSFORMATION SKIPS AO INTEGRAL STORAGE ON DISK.
  ...... END OF TWO-ELECTRON INTEGRALS .....
 CPU     0: STEP CPU TIME=     0.01 TOTAL CPU TIME=          0.1 (      0.0 MIN)
 TOTAL WALL CLOCK TIME=          0.2 SECONDS, CPU UTILIZATION IS    68.75%

          --------------------------
             R-B3LYP SCF CALCULATION
          --------------------------

     NUCLEAR ENERGY =      1074.1997639685
     MAXIT =   60     NPUNCH=    2
     EXTRAP=T  DAMP=F  SHIFT=F  RSTRCT=F  DIIS=T  DEM=F  SOSCF=F
         DENSITY MATRIX CONVERGENCE THRESHOLD=  2.00E-05
     COARSE -> FINE DFT GRID SWITCH THRESHOLD=  3.00E-04 (SWITCH IN $DFT)
                   HF -> DFT SWITCH THRESHOLD=  5.00E-03 (SWOFF IN $DFT)
     MEMORY REQUIRED FOR RHF ITERS=   1541701 WORDS.

 DIRECT SCF CALCULATION, SCHWRZ=T   FDIFF=T,  DIRTHR=  0.00E+00 NITDIR=10
 SCHWARZ INEQUALITY OVERHEAD:     15608 INTEGRALS, T=        0.00

 DFT CODE IS SWITCHING FROM THE FINE GRID NRAD= 96,  NLEB=  302
                      TO THE COARSE GRID NRAD0= 24, NLEB0=  110

     EXCHANGE FUNCTIONAL   =B88&HFX   
     CORRELATION FUNCTIONAL=LYP88&VWN5
     DFT THRESHOLD         =.354E-08
     GRID CHANGE THRESHOLD =.300E-03
 FOR AN EULER-MACLAURIN QUADRATURE USING  96 RADIAL POINTS:
 SMALLEST GAUSSIAN PRIMITIVE EXPONENT=        0.1831915800 OF TYPE -S-
 ON ATOM NUMBER  16 HAS RADIAL NORMALIZATION=  1.000000
  LARGEST GAUSSIAN PRIMITIVE EXPONENT=      172.2560000000 OF TYPE -S-
 ON ATOM NUMBER   1 HAS RADIAL NORMALIZATION=  1.000000
 DFT IS SWITCHED OFF, PERFORMING PURE SCF UNTIL SWOFF THRESHOLD IS REACHED.

                                                                                   NONZERO     BLOCKS
 ITER EX DEM     TOTAL ENERGY        E CHANGE  DENSITY CHANGE    DIIS ERROR      INTEGRALS    SKIPPED
          * * *   INITIATING DIIS PROCEDURE   * * *
   1  0  0     -577.5524668486  -577.5524668486   0.780695356   0.454946899       76858027    5680313
   2  1  0     -578.6267607559    -1.0742939072   0.118630972   0.044495255       76476093    5793963
   3  2  0     -578.6773718741    -0.0506111182   0.079997223   0.032001420       75035833    6020025
   4  3  0     -578.6909835104    -0.0136116363   0.025743661   0.006351778       72614182    6290896
   5  4  0     -578.6917165869    -0.0007330766   0.005362882   0.002430293       69345234    6536791
   6  5  0     -578.6917895233    -0.0000729364   0.000598636   0.000475859       64566163    6842292
 CONVERGED TO SWOFF, SO DFT CALCULATION IS NOW SWITCHED ON.
          * * *   INITIATING DIIS PROCEDURE   * * *
   7  6  0     -582.3390941789    -3.6473046557   0.090869964   0.066529100       77013599    5637758
   8  7  0     -582.3765779858    -0.0374838069   0.065956100   0.023244544       75501869    5988283
   9  8  0     -582.3797903453    -0.0032123595   0.038810907   0.019977451       73719506    6153415
  10  9  0     -582.3872253770    -0.0074350318   0.008263869   0.009013866       72116768    6309897
  11 10  0     -582.3876754070    -0.0004500300   0.001832914   0.000734859       65556949    6787739
  12 11  0     -582.3876804110    -0.0000050039   0.000612597   0.000244247       60524662    7077238
  13 12  0     -582.3876814184    -0.0000010074   0.000175619   0.000114123       55849296    7348291
 DFT CODE IS SWITCHING BACK TO THE FINE GRID
          * * *   INITIATING DIIS PROCEDURE   * * *
  14 13  0     -582.3840382560     0.0036431624   0.006668429   0.003880278       77133754    5602386
  15 14  0     -582.3841974338    -0.0001591778   0.001584262   0.000311828       68908888    6599336
  16 15  0     -582.3841982459    -0.0000008122   0.000828694   0.000547672       62191087    6987427
  17 16  0     -582.3842020308    -0.0000037849   0.000317488   0.000257315       58883627    7178720
  18 17  0     -582.3842027626    -0.0000007318   0.000113406   0.000043598       53433374    7466120
  19 18  0     -582.3842028026    -0.0000000399   0.000018275   0.000006450       48503535    7711076
  20 19  0     -582.3842028034    -0.0000000008   0.000007678   0.000001561       41346323    8048814

          -----------------
          DENSITY CONVERGED
          -----------------
     TIME TO FORM FOCK OPERATORS=     117.8 SECONDS (       5.9 SEC/ITER)
     FOCK TIME ON FIRST ITERATION=       1.4, LAST ITERATION=      12.9
     TIME TO SOLVE SCF EQUATIONS=       0.6 SECONDS (       0.0 SEC/ITER)

 FINAL R-B3LYP ENERGY IS     -582.3842028034 AFTER  20 ITERATIONS
 DFT EXCHANGE + CORRELATION ENERGY =       -72.5262802552
 TOTAL ELECTRON NUMBER             =       114.0001574706

          ------------
          EIGENVECTORS
          ------------

                      1          2          3          4          5
                  -10.1231   -10.1203   -10.1161   -10.1154   -10.1144
                     A          A          A          A          A   
    1  C  1  S    0.003230  -0.011769  -0.000852   0.006424  -0.000350
    2  C  1  S    0.000888  -0.004248  -0.000092   0.002011  -0.000120
    3  C  1  X    0.000284   0.000137  -0.000055   0.000064  -0.000004
    4  C  1  Y   -0.000144   0.000662  -0.000061   0.000043   0.000072
    5  C  1  Z    0.000146   0.001060  -0.000151   0.000123   0.000116
    6  C  1  S   -0.000339   0.028908  -0.000354  -0.005257   0.000897
    7  C  1  X   -0.000536   0.005497  -0.000682  -0.000850   0.000549
    8  C  1  Y    0.001540   0.003951  -0.000116  -0.000784  -0.000721
    9  C  1  Z    0.001782   0.013668   0.000260  -0.001626  -0.000300
   10  C  2  S    0.000592  -0.014291  -0.001660  -0.001942   0.000231
   11  C  2  S    0.000214  -0.004584  -0.000399  -0.000810   0.000053
   12  C  2  X    0.000046   0.000255  -0.000138   0.000166   0.000023
   13  C  2  Y   -0.000078  -0.000747  -0.000008   0.000042   0.000056
   14  C  2  Z   -0.000082  -0.000357   0.000005   0.000024   0.000017
   15  C  2  S   -0.000717   0.025488   0.001442   0.003301  -0.000580
   16  C  2  X   -0.000176   0.012382   0.000465   0.001582  -0.000289
   17  C  2  Y    0.000466  -0.007317  -0.000885  -0.001278  -0.000115
   18  C  2  Z    0.000806   0.000424   0.000088   0.000992   0.000261
   19  C  3  S   -0.000752   0.001297  -0.046061   0.003004   0.008751
   20  C  3  S   -0.000183   0.000408  -0.007462   0.000420   0.001315
   21  C  3  X   -0.000007   0.000031   0.000012   0.000068  -0.000184
   22  C  3  Y    0.000030   0.000133   0.000428   0.000071  -0.000505
   23  C  3  Z   -0.000008  -0.000142  -0.000248  -0.000074   0.000095
   24  C  3  S    0.000391  -0.002276   0.021887  -0.002533  -0.001571
   25  C  3  X    0.000123   0.000883  -0.002879  -0.000299   0.001954
   26  C  3  Y   -0.000226   0.000073  -0.006713   0.000220   0.000814
   27  C  3  Z   -0.000073  -0.000196   0.009165  -0.000746  -0.000938
   28  C  4  S   -0.008778  -0.017088  -0.003609  -0.023573  -0.008411
   29  C  4  S   -0.002720  -0.005918  -0.000826  -0.006409  -0.002070
   30  C  4  X   -0.000800  -0.000266   0.000193   0.001307  -0.000064
   31  C  4  Y    0.000255   0.001245  -0.000137   0.000504   0.000191
   32  C  4  Z    0.000636  -0.001435   0.000107   0.000079   0.000070
   33  C  4  S    0.007491   0.039608   0.002570   0.035939   0.007546
   34  C  4  X    0.002502  -0.001483   0.000216   0.015468   0.003281
   35  C  4  Y    0.002481   0.012780   0.001268   0.002206   0.000598
   36  C  4  Z   -0.004237  -0.012209  -0.000538  -0.004461  -0.001823
   37  C  5  S   -0.003599  -0.010671  -0.041161  -0.030884  -0.005777
   38  C  5  S   -0.000874  -0.001305  -0.005993  -0.004347  -0.000750
   39  C  5  X   -0.000016   0.000461  -0.001058   0.000186   0.000154
   40  C  5  Y    0.000084   0.000791   0.000646   0.001059   0.000356
   41  C  5  Z    0.000071   0.000200   0.000559   0.000057  -0.000017
   42  C  5  S    0.002421  -0.002610   0.000649   0.004457   0.000328
   43  C  5  X    0.001131   0.003058   0.000464  -0.000994   0.000150
   44  C  5  Y   -0.001140   0.001997   0.002200  -0.001778  -0.000002
   45  C  5  Z   -0.000789   0.000980  -0.001430  -0.002081   0.000183
   46  C  6  S   -0.032796   0.001734   0.013120  -0.159083   0.917039
   47  C  6  S   -0.004984   0.000220   0.001959  -0.020066   0.108549
   48  C  6  X    0.000207   0.000044  -0.000012   0.000183  -0.000112
   49  C  6  Y    0.000027  -0.000150  -0.000280   0.000011   0.000100
   50  C  6  Z   -0.000067  -0.000001   0.000136  -0.000606   0.000038
   51  C  6  S    0.015804  -0.001347  -0.003628   0.024971  -0.107221
   52  C  6  X   -0.010340   0.000242   0.000669   0.001713  -0.000936
   53  C  6  Y   -0.003885   0.001846   0.000382  -0.004454  -0.005181
   54  C  6  Z    0.004480  -0.000339  -0.002049   0.006119  -0.008564
   55  C  7  S    0.000649  -0.004052  -0.055173   0.017245   0.025237
   56  C  7  S    0.000224  -0.000658  -0.007835   0.002346   0.003603
   57  C  7  X    0.000049  -0.000029  -0.000223   0.000106   0.000006
   58  C  7  Y   -0.000069   0.000377  -0.000439  -0.000338  -0.000196
   59  C  7  Z    0.000040   0.000229  -0.000338  -0.000256  -0.000092
   60  C  7  S   -0.001143  -0.002165   0.024581  -0.001891  -0.005632
   61  C  7  X    0.000189   0.000314   0.008654  -0.000845  -0.000985
   62  C  7  Y    0.000654  -0.000846  -0.006505   0.001798   0.001279
   63  C  7  Z    0.000327   0.000159  -0.004172   0.001232   0.001785
   64  C  8  S   -0.025424   0.004176  -0.039253   0.049462  -0.321882
   65  C  8  S   -0.004881   0.000744  -0.004971   0.006769  -0.040083
   66  C  8  X    0.001313  -0.000086   0.000549   0.000025  -0.000001
   67  C  8  Y    0.000582   0.000120  -0.000792  -0.000168  -0.000396
   68  C  8  Z   -0.000743  -0.000014  -0.000181   0.000233  -0.000516
   69  C  8  S    0.006281  -0.001313   0.003647  -0.011010   0.053805
   70  C  8  X   -0.004669   0.000552  -0.001068   0.003608  -0.014079
   71  C  8  Y   -0.002317  -0.000815  -0.000427   0.004652  -0.005681
   72  C  8  Z    0.001936   0.000078   0.002246  -0.001316  -0.001224
   73  C  9  S    0.983797  -0.034271   0.000803   0.030317   0.027409
   74  C  9  S    0.110584  -0.002849  -0.000208   0.001575   0.001687
   75  C  9  X    0.000021  -0.000397   0.000056   0.000519  -0.000060
   76  C  9  Y   -0.000205   0.000196   0.000298  -0.000614  -0.000297
   77  C  9  Z    0.000122   0.000068   0.000001   0.000110   0.000549
   78  C  9  S   -0.095776  -0.002689   0.004639   0.013114   0.015198
   79  C  9  X    0.001686   0.003646   0.000115  -0.020147   0.013946
   80  C  9  Y    0.005025  -0.003656   0.001506   0.020601   0.010499
   81  C  9  Z   -0.002263  -0.001897  -0.000488   0.006245  -0.013494
   82  C 10  S    0.000568  -0.033853   0.974668  -0.100329  -0.041998
   83  C 10  S    0.000005  -0.005133   0.111752  -0.010801  -0.003995
   84  C 10  X   -0.000091   0.000623  -0.001495  -0.000276   0.000319
   85  C 10  Y   -0.000138   0.000216  -0.000861   0.000116  -0.000173
   86  C 10  Z    0.000002   0.000104  -0.000018   0.000060  -0.000116
   87  C 10  S    0.001369   0.006364  -0.106016   0.009346  -0.001865
   88  C 10  X   -0.000009  -0.002040   0.004066   0.001526  -0.003814
   89  C 10  Y   -0.000093  -0.001148   0.010347  -0.000525   0.005818
   90  C 10  Z    0.000438  -0.000441  -0.003695  -0.000616  -0.001544
   91  C 11  S   -0.002582  -0.000199  -0.036913  -0.004693  -0.016325
   92  C 11  S   -0.000443   0.000013  -0.009098  -0.000995  -0.003834
   93  C 11  X    0.000170   0.000056   0.000714   0.000590   0.000369
   94  C 11  Y    0.000645  -0.000055  -0.001994   0.000328   0.000605
   95  C 11  Z    0.000006   0.000013   0.001138  -0.000715   0.000844
   96  C 11  S   -0.001838  -0.000937   0.038085   0.001356   0.001765
   97  C 11  X    0.000396   0.000956  -0.008620  -0.002192  -0.002743
   98  C 11  Y   -0.000376  -0.001030   0.018221  -0.002865   0.008416
   99  C 11  Z    0.000548   0.000253  -0.008680   0.004429  -0.001291
  100  C 12  S   -0.009186  -0.037403  -0.041260  -0.064868  -0.025543
  101  C 12  S   -0.001946  -0.009226  -0.006735  -0.011224  -0.004003
  102  C 12  X   -0.000084  -0.000824  -0.002358   0.000092  -0.000425
  103  C 12  Y    0.000767  -0.000804  -0.000807  -0.000549  -0.000196
  104  C 12  Z    0.000029  -0.000205  -0.000274   0.000741   0.000068
  105  C 12  S    0.004581   0.044050   0.008159   0.036752   0.010315
  106  C 12  X   -0.003977  -0.021414   0.011634   0.001906   0.001843
  107  C 12  Y   -0.003481  -0.005098   0.000672  -0.019285  -0.003206
  108  C 12  Z    0.000304  -0.000115   0.003986   0.006943   0.001982
  109  C 13  S   -0.036935  -0.019390   0.102320   0.964616   0.159698
  110  C 13  S   -0.005554  -0.003063   0.013379   0.117919   0.018529
  111  C 13  X   -0.000101   0.000480   0.000142  -0.000734  -0.000705
  112  C 13  Y    0.000211  -0.000106   0.000294  -0.000003   0.000234
  113  C 13  Z    0.000706   0.000640  -0.000201  -0.000957   0.000359
  114  C 13  S    0.014386  -0.004248  -0.015991  -0.127364  -0.018564
  115  C 13  X    0.009236   0.006361  -0.001772   0.008650   0.002529
  116  C 13  Y   -0.010077  -0.005691  -0.004039   0.001546  -0.004535
  117  C 13  Z   -0.005115  -0.001941   0.002687   0.013944   0.002827
  118  C 14  S    0.033714   0.985734   0.033134   0.013704   0.001378
  119  C 14  S    0.005513   0.123628   0.002515   0.001295   0.000152
  120  C 14  X    0.000076   0.001044  -0.000220  -0.000694  -0.000005
  121  C 14  Y   -0.000212  -0.000752   0.000023   0.000492  -0.000114
  122  C 14  Z   -0.000259   0.000444   0.000060   0.000123  -0.000029
  123  C 14  S   -0.012113  -0.139876   0.003244  -0.010453  -0.001889
  124  C 14  X   -0.004241  -0.013327   0.005200  -0.002746  -0.001180
  125  C 14  Y    0.003389   0.005109   0.001284  -0.000904   0.001491
  126  C 14  Z   -0.000452  -0.005726  -0.000984  -0.006111  -0.000973
  127  C 15  S   -0.019056   0.001726  -0.000125  -0.005990  -0.011943
  128  C 15  S   -0.006573   0.000489   0.000000  -0.001671  -0.003236
  129  C 15  X   -0.000506   0.000022  -0.000106   0.000290  -0.000743
  130  C 15  Y   -0.002253   0.000056  -0.000047  -0.000703  -0.000576
  131  C 15  Z    0.000747  -0.000029   0.000074  -0.000150   0.000455
  132  C 15  S    0.032285  -0.001951  -0.000255   0.007140   0.010786
  133  C 15  X    0.002883  -0.001148   0.000576   0.005594   0.000651
  134  C 15  Y    0.015421   0.000629  -0.000256   0.002946   0.006647
  135  C 15  Z   -0.004990   0.000619  -0.000327  -0.003351  -0.000925
  136  H 16  S   -0.000072  -0.001314  -0.001949  -0.001940  -0.000428
  137  H 16  S    0.000004  -0.002111   0.000990  -0.002153  -0.001969
  138  H 17  S   -0.001266   0.000521   0.000861   0.000967   0.000139
  139  H 17  S    0.003248   0.001151   0.001209   0.014584   0.002251
  140  H 18  S   -0.000483  -0.001547  -0.000107  -0.001965  -0.000493
  141  H 18  S    0.000183  -0.001353   0.000289  -0.001800  -0.000213
  142  H 19  S   -0.000078  -0.002025  -0.000201  -0.001530  -0.000200
  143  H 19  S    0.001457  -0.000908  -0.000164   0.000697   0.000424
  144  H 20  S   -0.000107   0.000247   0.000068   0.000100  -0.000034
  145  H 20  S    0.000647   0.000267   0.001159  -0.000572  -0.000196
  146  H 21  S   -0.000057   0.000556  -0.000025  -0.000438  -0.000087
  147  H 21  S   -0.000013  -0.000689  -0.001843   0.000643   0.000533
  148  H 22  S   -0.000830  -0.001827   0.000090   0.000355   0.000318
  149  H 22  S    0.003555  -0.002235   0.000175   0.000316  -0.001736
  150  H 23  S    0.000070  -0.001385  -0.000111   0.000167  -0.000045
  151  H 23  S    0.000029   0.000383   0.000088   0.000218   0.000041
  152  H 24  S    0.000060  -0.001370   0.000057   0.000179  -0.000063
  153  H 24  S   -0.000007   0.000765   0.000118   0.000580   0.000140
  154  H 25  S    0.000079  -0.001443  -0.000092  -0.000126   0.000050
  155  H 25  S    0.000054   0.000536   0.000342   0.000473   0.000151
  156  H 26  S    0.000052  -0.001124  -0.000174  -0.000317  -0.000059
  157  H 26  S    0.000023   0.001252   0.000309   0.000298   0.000018
  158  H 27  S   -0.000005  -0.001917   0.000020  -0.000187   0.000022
  159  H 27  S   -0.000610  -0.001675  -0.000297  -0.000749  -0.000019
  160  H 28  S   -0.001115  -0.000194   0.000050   0.000303   0.001248
  161  H 28  S    0.000510   0.000078  -0.000614  -0.001071   0.016314
  162  H 29  S   -0.000703   0.000257   0.000087  -0.001060   0.001136
  163  H 29  S   -0.001231   0.000512   0.000321  -0.003575   0.014238
  164  H 30  S    0.000018   0.000196  -0.000980  -0.000045   0.000175
  165  H 30  S   -0.000148   0.000609  -0.000630  -0.000529   0.000100
  166  H 31  S    0.000193   0.000023  -0.001082   0.000264   0.000153
  167  H 31  S   -0.000310   0.000055  -0.001944  -0.000582   0.000001
  168  H 32  S   -0.001158  -0.000435   0.000103   0.000298  -0.000455
  169  H 32  S    0.000315   0.000942   0.000318   0.002249   0.000913
  170  H 33  S   -0.001148   0.000280  -0.000088  -0.000719  -0.000177
  171  H 33  S    0.000310   0.000695  -0.000143  -0.000504   0.000372
  172  H 34  S   -0.000663  -0.000002  -0.000390   0.000790  -0.001917
  173  H 34  S   -0.001071  -0.000295   0.000518   0.002163  -0.004501
  174  H 35  S   -0.000129   0.000088   0.000390  -0.000082  -0.000982
  175  H 35  S    0.002871   0.000053  -0.000146   0.000027  -0.003430
  176  H 36  S   -0.000148   0.000189  -0.001203  -0.000434   0.000556
  177  H 36  S    0.000012  -0.000485   0.000541  -0.004095  -0.000825
  178  H 37  S    0.000010   0.000079  -0.001055   0.000203  -0.000061
  179  H 37  S   -0.000007   0.000137   0.002300  -0.000020  -0.000875
  180  H 38  S    0.000046   0.000083  -0.001198   0.000064   0.000398
  181  H 38  S   -0.000483  -0.000029  -0.001545   0.000357  -0.001227
  182  H 39  S   -0.000061  -0.000012  -0.001191  -0.000141   0.000249
  183  H 39  S    0.000137   0.001210  -0.000513   0.000514   0.000688

                      6          7          8          9         10
                  -10.1134   -10.1118   -10.1111   -10.1103   -10.1082
                     A          A          A          A          A   
    1  C  1  S    0.000219   0.000141   0.005401  -0.015063  -0.000789
    2  C  1  S    0.000002   0.000087   0.001068  -0.003283  -0.000150
    3  C  1  X   -0.000007   0.000031   0.000206  -0.000566  -0.000046
    4  C  1  Y   -0.000033   0.000034   0.000170  -0.000313  -0.000023
    5  C  1  Z    0.000041   0.000007   0.000319  -0.000645  -0.000022
    6  C  1  S    0.000301   0.000262  -0.001559   0.006665   0.000063
    7  C  1  X    0.000223  -0.000071   0.000155   0.000138   0.000083
    8  C  1  Y    0.000330  -0.001100   0.000685   0.001125   0.000061
    9  C  1  Z    0.000149   0.000473  -0.001143   0.003639  -0.000057
   10  C  2  S    0.000223   0.003699  -0.007118  -0.012974  -0.000470
   11  C  2  S    0.000042   0.001054  -0.002028  -0.002075  -0.000096
   12  C  2  X    0.000015  -0.000327  -0.000036  -0.001031  -0.000019
   13  C  2  Y   -0.000003   0.000083  -0.000500   0.000270   0.000002
   14  C  2  Z   -0.000019   0.000144  -0.000191  -0.000049  -0.000008
   15  C  2  S   -0.000154  -0.005238   0.006928   0.000415   0.000284
   16  C  2  X   -0.000066  -0.000289   0.003589  -0.001306   0.000120
   17  C  2  Y    0.000083   0.000620   0.001011  -0.000626  -0.000164
   18  C  2  Z    0.000020  -0.000315   0.000673  -0.000766   0.000062
   19  C  3  S   -0.008403  -0.063606  -0.043151  -0.030236   0.981537
   20  C  3  S   -0.001425  -0.009294  -0.005677  -0.003988   0.112110
   21  C  3  X    0.000057   0.000398   0.000506  -0.000099   0.000013
   22  C  3  Y    0.000285  -0.000529   0.000006  -0.000388   0.000345
   23  C  3  Z    0.000209  -0.000676  -0.000728  -0.000026  -0.000377
   24  C  3  S    0.004758   0.013054   0.003388   0.008302  -0.095773
   25  C  3  X   -0.001064  -0.000213   0.000143   0.000639   0.001063
   26  C  3  Y   -0.001541   0.000182  -0.001602   0.000587   0.001029
   27  C  3  Z    0.001053   0.004153   0.001125   0.001863  -0.005929
   28  C  4  S   -0.000101  -0.005104   0.011881  -0.010178   0.000850
   29  C  4  S    0.000113  -0.001310   0.002601  -0.001827   0.000179
   30  C  4  X   -0.000191  -0.000040   0.000170  -0.000022  -0.000001
   31  C  4  Y    0.000100  -0.000185   0.000547  -0.000227   0.000010
   32  C  4  Z    0.000086  -0.000108   0.000091   0.000153   0.000011
   33  C  4  S   -0.001797   0.003368  -0.002241  -0.002979  -0.000705
   34  C  4  X   -0.000695   0.000794  -0.000487  -0.002142  -0.000403
   35  C  4  Y   -0.000494   0.001759  -0.001650  -0.004117  -0.000080
   36  C  4  Z   -0.000732  -0.000393  -0.000601   0.000914  -0.000014
   37  C  5  S   -0.007228  -0.580721   0.641322   0.471515   0.003528
   38  C  5  S   -0.000874  -0.071470   0.075005   0.051373   0.000679
   39  C  5  X   -0.000159   0.000062  -0.000094   0.000333  -0.000053
   40  C  5  Y    0.000047   0.000260   0.000235  -0.000010  -0.000129
   41  C  5  Z    0.000051  -0.000034   0.000475  -0.000432  -0.000128
   42  C  5  S   -0.000572   0.087580  -0.068289  -0.019420  -0.001163
   43  C  5  X    0.000346   0.014637   0.009828  -0.004754  -0.000798
   44  C  5  Y    0.000800  -0.004673   0.014546  -0.013762   0.001514
   45  C  5  Z    0.000202   0.001098   0.002750  -0.000213   0.001483
   46  C  6  S    0.324327  -0.009465  -0.013517   0.013747  -0.005666
   47  C  6  S    0.035856  -0.000899  -0.001091   0.001093  -0.000287
   48  C  6  X    0.000716  -0.000072  -0.000050   0.000046  -0.000062
   49  C  6  Y    0.000478   0.000137   0.000174   0.000043   0.000086
   50  C  6  Z   -0.000086   0.000121  -0.000070   0.000205  -0.000003
   51  C  6  S   -0.015492   0.000876  -0.001233   0.002612  -0.000764
   52  C  6  X    0.011975   0.001110   0.001250  -0.001684   0.000787
   53  C  6  Y    0.006605   0.000145  -0.000650  -0.001701  -0.000424
   54  C  6  Z    0.002857  -0.000478   0.000029  -0.000512  -0.000104
   55  C  7  S   -0.025792   0.787987   0.534543   0.236746   0.077696
   56  C  7  S   -0.003524   0.094852   0.060929   0.026124   0.006849
   57  C  7  X   -0.000228   0.000435  -0.000723   0.000007  -0.000248
   58  C  7  Y    0.000166  -0.000454  -0.000030   0.000173  -0.000132
   59  C  7  Z    0.000024  -0.000315  -0.000419   0.000482   0.001107
   60  C  7  S    0.003740  -0.100752  -0.042187  -0.015978   0.001308
   61  C  7  X    0.001474   0.008397  -0.005099  -0.008033   0.002440
   62  C  7  Y   -0.001393   0.010404  -0.003096   0.003683  -0.002989
   63  C  7  Z   -0.001066   0.007777   0.002506  -0.002069  -0.003299
   64  C  8  S    0.929422   0.020088   0.015449   0.013773   0.010349
   65  C  8  S    0.108428   0.001996   0.001446   0.001208   0.000588
   66  C  8  X   -0.000502  -0.000102   0.000054   0.000108  -0.000183
   67  C  8  Y   -0.000270  -0.000249  -0.000242  -0.000162  -0.000072
   68  C  8  Z   -0.000213  -0.000135  -0.000072   0.000049   0.000197
   69  C  8  S   -0.095721  -0.001402  -0.000724  -0.000664   0.003726
   70  C  8  X    0.005159   0.000716  -0.000298  -0.001268   0.001019
   71  C  8  Y   -0.006652   0.000688   0.000769   0.000022   0.001380
   72  C  8  Z   -0.003052   0.001399   0.000623  -0.000713   0.000473
   73  C  9  S    0.034404  -0.002542  -0.003427   0.011089   0.000690
   74  C  9  S    0.001535  -0.000041  -0.000445   0.000464  -0.000099
   75  C  9  X   -0.001442  -0.000078  -0.000140   0.000563  -0.000006
   76  C  9  Y   -0.000073   0.000145   0.000328  -0.000687   0.000014
   77  C  9  Z    0.000532   0.000031   0.000059  -0.000108   0.000011
   78  C  9  S    0.007814  -0.001012   0.001951   0.001864   0.001007
   79  C  9  X    0.008664   0.001324   0.000786  -0.004213   0.000446
   80  C  9  Y    0.000262  -0.002345   0.000456   0.003965   0.000430
   81  C  9  Z   -0.006454  -0.000953  -0.001203   0.003585  -0.000367
   82  C 10  S    0.028306   0.024070   0.036295   0.057325   0.050421
   83  C 10  S    0.003100   0.002301   0.003396   0.003916   0.003929
   84  C 10  X   -0.000339  -0.000401   0.000405   0.001099  -0.000254
   85  C 10  Y    0.000892   0.000265  -0.001059   0.000135  -0.000261
   86  C 10  Z    0.000070  -0.000124   0.000135  -0.000792   0.001228
   87  C 10  S   -0.005802   0.009126   0.000421   0.006163   0.009992
   88  C 10  X    0.001266  -0.012477  -0.006893  -0.005978   0.004731
   89  C 10  Y   -0.000985   0.008068   0.010962  -0.000290   0.006781
   90  C 10  Z    0.003629   0.010732   0.001255   0.008846  -0.021196
   91  C 11  S   -0.038922  -0.022071  -0.011805  -0.008708  -0.026391
[...]
   2245    3.00519    9.68698    4.36317       -10.453466      10.454061       0.000595
   2246    5.40099    9.33744    0.48668       -11.012643      11.014194       0.001551
   2247    6.32687    7.99438    1.40180       -11.644133      11.641568      -0.002565
   2248    3.92030   10.25256   -0.07889       -10.692571      10.695640       0.003069
   2249    3.00519    9.68698   -1.55957       -11.361698      11.365486       0.003788
   2250    3.00519   10.81813    1.40180       -10.281023      10.283723       0.002700
   2251    1.17496   10.81813    1.40180       -10.493824      10.496826       0.003002
   2252   -0.29430   10.23406    1.40180       -11.048523      11.051307       0.002784
   2253    2.09007   10.61286    3.02011       -10.280650      10.282729       0.002079
   2254    0.25985   10.25256    2.88249       -10.739895      10.742113       0.002219
   2255    1.17496    9.68698    4.36317       -10.698463      10.699739       0.001276
   2256    0.25985   10.25256   -0.07889       -11.137218      11.140638       0.003420
   2257    2.09007   10.61286   -0.21651       -10.693811      10.697286       0.003475
   2258    1.17496    9.68698   -1.55957       -11.566238      11.569927       0.003689
   2259   -0.52841    8.99455    4.02028       -11.480074      11.481454       0.001380
   2260   -1.22084    9.33744    2.31691       -11.700955      11.702836       0.001882
   2261    2.11479    1.54736    7.51420       -12.850920      12.854824       0.003905
   2262    3.59548    2.10150    7.53269       -12.279176      12.281622       0.002446
   2263    5.07617    3.01661    6.96712       -11.988090      11.987303      -0.000787
   2264    5.97279    3.93173    6.04057       -12.022498      12.017778      -0.004720
   2265    2.11479    3.01661    8.09826       -11.838345      11.841496       0.003152
   2266    3.73310    3.93173    7.89300       -11.338727      11.340118       0.001391
   2267    5.07617    4.84684    6.96712       -11.287205      11.285789      -0.001416
   2268    2.11479    4.84684    8.09826       -11.186645      11.188984       0.002338
   2269    3.59548    5.76196    7.53269       -10.931267      10.931815       0.000548
   2270    2.11479    6.31610    7.51420       -10.988630      10.990028       0.001398
   2271    5.99128    5.41241    5.48643       -11.732698      11.727274      -0.005423
   2272    4.73327    6.55021    6.27469       -11.100051      11.098123      -0.001928
   2273    3.02991    7.24264    6.61758       -10.967817      10.967718      -0.000100
   2274    1.19968    7.24264    6.61758       -11.261145      11.262204       0.001059
   2275    0.63411    5.76196    7.53269       -11.415822      11.418316       0.002494
   2276   -0.84658    4.84684    6.96712       -12.433380      12.437168       0.003788
   2277   -0.84658    3.01661    6.96712       -13.326143      13.330599       0.004456
   2278    0.63411    2.10150    7.53269       -12.931669      12.935859       0.004190
   2279    0.49648    3.93173    7.89300       -11.924876      11.928396       0.003520
   2280   -1.15615   -8.74113    6.39623       -10.409286      10.408064      -0.001222
   2281   -1.15615   -7.27187    6.98030       -10.967964      10.966033      -0.001930
   2282   -1.15615   -5.44164    6.98030       -12.098816      12.095806      -0.003010
   2283   -0.24104   -9.66767    5.49962       -10.335626      10.333614      -0.002013
   2284   -5.01415   -6.35675    4.92261       -11.927821      11.928283       0.000462
   2285   -3.54052  -10.21475    2.53824       -10.421107      10.420254      -0.000853
   2286   -4.46707   -9.31813    3.45336       -10.557357      10.557792       0.000436
   2287   -5.03264   -7.83744    4.36847       -11.093288      11.094396       0.001108
   2288   -4.46707   -9.31813    1.62313       -11.022544      11.020859      -0.001686
   2289   -4.11753   -7.27187    5.84916       -11.044833      11.045768       0.000935
   2290   -3.77463   -8.97524    5.15672       -10.364020      10.365035       0.001015
   2291   -2.98638  -10.23324    4.01893       -10.131672      10.131808       0.000136
   2292   -2.63684   -8.18698    6.41473       -10.517012      10.517266       0.000254
   2293   -2.07127   -9.66767    5.49962       -10.126736      10.126714      -0.000022
   2294   -1.15615  -10.59355    4.15655       -10.150614      10.149772      -0.000842
   2295   -2.77446   -6.35675    6.77503       -11.399079      11.398717      -0.000362
   2296    3.91337  -11.33630    0.61153        -9.744753       9.746448       0.001696
   2297    4.83991  -10.43968    1.52665       -10.088421      10.089126       0.000705
   2298    5.40548   -8.95899    2.44176       -10.876853      10.875057      -0.001796
   2299    3.35923  -11.35480    2.09222        -9.731801       9.732243       0.000442
   2300    4.14748  -10.09679    3.23002       -10.248999      10.247242      -0.001756
   2301    2.44411  -10.78922    3.57291       -10.046059      10.044468      -0.001591
   2302    4.83991  -10.43968   -0.30358       -10.170298      10.172581       0.002283
   2303    5.40548   -8.95899   -1.21870       -11.136453      11.139440       0.002987
   2304    5.76579   -9.09662    0.61153       -10.890500      10.891458       0.000958
   2305    1.52900   -9.86268   -3.24646       -10.899383      10.898492      -0.000891
   2306    3.00968   -9.30854   -3.26495       -11.141686      11.143437       0.001751
   2307    2.44411  -10.78922   -2.34984       -10.232188      10.233385       0.001197
   2308    4.14748  -10.09679   -2.00695       -10.486204      10.488997       0.002793
   2309    3.35923  -11.35480   -0.86915        -9.824560       9.826639       0.002079
   2310    0.61388  -10.78922   -2.34984       -10.418897      10.417405      -0.001492
   2311   -0.30123  -11.35480   -0.86915       -10.196626      10.194783      -0.001843
   2312    0.61388  -11.92037    0.61153        -9.778442       9.778302      -0.000140
   2313    1.52900  -11.71510   -1.00678        -9.813302       9.813936       0.000633
   2314    2.44411  -11.92037    0.61153        -9.597133       9.598343       0.001211
   2315    1.52900  -11.71510    2.22984        -9.738315       9.738232      -0.000083
   2316    6.35299   -5.38563    4.81956       -11.757732      11.753959      -0.003773
   2317    7.83368   -4.83149    4.83806       -11.005153      11.003518      -0.001635
   2318    9.31437   -3.91638    4.27248       -10.581945      10.580582      -0.001363
   2319   10.21099   -3.00126    3.34594       -10.537421      10.535181      -0.002240
   2320    6.35299   -3.91638    5.40363       -12.100438      12.097368      -0.003070
   2321    7.97130   -3.00126    5.19836       -11.413763      11.411485      -0.002277
   2322    9.31437   -2.08615    4.27248       -11.127255      11.123730      -0.003525
   2323    8.73736   -6.85926    0.96157       -10.582478      10.582770       0.000292
   2324    9.66391   -5.96264    1.87668       -10.237101      10.237134       0.000033
   2325   10.22948   -4.48195    2.79180       -10.220996      10.220212      -0.000784
   2326    8.18322   -6.87775    2.44225       -10.671007      10.670661      -0.000345
   2327    8.97148   -5.61974    3.58005       -10.418624      10.418130      -0.000494
   2328    7.26811   -6.31218    3.92294       -11.092784      11.090834      -0.001950
   2329   10.22948   -1.52058    2.79180       -11.070609      11.065790      -0.004819
   2330   10.79505   -3.00126    1.87668       -10.466195      10.463921      -0.002275
   2331    9.66391   -5.96264    0.04645       -10.453821      10.453951       0.000130
   2332   10.58979   -4.61957    0.96157       -10.251893      10.251205      -0.000688
   2333    8.18322   -6.87775   -0.51912       -11.070807      11.071476       0.000668
   2334    7.26811   -7.44332    0.96157       -11.275222      11.275204      -0.000017
   2335    4.87231   -4.83149    4.83806       -13.137991      13.129763      -0.008228
   2336    5.43788   -6.31218    3.92294       -12.391754      12.384870      -0.006885
   2337    6.35299   -7.23805    2.57988       -11.690572      11.687964      -0.002608
   2338    9.94469    1.68415   -0.96044       -11.986561      11.979684      -0.006877
   2339    9.94469    1.68415   -2.79067       -11.531022      11.529972      -0.001050
   2340   10.87056    0.34108   -1.87555       -10.902397      10.900510      -0.001887
   2341   11.07583   -1.27723   -0.96044       -10.749603      10.747332      -0.002271
   2342   10.51026    0.20346   -3.70578       -10.695805      10.697450       0.001645
   2343   11.07583   -1.27723   -2.79067       -10.389920      10.390449       0.000529
   2344   10.49176   -1.27723   -4.25992       -10.383484      10.385998       0.002514
   2345    9.94469   -4.23860   -2.79067       -10.651696      10.652526       0.000830
   2346   10.51026   -2.75791   -3.70578       -10.319953      10.321738       0.001785
   2347   10.87056   -2.89554   -1.87555       -10.493927      10.493639      -0.000288
   2348    6.63377   -3.66160   -5.73355       -11.929357      11.932439       0.003082
   2349    8.11446   -3.10746   -5.75204       -11.050188      11.053756       0.003568
   2350    9.59514   -2.19234   -5.18647       -10.513919      10.517347       0.003428
   2351    7.54888   -4.58814   -4.83693       -11.504960      11.507617       0.002657
   2352    9.25225   -3.89571   -4.49403       -10.663843      10.666264       0.002421
   2353    9.59514   -0.36211   -5.18647       -10.763808      10.767867       0.004059
   2354    8.25208   -1.27723   -6.11234       -11.119610      11.124475       0.004865
   2355    6.63377   -2.19234   -6.31761       -11.913409      11.917661       0.004251
   2356    4.05616   -2.11660    6.94579       -12.608500      12.607501      -0.000999
   2357    5.53685   -1.56246    6.96428       -11.947926      11.946904      -0.001022
   2358    7.01754   -0.64734    6.39871       -11.672788      11.669953      -0.002835
   2359    4.05616   -0.64734    7.52985       -12.224668      12.225617       0.000949
   2360    5.67447    0.26777    7.32458       -11.692032      11.691336      -0.000696
   2361    7.01754    1.18289    6.39871       -11.670118      11.665791      -0.004328
   2362    4.05616    1.18289    7.52985       -12.231544      12.233331       0.001787
   2363    5.53685    2.09800    6.96428       -11.960464      11.959080      -0.001384
   2364    6.67465   -2.35071    5.70627       -12.221146      12.218795      -0.002351
   2365    4.97128   -3.04314    6.04917       -12.790879      12.787758      -0.003121
   2366    2.57548   -1.56246    6.96428       -13.333756      13.334410       0.000654
   2367    3.14105   -3.04314    6.04917       -13.801579      13.796706      -0.004874
   2368    2.43785    0.26777    7.32458       -13.109888      13.113249       0.003361
   2369    8.06377    6.45868    0.79055       -11.672492      11.665608      -0.006885
   2370    8.97888    7.02425   -0.69014       -10.569093      10.566530      -0.002563
   2371    8.41331    8.50494   -1.60525        -9.931491       9.932350       0.000859
   2372    7.48676    9.40156   -2.52037        -9.699129       9.701685       0.002555
   2373    7.72087    8.16205    0.09812       -10.691222      10.690064      -0.001158
   2374    6.93262    9.42006   -1.03968       -10.158162      10.160110       0.001949
   2375    6.01751    8.85448    0.44101       -11.159511      11.160195       0.000684
   2376    8.41331    8.50494   -3.43548        -9.593546       9.595554       0.002008
   2377    9.33918    7.16188   -2.52037        -9.999746       9.999543      -0.000203
   2378    9.54445    5.54357   -1.60525       -10.876941      10.873065      -0.003876
   2379    8.97888    7.02425   -4.35059        -9.809493       9.810596       0.001103
   2380    9.54445    5.54357   -3.43548       -10.444152      10.443103      -0.001049
   2381    5.10239    7.92794   -6.37836       -10.204184      10.206773       0.002588
   2382    6.58308    7.37380   -6.39685        -9.968914       9.971159       0.002245
   2383    8.06377    6.45868   -5.83128       -10.007870      10.009426       0.001556
   2384    6.93262    9.42006   -4.00105        -9.578374       9.581504       0.003129
   2385    7.72087    8.16205   -5.13885        -9.598462       9.600893       0.002431
   2386    6.01751    8.85448   -5.48174        -9.757349       9.760370       0.003021
   2387    6.01751    9.98563   -2.52037        -9.920807       9.924103       0.003297
   2388    4.18728    9.98563   -2.52037       -10.542757      10.546372       0.003615
   2389    2.71802    9.40156   -2.52037       -11.461401      11.464976       0.003575
   2390    5.10239    9.78036   -0.90206       -10.705750      10.708818       0.003068
   2391    3.27216    9.42006   -4.00105       -10.764778      10.768132       0.003353
   2392    5.10239    9.78036   -4.13868        -9.949175       9.952663       0.003489
   2393    4.18728    8.85448   -5.48174       -10.319479      10.322537       0.003058
   2394    9.87357    2.39200   -2.67742       -11.511677      11.509399      -0.002278
   2395    9.30800    3.87268   -5.42277       -10.391080      10.392351       0.001272
   2396    9.87357    2.39200   -4.50765       -10.732726      10.734094       0.001368
   2397    9.28950    2.39200   -5.97691       -10.409386      10.412286       0.002900
   2398    9.30800    0.91131   -5.42277       -10.878379      10.882503       0.004124
   2399    5.43151    0.00763   -7.45053       -11.847086      11.851524       0.004438
   2400    6.91219    0.56177   -7.46903       -11.050655      11.055325       0.004670
   2401    8.39288    1.47688   -6.90346       -10.541130      10.545299       0.004169
   2402    6.34662   -0.91892   -6.55391       -12.147312      12.152684       0.005372
   2403    8.04999   -0.22648   -6.21102       -11.316628      11.322266       0.005638
   2404    8.39288    3.30711   -6.90346       -10.276150      10.278904       0.002754
   2405    7.04982    2.39200   -7.82933       -10.545559      10.549126       0.003568
   2406    5.43151    1.47688   -8.03460       -11.249830      11.253577       0.003747
   2407    3.95082    0.56177   -7.46903       -12.479571      12.483332       0.003761
   2408    2.43716    1.51190   -7.48460       -12.813393      12.816901       0.003508
   2409    2.43716    6.28065   -7.48460       -10.983675      10.986969       0.003295
   2410    2.43716    4.81139   -8.06867       -11.197838      11.201223       0.003384
   2411    2.43716    2.98116   -8.06867       -11.841892      11.845299       0.003407
   2412    0.60693    7.77276   -5.10730       -11.805301      11.809388       0.004087
   2413    1.52205    7.20719   -6.58798       -11.173133      11.176867       0.003734
   2414   -0.87376    6.85765   -4.54173       -12.892181      12.897491       0.005309
   2415   -0.18132    6.51476   -6.24509       -11.865001      11.869822       0.004821
   2416    0.95647    5.72650   -7.50310       -11.342996      11.347250       0.004254
   2417   -1.43933    5.37696   -5.45684       -13.249132      13.254540       0.005408
   2418   -0.52421    4.81139   -6.93753       -12.293233      12.298267       0.005034
   2419   -1.42083    3.89627   -6.01098       -13.721433      13.726538       0.005105
   2420   -0.52421    2.98116   -6.93753       -13.210846      13.215563       0.004717
   2421    0.81885    3.89627   -7.86340       -11.866826      11.871117       0.004291
   2422    0.95647    2.06605   -7.50310       -12.852099      12.856110       0.004011

 NET CHARGES:
 -------------------------------------
 ATOM                CHARGE    E.S.D.
 -------------------------------------
 C                  -0.4249    0.2897
 C                  -0.5840    0.3116
 C                  -0.3389    0.2550
 C                  -0.3789    0.3381
 C                  -0.0141    0.4183
 C                  -0.1345    0.2974
 C                  -0.3141    0.3431
 C                  -0.0070    0.2655
 C                   0.0982    0.2187
 C                   0.1423    0.1496
 C                  -0.3646    0.1151
 C                  -0.0641    0.4971
 C                   0.0640    0.5500
 C                   0.4299    0.2849
 C                  -0.5376    0.1044
 H                   0.0486    0.0441
 H                   0.0641    0.0412
 H                   0.1078    0.0213
 H                   0.1035    0.0201
 H                   0.0417    0.0324
 H                   0.0370    0.0280
 H                   0.0968    0.0237
 H                   0.1085    0.0195
 H                   0.0954    0.0188
 H                   0.1320    0.0206
 H                   0.1492    0.0203
 H                   0.1328    0.0232
 H                   0.0632    0.0255
 H                   0.0596    0.0178
 H                   0.1122    0.0221
 H                   0.0957    0.0220
 H                   0.1834    0.0098
 H                   0.1923    0.0087
 H                   0.0594    0.0176
 H                   0.0547    0.0193
 H                   0.1594    0.0105
 H                   0.1041    0.0155
 H                   0.1181    0.0184
 H                   0.1087    0.0192
 -------------------------------------

 RMS DEVIATION IS            0.777 KCAL/MOLE
 RELATIVE RMS DEVIATION IS  23.397 %

 MULTIPOLE MOMENTS:
 ---------------------------------------------------------
 STATUS  ACTUAL VALUE       QUANTITY        FITTED VALUE 
 ---------------------------------------------------------
 FIXED       0.0000       TOTAL CHARGE         0.0000
             0.6621 D    DIPOLE MOMENT         0.6489 D
 FREE       -0.2859 D          DX             -0.2294 D
 FREE        0.4828 D          DY              0.4876 D
 FREE       -0.3516 D          DZ             -0.3615 D
 FREE        0.0000 BU         QXX            -2.4341 BU
 FREE        0.0000 BU         QYY             0.7904 BU
 FREE        0.0000 BU         QZZ             1.6437 BU
 FREE        0.0000 BU         QXY            -2.1148 BU
 FREE        0.0000 BU         QXZ            -4.1779 BU
 FREE        0.0000 BU         QYZ            -0.7154 BU
 ---------------------------------------------------------
 ...... END OF PROPERTY EVALUATION ......
 CPU     0: STEP CPU TIME=     2.78 TOTAL CPU TIME=        126.4 (      2.1 MIN)
 TOTAL WALL CLOCK TIME=        187.6 SECONDS, CPU UTILIZATION IS    67.38%
              1542250  WORDS OF DYNAMIC MEMORY USED
 EXECUTION OF GAMESS TERMINATED NORMALLY Mon May 25 18:31:09 2020
 DDI: 263640 bytes (0.3 MB / 0 MWords) used by master data server.
Note: The following floating-point exceptions are signalling: IEEE_UNDERFLOW_FLAGNote: The following floating-point exceptions are signalling: IEEE_UNDERFLOW_FLAGNote: The following floating-point exceptions are signalling:
 ----------------------------------------
 CPU timing information for all processes
 ========================================
 0: 125.820 + 0.595 = 126.416
 1: 125.134 + 0.352 = 125.486
 2: 121.760 + 0.220 = 121.981
 3: 124.92 + 0.300 = 124.392
 4: 121.857 + 0.304 = 122.162
 5: 121.552 + 0.216 = 121.769
 ----------------------------------------
 IEEE_DENORMAL IEEE_DENORMAL IEEE_UNDERFLOW_FLAG IEEE_DENORMALNote: The following floating-point exceptions are signalling: IEEE_UNDERFLOW_FLAGNote: The following floating-point exceptions are signalling: IEEE_UNDERFLOW_FLAG
Note: The following floating-point exceptions are signalling:

 IEEE_DENORMAL
 IEEE_DENORMAL
 IEEE_UNDERFLOW_FLAG IEEE_DENORMAL
 ddikick.x: exited gracefully.
unset echo
----- accounting info -----
Files used on the master node pietdev were:
-rwxr-xr-x 1 piet piet     1706 mei 25 18:28 /home/piet/scr/caryophylene_charge_geodisk.F05*
-rw-r--r-- 1 piet piet 45875200 mei 25 18:31 /home/piet/scr/caryophylene_charge_geodisk.F10
ls: No match.
ls: No match.
ls: No match.
ma 25 mei 2020 18:31:12 CEST
0.119u 0.019s 3:10.78 0.0%	0+0k 0+8io 0pf+0w
