----- GAMESS execution script 'rungms' -----
This job is running on host pietdev
under operating system Linux at ma 25 mei 2020 18:31:32 CEST
Available scratch disk space (Kbyte units) at beginning of the job is
Filesystem     1K-blocks     Used Available Use% Mounted on
/dev/sda2      244568380 31071344 201003980  14% /
GAMESS temporary binary files will be written to /home/piet/scr
GAMESS supplementary output files will be written to /home/piet/gamess/scr
Copying input file caryophylene_fukui_base.inp to your run's scratch directory...
cp caryophylene_fukui_base.inp /home/piet/scr/caryophylene_fukui_base.F05
unset echo
 
Assuming a single but multicore node.
 
/home/piet/gamess/ddikick.x /home/piet/gamess/gamess.03.x caryophylene_fukui_base -ddi 1 6 pietdev:cpus=6 -scr /home/piet/scr

 Distributed Data Interface kickoff program.
 Initiating 6 compute processes on 1 nodes to run the following command:
 /home/piet/gamess/gamess.03.x caryophylene_fukui_base 

          ******************************************************
          *         GAMESS VERSION = 30 SEP 2019 (R2)          *
          *             FROM IOWA STATE UNIVERSITY             *
          * M.W.SCHMIDT, K.K.BALDRIDGE, J.A.BOATZ, S.T.ELBERT, *
          *   M.S.GORDON, J.H.JENSEN, S.KOSEKI, N.MATSUNAGA,   *
          *          K.A.NGUYEN, S.J.SU, T.L.WINDUS,           *
          *       TOGETHER WITH M.DUPUIS, J.A.MONTGOMERY       *
          *         J.COMPUT.CHEM.  14, 1347-1363(1993)        *
          **************** 64 BIT LINUX VERSION ****************

  SINCE 1993, STUDENTS AND POSTDOCS WORKING AT IOWA STATE UNIVERSITY
  AND ALSO IN THEIR VARIOUS JOBS AFTER LEAVING ISU HAVE MADE IMPORTANT
  CONTRIBUTIONS TO THE CODE:
     IVANA ADAMOVIC, CHRISTINE AIKENS, YURI ALEXEEV, POOJA ARORA,
     ANDREY ASADCHEV, ROB BELL, PRADIPTA BANDYOPADHYAY, JONATHAN BENTZ,
     COLLEEN BERTONI, BRETT BODE, KURT BRORSEN, CALEB CARLIN, GALINA CHABAN,
     WEI CHEN, CHEOL HO CHOI, PAUL DAY, ALBERT DEFUSCO, NUWAN DESILVA,
     TIM DUDLEY, DMITRI FEDOROV, ALEX FINDLATER, GRAHAM FLETCHER, 
     MARK FREITAG, KURT GLAESEMANN, EMILIE B GUIDEZ, ANASTASIA GUNINA, 
     DAN KEMP, SAROM SOK LEANG, GRANT MERRILL,
     NORIYUKI MINEZAWA, JONATHAN MULLIN,
     TAKESHI NAGATA, SEAN NEDD, HEATHER NETZLOFF, BOSILJKA NJEGIC, RYAN OLSON,
     MIKE PAK, BUU PHAM, DAVID POOLE,
     SPENCER PRUITT, LUKE ROSKOP, TOSAPORN SATTASATHUCHANA,
     JIM SHOEMAKER, LYUDMILA SLIPCHENKO,
     TONY SMITH, JIE SONG, TETSUYA TAKETSUGU, SIMON WEBB,
     JORGE LUIS GALVEZ VALLEJO, PENG XU, SOOHAENG YOO,
     FEDERICO ZAHARIEV

  ADDITIONAL CODE HAS BEEN PROVIDED BY COLLABORATORS IN OTHER GROUPS:
     IOWA STATE UNIVERSITY:
          JOE IVANIC, AARON WEST, LAIMUTIS BYTAUTAS, KLAUS RUEDENBERG
     UNIVERSITY OF TOKYO: KIMIHIKO HIRAO, TAKAHITO NAKAJIMA,
          TAKAO TSUNEDA, MUNEAKI KAMIYA, SUSUMU YANAGISAWA,
          KIYOSHI YAGI, MAHITO CHIBA, SEIKEN TOKURA, NAOAKI KAWAKAMI
     UNIVERSITY OF AARHUS: FRANK JENSEN
     UNIVERSITY OF IOWA: VISVALDAS KAIRYS, HUI LI
     NATIONAL INST. OF STANDARDS AND TECHNOLOGY: WALT STEVENS, DAVID GARMER
     UNIVERSITY OF PISA: BENEDETTA MENNUCCI, JACOPO TOMASI
     UNIVERSITY OF MEMPHIS: HENRY KURTZ, PRAKASHAN KORAMBATH
     UNIVERSITY OF ALBERTA: TOBY ZENG, MARIUSZ KLOBUKOWSKI
     UNIVERSITY OF NEW ENGLAND: MARK SPACKMAN
     MIE UNIVERSITY: HIROAKI UMEDA
     NAT. INST. OF ADVANCED INDUSTRIAL SCIENCE AND TECHNOLOGY: KAZUO KITAURA
     MICHIGAN STATE UNIVERSITY:
          KAROL KOWALSKI, MARTA WLOCH, JEFFREY GOUR, JESSE LUTZ,
          WEI LI, JUN SHEN, J. EMILIANO DEUSTUA, PIOTR PIECUCH
     UNIVERSITY OF MINNESOTA:
          ANDREW SAND, PRACHI SHARMA, YINAN SHU
     UNIVERSITY OF SILESIA: MONIKA MUSIAL, STANISLAW KUCHARSKI
     FACULTES UNIVERSITAIRES NOTRE-DAME DE LA PAIX:
          OLIVIER QUINET, BENOIT CHAMPAGNE
     UNIVERSITY OF CALIFORNIA - SANTA BARBARA: BERNARD KIRTMAN
     INSTITUTE FOR MOLECULAR SCIENCE:
          KAZUYA ISHIMURA, MICHIO KATOUDA, AND SHIGERU NAGASE
     UNIVERSITY OF NOTRE DAME: ANNA POMOGAEVA, DAN CHIPMAN
     KYUSHU UNIVERSITY:
          HARUYUKI NAKANO,
          FENG LONG GU, JACEK KORCHOWIEC, MARCIN MAKOWSKI, AND YURIKO AOKI,
          HIROTOSHI MORI AND EISAKU MIYOSHI
     PENNSYLVANIA STATE UNIVERSITY:
          TZVETELIN IORDANOV, CHET SWALINA, JONATHAN SKONE,
          SHARON HAMMES-SCHIFFER
     WASEDA UNIVERSITY:
          MASATO KOBAYASHI, TOMOKO AKAMA, TSUGUKI TOUMA,
          TAKESHI YOSHIKAWA, YASUHIRO IKABATA, JUNJI SEINO,
          YUYA NAKAJIMA, HIROMI NAKAI
     NANJING UNIVERSITY: SHUHUA LI
     UNIVERSITY OF NEBRASKA:
          PEIFENG SU, DEJUN SI, NANDUN THELLAMUREGE, YALI WANG, HUI LI
     UNIVERSITY OF ZURICH: ROBERTO PEVERATI, KIM BALDRIDGE
     N. COPERNICUS UNIVERSITY AND JACKSON STATE UNIVERSITY:
          MARIA BARYSZ
     UNIVERSITY OF COPENHAGEN: Jimmy Kromann, CASPER STEINMANN
     TOKYO INSTITUTE OF TECHNOLOGY: HIROYA NAKATA
     NAGOYA UNIVERSITY: YOSHIO NISHIMOTO, STEPHAN IRLE
     MOSCOW STATE UNIVERSITY: VLADIMIR MIRONOV
     A.N.NESMEYANOV INSTITUTE OF ORGANOELEMENT COMPOUNDS OF RUSSIAN ACADEMY OF SCIENCES:
          IGOR S. GERASIMOV
     JOHANNES KEPLER UNIVERSITY LINZ:
          CHRISTIAN FRIEDL


 PARALLEL VERSION RUNNING ON        6 PROCESSORS IN        1 NODES.

 EXECUTION OF GAMESS BEGUN Mon May 25 18:31:33 2020

            ECHO OF THE FIRST FEW INPUT CARDS -
 INPUT CARD> $BASIS GBASIS=N21 NGAUSS=3 $END                                                
 INPUT CARD> $CONTRL SCFTYP=UHF MAXIT=60 MULT=2 ICHARG=1 $END                               
 INPUT CARD> $SYSTEM MEMDDI=1000 MWORDS=30 $END                                             
 INPUT CARD> $SCF DIRSCF=.TRUE. $END                                                        
 INPUT CARD> $STATPT OPTTOL=0.0001 NSTEP=999 $END                                           
 INPUT CARD> $DATA                                                                          
 INPUT CARD>                                                                                
 INPUT CARD>C1                                                                              
 INPUT CARD>C 6.0000000 -2.49753 -0.59686 -1.63028                                          
 INPUT CARD>C 6.0000000 -3.36637 1.06612 0.03147                                            
 INPUT CARD>C 6.0000000 2.22048 1.94518 -1.34781                                            
 INPUT CARD>C 6.0000000 -1.98560 -0.99731 0.84808                                           
 INPUT CARD>C 6.0000000 -0.51165 1.92664 0.48241                                            
 INPUT CARD>C 6.0000000 1.57236 -1.62161 -0.74331                                           
 INPUT CARD>C 6.0000000 0.96626 2.29246 0.87084                                             
 INPUT CARD>C 6.0000000 2.83113 -0.90290 -0.16213                                           
 INPUT CARD>C 6.0000000 0.42552 -1.87038 0.23286                                            
 INPUT CARD>C 6.0000000 1.95748 1.48475 0.06481                                             
 INPUT CARD>C 6.0000000 2.38545 0.32228 0.58628                                             
 INPUT CARD>C 6.0000000 -0.74617 0.53181 -0.13407                                           
 INPUT CARD>C 6.0000000 -0.44731 -0.72227 0.76506                                           
 INPUT CARD>C 6.0000000 -2.25020 0.06020 -0.26398                                           
 INPUT CARD>C 6.0000000 0.19328 -3.12446 0.65355                                            
 INPUT CARD>H 1.0000000 -0.24156 0.49548 -1.10458                                           
 INPUT CARD>H 1.0000000 -0.04097 -0.42282 1.73760                                           
 INPUT CARD>H 1.0000000 -2.30916 -2.01676 0.61698                                           
 INPUT CARD>H 1.0000000 -2.41063 -0.71079 1.81638                                           
 INPUT CARD>H 1.0000000 -1.12658 2.04975 1.38223                                            
 INPUT CARD>H 1.0000000 -0.88739 2.66600 -0.23668                                           
 INPUT CARD>H 1.0000000 -1.72557 -1.33708 -1.86763                                          
 INPUT CARD>H 1.0000000 -3.46674 -1.11122 -1.64722                                          
 INPUT CARD>H 1.0000000 -2.50078 0.15507 -2.43030                                           
 INPUT CARD>H 1.0000000 -3.39851 1.86688 -0.71804                                           
 INPUT CARD>H 1.0000000 -4.33909 0.55831 0.01219                                            
 INPUT CARD>H 1.0000000 -3.26104 1.53069 1.01707                                            
 INPUT CARD>H 1.0000000 1.20850 -1.01795 -1.58428                                           
 INPUT CARD>H 1.0000000 1.88158 -2.58617 -1.16348                                           
 INPUT CARD>H 1.0000000 1.10602 3.37407 0.74180                                             
 INPUT CARD>H 1.0000000 1.11910 2.08058 1.93478                                             
 INPUT CARD>H 1.0000000 -0.61181 -3.36385 1.34318                                           
 INPUT CARD>H 1.0000000 0.80911 -3.95735 0.32361                                            
 INPUT CARD>H 1.0000000 3.36186 -1.58820 0.50884                                            
 INPUT CARD>H 1.0000000 3.51044 -0.67588 -0.99250                                           
 INPUT CARD>H 1.0000000 2.14643 0.14170 1.63399                                             
 INPUT CARD>H 1.0000000 2.70007 2.93353 -1.33372                                            
 INPUT CARD>H 1.0000000 2.87423 1.26579 -1.90109                                            
 INPUT CARD>H 1.0000000 1.28969 2.06182 -1.91912                                            
 INPUT CARD> $END                                                                           
   30000000 WORDS OF MEMORY AVAILABLE

     BASIS OPTIONS
     -------------
     GBASIS=N21          IGAUSS=       3      POLAR=NONE    
     NDFUNC=       0     NFFUNC=       0     DIFFSP=       F
     NPFUNC=       0      DIFFS=       F     BASNAM=        


     RUN TITLE
     ---------
                                                                                 

 THE POINT GROUP OF THE MOLECULE IS C1      
 THE ORDER OF THE PRINCIPAL AXIS IS     0

 ATOM      ATOMIC                      COORDINATES (BOHR)
           CHARGE         X                   Y                   Z
 C           6.0    -4.7196473461       -1.1279018530       -3.0807824833
 C           6.0    -6.3615168733        2.0146746700        0.0594696768
 C           6.0     4.1960987612        3.6758571968       -2.5469915835
 C           6.0    -3.7522399212       -1.8846426248        1.6026388157
 C           6.0    -0.9668783016        3.6408216770        0.9116227137
 C           6.0     2.9713295541       -3.0643985589       -1.4046522239
 C           6.0     1.8259666329        4.3321212378        1.6456489791
 C           6.0     5.3500599356       -1.7062335943       -0.3063812744
 C           6.0     0.8041162023       -3.5345056929        0.4400415935
 C           6.0     3.6991008264        2.8057706603        0.1224731413
 C           6.0     4.5078468574        0.6090208913        1.1079085521
 C           6.0    -1.4100568403        1.0049751775       -0.2533555632
 C           6.0    -0.8452933316       -1.3648923892        1.4457537642
 C           6.0    -4.2522614176        0.1137615045       -0.4988498662
 C           6.0     0.3652462389       -5.9043732596        1.2350304193
 H           1.0    -0.4564822096        0.9363214324       -2.0873535315
 H           1.0    -0.0774220737       -0.7990139421        3.2835878763
 H           1.0    -4.3636796618       -3.8111237830        1.1659231399
 H           1.0    -4.5554301578       -1.3431983348        3.4324604896
 H           1.0    -2.1289275032        3.8734658433        2.6120359520
 H           1.0    -1.6769239442        5.0380094833       -0.4472603468
 H           1.0    -3.2608544726       -2.5267148237       -3.5293089464
 H           1.0    -6.5511886707       -2.0999013121       -3.1127944415
 H           1.0    -4.7257889556        0.2930398089       -4.5926010680
 H           1.0    -6.4222526665        3.5278916520       -1.3568988482
 H           1.0    -8.1996911361        1.0550529162        0.0230357598
 H           1.0    -6.1624720350        2.8925846721        1.9219836103
 H           1.0     2.2837338562       -1.9236465692       -2.9938550878
 H           1.0     3.5556706240       -4.8871526577       -2.1986583922
 H           1.0     2.0900747369        6.3760677634        1.4017987377
 H           1.0     2.1147923529        3.9317260955        3.6562040465
 H           1.0    -1.1561532565       -6.3567547638        2.5382421522
 H           1.0     1.5289961939       -7.4783071375        0.6115342269
 H           1.0     6.3529942091       -3.0012628137        0.9615681716
 H           1.0     6.6337696963       -1.2772280006       -1.8755530428
 H           1.0     4.0561645518        0.2677741725        3.0877933667
 H           1.0     5.1023924477        5.5435678768       -2.5203653443
 H           1.0     5.4315071257        2.3919962580       -3.5925391780
 H           1.0     2.4371607091        3.8962748360       -3.6266109376

          INTERNUCLEAR DISTANCES (ANGS.)
          ------------------------------

                1 C          2 C          3 C          4 C          5 C     

   1 C       0.0000000    2.5063516 *  5.3666913    2.5621672 *  3.8438562  
   2 C       2.5063516 *  0.0000000    5.8213446    2.6136413 *  3.0155046  
   3 C       5.3666913    5.8213446    0.0000000    5.5831254    3.2885534  
   4 C       2.5621672 *  2.6136413 *  5.5831254    0.0000000    3.2948030  
   5 C       3.8438562    3.0155046    3.2885534    3.2948030    0.0000000  
   6 C       4.2896192    5.6758462    3.6752511    3.9473221    4.2936657  
   7 C       5.1576751    4.5804077    2.5721740 *  4.4200206    1.5712798 *
   8 C       5.5356790    6.5056535    3.1448832    4.9224308    4.4267264  
   9 C       3.6928803    4.8002104    4.5032097    2.6370905 *  3.9189187  
  10 C       5.2013022    5.3403878    1.5088605 *  4.7246178    2.5428841 *
  11 C       5.4407215    5.8261948    2.5301628 *  4.5733943    3.3132987  
  12 C       2.5651125 *  2.6792422 *  3.5031117    2.1997757 *  1.5429186 *
  13 C       3.1554371    3.5010576    4.3239580    1.5648883 *  2.6647242 *
  14 C       1.5361236 *  1.5313397 *  4.9713999    1.5572469 *  2.6576780 *
  15 C       4.3410943    5.5334485    5.8151725    3.0512501    5.1029233  
  16 H       2.5610482 *  3.3735259    2.8674783 *  3.0137980    2.1539974 *
  17 H       4.1722407    4.0231961    4.4990371    2.2142426 *  2.7049961 *
  18 H       2.6649159 *  3.3112934    6.3304824    1.0942470 *  4.3358453  
  19 H       3.4496372    2.6938359 *  6.2059209    1.0956044 *  3.5130668  
  20 H       4.2378373    2.7944122 *  4.3205166    3.2105772    1.0968004 *
  21 H       3.8962709    2.9625770 *  3.3783202    3.9752496    1.0976904 *
  22 H       1.0955286 *  3.4747915    5.1589489    2.7492072 *  4.2009711  
  23 H       1.0973701 *  2.7511604 *  6.4634123    2.9040099 *  4.7430448  
  24 H       1.0979259 *  2.7639771 *  5.1639689    3.5129995    3.9470214  
  25 H       2.7774019 *  1.0972761 *  5.6547139    3.5570537    3.1270772  
  26 H       2.7246043 *  1.0974639 *  6.8411232    2.9423767 *  4.0917882  
  27 H       3.4810743    1.0946813 *  5.9842728    2.8365629 *  2.8287423 *
  28 H       3.7301597    5.2804764    3.1400893    4.0148569    3.9875724  
  29 H       4.8323763    6.5044682    4.5477427    4.6396046    5.3667456  
  30 H       5.8634991    5.0826641    2.7659027 *  5.3552192    2.1861365 *
  31 H       5.7409364    4.9770633    3.4650784    4.5048292    2.1891600 *
  32 H       4.4781288    5.3789235    6.5915926    2.7808154 *  5.3609926  
  33 H       5.1033761    6.5387483    6.2948765    4.1045474    6.0324922  
  34 H       6.3159354    7.2486120    4.1514662    5.3906923    5.2305715  
  35 H       6.0422439    7.1675375    2.9428214 *  5.8049554    5.0125520  
  36 H       5.7242724    5.8149451    3.4855638    4.3575991    3.4025779  
  37 H       6.2902025    6.4925078    1.0986541 *  6.4936321    3.8245655  
  38 H       5.6919776    6.5360343    1.0931965 *  6.0247411    4.1930870  
  39 H       4.6362747    5.1453974    1.0983488 *  5.2671811    3.0050700  

                6 C          7 C          8 C          9 C         10 C     

   1 C       4.2896192    5.1576751    5.5356790    3.6928803    5.2013022  
   2 C       5.6758462    4.5804077    6.5056535    4.8002104    5.3403878  
   3 C       3.6752511    2.5721740 *  3.1448832    4.5032097    1.5088605 *
   4 C       3.9473221    4.4200206    4.9224308    2.6370905 *  4.7246178  
   5 C       4.2936657    1.5712798 *  4.4267264    3.9189187    2.5428841 *
   6 C       0.0000000    4.2770061    1.5616710 *  1.5264457 *  3.2327771  
   7 C       4.2770061    0.0000000    3.8412358    4.2460164    1.5114883 *
   8 C       1.5616710 *  3.8412358    0.0000000    2.6227837 *  2.5525749 *
   9 C       1.5264457 *  4.2460164    2.6227837 *  0.0000000    3.6921592  
  10 C       3.2327771    1.5114883 *  2.5525749 *  3.6921592    0.0000000  
  11 C       2.4915122 *  2.4447257 *  1.5032678 *  2.9620920 *  1.3440334 *
  12 C       3.2224172    2.6537048 *  3.8543813    2.6977791 *  2.8735642 *
  13 C       2.6763892 *  3.3313611    3.4118144    1.5372786 *  3.3383083  
  14 C       4.2035945    4.0763238    5.1727990    3.3366850    4.4544378  
  15 C       2.4721727 *  5.4761059    3.5438560    1.3429937 *  4.9702951  
  16 H       2.8112083 *  2.9309129 *  3.5050111    2.7983987 *  2.6799077 *
  17 H       3.1929368    3.0230003    3.4768390    2.1394591 *  3.2296830  
  18 H       4.1319160    5.4186897    5.3169801    2.7654023 *  5.5470425  
  19 H       4.8213914    4.6170275    5.6060196    3.4490479    5.1931472  
  20 H       5.0280296    2.1680422 *  5.1736504    4.3700669    3.4009185  
  21 H       4.9689681    2.1913811 *  5.1546092    4.7458344    3.0950821  
  22 H       3.4959112    5.2838175    4.8847474    3.0534661    5.0261224  
  23 H       5.1449082    6.1300206    6.4739521    4.3887028    6.2523811  
  24 H       4.7532091    5.2427405    5.8900900    4.4450085    5.2791765  
  25 H       6.0728700    4.6644266    6.8402582    5.4308865    5.4263714  
  26 H       6.3457129    5.6472378    7.3196706    5.3524517    6.3645780  
  27 H       6.0330497    4.2978765    6.6653888    5.0767103    5.3048903  
  28 H       1.0972830 *  4.1285722    2.1607117 *  2.1544587 *  3.0893326  
  29 H       1.0966019 *  5.3644477    2.1766361 *  2.1406147 *  4.2528634  
  30 H       5.2325752    1.0982096 *  4.6995283    5.3128482    2.1800985 *
  31 H       4.5917123    1.0955462 *  4.0285520    4.3574843    2.1341701 *
  32 H       3.4870388    5.8912862    4.4917779    2.1305672 *  5.6342172  
  33 H       2.6789084 *  6.2756897    3.6951553    2.1238693 *  5.5679604  
  34 H       2.1843320 *  4.5748733    1.0961346 *  2.9627492 *  3.4077071  
  35 H       2.1708650 *  4.3308117    1.0965922 *  3.5277569    2.8631995 *
  36 H       3.0150247    2.5692349 *  2.1877043 *  2.9955237 *  2.0740808 *
  37 H       4.7296527    2.8770041 *  4.0134767    5.5412365    2.1462268 *
  38 H       3.3722987    3.5182377    2.7801179 *  4.5150289    2.1801690 *
  39 H       3.8768658    2.8180984 *  3.7752637    4.5650854    2.1713893 *

               11 C         12 C         13 C         14 C         15 C     

   1 C       5.4407215    2.5651125 *  3.1554371    1.5361236 *  4.3410943  
   2 C       5.8261948    2.6792422 *  3.5010576    1.5313397 *  5.5334485  
   3 C       2.5301628 *  3.5031117    4.3239580    4.9713999    5.8151725  
   4 C       4.5733943    2.1997757 *  1.5648883 *  1.5572469 *  3.0512501  
   5 C       3.3132987    1.5429186 *  2.6647242 *  2.6576780 *  5.1029233  
   6 C       2.4915122 *  3.2224172    2.6763892 *  4.2035945    2.4721727 *
   7 C       2.4447257 *  2.6537048 *  3.3313611    4.0763238    5.4761059  
   8 C       1.5032678 *  3.8543813    3.4118144    5.1727990    3.5438560  
   9 C       2.9620920 *  2.6977791 *  1.5372786 *  3.3366850    1.3429937 *
  10 C       1.3440334 *  2.8735642 *  3.3383083    4.4544378    4.9702951  
  11 C       0.0000000    3.2202253    3.0244960    4.7202626    4.0853581  
  12 C       3.2202253    0.0000000    1.5717725 *  1.5815811 *  3.8563223  
  13 C       3.0244960    1.5717725 *  0.0000000    2.2184668 *  2.4886355 *
  14 C       4.7202626    1.5815811 *  2.2184668 *  0.0000000    4.1175861  
  15 C       4.0853581    3.8563223    2.4886355 *  4.1175861    0.0000000  
  16 H       3.1289275    1.0944591 *  2.2407146 *  2.2205206 *  4.0477244  
  17 H       2.7871537 *  2.2162523 *  1.0957265 *  3.0199881    2.9204274 *
  18 H       5.2451324    3.0825676    2.2724695 *  2.2568406 *  2.7368856 *
  19 H       5.0579406    2.8493398 *  2.2271127 *  2.2244238 *  3.7360840  
  20 H       3.9940010    2.1789950 *  2.9200002 *  2.8161744 *  5.3893835  
  21 H       4.1087429    2.1413171 *  3.5605515    2.9407805 *  5.9573303  
  22 H       5.0671131    2.7307882 *  2.9904843 *  2.1907353 *  3.6377275  
  23 H       6.4258519    3.5200386    3.8842418    2.1830133 *  4.7689018  
  24 H       5.7448201    2.9143201 *  3.8983060    2.1828268 *  5.2462755  
  25 H       6.1270901    3.0262750    4.1967684    2.1883507 *  6.3004515  
  26 H       6.7531273    3.5959934    4.1656512    2.1651432 *  5.8750758  
  27 H       5.7903958    2.9406557 *  3.6133661    2.1966400 *  5.8081748  
  28 H       2.8094054 *  2.8854116 *  2.8893826 *  3.8559312    3.2366555  
  29 H       3.4314176    4.2055385    3.5520583    4.9883845    2.5380526 *
  30 H       3.3127858    3.5037406    4.3810246    4.8226072    6.5629090  
  31 H       2.5521978 *  3.1871713    3.4172874    4.5020732    5.4397734  
  32 H       4.8108232    4.1685114    2.7091009 *  4.1220630    1.0867691 *
  33 H       4.5682684    4.7729367    3.4984585    5.0838320    1.0871121 *
  34 H       2.1469297 *  4.6672997    3.9147490    5.8999738    3.5243347  
  35 H       2.1804752 *  4.5071217    4.3306990    5.8529931    4.4394341  
  36 H       1.0896953 *  3.4125294    2.8686183 *  4.7894976    3.9298675  
  37 H       3.2563802    4.3685225    5.2607748    5.8228466    6.8507285  
  38 H       2.7048339 *  4.0949215    4.7003581    5.5130173    5.7435158  
  39 H       3.2409441    3.1099936    4.2394750    4.3905344    5.8922191  

               16 H         17 H         18 H         19 H         20 H     

   1 C       2.5610482 *  4.1722407    2.6649159 *  3.4496372    4.2378373  
   2 C       3.3735259    4.0231961    3.3112934    2.6938359 *  2.7944122 *
   3 C       2.8674783 *  4.4990371    6.3304824    6.2059209    4.3205166  
   4 C       3.0137980    2.2142426 *  1.0942470 *  1.0956044 *  3.2105772  
   5 C       2.1539974 *  2.7049961 *  4.3358453    3.5130668    1.0968004 *
   6 C       2.8112083 *  3.1929368    4.1319160    4.8213914    5.0280296  
   7 C       2.9309129 *  3.0230003    5.4186897    4.6170275    2.1680422 *
   8 C       3.5050111    3.4768390    5.3169801    5.6060196    5.1736504  
   9 C       2.7983987 *  2.1394591 *  2.7654023 *  3.4490479    4.3700669  
  10 C       2.6799077 *  3.2296830    5.5470425    5.1931472    3.4009185  
  11 C       3.1289275    2.7871537 *  5.2451324    5.0579406    3.9940010  
  12 C       1.0944591 *  2.2162523 *  3.0825676    2.8493398 *  2.1789950 *
  13 C       2.2407146 *  1.0957265 *  2.2724695 *  2.2271127 *  2.9200002 *
  14 C       2.2205206 *  3.0199881    2.2568406 *  2.2244238 *  2.8161744 *
  15 C       4.0477244    2.9204274 *  2.7368856 *  3.7360840    5.3893835  
  16 H       0.0000000    2.9935762 *  3.6810445    3.8330092    3.0632074  
  17 H       2.9935762 *  0.0000000    2.9901705 *  2.3883931 *  2.7236812 *
  18 H       3.6810445    2.9901705 *  0.0000000    1.7760670 *  4.3035574  
  19 H       3.8330092    2.3883931 *  1.7760670 *  0.0000000    3.0753620  
  20 H       3.0632074    2.7236812 *  4.3035574    3.0753620    0.0000000  
  21 H       2.4251812 *  3.7623154    4.9677366    4.2353307    1.7486696 *
  22 H       2.4784687 *  4.0830665    2.6411795 *  3.7991415    4.7319126  
  23 H       3.6438618    4.8648537    2.6993695 *  3.6431082    4.9644383  
  24 H       2.6414934 *  4.8740140    3.7469293    4.3349892    4.4736588  
  25 H       3.4635941    4.7482595    4.2487200    3.7474757    3.0993937  
  26 H       4.2474551    4.7342889    3.3342724    2.9299615 *  3.7975813  
  27 H       3.8327951    3.8346076    3.6946649    2.5271182 *  2.2268104 *
  28 H       2.1501759 *  3.5986444    4.2681494    4.9756344    4.8645209  
  29 H       3.7426941    4.0978710    4.5887435    5.5515478    6.0845230  
  30 H       3.6757817    4.0894471    6.3827958    5.4961469    2.6736636 *
  31 H       3.6880411    2.7661623 *  5.5025229    4.5016396    2.3128642 *
  32 H       4.5850891    3.0217682    2.2853916 *  3.2401233    5.4381594  
  33 H       4.7928414    3.9006289    3.6845031    4.8099106    6.3994392  
  34 H       4.4642449    3.8009491    5.6882182    5.9834062    5.8432511  
  35 H       3.9321941    4.4866467    6.1851539    6.5536322    5.8796561  
  36 H       3.6506742    2.2614457 *  5.0542597    4.6396984    3.7969241  
  37 H       3.8275031    5.3114397    7.3077347    7.0230658    4.7750080  
  38 H       3.3069552    4.9588164    6.6319939    6.7569369    5.2346217  
  39 H       2.3370115 *  4.6168921    6.0015281    5.9442152    4.0911390  

               21 H         22 H         23 H         24 H         25 H     

   1 C       3.8962709    1.0955286 *  1.0973701 *  1.0979259 *  2.7774019 *
   2 C       2.9625770 *  3.4747915    2.7511604 *  2.7639771 *  1.0972761 *
   3 C       3.3783202    5.1589489    6.4634123    5.1639689    5.6547139  
   4 C       3.9752496    2.7492072 *  2.9040099 *  3.5129995    3.5570537  
   5 C       1.0976904 *  4.2009711    4.7430448    3.9470214    3.1270772  
   6 C       4.9689681    3.4959112    5.1449082    4.7532091    6.0728700  
   7 C       2.1913811 *  5.2838175    6.1300206    5.2427405    4.6644266  
   8 C       5.1546092    4.8847474    6.4739521    5.8900900    6.8402582  
   9 C       4.7458344    3.0534661    4.3887028    4.4450085    5.4308865  
  10 C       3.0950821    5.0261224    6.2523811    5.2791765    5.4263714  
  11 C       4.1087429    5.0671131    6.4258519    5.7448201    6.1270901  
  12 C       2.1413171 *  2.7307882 *  3.5200386    2.9143201 *  3.0262750  
  13 C       3.5605515    2.9904843 *  3.8842418    3.8983060    4.1967684  
  14 C       2.9407805 *  2.1907353 *  2.1830133 *  2.1828268 *  2.1883507 *
  15 C       5.9573303    3.6377275    4.7689018    5.2462755    6.3004515  
  16 H       2.4251812 *  2.4784687 *  3.6438618    2.6414934 *  3.4635941  
  17 H       3.7623154    4.0830665    4.8648537    4.8740140    4.7482595  
  18 H       4.9677366    2.6411795 *  2.6993695 *  3.7469293    4.2487200  
  19 H       4.2353307    3.7991415    3.6431082    4.3349892    3.7474757  
  20 H       1.7486696 *  4.7319126    4.9644383    4.4736588    3.0993937  
  21 H       0.0000000    4.4030890    4.7864455    3.7040202    2.6788102 *
  22 H       4.4030890    0.0000000    1.7695384 *  1.7731497 *  3.7928413  
  23 H       4.7864455    1.7695384 *  0.0000000    1.7747629 *  3.1204343  
  24 H       3.7040202    1.7731497 *  1.7747629 *  0.0000000    2.5822562 *
  25 H       2.6788102 *  3.7928413    3.1204343    2.5822562 *  0.0000000  
  26 H       4.0519781    3.7358685    2.5103718 *  3.0834629    1.7692603 *
  27 H       2.9146238 *  4.3477887    3.7577177    3.7887578    1.7727178 *
  28 H       4.4475013    2.9649448 *  4.6765938    3.9812666    5.5042853  
  29 H       6.0092797    3.8816986    5.5690222    5.3220587    6.9215187  
  30 H       2.3307659 *  6.0845675    6.8363277    5.7821437    4.9692600  
  31 H       3.0139604    5.8507153    6.6368848    5.9887431    5.2432740  
  32 H       6.2394706    3.9569633    4.7082331    5.4945570    6.2749391  
  33 H       6.8600876    4.2534633    5.5015925    5.9541070    7.2602173  
  34 H       6.0588896    5.6207308    7.1767599    6.7858737    7.6906056  
  35 H       5.5749739    5.3496578    7.0213403    6.2363862    7.3671261  
  36 H       4.3675577    5.4259116    6.6214670    6.1737503    6.2653532  
  37 H       3.7609757    6.1732859    7.3815873    5.9975969    6.2216945  
  38 H       4.3451851    5.2852826    6.7766162    5.5140271    6.4115664  
  39 H       2.8169691 *  4.5438932    5.7241365    4.2737177    4.8435332  

               26 H         27 H         28 H         29 H         30 H     

   1 C       2.7246043 *  3.4810743    3.7301597    4.8323763    5.8634991  
   2 C       1.0974639 *  1.0946813 *  5.2804764    6.5044682    5.0826641  
   3 C       6.8411232    5.9842728    3.1400893    4.5477427    2.7659027 *
   4 C       2.9423767 *  2.8365629 *  4.0148569    4.6396046    5.3552192  
   5 C       4.0917882    2.8287423 *  3.9875724    5.3667456    2.1861365 *
   6 C       6.3457129    6.0330497    1.0972830 *  1.0966019 *  5.2325752  
   7 C       5.6472378    4.2978765    4.1285722    5.3644477    1.0982096 *
   8 C       7.3196706    6.6653888    2.1607117 *  2.1766361 *  4.6995283  
   9 C       5.3524517    5.0767103    2.1544587 *  2.1406147 *  5.3128482  
  10 C       6.3645780    5.3048903    3.0893326    4.2528634    2.1800985 *
  11 C       6.7531273    5.7903958    2.8094054 *  3.4314176    3.3127858  
  12 C       3.5959934    2.9406557 *  2.8854116 *  4.2055385    3.5037406  
  13 C       4.1656512    3.6133661    2.8893826 *  3.5520583    4.3810246  
  14 C       2.1651432 *  2.1966400 *  3.8559312    4.9883845    4.8226072  
  15 C       5.8750758    5.8081748    3.2366555    2.5380526 *  6.5629090  
  16 H       4.2474551    3.8327951    2.1501759 *  3.7426941    3.6757817  
  17 H       4.7342889    3.8346076    3.5986444    4.0978710    4.0894471  
  18 H       3.3342724    3.6946649    4.2681494    4.5887435    6.3827958  
  19 H       2.9299615 *  2.5271182 *  4.9756344    5.5515478    5.4961469  
  20 H       3.7975813    2.2268104 *  4.8645209    6.0845230    2.6736636 *
  21 H       4.0519781    2.9146238 *  4.4475013    6.0092797    2.3307659 *
  22 H       3.7358685    4.3477887    2.9649448 *  3.8816986    6.0845675  
  23 H       2.5103718 *  3.7577177    4.6765938    5.5690222    6.8363277  
  24 H       3.0834629    3.7887578    3.9812666    5.3220587    5.7821437  
  25 H       1.7692603 *  1.7727178 *  5.5042853    6.9215187    4.9692600  
  26 H       0.0000000    1.7656439 *  5.9840678    7.0687120    6.1733344  
  27 H       1.7656439 *  0.0000000    5.7653600    6.9390111    4.7481614  
  28 H       5.9840678    5.7653600    0.0000000    1.7576755 *  4.9710150  
  29 H       7.0687120    6.9390111    1.7576755 *  0.0000000    6.3052396  
  30 H       6.1733344    4.7481614    4.9710150    6.3052396    0.0000000  
  31 H       5.9837694    4.5089020    4.6896337    5.6532421    1.7596843 *
  32 H       5.5720274    5.5750596    4.1697479    3.6201000    6.9794100  
  33 H       6.8550807    6.8677209    3.5269858    2.2894897 *  7.3493372  
  34 H       8.0099187    7.3381590    3.0566805    2.4461863 *  5.4559333  
  35 H       8.0092289    7.4000178    2.4012795 *  2.5162724 *  5.0190763  
  36 H       6.6981915    5.6169934    3.5470780    3.9162812    3.5109360  
  37 H       7.5500276    6.5596498    4.2310466    5.5826513    2.6538376 *
  38 H       7.4962093    6.7990711    2.8443793 *  4.0456172    3.8152692  
  39 H       6.1378877    5.4417327    3.0989826    4.7460654    2.9725797 *

               31 H         32 H         33 H         34 H         35 H     

   1 C       5.7409364    4.4781288    5.1033761    6.3159354    6.0422439  
   2 C       4.9770633    5.3789235    6.5387483    7.2486120    7.1675375  
   3 C       3.4650784    6.5915926    6.2948765    4.1514662    2.9428214 *
   4 C       4.5048292    2.7808154 *  4.1045474    5.3906923    5.8049554  
   5 C       2.1891600 *  5.3609926    6.0324922    5.2305715    5.0125520  
   6 C       4.5917123    3.4870388    2.6789084 *  2.1843320 *  2.1708650 *
   7 C       1.0955462 *  5.8912862    6.2756897    4.5748733    4.3308117  
   8 C       4.0285520    4.4917779    3.6951553    1.0961346 *  1.0965922 *
   9 C       4.3574843    2.1305672 *  2.1238693 *  2.9627492 *  3.5277569  
  10 C       2.1341701 *  5.6342172    5.5679604    3.4077071    2.8631995 *
  11 C       2.5521978 *  4.8108232    4.5682684    2.1469297 *  2.1804752 *
  12 C       3.1871713    4.1685114    4.7729367    4.6672997    4.5071217  
  13 C       3.4172874    2.7091009 *  3.4984585    3.9147490    4.3306990  
  14 C       4.5020732    4.1220630    5.0838320    5.8999738    5.8529931  
  15 C       5.4397734    1.0867691 *  1.0871121 *  3.5243347    4.4394341  
  16 H       3.6880411    4.5850891    4.7928414    4.4642449    3.9321941  
  17 H       2.7661623 *  3.0217682    3.9006289    3.8009491    4.4866467  
  18 H       5.5025229    2.2853916 *  3.6845031    5.6882182    6.1851539  
  19 H       4.5016396    3.2401233    4.8099106    5.9834062    6.5536322  
  20 H       2.3128642 *  5.4381594    6.3994392    5.8432511    5.8796561  
  21 H       3.0139604    6.2394706    6.8600876    6.0588896    5.5749739  
  22 H       5.8507153    3.9569633    4.2534633    5.6207308    5.3496578  
  23 H       6.6368848    4.7082331    5.5015925    7.1767599    7.0213403  
  24 H       5.9887431    5.4945570    5.9541070    6.7858737    6.2363862  
  25 H       5.2432740    6.2749391    7.2602173    7.6906056    7.3671261  
  26 H       5.9837694    5.5720274    6.8550807    8.0099187    8.0092289  
  27 H       4.5089020    5.5750596    6.8677209    7.3381590    7.4000178  
  28 H       4.6896337    4.1697479    3.5269858    3.0566805    2.4012795 *
  29 H       5.6532421    3.6201000    2.2894897 *  2.4461863 *  2.5162724 *
  30 H       1.7596843 *  6.9794100    7.3493372    5.4559333    5.0190763  
  31 H       0.0000000    5.7435057    6.2568811    4.5302565    4.6781991  
  32 H       5.7435057    0.0000000    1.8468294 *  4.4316035    5.4473414  
  33 H       6.2568811    1.8468294 *  0.0000000    3.4876517    4.4494241  
  34 H       4.5302565    4.4316035    3.4876517    0.0000000    1.7630728 *
  35 H       4.6781991    5.4473414    4.4494241    1.7630728 *  0.0000000  
  36 H       2.2147544 *  4.4700491    4.5064100    2.3949502 *  3.0704088  
  37 H       3.7296222    7.6020614    7.3353050    4.9273761    3.7149658  
  38 H       4.2963080    6.6416360    6.0411259    3.7670684    2.2361532 *
  39 H       3.8577193    6.6103100    6.4413665    4.8488683    3.6449083  

               36 H         37 H         38 H         39 H     

   1 C       5.7242724    6.2902025    5.6919776    4.6362747  
   2 C       5.8149451    6.4925078    6.5360343    5.1453974  
   3 C       3.4855638    1.0986541 *  1.0931965 *  1.0983488 *
   4 C       4.3575991    6.4936321    6.0247411    5.2671811  
   5 C       3.4025779    3.8245655    4.1930870    3.0050700  
   6 C       3.0150247    4.7296527    3.3722987    3.8768658  
   7 C       2.5692349 *  2.8770041 *  3.5182377    2.8180984 *
   8 C       2.1877043 *  4.0134767    2.7801179 *  3.7752637  
   9 C       2.9955237 *  5.5412365    4.5150289    4.5650854  
  10 C       2.0740808 *  2.1462268 *  2.1801690 *  2.1713893 *
  11 C       1.0896953 *  3.2563802    2.7048339 *  3.2409441  
  12 C       3.4125294    4.3685225    4.0949215    3.1099936  
  13 C       2.8686183 *  5.2607748    4.7003581    4.2394750  
  14 C       4.7894976    5.8228466    5.5130173    4.3905344  
  15 C       3.9298675    6.8507285    5.7435158    5.8922191  
  16 H       3.6506742    3.8275031    3.3069552    2.3370115 *
  17 H       2.2614457 *  5.3114397    4.9588164    4.6168921  
  18 H       5.0542597    7.3077347    6.6319939    6.0015281  
  19 H       4.6396984    7.0230658    6.7569369    5.9442152  
  20 H       3.7969241    4.7750080    5.2346217    4.0911390  
  21 H       4.3675577    3.7609757    4.3451851    2.8169691 *
  22 H       5.4259116    6.1732859    5.2852826    4.5438932  
  23 H       6.6214670    7.3815873    6.7766162    5.7241365  
  24 H       6.1737503    5.9975969    5.5140271    4.2737177  
  25 H       6.2653532    6.2216945    6.4115664    4.8435332  
  26 H       6.6981915    7.5500276    7.4962093    6.1378877  
  27 H       5.6169934    6.5596498    6.7990711    5.4417327  
  28 H       3.5470780    4.2310466    2.8443793 *  3.0989826  
  29 H       3.9162812    5.5826513    4.0456172    4.7460654  
  30 H       3.5109360    2.6538376 *  3.8152692    2.9725797 *
  31 H       2.2147544 *  3.7296222    4.2963080    3.8577193  
  32 H       4.4700491    7.6020614    6.6416360    6.6103100  
  33 H       4.5064100    7.3353050    6.0411259    6.4413665  
  34 H       2.3949502 *  4.9273761    3.7670684    4.8488683  
  35 H       3.0704088    3.7149658    2.2361532 *  3.6449083  
  36 H       0.0000000    4.1119502    3.7802198    4.1286142  
  37 H       4.1119502    0.0000000    1.7701969 *  1.7583354 *
  38 H       3.7802198    1.7701969 *  0.0000000    1.7733459 *
  39 H       4.1286142    1.7583354 *  1.7733459 *  0.0000000  

  * ... LESS THAN  3.000


     ATOMIC BASIS SET
     ----------------
 THE CONTRACTED PRIMITIVE FUNCTIONS HAVE BEEN UNNORMALIZED
 THE CONTRACTED BASIS FUNCTIONS ARE NOW NORMALIZED TO UNITY

  SHELL TYPE  PRIMITIVE        EXPONENT          CONTRACTION COEFFICIENT(S)

 C         

      1   S       1           172.2560000    0.061766907377
      1   S       2            25.9109000    0.358794042852
      1   S       3             5.5333500    0.700713083689

      2   L       4             3.6649800   -0.395895162119    0.236459946619
      2   L       5             0.7705450    1.215834355681    0.860618805716

      3   L       6             0.1958570    1.000000000000    1.000000000000

 C         

      4   S       7           172.2560000    0.061766907377
      4   S       8            25.9109000    0.358794042852
      4   S       9             5.5333500    0.700713083689

      5   L      10             3.6649800   -0.395895162119    0.236459946619
      5   L      11             0.7705450    1.215834355681    0.860618805716

      6   L      12             0.1958570    1.000000000000    1.000000000000

 C         

      7   S      13           172.2560000    0.061766907377
      7   S      14            25.9109000    0.358794042852
      7   S      15             5.5333500    0.700713083689

      8   L      16             3.6649800   -0.395895162119    0.236459946619
      8   L      17             0.7705450    1.215834355681    0.860618805716

      9   L      18             0.1958570    1.000000000000    1.000000000000

 C         

     10   S      19           172.2560000    0.061766907377
     10   S      20            25.9109000    0.358794042852
     10   S      21             5.5333500    0.700713083689

     11   L      22             3.6649800   -0.395895162119    0.236459946619
     11   L      23             0.7705450    1.215834355681    0.860618805716

     12   L      24             0.1958570    1.000000000000    1.000000000000

 C         

     13   S      25           172.2560000    0.061766907377
     13   S      26            25.9109000    0.358794042852
     13   S      27             5.5333500    0.700713083689

     14   L      28             3.6649800   -0.395895162119    0.236459946619
     14   L      29             0.7705450    1.215834355681    0.860618805716

     15   L      30             0.1958570    1.000000000000    1.000000000000

 C         

     16   S      31           172.2560000    0.061766907377
     16   S      32            25.9109000    0.358794042852
     16   S      33             5.5333500    0.700713083689

     17   L      34             3.6649800   -0.395895162119    0.236459946619
     17   L      35             0.7705450    1.215834355681    0.860618805716

     18   L      36             0.1958570    1.000000000000    1.000000000000

 C         

     19   S      37           172.2560000    0.061766907377
     19   S      38            25.9109000    0.358794042852
     19   S      39             5.5333500    0.700713083689

     20   L      40             3.6649800   -0.395895162119    0.236459946619
     20   L      41             0.7705450    1.215834355681    0.860618805716

     21   L      42             0.1958570    1.000000000000    1.000000000000

 C         

     22   S      43           172.2560000    0.061766907377
     22   S      44            25.9109000    0.358794042852
     22   S      45             5.5333500    0.700713083689

     23   L      46             3.6649800   -0.395895162119    0.236459946619
     23   L      47             0.7705450    1.215834355681    0.860618805716

     24   L      48             0.1958570    1.000000000000    1.000000000000

 C         

     25   S      49           172.2560000    0.061766907377
     25   S      50            25.9109000    0.358794042852
     25   S      51             5.5333500    0.700713083689

     26   L      52             3.6649800   -0.395895162119    0.236459946619
     26   L      53             0.7705450    1.215834355681    0.860618805716

     27   L      54             0.1958570    1.000000000000    1.000000000000

 C         

     28   S      55           172.2560000    0.061766907377
     28   S      56            25.9109000    0.358794042852
     28   S      57             5.5333500    0.700713083689

     29   L      58             3.6649800   -0.395895162119    0.236459946619
     29   L      59             0.7705450    1.215834355681    0.860618805716

     30   L      60             0.1958570    1.000000000000    1.000000000000

 C         

     31   S      61           172.2560000    0.061766907377
     31   S      62            25.9109000    0.358794042852
     31   S      63             5.5333500    0.700713083689

     32   L      64             3.6649800   -0.395895162119    0.236459946619
     32   L      65             0.7705450    1.215834355681    0.860618805716

     33   L      66             0.1958570    1.000000000000    1.000000000000

 C         

     34   S      67           172.2560000    0.061766907377
     34   S      68            25.9109000    0.358794042852
     34   S      69             5.5333500    0.700713083689

     35   L      70             3.6649800   -0.395895162119    0.236459946619
     35   L      71             0.7705450    1.215834355681    0.860618805716

     36   L      72             0.1958570    1.000000000000    1.000000000000

 C         

     37   S      73           172.2560000    0.061766907377
     37   S      74            25.9109000    0.358794042852
     37   S      75             5.5333500    0.700713083689

     38   L      76             3.6649800   -0.395895162119    0.236459946619
     38   L      77             0.7705450    1.215834355681    0.860618805716

     39   L      78             0.1958570    1.000000000000    1.000000000000

 C         

     40   S      79           172.2560000    0.061766907377
     40   S      80            25.9109000    0.358794042852
     40   S      81             5.5333500    0.700713083689

     41   L      82             3.6649800   -0.395895162119    0.236459946619
     41   L      83             0.7705450    1.215834355681    0.860618805716

     42   L      84             0.1958570    1.000000000000    1.000000000000

 C         

     43   S      85           172.2560000    0.061766907377
     43   S      86            25.9109000    0.358794042852
     43   S      87             5.5333500    0.700713083689

     44   L      88             3.6649800   -0.395895162119    0.236459946619
     44   L      89             0.7705450    1.215834355681    0.860618805716

     45   L      90             0.1958570    1.000000000000    1.000000000000

 H         

     46   S      91             5.4471780    0.156284978695
     46   S      92             0.8245472    0.904690876670

     47   S      93             0.1831916    1.000000000000

 H         

     48   S      94             5.4471780    0.156284978695
     48   S      95             0.8245472    0.904690876670

     49   S      96             0.1831916    1.000000000000

 H         

     50   S      97             5.4471780    0.156284978695
     50   S      98             0.8245472    0.904690876670

     51   S      99             0.1831916    1.000000000000

 H         

     52   S     100             5.4471780    0.156284978695
     52   S     101             0.8245472    0.904690876670

     53   S     102             0.1831916    1.000000000000

 H         

     54   S     103             5.4471780    0.156284978695
     54   S     104             0.8245472    0.904690876670

     55   S     105             0.1831916    1.000000000000

 H         

     56   S     106             5.4471780    0.156284978695
     56   S     107             0.8245472    0.904690876670

     57   S     108             0.1831916    1.000000000000

 H         

     58   S     109             5.4471780    0.156284978695
     58   S     110             0.8245472    0.904690876670

     59   S     111             0.1831916    1.000000000000

 H         

     60   S     112             5.4471780    0.156284978695
     60   S     113             0.8245472    0.904690876670

     61   S     114             0.1831916    1.000000000000

 H         

     62   S     115             5.4471780    0.156284978695
     62   S     116             0.8245472    0.904690876670

     63   S     117             0.1831916    1.000000000000

 H         

     64   S     118             5.4471780    0.156284978695
     64   S     119             0.8245472    0.904690876670

     65   S     120             0.1831916    1.000000000000

 H         

     66   S     121             5.4471780    0.156284978695
     66   S     122             0.8245472    0.904690876670

     67   S     123             0.1831916    1.000000000000

 H         

     68   S     124             5.4471780    0.156284978695
     68   S     125             0.8245472    0.904690876670

     69   S     126             0.1831916    1.000000000000

 H         

     70   S     127             5.4471780    0.156284978695
     70   S     128             0.8245472    0.904690876670

     71   S     129             0.1831916    1.000000000000

 H         

     72   S     130             5.4471780    0.156284978695
     72   S     131             0.8245472    0.904690876670

     73   S     132             0.1831916    1.000000000000

 H         

     74   S     133             5.4471780    0.156284978695
     74   S     134             0.8245472    0.904690876670

     75   S     135             0.1831916    1.000000000000

 H         

     76   S     136             5.4471780    0.156284978695
     76   S     137             0.8245472    0.904690876670

     77   S     138             0.1831916    1.000000000000

 H         

     78   S     139             5.4471780    0.156284978695
     78   S     140             0.8245472    0.904690876670

     79   S     141             0.1831916    1.000000000000

 H         

     80   S     142             5.4471780    0.156284978695
     80   S     143             0.8245472    0.904690876670

     81   S     144             0.1831916    1.000000000000

 H         

     82   S     145             5.4471780    0.156284978695
     82   S     146             0.8245472    0.904690876670

     83   S     147             0.1831916    1.000000000000

 H         

     84   S     148             5.4471780    0.156284978695
     84   S     149             0.8245472    0.904690876670

     85   S     150             0.1831916    1.000000000000

 H         

     86   S     151             5.4471780    0.156284978695
     86   S     152             0.8245472    0.904690876670

     87   S     153             0.1831916    1.000000000000

 H         

     88   S     154             5.4471780    0.156284978695
     88   S     155             0.8245472    0.904690876670

     89   S     156             0.1831916    1.000000000000

 H         

     90   S     157             5.4471780    0.156284978695
     90   S     158             0.8245472    0.904690876670

     91   S     159             0.1831916    1.000000000000

 H         

     92   S     160             5.4471780    0.156284978695
     92   S     161             0.8245472    0.904690876670

     93   S     162             0.1831916    1.000000000000

 TOTAL NUMBER OF BASIS SET SHELLS             =   93
 NUMBER OF CARTESIAN GAUSSIAN BASIS FUNCTIONS =  183
 NUMBER OF ELECTRONS                          =  113
 CHARGE OF MOLECULE                           =    1
 SPIN MULTIPLICITY                            =    2
 NUMBER OF OCCUPIED ORBITALS (ALPHA)          =   57
 NUMBER OF OCCUPIED ORBITALS (BETA )          =   56
 TOTAL NUMBER OF ATOMS                        =   39
 THE NUCLEAR REPULSION ENERGY IS     1074.1997639685

     $CONTRL OPTIONS
     ---------------
 SCFTYP=UHF          RUNTYP=ENERGY       EXETYP=RUN     
 MPLEVL=       0     CITYP =NONE         CCTYP =NONE         VBTYP =NONE    
 DFTTYP=NONE         TDDFT =NONE    
 MULT  =       2     ICHARG=       1     NZVAR =       0     COORD =UNIQUE  
 PP    =NONE         RELWFN=NONE         LOCAL =NONE         NUMGRD=       F
 ISPHER=      -1     NOSYM =       0     MAXIT =      60     UNITS =ANGS    
 PLTORB=       F     MOLPLT=       F     AIMPAC=       F     FRIEND=        
 NPRINT=       7     IREST =       0     GEOM  =INPUT   
 NORMF =       0     NORMP =       0     ITOL  =      20     ICUT  =       9
 INTTYP=BEST         GRDTYP=BEST         QMTTOL= 1.0E-06

     $SYSTEM OPTIONS
     ---------------
  REPLICATED MEMORY=    30000000 WORDS (ON EVERY NODE).
 DISTRIBUTED MEMDDI=        1000 MILLION WORDS IN AGGREGATE,
 MEMDDI DISTRIBUTED OVER   6 PROCESSORS IS   166666666 WORDS/PROCESSOR.
 TOTAL MEMORY REQUESTED ON EACH PROCESSOR=   196666666 WORDS.
 TIMLIM=      525600.00 MINUTES, OR     365.0 DAYS.
 PARALL= T  BALTYP=  DLB     KDIAG=    0  COREFL= F
 MXSEQ2=     300 MXSEQ3=     150  mem10=         0

          ----------------
          PROPERTIES INPUT
          ----------------

     MOMENTS            FIELD           POTENTIAL          DENSITY
 IEMOM =       1   IEFLD =       0   IEPOT =       0   IEDEN =       0
 WHERE =COMASS     WHERE =NUCLEI     WHERE =NUCLEI     WHERE =NUCLEI  
 OUTPUT=BOTH       OUTPUT=BOTH       OUTPUT=BOTH       OUTPUT=BOTH    
 IEMINT=       0   IEFINT=       0                     IEDINT=       0
                                                       MORB  =       0
          EXTRAPOLATION IN EFFECT
          SOSCF IN EFFECT
          DIIS or SOSCF will be reset if energy rises
 ORBITAL PRINTING OPTION: NPREO=     1   183     2     1

     -------------------------------
     INTEGRAL TRANSFORMATION OPTIONS
     -------------------------------
     NWORD  =            0
     CUTOFF = 1.0E-09     MPTRAN =       0
     DIRTRF =       T     AOINTS =DUP     

          ----------------------
          INTEGRAL INPUT OPTIONS
          ----------------------
 NOPK  =       1 NORDER=       0 SCHWRZ=       T

     ------------------------------------------
     THE POINT GROUP IS C1 , NAXIS= 0, ORDER= 1
     ------------------------------------------

     DIMENSIONS OF THE SYMMETRY SUBSPACES ARE
 A   =  183

 ..... DONE SETTING UP THE RUN .....
 CPU     0: STEP CPU TIME=     0.03 TOTAL CPU TIME=          0.0 (      0.0 MIN)
 TOTAL WALL CLOCK TIME=          0.0 SECONDS, CPU UTILIZATION IS    75.00%

          ********************
          1 ELECTRON INTEGRALS
          ********************
 ...... END OF ONE-ELECTRON INTEGRALS ......
 CPU     0: STEP CPU TIME=     0.01 TOTAL CPU TIME=          0.0 (      0.0 MIN)
 TOTAL WALL CLOCK TIME=          0.1 SECONDS, CPU UTILIZATION IS    66.67%

          -------------
          GUESS OPTIONS
          -------------
          GUESS =HUCKEL            NORB  =       0          NORDER=       0
          MIX   =       F          PRTMO =       F          PUNMO =       F
          TOLZ  = 1.0E-08          TOLE  = 1.0E-05
          SYMDEN=       F          PURIFY=       F

 INITIAL GUESS ORBITALS GENERATED BY HUCKEL   ROUTINE.
 HUCKEL GUESS REQUIRES    310380 WORDS.

 SYMMETRIES FOR INITIAL GUESS ORBITALS FOLLOW.  ALPHA SET(S).
    57 ORBITALS ARE OCCUPIED (   15 CORE ORBITALS).
    16=A       17=A       18=A       19=A       20=A       21=A       22=A   
    23=A       24=A       25=A       26=A       27=A       28=A       29=A   
    30=A       31=A       32=A       33=A       34=A       35=A       36=A   
    37=A       38=A       39=A       40=A       41=A       42=A       43=A   
    44=A       45=A       46=A       47=A       48=A       49=A       50=A   
    51=A       52=A       53=A       54=A       55=A       56=A       57=A   
    58=A       59=A       60=A       61=A       62=A       63=A       64=A   
    65=A       66=A       67=A   

 SYMMETRIES FOR INITIAL GUESS ORBITALS FOLLOW.   BETA SET(S).
    56 ORBITALS ARE OCCUPIED (   15 CORE ORBITALS).
    16=A       17=A       18=A       19=A       20=A       21=A       22=A   
    23=A       24=A       25=A       26=A       27=A       28=A       29=A   
    30=A       31=A       32=A       33=A       34=A       35=A       36=A   
    37=A       38=A       39=A       40=A       41=A       42=A       43=A   
    44=A       45=A       46=A       47=A       48=A       49=A       50=A   
    51=A       52=A       53=A       54=A       55=A       56=A       57=A   
    58=A       59=A       60=A       61=A       62=A       63=A       64=A   
    65=A       66=A   
 ...... END OF INITIAL ORBITAL SELECTION ......
 CPU     0: STEP CPU TIME=     0.07 TOTAL CPU TIME=          0.1 (      0.0 MIN)
 TOTAL WALL CLOCK TIME=          0.2 SECONDS, CPU UTILIZATION IS    55.00%

                    ----------------------
                    AO INTEGRAL TECHNOLOGY
                    ----------------------
     S,P,L SHELL ROTATED AXIS INTEGRALS, REPROGRAMMED BY
        KAZUYA ISHIMURA (IMS) AND JOSE SIERRA (SYNSTAR).
     S,P,D,L SHELL ROTATED AXIS INTEGRALS PROGRAMMED BY
        KAZUYA ISHIMURA (INSTITUTE FOR MOLECULAR SCIENCE).
     S,P,D,F,G SHELL TO TOTAL QUARTET ANGULAR MOMENTUM SUM 5,
        ERIC PROGRAM BY GRAHAM FLETCHER (ELORET AND NASA ADVANCED
        SUPERCOMPUTING DIVISION, AMES RESEARCH CENTER).
     S,P,D,F,G,L SHELL GENERAL RYS QUADRATURE PROGRAMMED BY
        MICHEL DUPUIS (PACIFIC NORTHWEST NATIONAL LABORATORY).

          --------------------
          2 ELECTRON INTEGRALS
          --------------------

 DIRECT SCF METHOD SKIPS INTEGRAL STORAGE ON DISK.
 DIRECT TRANSFORMATION SKIPS AO INTEGRAL STORAGE ON DISK.
  ...... END OF TWO-ELECTRON INTEGRALS .....
 CPU     0: STEP CPU TIME=     0.02 TOTAL CPU TIME=          0.1 (      0.0 MIN)
 TOTAL WALL CLOCK TIME=          0.2 SECONDS, CPU UTILIZATION IS    61.90%

          ---------------------------
                  UHF SCF CALCULATION
          ---------------------------

     NUCLEAR ENERGY =      1074.1997639685
     MAXIT = 60     NPUNCH=  2     MULT=  2
     EXTRAP=T  DAMP=F  SHIFT=F  RSTRCT=F  DIIS=F  SOSCF=T
     DENSITY MATRIX CONV=  2.00E-05
     SOSCF WILL OPTIMIZE    7182 ALPHA AND    7112 BETA ROTATION ANGLES.
     SOGTOL= 2.500E-01
     MEMORY REQUIRED FOR UHF/ROHF ITERS=    490974 WORDS.

 DIRECT SCF CALCULATION, SCHWRZ=T   FDIFF=T
 SCHWARZ INEQUALITY OVERHEAD:     15608 INTEGRALS, T=        0.00

                                                                                NONZERO     BLOCKS
 ITER EX      TOTAL ENERGY        E CHANGE  DENSITY CHANGE    ORB. GRAD       INTEGRALS    SKIPPED
   1  0     -577.1148693303  -577.1148693303   0.910603852   0.000000000       76498886    5789612
          ---------------START SECOND ORDER SCF---------------
   2  1     -578.2860946919    -1.1712253616   0.107066626   0.034187354       75906091    5905567
   3  2     -578.3748696305    -0.0887749387   0.110498536   0.041907188       74357198    6119903
   4  3     -578.4117009294    -0.0368312988   0.095095148   0.018428379       73229141    6281137
   5  4     -578.4262015875    -0.0145006582   0.039749866   0.012320561       73575478    6249584
   6  5     -578.4301072381    -0.0039056506   0.025798679   0.010096710       71949967    6391014
   7  6     -578.4316351590    -0.0015279209   0.010084884   0.001942143       69523900    6571187
   8  7     -578.4318095081    -0.0001743491   0.003089329   0.000870525       65716620    6808348
   9  8     -578.4318387361    -0.0000292280   0.003621852   0.000758776       61380435    7051191
  10  9     -578.4318547045    -0.0000159683   0.002496782   0.000522657       60145793    7120300
  11 10     -578.4318643815    -0.0000096770   0.003258228   0.000485236       58558749    7216165
  12 11     -578.4318756643    -0.0000112828   0.005231434   0.000551632       59242019    7169789
  13 12     -578.4318905340    -0.0000148697   0.010657453   0.000676569       60121626    7122316
  14 13     -578.4319172529    -0.0000267189   0.015795267   0.001131548       61998263    7019839
  15 14     -578.4319517815    -0.0000345286   0.009222775   0.001404381       62510655    6997655
  16 15     -578.4319871420    -0.0000353606   0.007159290   0.001117514       60747323    7097164
  17 16     -578.4320224880    -0.0000353460   0.001853524   0.000232931       62330438    6988268
  18 17     -578.4320273768    -0.0000048888   0.001551516   0.000091422       56999734    7297479
  19 18     -578.4320294198    -0.0000020430   0.000273216   0.000042793       56236536    7348216
  20 19     -578.4320296241    -0.0000002043   0.000196986   0.000024002       50706838    7617164
  21 20     -578.4320296862    -0.0000000621   0.000066663   0.000007814       49235425    7684567
  22 21     -578.4320296946    -0.0000000084   0.000036380   0.000003502       43814744    7950492
  23 22     -578.4320296984    -0.0000000038   0.000021025   0.000002636       41225465    8067238
  24 23     -578.4320296987    -0.0000000003   0.000011192   0.000000777       38049683    8212931
  25 24     -578.4320296976     0.0000000011   0.000004159   0.000000301       34208269    8390524

          -----------------
          DENSITY CONVERGED
          -----------------
     TIME TO FORM FOCK OPERATORS=      35.1 SECONDS (       1.4 SEC/ITER)
     FOCK TIME ON FIRST ITERATION=       1.7, LAST ITERATION=       0.9
     TIME TO SOLVE SCF EQUATIONS=       0.7 SECONDS (       0.0 SEC/ITER)

 FINAL UHF ENERGY IS     -578.4320296976 AFTER  25 ITERATIONS

          --------------------
          SPIN SZ   =    0.500
          S-SQUARED =    0.840
          --------------------

  ----- ALPHA SET ----- 

          ------------
          EIGENVECTORS
          ------------

                      1          2          3          4          5
                  -11.4566   -11.4379   -11.3514   -11.3508   -11.3501
                     A          A          A          A          A   
    1  C  1  S   -0.000111   0.000060  -0.000035  -0.000050   0.000062
    2  C  1  S   -0.000094   0.000119  -0.000014  -0.000054   0.000032
    3  C  1  X   -0.000084  -0.000053  -0.000032  -0.000008  -0.000014
    4  C  1  Y   -0.000096  -0.000074  -0.000033   0.000031  -0.000039
    5  C  1  Z   -0.000203  -0.000027  -0.000018   0.000021   0.000010
    6  C  1  S   -0.000628  -0.000792  -0.000388   0.000539  -0.000002
    7  C  1  X   -0.000684  -0.000160   0.000060   0.000076   0.000051
    8  C  1  Y   -0.000039   0.000484   0.000168  -0.000246   0.000426
    9  C  1  Z    0.000100  -0.000239  -0.000340   0.000314   0.000195
   10  C  2  S   -0.000115  -0.000049   0.000200  -0.000364  -0.000074
   11  C  2  S   -0.000118  -0.000117   0.000123  -0.000254  -0.000077
   12  C  2  X   -0.000197   0.000100   0.000245  -0.000388  -0.000038
   13  C  2  Y    0.000012   0.000016   0.000061  -0.000096  -0.000032
   14  C  2  Z    0.000006  -0.000028  -0.000007   0.000002  -0.000020
   15  C  2  S    0.000256   0.001178   0.000597  -0.000570   0.000250
   16  C  2  X   -0.000055   0.000118  -0.000523   0.001028   0.000292
   17  C  2  Y   -0.000439  -0.000533  -0.000559   0.000652   0.000102
   18  C  2  Z   -0.000051   0.000027   0.000082  -0.000006  -0.000041
   19  C  3  S   -0.001404  -0.001386   0.877981   0.447587   0.064434
   20  C  3  S   -0.002138  -0.000577   0.091797   0.044804   0.006028
   21  C  3  X   -0.000026  -0.000100  -0.000337   0.000381   0.000154
   22  C  3  Y    0.000306   0.000495   0.000372  -0.000363   0.000350
   23  C  3  Z   -0.000027  -0.000815   0.000569  -0.000711   0.000019
   24  C  3  S    0.016185  -0.001663  -0.078980  -0.035435  -0.002300
   25  C  3  X   -0.002463  -0.000998   0.000862   0.000898  -0.001298
   26  C  3  Y   -0.005958   0.002667   0.001222   0.000776  -0.001098
   27  C  3  Z    0.008059   0.000864  -0.006879  -0.000263   0.000807
   28  C  4  S   -0.000010  -0.000591   0.000115  -0.000117   0.000283
   29  C  4  S    0.000092  -0.000942   0.000123  -0.000144   0.000287
   30  C  4  X    0.000064   0.000048  -0.000036   0.000062  -0.000056
   31  C  4  Y   -0.000205  -0.000048  -0.000033   0.000081   0.000059
   32  C  4  Z    0.000142   0.000059   0.000001   0.000004   0.000029
   33  C  4  S   -0.002500   0.005088  -0.000888   0.001224  -0.001775
   34  C  4  X   -0.001282   0.002909  -0.000292   0.000262  -0.000802
   35  C  4  Y    0.000291   0.000528   0.000211  -0.000341  -0.000580
   36  C  4  Z    0.000356  -0.000128   0.000192  -0.000361  -0.000236
   37  C  5  S   -0.001521   0.000506   0.004192  -0.005368  -0.001277
   38  C  5  S   -0.001326   0.000705   0.002468  -0.003158  -0.000485
   39  C  5  X   -0.000945  -0.000074  -0.000166   0.000308  -0.000098
   40  C  5  Y    0.000427  -0.000136  -0.000290   0.000219  -0.000015
   41  C  5  Z    0.000457  -0.000057  -0.000182   0.000049   0.000031
   42  C  5  S   -0.001314  -0.003135  -0.014612   0.021630   0.002210
   43  C  5  X    0.000649  -0.001189  -0.008085   0.011562   0.001710
   44  C  5  Y    0.001931   0.001070   0.000907   0.001073   0.000687
   45  C  5  Z   -0.000890   0.000466   0.000084   0.002423   0.000465
   46  C  6  S    0.000155  -0.003116   0.000560   0.002168  -0.004715
   47  C  6  S    0.000328  -0.003073   0.000205   0.000830  -0.002663
   48  C  6  X   -0.000018  -0.000179  -0.000022  -0.000201   0.000800
   49  C  6  Y   -0.000276  -0.001322  -0.000047   0.000111   0.000458
   50  C  6  Z    0.000143  -0.000992  -0.000060   0.000034  -0.000044
   51  C  6  S   -0.001513   0.006890  -0.001008  -0.003697   0.019610
   52  C  6  X    0.000748  -0.000779  -0.000050  -0.000292   0.010617
   53  C  6  Y    0.001113   0.004723  -0.000012  -0.001698   0.007033
   54  C  6  Z   -0.001808   0.005178   0.000147  -0.000901   0.005281
   55  C  7  S   -0.000640  -0.002775  -0.452591   0.873216   0.094412
   56  C  7  S   -0.001519  -0.002367  -0.050013   0.092163   0.009285
   57  C  7  X   -0.000065  -0.000306  -0.000319   0.000168  -0.000177
   58  C  7  Y   -0.000475   0.000706   0.000218  -0.000581   0.000146
   59  C  7  Z   -0.000377   0.000105   0.001139   0.000019   0.000072
   60  C  7  S    0.018230   0.009006   0.051243  -0.081594  -0.007188
   61  C  7  X    0.007541   0.002168   0.000862   0.001954   0.001541
   62  C  7  Y   -0.005973  -0.002659  -0.005889   0.005042  -0.000684
   63  C  7  Z   -0.003829  -0.002910  -0.005865   0.004366  -0.000786
   64  C  8  S   -0.001115  -0.001187  -0.014233  -0.113674   0.981364
   65  C  8  S   -0.000588  -0.001460  -0.001716  -0.012881   0.104230
   66  C  8  X    0.000482  -0.000017  -0.000124  -0.000049  -0.000687
   67  C  8  Y   -0.000723   0.000086   0.000116  -0.000309   0.000289
   68  C  8  Z   -0.000165   0.000183   0.000212  -0.000024   0.000209
   69  C  8  S    0.000288   0.014498   0.004501   0.015163  -0.094813
   70  C  8  X   -0.000701  -0.001038   0.000630  -0.000859   0.008914
   71  C  8  Y   -0.000302   0.010695   0.000697   0.002284  -0.003259
   72  C  8  Z    0.002232   0.002785  -0.000230   0.001458  -0.002207
   73  C  9  S   -0.000018  -0.000444  -0.000212   0.000617  -0.005474
   74  C  9  S   -0.000178   0.000033  -0.000105   0.000166  -0.002171
   75  C  9  X   -0.000010  -0.000330  -0.000004   0.000149  -0.001170
   76  C  9  Y    0.000268  -0.000798  -0.000052   0.000051  -0.000023
   77  C  9  Z   -0.000019  -0.000008  -0.000009  -0.000001   0.000292
   78  C  9  S    0.002517  -0.005655   0.000260   0.000319   0.004962
   79  C  9  X    0.001293  -0.002255   0.000209   0.000120   0.002042
   80  C  9  Y   -0.000642  -0.000617   0.000482   0.000382  -0.002214
   81  C  9  Z   -0.000482   0.000676  -0.000042  -0.000552  -0.001041
   82  C 10  S    0.987533   0.000856   0.000754   0.000490   0.001204
   83  C 10  S    0.102227  -0.003927  -0.000627  -0.001739  -0.000652
   84  C 10  X   -0.001057  -0.001060  -0.000150  -0.000020  -0.000380
   85  C 10  Y   -0.001221   0.002101  -0.000032  -0.000200   0.000899
   86  C 10  Z    0.000224  -0.000489   0.000760   0.000395   0.000143
   87  C 10  S   -0.092256   0.028392   0.004935   0.019256   0.003197
   88  C 10  X    0.003152   0.009459   0.010769  -0.009439   0.001123
   89  C 10  Y    0.009636  -0.020960  -0.000969   0.011598  -0.001924
   90  C 10  Z   -0.003555   0.001308  -0.021454  -0.001549   0.003264
   91  C 11  S   -0.001443   0.987182   0.000139   0.002578   0.001053
   92  C 11  S   -0.004497   0.100933   0.000209  -0.001543  -0.001988
   93  C 11  X    0.000441  -0.001384  -0.000325   0.000757  -0.000044
   94  C 11  Y   -0.001604   0.000037  -0.000134  -0.000951   0.000053
   95  C 11  Z    0.000921  -0.001081   0.000572   0.000199   0.000220
   96  C 11  S    0.032383  -0.085198  -0.000035   0.003444   0.020242
   97  C 11  X   -0.007221   0.005784  -0.002124  -0.003490   0.004367
   98  C 11  Y    0.016163  -0.004875   0.002228   0.008343  -0.015143
   99  C 11  Z   -0.008115   0.012514   0.003453  -0.000078  -0.008675
  100  C 12  S   -0.001321   0.000087   0.000954  -0.001835  -0.000502
  101  C 12  S   -0.001322   0.000252   0.000053  -0.000419  -0.000344
  102  C 12  X   -0.002085  -0.000252   0.000206  -0.000342   0.000245
  103  C 12  Y   -0.000651  -0.000037   0.000230  -0.000282  -0.000109
  104  C 12  Z   -0.000302   0.000012   0.000120  -0.000307   0.000039
  105  C 12  S   -0.000404  -0.000612   0.002486  -0.000925   0.001840
  106  C 12  X    0.011080  -0.000022   0.001070  -0.000880  -0.000706
  107  C 12  Y    0.003201   0.001909   0.002022  -0.001859   0.000063
  108  C 12  Z    0.002630  -0.000413   0.000601  -0.000311  -0.000464
  109  C 13  S    0.000459  -0.001146  -0.000380   0.000378   0.000853
  110  C 13  S    0.000720  -0.001091  -0.000199   0.000259   0.000348
  111  C 13  X    0.000142  -0.001527   0.000125  -0.000199   0.000455
  112  C 13  Y    0.000201  -0.000578   0.000003  -0.000024   0.000045
  113  C 13  Z   -0.000142  -0.000024  -0.000015   0.000013  -0.000213
  114  C 13  S   -0.001147   0.001424   0.000577  -0.001149   0.001026
  115  C 13  X   -0.002665   0.007541  -0.000908   0.001036  -0.002011
  116  C 13  Y   -0.002720   0.002576  -0.000058  -0.000111  -0.000509
  117  C 13  Z    0.000917   0.000099  -0.000054   0.000441   0.000749
  118  C 14  S   -0.001061  -0.000188   0.000398  -0.000785   0.000188
  119  C 14  S   -0.001689  -0.000213   0.000228  -0.000412   0.000169
  120  C 14  X   -0.000158  -0.000127  -0.000004  -0.000062  -0.000065
  121  C 14  Y   -0.000026   0.000246   0.000189  -0.000295  -0.000030
  122  C 14  Z    0.000010  -0.000048   0.000100  -0.000056  -0.000016
  123  C 14  S    0.008915   0.000097   0.000088  -0.000065  -0.001003
  124  C 14  X    0.005867   0.001190   0.000330  -0.000116  -0.000251
  125  C 14  Y    0.001231  -0.001090  -0.001046   0.001313  -0.000280
  126  C 14  Z    0.000185  -0.000295  -0.000592   0.000389   0.000451
  127  C 15  S    0.000078  -0.000211  -0.000027   0.000020   0.000474
  128  C 15  S    0.000135  -0.000295  -0.000019   0.000000   0.000412
  129  C 15  X   -0.000086   0.000114  -0.000001  -0.000008   0.000241
  130  C 15  Y    0.000016   0.000015   0.000007   0.000010  -0.000045
  131  C 15  Z    0.000065   0.000030   0.000003  -0.000028   0.000031
  132  C 15  S   -0.001010   0.001404   0.000288   0.000273  -0.002695
  133  C 15  X   -0.000009   0.000369   0.000013  -0.000001  -0.002007
  134  C 15  Y   -0.000629   0.000303   0.000103   0.000183  -0.001220
  135  C 15  Z    0.000020  -0.000357  -0.000092   0.000163   0.001048
  136  H 16  S   -0.001511   0.000125  -0.000323   0.000272   0.000261
  137  H 16  S    0.001515  -0.000532   0.000021  -0.000976  -0.001311
  138  H 17  S    0.000546  -0.000852   0.000105  -0.000101   0.000209
  139  H 17  S   -0.000378  -0.001746  -0.000090  -0.000152  -0.000440
  140  H 18  S    0.000128  -0.000197   0.000073  -0.000111   0.000042
  141  H 18  S    0.000371   0.000013   0.000173  -0.000301  -0.000246
  142  H 19  S    0.000043  -0.000285  -0.000005   0.000012   0.000134
  143  H 19  S   -0.000187   0.000148   0.000005   0.000033   0.000196
  144  H 20  S   -0.000060  -0.000020   0.000425  -0.001009  -0.000102
  145  H 20  S    0.001528   0.000344  -0.000335  -0.000272   0.000086
  146  H 21  S   -0.000064   0.000145   0.001016  -0.001094  -0.000131
  147  H 21  S   -0.001075  -0.000150  -0.000932   0.000419  -0.000009
  148  H 22  S    0.000064  -0.000025   0.000017  -0.000018  -0.000135
  149  H 22  S    0.000317   0.000547   0.000035  -0.000194   0.000548
  150  H 23  S   -0.000084   0.000032   0.000044  -0.000055   0.000036
  151  H 23  S    0.000115   0.000236   0.000082  -0.000018   0.000078
  152  H 24  S    0.000073  -0.000001   0.000002   0.000011  -0.000040
  153  H 24  S    0.000005  -0.000185  -0.000191   0.000131  -0.000019
  154  H 25  S   -0.000027  -0.000006   0.000054  -0.000138  -0.000046
  155  H 25  S    0.000192   0.000066   0.000173  -0.000048  -0.000036
  156  H 26  S   -0.000106  -0.000118  -0.000072   0.000096   0.000033
  157  H 26  S    0.000286  -0.000110  -0.000525   0.000833   0.000060
  158  H 27  S    0.000092   0.000032   0.000131  -0.000216  -0.000054
  159  H 27  S   -0.000195  -0.000245  -0.000271   0.000342   0.000018
  160  H 28  S   -0.000077  -0.000645  -0.000102   0.000198  -0.001440
  161  H 28  S   -0.000897  -0.000495   0.000448   0.000689   0.001492
  162  H 29  S    0.000086  -0.000082   0.000040   0.000060  -0.000948
  163  H 29  S    0.000294   0.003520   0.000256  -0.000348   0.000548
  164  H 30  S   -0.000933  -0.000468  -0.000934   0.000732   0.000073
  165  H 30  S    0.000302   0.000896  -0.006254   0.012151   0.001462
  166  H 31  S   -0.001050  -0.000414  -0.000904   0.001032  -0.000206
  167  H 31  S   -0.000869  -0.000581  -0.005290   0.012708   0.002309
  168  H 32  S    0.000076  -0.000021  -0.000010  -0.000017  -0.000117
  169  H 32  S    0.000026  -0.000008   0.000030  -0.000061  -0.000792
  170  H 33  S   -0.000006   0.000017  -0.000003   0.000001   0.000366
  171  H 33  S   -0.000103  -0.000578  -0.000032   0.000082   0.000316
  172  H 34  S   -0.000368  -0.000393  -0.000218  -0.000493   0.001192
  173  H 34  S    0.000934   0.000845  -0.000281  -0.001398   0.014023
  174  H 35  S    0.000349  -0.001375   0.000155  -0.000179   0.000967
  175  H 35  S    0.000379   0.000023  -0.002477  -0.002657   0.013428
  176  H 36  S   -0.001174  -0.000737  -0.000300  -0.000346  -0.001047
  177  H 36  S    0.001313   0.010246  -0.000505   0.000140   0.001974
  178  H 37  S   -0.000965  -0.000120   0.000735   0.000042  -0.000024
  179  H 37  S    0.002573  -0.000227   0.013571   0.005104   0.001550
  180  H 38  S   -0.001146   0.000260   0.000382  -0.000221  -0.000183
  181  H 38  S   -0.000717   0.001266   0.012510   0.007863   0.000554
  182  H 39  S   -0.001057   0.000025   0.000559  -0.000121  -0.000279
  183  H 39  S    0.000037   0.000194   0.012824   0.006991   0.000529

                      6          7          8          9         10
                  -11.3303   -11.3254   -11.3084   -11.3079   -11.3073
                     A          A          A          A          A   
    1  C  1  S   -0.000410  -0.000656   0.001708   0.002711  -0.003057
    2  C  1  S   -0.000353  -0.000518   0.000718   0.001628  -0.001288
    3  C  1  X   -0.000036  -0.000133   0.000283   0.000140  -0.000474
    4  C  1  Y    0.000042  -0.000071  -0.000112   0.000082  -0.000345
    5  C  1  Z    0.000073  -0.000102   0.000154   0.000198  -0.000667
    6  C  1  S    0.001649   0.001284  -0.000772  -0.005211   0.002422
    7  C  1  X    0.000666   0.000161  -0.000490  -0.000732  -0.000523
    8  C  1  Y   -0.000403   0.001447   0.001308  -0.000781   0.000167
    9  C  1  Z    0.000050   0.000427   0.001144  -0.002036   0.002372
   10  C  2  S    0.000090  -0.002139   0.000576  -0.000442  -0.001212
   11  C  2  S    0.000105  -0.001447   0.000269  -0.000614   0.000110
   12  C  2  X   -0.000011  -0.000264   0.000101   0.000263  -0.000772
   13  C  2  Y    0.000053  -0.000211  -0.000105  -0.000034   0.000503
   14  C  2  Z    0.000006  -0.000198  -0.000075  -0.000011   0.000083
   15  C  2  S   -0.000897   0.005683  -0.000878   0.003363  -0.004714
   16  C  2  X   -0.000508   0.001412  -0.000222   0.001743  -0.003145
   17  C  2  Y    0.000034   0.000152   0.000711  -0.000908  -0.000634
   18  C  2  Z    0.000037   0.000200   0.000713   0.001168  -0.000719
   19  C  3  S   -0.001142  -0.001017   0.000221   0.000118  -0.000030
   20  C  3  S   -0.000018   0.000371  -0.000055  -0.000015  -0.000199
   21  C  3  X   -0.000155   0.000048   0.000013   0.000073  -0.000262
   22  C  3  Y   -0.000321   0.000096   0.000053   0.000108  -0.000334
   23  C  3  Z    0.000140  -0.000073  -0.000016  -0.000115   0.000246
   24  C  3  S    0.001133  -0.002273   0.000037  -0.001369   0.004400
   25  C  3  X    0.001261   0.000566   0.000062  -0.000333   0.000395
   26  C  3  Y    0.000204  -0.000544  -0.000309  -0.000588   0.001311
   27  C  3  Z   -0.000216  -0.001037  -0.000145  -0.000191   0.000920
   28  C  4  S   -0.000785   0.001593  -0.004640  -0.003834  -0.004506
   29  C  4  S   -0.000399   0.001171  -0.001568  -0.003491  -0.002037
   30  C  4  X   -0.000278   0.000068  -0.000815   0.001347   0.000103
   31  C  4  Y    0.000102   0.000271   0.000204   0.000568  -0.000397
   32  C  4  Z    0.000058   0.000182   0.000562   0.000117   0.000237
   33  C  4  S    0.000022  -0.005646   0.003452   0.030599   0.001738
   34  C  4  X    0.000158  -0.002111   0.001299   0.013978   0.001308
   35  C  4  Y   -0.000090  -0.003733   0.002093   0.002219  -0.002519
   36  C  4  Z   -0.000958   0.000586  -0.003217  -0.004277   0.000590
   37  C  5  S   -0.000244   0.987952   0.000825   0.007049   0.007146
   38  C  5  S    0.000030   0.104822   0.000018   0.000622  -0.002395
   39  C  5  X    0.000042   0.000548  -0.000056   0.000024   0.000288
   40  C  5  Y    0.000150  -0.000077   0.000022   0.001093  -0.000191
   41  C  5  Z   -0.000014   0.000131   0.000106   0.000234  -0.000628
   42  C  5  S   -0.000928  -0.093469  -0.000655  -0.005297   0.025121
   43  C  5  X    0.000025  -0.004265   0.001641   0.000055  -0.006941
   44  C  5  Y    0.000333   0.005136   0.000680   0.002162  -0.017681
   45  C  5  Z    0.000498   0.001053  -0.000391  -0.001693  -0.001766
   46  C  6  S    0.988009   0.000199   0.002020   0.005625   0.003778
   47  C  6  S    0.105186   0.000046  -0.000707  -0.000432  -0.000521
   48  C  6  X    0.000354   0.000017  -0.000004   0.000141   0.000070
   49  C  6  Y    0.000476   0.000063   0.000008   0.000001  -0.000034
   50  C  6  Z    0.000281   0.000003   0.000130  -0.000543   0.000105
   51  C  6  S   -0.096849  -0.000172   0.011042   0.004871   0.006199
   52  C  6  X    0.002711  -0.000640  -0.008811   0.001361  -0.002475
   53  C  6  Y   -0.001595  -0.001045  -0.002860  -0.004553  -0.002147
   54  C  6  Z   -0.007323  -0.000109   0.003818   0.004140   0.000857
   55  C  7  S   -0.001150   0.005657  -0.000243  -0.001080   0.002032
   56  C  7  S    0.000124  -0.002291   0.000086  -0.000010   0.000100
   57  C  7  X   -0.000085  -0.000834  -0.000009  -0.000035   0.000402
   58  C  7  Y   -0.000039   0.000248  -0.000045  -0.000356   0.000037
   59  C  7  Z   -0.000027   0.000081   0.000007  -0.000358   0.000484
   60  C  7  S   -0.001454   0.020451  -0.000762   0.002870  -0.001762
   61  C  7  X   -0.000193  -0.011139   0.000461   0.000037  -0.003145
   62  C  7  Y    0.000188  -0.005521   0.000003  -0.000279   0.005473
   63  C  7  Z    0.000720  -0.003411   0.000342   0.001005  -0.001711
   64  C  8  S    0.004116   0.000677   0.005194  -0.000264   0.000685
   65  C  8  S   -0.001698  -0.000123  -0.001214   0.000338  -0.000154
   66  C  8  X   -0.000377   0.000104   0.001138   0.000123   0.000164
   67  C  8  Y   -0.000510  -0.000044   0.000523  -0.000261  -0.000008
   68  C  8  Z   -0.000566   0.000056  -0.000674   0.000064   0.000026
   69  C  8  S    0.018099   0.000484   0.003272  -0.001659   0.000008
   70  C  8  X   -0.010594  -0.001091  -0.004167   0.000791  -0.000842
   71  C  8  Y   -0.006980   0.000021  -0.002546   0.003088   0.000267
   72  C  8  Z   -0.001765  -0.000692   0.001666  -0.000964  -0.000763
   73  C  9  S   -0.003344  -0.002332   0.977215   0.083232   0.115006
   74  C  9  S   -0.001863  -0.000632   0.099005   0.006710   0.010776
   75  C  9  X   -0.000375   0.000181   0.000063   0.000248   0.000579
   76  C  9  Y   -0.000138  -0.000155   0.000025  -0.000273  -0.000712
   77  C  9  Z    0.000428  -0.000036   0.000050   0.000263  -0.000078
   78  C  9  S    0.016280   0.002147  -0.084887   0.010094  -0.005488
   79  C  9  X    0.017072  -0.001407   0.003287  -0.014584  -0.006380
   80  C  9  Y    0.005528   0.002283   0.002679   0.019479   0.006367
   81  C  9  Z   -0.013902   0.001207  -0.002831   0.002690   0.003869
   82  C 10  S   -0.000006   0.001340  -0.000088  -0.000519   0.000892
   83  C 10  S    0.000404  -0.001211   0.000044   0.000925  -0.001440
   84  C 10  X    0.000171   0.000974  -0.000130  -0.000437   0.000538
   85  C 10  Y    0.000189  -0.000697  -0.000145  -0.000119   0.000614
   86  C 10  Z   -0.000113  -0.000195   0.000053   0.000141  -0.000647
   87  C 10  S   -0.005225   0.001558   0.000612  -0.003720   0.008021
   88  C 10  X   -0.002550  -0.000210   0.000186   0.001969  -0.002064
   89  C 10  Y    0.003854   0.001771   0.000217   0.001989  -0.004623
   90  C 10  Z   -0.000052  -0.001037  -0.000025  -0.002559   0.006698
   91  C 11  S    0.002488  -0.000324   0.000441   0.000924   0.000341
   92  C 11  S   -0.002334   0.000457  -0.000172  -0.001154   0.000095
   93  C 11  X    0.000142  -0.000331   0.000080   0.000563   0.000320
   94  C 11  Y    0.000591   0.000122   0.000620   0.000301  -0.000229
   95  C 11  Z    0.001028  -0.000029   0.000047  -0.000423   0.000140
   96  C 11  S    0.007359  -0.000124  -0.000736   0.005457  -0.006223
   97  C 11  X   -0.000551   0.001257   0.000512  -0.003380   0.001770
   98  C 11  Y    0.002804  -0.000428  -0.000587   0.000730  -0.002959
   99  C 11  Z   -0.004891   0.000245  -0.000044   0.002945   0.000242
  100  C 12  S   -0.002188  -0.006033  -0.090900  -0.248814   0.952537
  101  C 12  S   -0.000645  -0.002648  -0.010486  -0.030685   0.104938
  102  C 12  X   -0.000377  -0.000043  -0.000004  -0.000039  -0.000586
[...]
   35    0.0000000   0.0000000   0.0002354   0.0000003  -0.0000031
   36   -0.0000002  -0.0000001   0.0014766  -0.0000092   0.0000271
   37   -0.0000000   0.0000000   0.3655327   0.0000000   0.0000559
   38   -0.0000000  -0.0000000   0.3799766   0.0000000  -0.0000885
   39    0.0000004   0.0000000   0.3653923   0.0000007  -0.0005135

             6           7           8           9          10

    6    5.4602921
    7   -0.0000919   5.5880436
    8    0.2115844   0.0022040   5.5865056
    9    0.2728920   0.0000297  -0.0837657   5.4197125
   10    0.0022120   0.2020475  -0.0745171   0.0002352   5.6960043
   11   -0.0884523  -0.0917019   0.2209923  -0.0069068   0.2548088
   12   -0.0052546  -0.0606187  -0.0000428  -0.0565684  -0.0192819
   13   -0.0503326   0.0013521   0.0026858   0.2613272  -0.0001153
   14   -0.0000489   0.0029828   0.0000016   0.0124303  -0.0000539
   15   -0.0752802   0.0000008   0.0003412   0.5094193   0.0000004
   16   -0.0000313  -0.0024653   0.0001145  -0.0017964  -0.0004846
   17    0.0017930   0.0001231   0.0003308  -0.0460297  -0.0000996
   18    0.0000519   0.0000019   0.0000005  -0.0010314  -0.0000002
   19   -0.0000198   0.0000144   0.0000005   0.0022142   0.0000002
   20   -0.0000031  -0.0406115   0.0000018  -0.0000078   0.0035136
   21    0.0000029  -0.0437940   0.0000017  -0.0000460   0.0005957
   22    0.0000295  -0.0000005   0.0000058   0.0016143   0.0000000
   23    0.0000012   0.0000002  -0.0000000   0.0000272   0.0000000
   24   -0.0000019  -0.0000017   0.0000000   0.0000243  -0.0000000
   25   -0.0000001  -0.0000156   0.0000000   0.0000016   0.0000000
   26    0.0000000   0.0000001   0.0000000   0.0000015   0.0000000
   27    0.0000000   0.0000044  -0.0000000  -0.0000029  -0.0000009
   28    0.3841224  -0.0000199  -0.0552652  -0.0499983   0.0013391
   29    0.3926844   0.0000014  -0.0338981  -0.0432212  -0.0000519
   30   -0.0000001   0.3836060  -0.0000347  -0.0000009  -0.0399731
   31   -0.0000044   0.3925541   0.0001494  -0.0000293  -0.0560190
   32    0.0023366   0.0000001  -0.0000566  -0.0518254   0.0000000
   33   -0.0020701  -0.0000000   0.0000301  -0.0541205   0.0000003
   34   -0.0322662  -0.0000395   0.3783214   0.0003508   0.0031941
   35   -0.0324664   0.0000231   0.3815973   0.0031788  -0.0000091
   36    0.0003820   0.0003304  -0.0252932   0.0009188  -0.0543366
   37    0.0000042  -0.0013603  -0.0000089  -0.0000004  -0.0426621
   38   -0.0001594   0.0021106  -0.0003925   0.0000095  -0.0458488
   39   -0.0000228  -0.0014500   0.0000778   0.0000061  -0.0390574

            11          12          13          14          15

   11    5.5129196
   12    0.0012032   5.8276692
   13   -0.0080948   0.2111157   5.7008614
   14    0.0000019   0.1987704  -0.2125001   5.8526810
   15   -0.0000299   0.0022891  -0.0713771   0.0000949   5.2170944
   16   -0.0004767   0.3928730  -0.0396647  -0.0336470   0.0000546
   17   -0.0006167  -0.0464811   0.3912230   0.0090324  -0.0029356
   18   -0.0000003   0.0090218  -0.0376957  -0.0347668   0.0005530
   19    0.0000006   0.0083172  -0.0419401  -0.0434433  -0.0000369
   20   -0.0000369  -0.0403209  -0.0000056  -0.0010355   0.0000003
   21   -0.0000073  -0.0459896   0.0030733  -0.0011813   0.0000002
   22   -0.0000001  -0.0007316  -0.0004832  -0.0444934   0.0003749
   23   -0.0000000   0.0038287  -0.0003308  -0.0442049   0.0000033
   24    0.0000001  -0.0014208  -0.0002898  -0.0471353   0.0000020
   25    0.0000000  -0.0010314  -0.0002398  -0.0469929   0.0000000
   26    0.0000000   0.0032436  -0.0002023  -0.0452296  -0.0000000
   27    0.0000000  -0.0010908   0.0000369  -0.0445512   0.0000001
   28   -0.0024885   0.0007636  -0.0011736  -0.0001355   0.0015459
   29    0.0035001   0.0000874   0.0019308   0.0000003   0.0001179
   30    0.0030314   0.0024033   0.0000020  -0.0000235  -0.0000000
   31    0.0008036   0.0011131   0.0003375  -0.0000462  -0.0000002
   32    0.0000000   0.0000634  -0.0019943  -0.0000269   0.3973474
   33   -0.0000030  -0.0000365   0.0022733  -0.0000025   0.3972437
   34   -0.0394420  -0.0000069   0.0000588  -0.0000000   0.0008982
   35   -0.0436699   0.0000120  -0.0000762   0.0000000  -0.0000291
   36    0.3880386  -0.0000265  -0.0000377   0.0000118   0.0000372
   37    0.0019178   0.0000792  -0.0000027  -0.0000002   0.0000000
   38   -0.0024653   0.0000491  -0.0000021   0.0000001  -0.0000000
   39    0.0014926   0.0004396  -0.0000190  -0.0000187  -0.0000000

            16          17          18          19          20

   16    0.5037171
   17    0.0017012   0.5046576
   18   -0.0002609   0.0012779   0.4494842
   19   -0.0001467  -0.0027839  -0.0171422   0.4718625
   20    0.0025411   0.0005130  -0.0000106  -0.0000124   0.4470482
   21   -0.0021670   0.0000604   0.0000010   0.0000109  -0.0226927
   22   -0.0001443   0.0000242   0.0000146   0.0000118  -0.0000023
   23    0.0000963   0.0000025   0.0011192  -0.0000089   0.0000006
   24    0.0013355   0.0000024   0.0000501  -0.0000456   0.0000018
   25    0.0000891   0.0000054  -0.0000351   0.0000223  -0.0000446
   26   -0.0000331   0.0000048   0.0001604   0.0003728  -0.0000283
   27   -0.0000185  -0.0000140  -0.0000113   0.0010577   0.0021292
   28    0.0027837  -0.0000306  -0.0000030  -0.0000016   0.0000003
   29   -0.0000113  -0.0000413  -0.0000034   0.0000003   0.0000000
   30   -0.0000428   0.0000065   0.0000000  -0.0000001   0.0003252
   31    0.0000209   0.0004315  -0.0000001  -0.0000005  -0.0039117
   32    0.0000022   0.0003090   0.0011247  -0.0000001   0.0000001
   33   -0.0000022  -0.0000660  -0.0000251  -0.0000004  -0.0000000
   34   -0.0000016  -0.0000227   0.0000000  -0.0000000  -0.0000000
   35    0.0000007  -0.0000001  -0.0000000  -0.0000000   0.0000000
   36    0.0000232   0.0023936   0.0000003  -0.0000042  -0.0000138
   37    0.0000755   0.0000001  -0.0000000  -0.0000000  -0.0000002
   38   -0.0000439  -0.0000004  -0.0000000  -0.0000000   0.0000001
   39    0.0023379   0.0000008  -0.0000000  -0.0000000   0.0000281

            21          22          23          24          25

   21    0.4682600
   22    0.0000015   0.5084269
   23   -0.0000021  -0.0236090   0.4826544
   24    0.0000364  -0.0255273  -0.0227587   0.5112186
   25    0.0006155  -0.0000325   0.0000301   0.0017293   0.5077008
   26   -0.0000196  -0.0000142   0.0019296   0.0000511  -0.0229290
   27   -0.0001384  -0.0000539  -0.0000335  -0.0000367  -0.0254778
   28   -0.0000006   0.0003926  -0.0000027  -0.0000061  -0.0000001
   29    0.0000000  -0.0000061  -0.0000000   0.0000001   0.0000000
   30   -0.0032449   0.0000000  -0.0000000   0.0000000   0.0000004
   31    0.0021034   0.0000000  -0.0000000   0.0000000   0.0000001
   32    0.0000000   0.0000069  -0.0000000  -0.0000000  -0.0000000
   33   -0.0000000  -0.0000012   0.0000001  -0.0000000  -0.0000000
   34    0.0000000  -0.0000000   0.0000000  -0.0000000  -0.0000000
   35   -0.0000000  -0.0000001   0.0000000  -0.0000000  -0.0000000
   36   -0.0000021  -0.0000000   0.0000000   0.0000000   0.0000000
   37   -0.0000304   0.0000000   0.0000000   0.0000000   0.0000000
   38    0.0000006  -0.0000000   0.0000000  -0.0000000  -0.0000000
   39    0.0002698   0.0000000  -0.0000000   0.0000054   0.0000001

            26          27          28          29          30

   26    0.4797442
   27   -0.0242375   0.5116247
   28   -0.0000000  -0.0000000   0.4958938
   29   -0.0000000  -0.0000000  -0.0197613   0.4212428
   30   -0.0000000   0.0000012   0.0000001  -0.0000000   0.4138813
   31   -0.0000000  -0.0000016  -0.0000020   0.0000000  -0.0197837
   32   -0.0000000  -0.0000000  -0.0000501   0.0000824  -0.0000000
   33    0.0000000  -0.0000000   0.0000936   0.0013309  -0.0000000
   34    0.0000000   0.0000000   0.0026372  -0.0021329   0.0000003
   35   -0.0000000   0.0000000  -0.0018398  -0.0013338   0.0000007
   36    0.0000000  -0.0000000   0.0000226  -0.0000230   0.0000527
   37   -0.0000000   0.0000000   0.0000147  -0.0000000   0.0007952
   38    0.0000000   0.0000000   0.0003320   0.0000011   0.0000136
   39   -0.0000000  -0.0000000  -0.0000952  -0.0000007   0.0000086

            31          32          33          34          35

   31    0.4465802
   32    0.0000000   0.4308283
   33   -0.0000000  -0.0170819   0.4429267
   34   -0.0000022  -0.0000062   0.0000900   0.4184209
   35   -0.0000015   0.0000004   0.0000005  -0.0186451   0.4338577
   36    0.0015340  -0.0000004  -0.0000012  -0.0022064   0.0014535
   37   -0.0000593  -0.0000000  -0.0000000  -0.0000000  -0.0000155
   38   -0.0000374   0.0000000  -0.0000000   0.0000365   0.0023733
   39    0.0000217   0.0000000   0.0000000  -0.0000014  -0.0000339

            36          37          38          39

   36    0.3561394
   37   -0.0000324   0.4121885
   38    0.0000435  -0.0181122   0.4327971
   39   -0.0000331  -0.0164472  -0.0183420   0.4087850

          TOTAL MULLIKEN AND LOWDIN ATOMIC POPULATIONS
       ATOM         MULL.POP.    CHARGE          LOW.POP.     CHARGE
    1 C             6.520398   -0.520398         6.237502   -0.237502
    2 C             6.550838   -0.550838         6.246782   -0.246782
    3 C             6.648587   -0.648587         6.271142   -0.271142
    4 C             6.324058   -0.324058         6.137813   -0.137813
    5 C             6.378278   -0.378278         6.137105   -0.137105
    6 C             6.443968   -0.443968         6.134217   -0.134217
    7 C             6.480354   -0.480354         6.174784   -0.174784
    8 C             6.509226   -0.509226         6.177207   -0.177207
    9 C             6.028202   -0.028202         6.055369   -0.055369
   10 C             5.928382    0.071618         5.804349    0.195651
   11 C             6.048502   -0.048502         5.879062    0.120938
   12 C             6.255124   -0.255124         6.105013   -0.105013
   13 C             6.311414   -0.311414         6.103359   -0.103359
   14 C             6.176795   -0.176795         6.021246   -0.021246
   15 C             6.372489   -0.372489         6.172466   -0.172466
   16 H             0.788780    0.211220         0.927594    0.072406
   17 H             0.780113    0.219887         0.917010    0.082990
   18 H             0.763265    0.236735         0.899360    0.100640
   19 H             0.767354    0.232646         0.903885    0.096115
   20 H             0.738665    0.261335         0.886429    0.113571
   21 H             0.747427    0.252573         0.891983    0.108017
   22 H             0.799858    0.200142         0.913848    0.086152
   23 H             0.776726    0.223274         0.898734    0.101266
   24 H             0.796563    0.203437         0.910453    0.089547
   25 H             0.793560    0.206440         0.907935    0.092065
   26 H             0.770706    0.229294         0.893623    0.106377
   27 H             0.802087    0.197913         0.915373    0.084627
   28 H             0.759542    0.240458         0.903320    0.096680
   29 H             0.720449    0.279551         0.875149    0.124851
   30 H             0.709444    0.290556         0.865629    0.134371
   31 H             0.735140    0.264860         0.884558    0.115442
   32 H             0.761246    0.238754         0.889918    0.110082
   33 H             0.770690    0.229310         0.895071    0.104929
   34 H             0.709280    0.290720         0.866935    0.133065
   35 H             0.724610    0.275390         0.875095    0.124905
   36 H             0.670865    0.329135         0.851502    0.148498
   37 H             0.701932    0.298068         0.846235    0.153765
   38 H             0.732251    0.267749         0.875312    0.124688
   39 H             0.702832    0.297168         0.847635    0.152365

          -------------------------------
          BOND ORDER AND VALENCE ANALYSIS     BOND ORDER THRESHOLD=0.050
          -------------------------------

                   BOND                       BOND                       BOND
  ATOM PAIR DIST  ORDER      ATOM PAIR DIST  ORDER      ATOM PAIR DIST  ORDER
    1  14  1.536  0.906        1  22  1.096  0.931        1  23  1.097  0.921
    1  24  1.098  0.926        2  14  1.531  0.926        2  25  1.097  0.924
    2  26  1.097  0.917        2  27  1.095  0.930        3  10  1.509  0.928
    3  37  1.099  0.871        3  38  1.093  0.902        3  39  1.098  0.870
    4  13  1.565  0.900        4  14  1.557  0.885        4  18  1.094  0.926
    4  19  1.096  0.923        5   7  1.571  0.849        5  12  1.543  0.906
    5  20  1.097  0.905        5  21  1.098  0.906        6   8  1.562  0.838
    6   9  1.526  0.926        6  28  1.097  0.897        6  29  1.097  0.903
    7  10  1.511  0.916        7  30  1.098  0.890        7  31  1.096  0.904
    8  11  1.503  0.946        8  34  1.096  0.888        8  35  1.097  0.892
    9  13  1.537  0.923        9  15  1.343  1.761       10  11  1.344  1.299
   11  36  1.090  0.884       12  13  1.572  0.877       12  14  1.582  0.871
   12  16  1.094  0.921       13  17  1.096  0.914       15  32  1.087  0.933
   15  33  1.087  0.936

                       TOTAL       BONDED        FREE
      ATOM            VALENCE     VALENCE     VALENCE
    1 C                 3.628       3.628       0.000
    2 C                 3.645       3.645       0.000
    3 C                 3.544       3.542       0.002
    4 C                 3.546       3.546       0.000
    5 C                 3.534       3.533       0.001
    6 C                 3.545       3.541       0.004
    7 C                 3.501       3.498       0.003
    8 C                 3.521       3.516       0.005
    9 C                 3.594       3.502       0.092
   10 C                 3.277       3.111       0.166
   11 C                 3.391       3.116       0.275
   12 C                 3.468       3.468       0.000
   13 C                 3.518       3.516       0.002
   14 C                 3.469       3.469       0.000
   15 C                 3.732       3.631       0.101
   16 H                 0.913       0.913       0.000
   17 H                 0.906       0.906       0.000
   18 H                 0.915       0.915       0.000
   19 H                 0.908       0.908       0.000
   20 H                 0.895       0.895       0.000
   21 H                 0.893       0.893       0.000
   22 H                 0.921       0.921       0.000
   23 H                 0.913       0.913       0.000
   24 H                 0.918       0.918       0.000
   25 H                 0.917       0.917       0.000
   26 H                 0.909       0.909       0.000
   27 H                 0.921       0.921       0.000
   28 H                 0.895       0.895       0.000
   29 H                 0.889       0.889       0.000
   30 H                 0.881       0.881       0.001
   31 H                 0.892       0.892       0.000
   32 H                 0.918       0.917       0.001
   33 H                 0.921       0.920       0.001
   34 H                 0.880       0.880       0.000
   35 H                 0.888       0.888       0.000
   36 H                 0.870       0.867       0.002
   37 H                 0.876       0.876       0.001
   38 H                 0.894       0.894       0.000
   39 H                 0.880       0.879       0.001

          -----------------------------------------
          ATOMIC SPIN DENSITY AT THE NUCLEUS (A.U.)
          -----------------------------------------
                            SPIN DENS    ALPHA DENS     BETA DENS
    1  C            6.0    -0.0004627      47.00315      47.00361
    2  C            6.0    -0.0002752      46.99904      46.99931
    3  C            6.0    -0.0199253      46.98769      47.00762
    4  C            6.0    -0.0033853      47.05896      47.06235
    5  C            6.0     0.0172983      47.04335      47.02605
    6  C            6.0     0.0452241      47.06394      47.01871
    7  C            6.0    -0.0211234      47.04066      47.06178
    8  C            6.0    -0.0395024      47.02443      47.06393
    9  C            6.0    -0.0848846      46.97461      47.05950
   10  C            6.0     0.0709743      47.16503      47.09406
   11  C            6.0     0.0969288      47.14883      47.05191
   12  C            6.0    -0.0042407      47.12354      47.12778
   13  C            6.0     0.0202304      47.11213      47.09190
   14  C            6.0     0.0007356      47.14086      47.14013
   15  C            6.0     0.0747485      47.01960      46.94485
   16  H            1.0     0.0006695       0.18726       0.18659
   17  H            1.0    -0.0052641       0.18228       0.18754
   18  H            1.0     0.0003080       0.18227       0.18196
   19  H            1.0     0.0002166       0.18249       0.18227
   20  H            1.0    -0.0009366       0.18094       0.18188
   21  H            1.0    -0.0006846       0.18177       0.18246
   22  H            1.0    -0.0000306       0.18332       0.18336
   23  H            1.0    -0.0000134       0.18125       0.18127
   24  H            1.0    -0.0000167       0.18222       0.18223
   25  H            1.0     0.0000592       0.18215       0.18209
   26  H            1.0     0.0001459       0.18074       0.18060
   27  H            1.0     0.0000076       0.18401       0.18400
   28  H            1.0    -0.0053772       0.18053       0.18590
   29  H            1.0    -0.0005277       0.17996       0.18048
   30  H            1.0     0.0085655       0.18221       0.17364
   31  H            1.0     0.0024349       0.18293       0.18049
   32  H            1.0    -0.0086444       0.17775       0.18640
   33  H            1.0    -0.0086094       0.17821       0.18682
   34  H            1.0     0.0053199       0.18172       0.17640
   35  H            1.0     0.0072875       0.18299       0.17570
   36  H            1.0    -0.0123927       0.17451       0.18690
   37  H            1.0     0.0098314       0.17915       0.16931
   38  H            1.0     0.0006852       0.18054       0.17986
   39  H            1.0     0.0109654       0.17982       0.16885

          ---------------------
          ELECTROSTATIC MOMENTS
          ---------------------

 POINT   1           X           Y           Z (BOHR)    CHARGE
                 0.042748   -0.000610   -0.007539        1.00 (A.U.)
         DX          DY          DZ         /D/  (DEBYE)
     6.435686    3.186637    0.204516    7.184326
 ...... END OF PROPERTY EVALUATION ......
 CPU     0: STEP CPU TIME=     0.10 TOTAL CPU TIME=         36.2 (      0.6 MIN)
 TOTAL WALL CLOCK TIME=         70.1 SECONDS, CPU UTILIZATION IS    51.72%
               580000  WORDS OF DYNAMIC MEMORY USED
 EXECUTION OF GAMESS TERMINATED NORMALLY Mon May 25 18:32:43 2020
 DDI: 263640 bytes (0.3 MB / 0 MWords) used by master data server.
Note: The following floating-point exceptions are signalling: IEEE_DENORMALNote: The following floating-point exceptions are signalling: IEEE_DENORMAL

 ----------------------------------------
 CPU timing information for all processes
 ========================================
 0: 35.823 + 0.431 = 36.255
 1: 35.291 + 0.276 = 35.567
 2: 35.413 + 0.322 = 35.736
 3: 35.06 + 0.249 = 35.255
 4: 34.638 + 0.248 = 34.886
 5: 34.527 + 0.271 = 34.799
 ----------------------------------------
Note: The following floating-point exceptions are signalling:Note: The following floating-point exceptions are signalling:
Note: The following floating-point exceptions are signalling: IEEE_DENORMAL
Note: The following floating-point exceptions are signalling: IEEE_DENORMAL IEEE_DENORMAL
 IEEE_DENORMAL

 ddikick.x: exited gracefully.
unset echo
----- accounting info -----
Files used on the master node pietdev were:
-rwxr-xr-x 1 piet piet     1659 mei 25 18:31 /home/piet/scr/caryophylene_fukui_base.F05*
-rw-r--r-- 1 piet piet 68812800 mei 25 18:32 /home/piet/scr/caryophylene_fukui_base.F10
ls: No match.
ls: No match.
ls: No match.
ma 25 mei 2020 18:32:46 CEST
0.114u 0.034s 1:13.23 0.1%	0+0k 0+8io 0pf+0w
