----- GAMESS execution script 'rungms' -----
This job is running on host pietdev
under operating system Linux at ma 25 mei 2020 18:31:32 CEST
Available scratch disk space (Kbyte units) at beginning of the job is
Filesystem     1K-blocks     Used Available Use% Mounted on
/dev/sda2      244568380 31071340 201003984  14% /
GAMESS temporary binary files will be written to /home/piet/scr
GAMESS supplementary output files will be written to /home/piet/gamess/scr
Copying input file caryophylene_fukui_acid.inp to your run's scratch directory...
cp caryophylene_fukui_acid.inp /home/piet/scr/caryophylene_fukui_acid.F05
unset echo
 
Assuming a single but multicore node.
 
/home/piet/gamess/ddikick.x /home/piet/gamess/gamess.03.x caryophylene_fukui_acid -ddi 1 6 pietdev:cpus=6 -scr /home/piet/scr

 Distributed Data Interface kickoff program.
 Initiating 6 compute processes on 1 nodes to run the following command:
 /home/piet/gamess/gamess.03.x caryophylene_fukui_acid 

          ******************************************************
          *         GAMESS VERSION = 30 SEP 2019 (R2)          *
          *             FROM IOWA STATE UNIVERSITY             *
          * M.W.SCHMIDT, K.K.BALDRIDGE, J.A.BOATZ, S.T.ELBERT, *
          *   M.S.GORDON, J.H.JENSEN, S.KOSEKI, N.MATSUNAGA,   *
          *          K.A.NGUYEN, S.J.SU, T.L.WINDUS,           *
          *       TOGETHER WITH M.DUPUIS, J.A.MONTGOMERY       *
          *         J.COMPUT.CHEM.  14, 1347-1363(1993)        *
          **************** 64 BIT LINUX VERSION ****************

  SINCE 1993, STUDENTS AND POSTDOCS WORKING AT IOWA STATE UNIVERSITY
  AND ALSO IN THEIR VARIOUS JOBS AFTER LEAVING ISU HAVE MADE IMPORTANT
  CONTRIBUTIONS TO THE CODE:
     IVANA ADAMOVIC, CHRISTINE AIKENS, YURI ALEXEEV, POOJA ARORA,
     ANDREY ASADCHEV, ROB BELL, PRADIPTA BANDYOPADHYAY, JONATHAN BENTZ,
     COLLEEN BERTONI, BRETT BODE, KURT BRORSEN, CALEB CARLIN, GALINA CHABAN,
     WEI CHEN, CHEOL HO CHOI, PAUL DAY, ALBERT DEFUSCO, NUWAN DESILVA,
     TIM DUDLEY, DMITRI FEDOROV, ALEX FINDLATER, GRAHAM FLETCHER, 
     MARK FREITAG, KURT GLAESEMANN, EMILIE B GUIDEZ, ANASTASIA GUNINA, 
     DAN KEMP, SAROM SOK LEANG, GRANT MERRILL,
     NORIYUKI MINEZAWA, JONATHAN MULLIN,
     TAKESHI NAGATA, SEAN NEDD, HEATHER NETZLOFF, BOSILJKA NJEGIC, RYAN OLSON,
     MIKE PAK, BUU PHAM, DAVID POOLE,
     SPENCER PRUITT, LUKE ROSKOP, TOSAPORN SATTASATHUCHANA,
     JIM SHOEMAKER, LYUDMILA SLIPCHENKO,
     TONY SMITH, JIE SONG, TETSUYA TAKETSUGU, SIMON WEBB,
     JORGE LUIS GALVEZ VALLEJO, PENG XU, SOOHAENG YOO,
     FEDERICO ZAHARIEV

  ADDITIONAL CODE HAS BEEN PROVIDED BY COLLABORATORS IN OTHER GROUPS:
     IOWA STATE UNIVERSITY:
          JOE IVANIC, AARON WEST, LAIMUTIS BYTAUTAS, KLAUS RUEDENBERG
     UNIVERSITY OF TOKYO: KIMIHIKO HIRAO, TAKAHITO NAKAJIMA,
          TAKAO TSUNEDA, MUNEAKI KAMIYA, SUSUMU YANAGISAWA,
          KIYOSHI YAGI, MAHITO CHIBA, SEIKEN TOKURA, NAOAKI KAWAKAMI
     UNIVERSITY OF AARHUS: FRANK JENSEN
     UNIVERSITY OF IOWA: VISVALDAS KAIRYS, HUI LI
     NATIONAL INST. OF STANDARDS AND TECHNOLOGY: WALT STEVENS, DAVID GARMER
     UNIVERSITY OF PISA: BENEDETTA MENNUCCI, JACOPO TOMASI
     UNIVERSITY OF MEMPHIS: HENRY KURTZ, PRAKASHAN KORAMBATH
     UNIVERSITY OF ALBERTA: TOBY ZENG, MARIUSZ KLOBUKOWSKI
     UNIVERSITY OF NEW ENGLAND: MARK SPACKMAN
     MIE UNIVERSITY: HIROAKI UMEDA
     NAT. INST. OF ADVANCED INDUSTRIAL SCIENCE AND TECHNOLOGY: KAZUO KITAURA
     MICHIGAN STATE UNIVERSITY:
          KAROL KOWALSKI, MARTA WLOCH, JEFFREY GOUR, JESSE LUTZ,
          WEI LI, JUN SHEN, J. EMILIANO DEUSTUA, PIOTR PIECUCH
     UNIVERSITY OF MINNESOTA:
          ANDREW SAND, PRACHI SHARMA, YINAN SHU
     UNIVERSITY OF SILESIA: MONIKA MUSIAL, STANISLAW KUCHARSKI
     FACULTES UNIVERSITAIRES NOTRE-DAME DE LA PAIX:
          OLIVIER QUINET, BENOIT CHAMPAGNE
     UNIVERSITY OF CALIFORNIA - SANTA BARBARA: BERNARD KIRTMAN
     INSTITUTE FOR MOLECULAR SCIENCE:
          KAZUYA ISHIMURA, MICHIO KATOUDA, AND SHIGERU NAGASE
     UNIVERSITY OF NOTRE DAME: ANNA POMOGAEVA, DAN CHIPMAN
     KYUSHU UNIVERSITY:
          HARUYUKI NAKANO,
          FENG LONG GU, JACEK KORCHOWIEC, MARCIN MAKOWSKI, AND YURIKO AOKI,
          HIROTOSHI MORI AND EISAKU MIYOSHI
     PENNSYLVANIA STATE UNIVERSITY:
          TZVETELIN IORDANOV, CHET SWALINA, JONATHAN SKONE,
          SHARON HAMMES-SCHIFFER
     WASEDA UNIVERSITY:
          MASATO KOBAYASHI, TOMOKO AKAMA, TSUGUKI TOUMA,
          TAKESHI YOSHIKAWA, YASUHIRO IKABATA, JUNJI SEINO,
          YUYA NAKAJIMA, HIROMI NAKAI
     NANJING UNIVERSITY: SHUHUA LI
     UNIVERSITY OF NEBRASKA:
          PEIFENG SU, DEJUN SI, NANDUN THELLAMUREGE, YALI WANG, HUI LI
     UNIVERSITY OF ZURICH: ROBERTO PEVERATI, KIM BALDRIDGE
     N. COPERNICUS UNIVERSITY AND JACKSON STATE UNIVERSITY:
          MARIA BARYSZ
     UNIVERSITY OF COPENHAGEN: Jimmy Kromann, CASPER STEINMANN
     TOKYO INSTITUTE OF TECHNOLOGY: HIROYA NAKATA
     NAGOYA UNIVERSITY: YOSHIO NISHIMOTO, STEPHAN IRLE
     MOSCOW STATE UNIVERSITY: VLADIMIR MIRONOV
     A.N.NESMEYANOV INSTITUTE OF ORGANOELEMENT COMPOUNDS OF RUSSIAN ACADEMY OF SCIENCES:
          IGOR S. GERASIMOV
     JOHANNES KEPLER UNIVERSITY LINZ:
          CHRISTIAN FRIEDL


 PARALLEL VERSION RUNNING ON        6 PROCESSORS IN        1 NODES.

 EXECUTION OF GAMESS BEGUN Mon May 25 18:31:33 2020

            ECHO OF THE FIRST FEW INPUT CARDS -
 INPUT CARD> $BASIS GBASIS=N21 NGAUSS=3 $END                                                
 INPUT CARD> $CONTRL SCFTYP=UHF MAXIT=60 MULT=2 ICHARG=-1 $END                              
 INPUT CARD> $SYSTEM MEMDDI=1000 MWORDS=30 $END                                             
 INPUT CARD> $SCF DIRSCF=.TRUE. $END                                                        
 INPUT CARD> $STATPT OPTTOL=0.0001 NSTEP=999 $END                                           
 INPUT CARD> $DATA                                                                          
 INPUT CARD>                                                                                
 INPUT CARD>C1                                                                              
 INPUT CARD>C 6.0000000 -2.49753 -0.59686 -1.63028                                          
 INPUT CARD>C 6.0000000 -3.36637 1.06612 0.03147                                            
 INPUT CARD>C 6.0000000 2.22048 1.94518 -1.34781                                            
 INPUT CARD>C 6.0000000 -1.98560 -0.99731 0.84808                                           
 INPUT CARD>C 6.0000000 -0.51165 1.92664 0.48241                                            
 INPUT CARD>C 6.0000000 1.57236 -1.62161 -0.74331                                           
 INPUT CARD>C 6.0000000 0.96626 2.29246 0.87084                                             
 INPUT CARD>C 6.0000000 2.83113 -0.90290 -0.16213                                           
 INPUT CARD>C 6.0000000 0.42552 -1.87038 0.23286                                            
 INPUT CARD>C 6.0000000 1.95748 1.48475 0.06481                                             
 INPUT CARD>C 6.0000000 2.38545 0.32228 0.58628                                             
 INPUT CARD>C 6.0000000 -0.74617 0.53181 -0.13407                                           
 INPUT CARD>C 6.0000000 -0.44731 -0.72227 0.76506                                           
 INPUT CARD>C 6.0000000 -2.25020 0.06020 -0.26398                                           
 INPUT CARD>C 6.0000000 0.19328 -3.12446 0.65355                                            
 INPUT CARD>H 1.0000000 -0.24156 0.49548 -1.10458                                           
 INPUT CARD>H 1.0000000 -0.04097 -0.42282 1.73760                                           
 INPUT CARD>H 1.0000000 -2.30916 -2.01676 0.61698                                           
 INPUT CARD>H 1.0000000 -2.41063 -0.71079 1.81638                                           
 INPUT CARD>H 1.0000000 -1.12658 2.04975 1.38223                                            
 INPUT CARD>H 1.0000000 -0.88739 2.66600 -0.23668                                           
 INPUT CARD>H 1.0000000 -1.72557 -1.33708 -1.86763                                          
 INPUT CARD>H 1.0000000 -3.46674 -1.11122 -1.64722                                          
 INPUT CARD>H 1.0000000 -2.50078 0.15507 -2.43030                                           
 INPUT CARD>H 1.0000000 -3.39851 1.86688 -0.71804                                           
 INPUT CARD>H 1.0000000 -4.33909 0.55831 0.01219                                            
 INPUT CARD>H 1.0000000 -3.26104 1.53069 1.01707                                            
 INPUT CARD>H 1.0000000 1.20850 -1.01795 -1.58428                                           
 INPUT CARD>H 1.0000000 1.88158 -2.58617 -1.16348                                           
 INPUT CARD>H 1.0000000 1.10602 3.37407 0.74180                                             
 INPUT CARD>H 1.0000000 1.11910 2.08058 1.93478                                             
 INPUT CARD>H 1.0000000 -0.61181 -3.36385 1.34318                                           
 INPUT CARD>H 1.0000000 0.80911 -3.95735 0.32361                                            
 INPUT CARD>H 1.0000000 3.36186 -1.58820 0.50884                                            
 INPUT CARD>H 1.0000000 3.51044 -0.67588 -0.99250                                           
 INPUT CARD>H 1.0000000 2.14643 0.14170 1.63399                                             
 INPUT CARD>H 1.0000000 2.70007 2.93353 -1.33372                                            
 INPUT CARD>H 1.0000000 2.87423 1.26579 -1.90109                                            
 INPUT CARD>H 1.0000000 1.28969 2.06182 -1.91912                                            
 INPUT CARD> $END                                                                           
   30000000 WORDS OF MEMORY AVAILABLE

     BASIS OPTIONS
     -------------
     GBASIS=N21          IGAUSS=       3      POLAR=NONE    
     NDFUNC=       0     NFFUNC=       0     DIFFSP=       F
     NPFUNC=       0      DIFFS=       F     BASNAM=        


     RUN TITLE
     ---------
                                                                                 

 THE POINT GROUP OF THE MOLECULE IS C1      
 THE ORDER OF THE PRINCIPAL AXIS IS     0

 ATOM      ATOMIC                      COORDINATES (BOHR)
           CHARGE         X                   Y                   Z
 C           6.0    -4.7196473461       -1.1279018530       -3.0807824833
 C           6.0    -6.3615168733        2.0146746700        0.0594696768
 C           6.0     4.1960987612        3.6758571968       -2.5469915835
 C           6.0    -3.7522399212       -1.8846426248        1.6026388157
 C           6.0    -0.9668783016        3.6408216770        0.9116227137
 C           6.0     2.9713295541       -3.0643985589       -1.4046522239
 C           6.0     1.8259666329        4.3321212378        1.6456489791
 C           6.0     5.3500599356       -1.7062335943       -0.3063812744
 C           6.0     0.8041162023       -3.5345056929        0.4400415935
 C           6.0     3.6991008264        2.8057706603        0.1224731413
 C           6.0     4.5078468574        0.6090208913        1.1079085521
 C           6.0    -1.4100568403        1.0049751775       -0.2533555632
 C           6.0    -0.8452933316       -1.3648923892        1.4457537642
 C           6.0    -4.2522614176        0.1137615045       -0.4988498662
 C           6.0     0.3652462389       -5.9043732596        1.2350304193
 H           1.0    -0.4564822096        0.9363214324       -2.0873535315
 H           1.0    -0.0774220737       -0.7990139421        3.2835878763
 H           1.0    -4.3636796618       -3.8111237830        1.1659231399
 H           1.0    -4.5554301578       -1.3431983348        3.4324604896
 H           1.0    -2.1289275032        3.8734658433        2.6120359520
 H           1.0    -1.6769239442        5.0380094833       -0.4472603468
 H           1.0    -3.2608544726       -2.5267148237       -3.5293089464
 H           1.0    -6.5511886707       -2.0999013121       -3.1127944415
 H           1.0    -4.7257889556        0.2930398089       -4.5926010680
 H           1.0    -6.4222526665        3.5278916520       -1.3568988482
 H           1.0    -8.1996911361        1.0550529162        0.0230357598
 H           1.0    -6.1624720350        2.8925846721        1.9219836103
 H           1.0     2.2837338562       -1.9236465692       -2.9938550878
 H           1.0     3.5556706240       -4.8871526577       -2.1986583922
 H           1.0     2.0900747369        6.3760677634        1.4017987377
 H           1.0     2.1147923529        3.9317260955        3.6562040465
 H           1.0    -1.1561532565       -6.3567547638        2.5382421522
 H           1.0     1.5289961939       -7.4783071375        0.6115342269
 H           1.0     6.3529942091       -3.0012628137        0.9615681716
 H           1.0     6.6337696963       -1.2772280006       -1.8755530428
 H           1.0     4.0561645518        0.2677741725        3.0877933667
 H           1.0     5.1023924477        5.5435678768       -2.5203653443
 H           1.0     5.4315071257        2.3919962580       -3.5925391780
 H           1.0     2.4371607091        3.8962748360       -3.6266109376

          INTERNUCLEAR DISTANCES (ANGS.)
          ------------------------------

                1 C          2 C          3 C          4 C          5 C     

   1 C       0.0000000    2.5063516 *  5.3666913    2.5621672 *  3.8438562  
   2 C       2.5063516 *  0.0000000    5.8213446    2.6136413 *  3.0155046  
   3 C       5.3666913    5.8213446    0.0000000    5.5831254    3.2885534  
   4 C       2.5621672 *  2.6136413 *  5.5831254    0.0000000    3.2948030  
   5 C       3.8438562    3.0155046    3.2885534    3.2948030    0.0000000  
   6 C       4.2896192    5.6758462    3.6752511    3.9473221    4.2936657  
   7 C       5.1576751    4.5804077    2.5721740 *  4.4200206    1.5712798 *
   8 C       5.5356790    6.5056535    3.1448832    4.9224308    4.4267264  
   9 C       3.6928803    4.8002104    4.5032097    2.6370905 *  3.9189187  
  10 C       5.2013022    5.3403878    1.5088605 *  4.7246178    2.5428841 *
  11 C       5.4407215    5.8261948    2.5301628 *  4.5733943    3.3132987  
  12 C       2.5651125 *  2.6792422 *  3.5031117    2.1997757 *  1.5429186 *
  13 C       3.1554371    3.5010576    4.3239580    1.5648883 *  2.6647242 *
  14 C       1.5361236 *  1.5313397 *  4.9713999    1.5572469 *  2.6576780 *
  15 C       4.3410943    5.5334485    5.8151725    3.0512501    5.1029233  
  16 H       2.5610482 *  3.3735259    2.8674783 *  3.0137980    2.1539974 *
  17 H       4.1722407    4.0231961    4.4990371    2.2142426 *  2.7049961 *
  18 H       2.6649159 *  3.3112934    6.3304824    1.0942470 *  4.3358453  
  19 H       3.4496372    2.6938359 *  6.2059209    1.0956044 *  3.5130668  
  20 H       4.2378373    2.7944122 *  4.3205166    3.2105772    1.0968004 *
  21 H       3.8962709    2.9625770 *  3.3783202    3.9752496    1.0976904 *
  22 H       1.0955286 *  3.4747915    5.1589489    2.7492072 *  4.2009711  
  23 H       1.0973701 *  2.7511604 *  6.4634123    2.9040099 *  4.7430448  
  24 H       1.0979259 *  2.7639771 *  5.1639689    3.5129995    3.9470214  
  25 H       2.7774019 *  1.0972761 *  5.6547139    3.5570537    3.1270772  
  26 H       2.7246043 *  1.0974639 *  6.8411232    2.9423767 *  4.0917882  
  27 H       3.4810743    1.0946813 *  5.9842728    2.8365629 *  2.8287423 *
  28 H       3.7301597    5.2804764    3.1400893    4.0148569    3.9875724  
  29 H       4.8323763    6.5044682    4.5477427    4.6396046    5.3667456  
  30 H       5.8634991    5.0826641    2.7659027 *  5.3552192    2.1861365 *
  31 H       5.7409364    4.9770633    3.4650784    4.5048292    2.1891600 *
  32 H       4.4781288    5.3789235    6.5915926    2.7808154 *  5.3609926  
  33 H       5.1033761    6.5387483    6.2948765    4.1045474    6.0324922  
  34 H       6.3159354    7.2486120    4.1514662    5.3906923    5.2305715  
  35 H       6.0422439    7.1675375    2.9428214 *  5.8049554    5.0125520  
  36 H       5.7242724    5.8149451    3.4855638    4.3575991    3.4025779  
  37 H       6.2902025    6.4925078    1.0986541 *  6.4936321    3.8245655  
  38 H       5.6919776    6.5360343    1.0931965 *  6.0247411    4.1930870  
  39 H       4.6362747    5.1453974    1.0983488 *  5.2671811    3.0050700  

                6 C          7 C          8 C          9 C         10 C     

   1 C       4.2896192    5.1576751    5.5356790    3.6928803    5.2013022  
   2 C       5.6758462    4.5804077    6.5056535    4.8002104    5.3403878  
   3 C       3.6752511    2.5721740 *  3.1448832    4.5032097    1.5088605 *
   4 C       3.9473221    4.4200206    4.9224308    2.6370905 *  4.7246178  
   5 C       4.2936657    1.5712798 *  4.4267264    3.9189187    2.5428841 *
   6 C       0.0000000    4.2770061    1.5616710 *  1.5264457 *  3.2327771  
   7 C       4.2770061    0.0000000    3.8412358    4.2460164    1.5114883 *
   8 C       1.5616710 *  3.8412358    0.0000000    2.6227837 *  2.5525749 *
   9 C       1.5264457 *  4.2460164    2.6227837 *  0.0000000    3.6921592  
  10 C       3.2327771    1.5114883 *  2.5525749 *  3.6921592    0.0000000  
  11 C       2.4915122 *  2.4447257 *  1.5032678 *  2.9620920 *  1.3440334 *
  12 C       3.2224172    2.6537048 *  3.8543813    2.6977791 *  2.8735642 *
  13 C       2.6763892 *  3.3313611    3.4118144    1.5372786 *  3.3383083  
  14 C       4.2035945    4.0763238    5.1727990    3.3366850    4.4544378  
  15 C       2.4721727 *  5.4761059    3.5438560    1.3429937 *  4.9702951  
  16 H       2.8112083 *  2.9309129 *  3.5050111    2.7983987 *  2.6799077 *
  17 H       3.1929368    3.0230003    3.4768390    2.1394591 *  3.2296830  
  18 H       4.1319160    5.4186897    5.3169801    2.7654023 *  5.5470425  
  19 H       4.8213914    4.6170275    5.6060196    3.4490479    5.1931472  
  20 H       5.0280296    2.1680422 *  5.1736504    4.3700669    3.4009185  
  21 H       4.9689681    2.1913811 *  5.1546092    4.7458344    3.0950821  
  22 H       3.4959112    5.2838175    4.8847474    3.0534661    5.0261224  
  23 H       5.1449082    6.1300206    6.4739521    4.3887028    6.2523811  
  24 H       4.7532091    5.2427405    5.8900900    4.4450085    5.2791765  
  25 H       6.0728700    4.6644266    6.8402582    5.4308865    5.4263714  
  26 H       6.3457129    5.6472378    7.3196706    5.3524517    6.3645780  
  27 H       6.0330497    4.2978765    6.6653888    5.0767103    5.3048903  
  28 H       1.0972830 *  4.1285722    2.1607117 *  2.1544587 *  3.0893326  
  29 H       1.0966019 *  5.3644477    2.1766361 *  2.1406147 *  4.2528634  
  30 H       5.2325752    1.0982096 *  4.6995283    5.3128482    2.1800985 *
  31 H       4.5917123    1.0955462 *  4.0285520    4.3574843    2.1341701 *
  32 H       3.4870388    5.8912862    4.4917779    2.1305672 *  5.6342172  
  33 H       2.6789084 *  6.2756897    3.6951553    2.1238693 *  5.5679604  
  34 H       2.1843320 *  4.5748733    1.0961346 *  2.9627492 *  3.4077071  
  35 H       2.1708650 *  4.3308117    1.0965922 *  3.5277569    2.8631995 *
  36 H       3.0150247    2.5692349 *  2.1877043 *  2.9955237 *  2.0740808 *
  37 H       4.7296527    2.8770041 *  4.0134767    5.5412365    2.1462268 *
  38 H       3.3722987    3.5182377    2.7801179 *  4.5150289    2.1801690 *
  39 H       3.8768658    2.8180984 *  3.7752637    4.5650854    2.1713893 *

               11 C         12 C         13 C         14 C         15 C     

   1 C       5.4407215    2.5651125 *  3.1554371    1.5361236 *  4.3410943  
   2 C       5.8261948    2.6792422 *  3.5010576    1.5313397 *  5.5334485  
   3 C       2.5301628 *  3.5031117    4.3239580    4.9713999    5.8151725  
   4 C       4.5733943    2.1997757 *  1.5648883 *  1.5572469 *  3.0512501  
   5 C       3.3132987    1.5429186 *  2.6647242 *  2.6576780 *  5.1029233  
   6 C       2.4915122 *  3.2224172    2.6763892 *  4.2035945    2.4721727 *
   7 C       2.4447257 *  2.6537048 *  3.3313611    4.0763238    5.4761059  
   8 C       1.5032678 *  3.8543813    3.4118144    5.1727990    3.5438560  
   9 C       2.9620920 *  2.6977791 *  1.5372786 *  3.3366850    1.3429937 *
  10 C       1.3440334 *  2.8735642 *  3.3383083    4.4544378    4.9702951  
  11 C       0.0000000    3.2202253    3.0244960    4.7202626    4.0853581  
  12 C       3.2202253    0.0000000    1.5717725 *  1.5815811 *  3.8563223  
  13 C       3.0244960    1.5717725 *  0.0000000    2.2184668 *  2.4886355 *
  14 C       4.7202626    1.5815811 *  2.2184668 *  0.0000000    4.1175861  
  15 C       4.0853581    3.8563223    2.4886355 *  4.1175861    0.0000000  
  16 H       3.1289275    1.0944591 *  2.2407146 *  2.2205206 *  4.0477244  
  17 H       2.7871537 *  2.2162523 *  1.0957265 *  3.0199881    2.9204274 *
  18 H       5.2451324    3.0825676    2.2724695 *  2.2568406 *  2.7368856 *
  19 H       5.0579406    2.8493398 *  2.2271127 *  2.2244238 *  3.7360840  
  20 H       3.9940010    2.1789950 *  2.9200002 *  2.8161744 *  5.3893835  
  21 H       4.1087429    2.1413171 *  3.5605515    2.9407805 *  5.9573303  
  22 H       5.0671131    2.7307882 *  2.9904843 *  2.1907353 *  3.6377275  
  23 H       6.4258519    3.5200386    3.8842418    2.1830133 *  4.7689018  
  24 H       5.7448201    2.9143201 *  3.8983060    2.1828268 *  5.2462755  
  25 H       6.1270901    3.0262750    4.1967684    2.1883507 *  6.3004515  
  26 H       6.7531273    3.5959934    4.1656512    2.1651432 *  5.8750758  
  27 H       5.7903958    2.9406557 *  3.6133661    2.1966400 *  5.8081748  
  28 H       2.8094054 *  2.8854116 *  2.8893826 *  3.8559312    3.2366555  
  29 H       3.4314176    4.2055385    3.5520583    4.9883845    2.5380526 *
  30 H       3.3127858    3.5037406    4.3810246    4.8226072    6.5629090  
  31 H       2.5521978 *  3.1871713    3.4172874    4.5020732    5.4397734  
  32 H       4.8108232    4.1685114    2.7091009 *  4.1220630    1.0867691 *
  33 H       4.5682684    4.7729367    3.4984585    5.0838320    1.0871121 *
  34 H       2.1469297 *  4.6672997    3.9147490    5.8999738    3.5243347  
  35 H       2.1804752 *  4.5071217    4.3306990    5.8529931    4.4394341  
  36 H       1.0896953 *  3.4125294    2.8686183 *  4.7894976    3.9298675  
  37 H       3.2563802    4.3685225    5.2607748    5.8228466    6.8507285  
  38 H       2.7048339 *  4.0949215    4.7003581    5.5130173    5.7435158  
  39 H       3.2409441    3.1099936    4.2394750    4.3905344    5.8922191  

               16 H         17 H         18 H         19 H         20 H     

   1 C       2.5610482 *  4.1722407    2.6649159 *  3.4496372    4.2378373  
   2 C       3.3735259    4.0231961    3.3112934    2.6938359 *  2.7944122 *
   3 C       2.8674783 *  4.4990371    6.3304824    6.2059209    4.3205166  
   4 C       3.0137980    2.2142426 *  1.0942470 *  1.0956044 *  3.2105772  
   5 C       2.1539974 *  2.7049961 *  4.3358453    3.5130668    1.0968004 *
   6 C       2.8112083 *  3.1929368    4.1319160    4.8213914    5.0280296  
   7 C       2.9309129 *  3.0230003    5.4186897    4.6170275    2.1680422 *
   8 C       3.5050111    3.4768390    5.3169801    5.6060196    5.1736504  
   9 C       2.7983987 *  2.1394591 *  2.7654023 *  3.4490479    4.3700669  
  10 C       2.6799077 *  3.2296830    5.5470425    5.1931472    3.4009185  
  11 C       3.1289275    2.7871537 *  5.2451324    5.0579406    3.9940010  
  12 C       1.0944591 *  2.2162523 *  3.0825676    2.8493398 *  2.1789950 *
  13 C       2.2407146 *  1.0957265 *  2.2724695 *  2.2271127 *  2.9200002 *
  14 C       2.2205206 *  3.0199881    2.2568406 *  2.2244238 *  2.8161744 *
  15 C       4.0477244    2.9204274 *  2.7368856 *  3.7360840    5.3893835  
  16 H       0.0000000    2.9935762 *  3.6810445    3.8330092    3.0632074  
  17 H       2.9935762 *  0.0000000    2.9901705 *  2.3883931 *  2.7236812 *
  18 H       3.6810445    2.9901705 *  0.0000000    1.7760670 *  4.3035574  
  19 H       3.8330092    2.3883931 *  1.7760670 *  0.0000000    3.0753620  
  20 H       3.0632074    2.7236812 *  4.3035574    3.0753620    0.0000000  
  21 H       2.4251812 *  3.7623154    4.9677366    4.2353307    1.7486696 *
  22 H       2.4784687 *  4.0830665    2.6411795 *  3.7991415    4.7319126  
  23 H       3.6438618    4.8648537    2.6993695 *  3.6431082    4.9644383  
  24 H       2.6414934 *  4.8740140    3.7469293    4.3349892    4.4736588  
  25 H       3.4635941    4.7482595    4.2487200    3.7474757    3.0993937  
  26 H       4.2474551    4.7342889    3.3342724    2.9299615 *  3.7975813  
  27 H       3.8327951    3.8346076    3.6946649    2.5271182 *  2.2268104 *
  28 H       2.1501759 *  3.5986444    4.2681494    4.9756344    4.8645209  
  29 H       3.7426941    4.0978710    4.5887435    5.5515478    6.0845230  
  30 H       3.6757817    4.0894471    6.3827958    5.4961469    2.6736636 *
  31 H       3.6880411    2.7661623 *  5.5025229    4.5016396    2.3128642 *
  32 H       4.5850891    3.0217682    2.2853916 *  3.2401233    5.4381594  
  33 H       4.7928414    3.9006289    3.6845031    4.8099106    6.3994392  
  34 H       4.4642449    3.8009491    5.6882182    5.9834062    5.8432511  
  35 H       3.9321941    4.4866467    6.1851539    6.5536322    5.8796561  
  36 H       3.6506742    2.2614457 *  5.0542597    4.6396984    3.7969241  
  37 H       3.8275031    5.3114397    7.3077347    7.0230658    4.7750080  
  38 H       3.3069552    4.9588164    6.6319939    6.7569369    5.2346217  
  39 H       2.3370115 *  4.6168921    6.0015281    5.9442152    4.0911390  

               21 H         22 H         23 H         24 H         25 H     

   1 C       3.8962709    1.0955286 *  1.0973701 *  1.0979259 *  2.7774019 *
   2 C       2.9625770 *  3.4747915    2.7511604 *  2.7639771 *  1.0972761 *
   3 C       3.3783202    5.1589489    6.4634123    5.1639689    5.6547139  
   4 C       3.9752496    2.7492072 *  2.9040099 *  3.5129995    3.5570537  
   5 C       1.0976904 *  4.2009711    4.7430448    3.9470214    3.1270772  
   6 C       4.9689681    3.4959112    5.1449082    4.7532091    6.0728700  
   7 C       2.1913811 *  5.2838175    6.1300206    5.2427405    4.6644266  
   8 C       5.1546092    4.8847474    6.4739521    5.8900900    6.8402582  
   9 C       4.7458344    3.0534661    4.3887028    4.4450085    5.4308865  
  10 C       3.0950821    5.0261224    6.2523811    5.2791765    5.4263714  
  11 C       4.1087429    5.0671131    6.4258519    5.7448201    6.1270901  
  12 C       2.1413171 *  2.7307882 *  3.5200386    2.9143201 *  3.0262750  
  13 C       3.5605515    2.9904843 *  3.8842418    3.8983060    4.1967684  
  14 C       2.9407805 *  2.1907353 *  2.1830133 *  2.1828268 *  2.1883507 *
  15 C       5.9573303    3.6377275    4.7689018    5.2462755    6.3004515  
  16 H       2.4251812 *  2.4784687 *  3.6438618    2.6414934 *  3.4635941  
  17 H       3.7623154    4.0830665    4.8648537    4.8740140    4.7482595  
  18 H       4.9677366    2.6411795 *  2.6993695 *  3.7469293    4.2487200  
  19 H       4.2353307    3.7991415    3.6431082    4.3349892    3.7474757  
  20 H       1.7486696 *  4.7319126    4.9644383    4.4736588    3.0993937  
  21 H       0.0000000    4.4030890    4.7864455    3.7040202    2.6788102 *
  22 H       4.4030890    0.0000000    1.7695384 *  1.7731497 *  3.7928413  
  23 H       4.7864455    1.7695384 *  0.0000000    1.7747629 *  3.1204343  
  24 H       3.7040202    1.7731497 *  1.7747629 *  0.0000000    2.5822562 *
  25 H       2.6788102 *  3.7928413    3.1204343    2.5822562 *  0.0000000  
  26 H       4.0519781    3.7358685    2.5103718 *  3.0834629    1.7692603 *
  27 H       2.9146238 *  4.3477887    3.7577177    3.7887578    1.7727178 *
  28 H       4.4475013    2.9649448 *  4.6765938    3.9812666    5.5042853  
  29 H       6.0092797    3.8816986    5.5690222    5.3220587    6.9215187  
  30 H       2.3307659 *  6.0845675    6.8363277    5.7821437    4.9692600  
  31 H       3.0139604    5.8507153    6.6368848    5.9887431    5.2432740  
  32 H       6.2394706    3.9569633    4.7082331    5.4945570    6.2749391  
  33 H       6.8600876    4.2534633    5.5015925    5.9541070    7.2602173  
  34 H       6.0588896    5.6207308    7.1767599    6.7858737    7.6906056  
  35 H       5.5749739    5.3496578    7.0213403    6.2363862    7.3671261  
  36 H       4.3675577    5.4259116    6.6214670    6.1737503    6.2653532  
  37 H       3.7609757    6.1732859    7.3815873    5.9975969    6.2216945  
  38 H       4.3451851    5.2852826    6.7766162    5.5140271    6.4115664  
  39 H       2.8169691 *  4.5438932    5.7241365    4.2737177    4.8435332  

               26 H         27 H         28 H         29 H         30 H     

   1 C       2.7246043 *  3.4810743    3.7301597    4.8323763    5.8634991  
   2 C       1.0974639 *  1.0946813 *  5.2804764    6.5044682    5.0826641  
   3 C       6.8411232    5.9842728    3.1400893    4.5477427    2.7659027 *
   4 C       2.9423767 *  2.8365629 *  4.0148569    4.6396046    5.3552192  
   5 C       4.0917882    2.8287423 *  3.9875724    5.3667456    2.1861365 *
   6 C       6.3457129    6.0330497    1.0972830 *  1.0966019 *  5.2325752  
   7 C       5.6472378    4.2978765    4.1285722    5.3644477    1.0982096 *
   8 C       7.3196706    6.6653888    2.1607117 *  2.1766361 *  4.6995283  
   9 C       5.3524517    5.0767103    2.1544587 *  2.1406147 *  5.3128482  
  10 C       6.3645780    5.3048903    3.0893326    4.2528634    2.1800985 *
  11 C       6.7531273    5.7903958    2.8094054 *  3.4314176    3.3127858  
  12 C       3.5959934    2.9406557 *  2.8854116 *  4.2055385    3.5037406  
  13 C       4.1656512    3.6133661    2.8893826 *  3.5520583    4.3810246  
  14 C       2.1651432 *  2.1966400 *  3.8559312    4.9883845    4.8226072  
  15 C       5.8750758    5.8081748    3.2366555    2.5380526 *  6.5629090  
  16 H       4.2474551    3.8327951    2.1501759 *  3.7426941    3.6757817  
  17 H       4.7342889    3.8346076    3.5986444    4.0978710    4.0894471  
  18 H       3.3342724    3.6946649    4.2681494    4.5887435    6.3827958  
  19 H       2.9299615 *  2.5271182 *  4.9756344    5.5515478    5.4961469  
  20 H       3.7975813    2.2268104 *  4.8645209    6.0845230    2.6736636 *
  21 H       4.0519781    2.9146238 *  4.4475013    6.0092797    2.3307659 *
  22 H       3.7358685    4.3477887    2.9649448 *  3.8816986    6.0845675  
  23 H       2.5103718 *  3.7577177    4.6765938    5.5690222    6.8363277  
  24 H       3.0834629    3.7887578    3.9812666    5.3220587    5.7821437  
  25 H       1.7692603 *  1.7727178 *  5.5042853    6.9215187    4.9692600  
  26 H       0.0000000    1.7656439 *  5.9840678    7.0687120    6.1733344  
  27 H       1.7656439 *  0.0000000    5.7653600    6.9390111    4.7481614  
  28 H       5.9840678    5.7653600    0.0000000    1.7576755 *  4.9710150  
  29 H       7.0687120    6.9390111    1.7576755 *  0.0000000    6.3052396  
  30 H       6.1733344    4.7481614    4.9710150    6.3052396    0.0000000  
  31 H       5.9837694    4.5089020    4.6896337    5.6532421    1.7596843 *
  32 H       5.5720274    5.5750596    4.1697479    3.6201000    6.9794100  
  33 H       6.8550807    6.8677209    3.5269858    2.2894897 *  7.3493372  
  34 H       8.0099187    7.3381590    3.0566805    2.4461863 *  5.4559333  
  35 H       8.0092289    7.4000178    2.4012795 *  2.5162724 *  5.0190763  
  36 H       6.6981915    5.6169934    3.5470780    3.9162812    3.5109360  
  37 H       7.5500276    6.5596498    4.2310466    5.5826513    2.6538376 *
  38 H       7.4962093    6.7990711    2.8443793 *  4.0456172    3.8152692  
  39 H       6.1378877    5.4417327    3.0989826    4.7460654    2.9725797 *

               31 H         32 H         33 H         34 H         35 H     

   1 C       5.7409364    4.4781288    5.1033761    6.3159354    6.0422439  
   2 C       4.9770633    5.3789235    6.5387483    7.2486120    7.1675375  
   3 C       3.4650784    6.5915926    6.2948765    4.1514662    2.9428214 *
   4 C       4.5048292    2.7808154 *  4.1045474    5.3906923    5.8049554  
   5 C       2.1891600 *  5.3609926    6.0324922    5.2305715    5.0125520  
   6 C       4.5917123    3.4870388    2.6789084 *  2.1843320 *  2.1708650 *
   7 C       1.0955462 *  5.8912862    6.2756897    4.5748733    4.3308117  
   8 C       4.0285520    4.4917779    3.6951553    1.0961346 *  1.0965922 *
   9 C       4.3574843    2.1305672 *  2.1238693 *  2.9627492 *  3.5277569  
  10 C       2.1341701 *  5.6342172    5.5679604    3.4077071    2.8631995 *
  11 C       2.5521978 *  4.8108232    4.5682684    2.1469297 *  2.1804752 *
  12 C       3.1871713    4.1685114    4.7729367    4.6672997    4.5071217  
  13 C       3.4172874    2.7091009 *  3.4984585    3.9147490    4.3306990  
  14 C       4.5020732    4.1220630    5.0838320    5.8999738    5.8529931  
  15 C       5.4397734    1.0867691 *  1.0871121 *  3.5243347    4.4394341  
  16 H       3.6880411    4.5850891    4.7928414    4.4642449    3.9321941  
  17 H       2.7661623 *  3.0217682    3.9006289    3.8009491    4.4866467  
  18 H       5.5025229    2.2853916 *  3.6845031    5.6882182    6.1851539  
  19 H       4.5016396    3.2401233    4.8099106    5.9834062    6.5536322  
  20 H       2.3128642 *  5.4381594    6.3994392    5.8432511    5.8796561  
  21 H       3.0139604    6.2394706    6.8600876    6.0588896    5.5749739  
  22 H       5.8507153    3.9569633    4.2534633    5.6207308    5.3496578  
  23 H       6.6368848    4.7082331    5.5015925    7.1767599    7.0213403  
  24 H       5.9887431    5.4945570    5.9541070    6.7858737    6.2363862  
  25 H       5.2432740    6.2749391    7.2602173    7.6906056    7.3671261  
  26 H       5.9837694    5.5720274    6.8550807    8.0099187    8.0092289  
  27 H       4.5089020    5.5750596    6.8677209    7.3381590    7.4000178  
  28 H       4.6896337    4.1697479    3.5269858    3.0566805    2.4012795 *
  29 H       5.6532421    3.6201000    2.2894897 *  2.4461863 *  2.5162724 *
  30 H       1.7596843 *  6.9794100    7.3493372    5.4559333    5.0190763  
  31 H       0.0000000    5.7435057    6.2568811    4.5302565    4.6781991  
  32 H       5.7435057    0.0000000    1.8468294 *  4.4316035    5.4473414  
  33 H       6.2568811    1.8468294 *  0.0000000    3.4876517    4.4494241  
  34 H       4.5302565    4.4316035    3.4876517    0.0000000    1.7630728 *
  35 H       4.6781991    5.4473414    4.4494241    1.7630728 *  0.0000000  
  36 H       2.2147544 *  4.4700491    4.5064100    2.3949502 *  3.0704088  
  37 H       3.7296222    7.6020614    7.3353050    4.9273761    3.7149658  
  38 H       4.2963080    6.6416360    6.0411259    3.7670684    2.2361532 *
  39 H       3.8577193    6.6103100    6.4413665    4.8488683    3.6449083  

               36 H         37 H         38 H         39 H     

   1 C       5.7242724    6.2902025    5.6919776    4.6362747  
   2 C       5.8149451    6.4925078    6.5360343    5.1453974  
   3 C       3.4855638    1.0986541 *  1.0931965 *  1.0983488 *
   4 C       4.3575991    6.4936321    6.0247411    5.2671811  
   5 C       3.4025779    3.8245655    4.1930870    3.0050700  
   6 C       3.0150247    4.7296527    3.3722987    3.8768658  
   7 C       2.5692349 *  2.8770041 *  3.5182377    2.8180984 *
   8 C       2.1877043 *  4.0134767    2.7801179 *  3.7752637  
   9 C       2.9955237 *  5.5412365    4.5150289    4.5650854  
  10 C       2.0740808 *  2.1462268 *  2.1801690 *  2.1713893 *
  11 C       1.0896953 *  3.2563802    2.7048339 *  3.2409441  
  12 C       3.4125294    4.3685225    4.0949215    3.1099936  
  13 C       2.8686183 *  5.2607748    4.7003581    4.2394750  
  14 C       4.7894976    5.8228466    5.5130173    4.3905344  
  15 C       3.9298675    6.8507285    5.7435158    5.8922191  
  16 H       3.6506742    3.8275031    3.3069552    2.3370115 *
  17 H       2.2614457 *  5.3114397    4.9588164    4.6168921  
  18 H       5.0542597    7.3077347    6.6319939    6.0015281  
  19 H       4.6396984    7.0230658    6.7569369    5.9442152  
  20 H       3.7969241    4.7750080    5.2346217    4.0911390  
  21 H       4.3675577    3.7609757    4.3451851    2.8169691 *
  22 H       5.4259116    6.1732859    5.2852826    4.5438932  
  23 H       6.6214670    7.3815873    6.7766162    5.7241365  
  24 H       6.1737503    5.9975969    5.5140271    4.2737177  
  25 H       6.2653532    6.2216945    6.4115664    4.8435332  
  26 H       6.6981915    7.5500276    7.4962093    6.1378877  
  27 H       5.6169934    6.5596498    6.7990711    5.4417327  
  28 H       3.5470780    4.2310466    2.8443793 *  3.0989826  
  29 H       3.9162812    5.5826513    4.0456172    4.7460654  
  30 H       3.5109360    2.6538376 *  3.8152692    2.9725797 *
  31 H       2.2147544 *  3.7296222    4.2963080    3.8577193  
  32 H       4.4700491    7.6020614    6.6416360    6.6103100  
  33 H       4.5064100    7.3353050    6.0411259    6.4413665  
  34 H       2.3949502 *  4.9273761    3.7670684    4.8488683  
  35 H       3.0704088    3.7149658    2.2361532 *  3.6449083  
  36 H       0.0000000    4.1119502    3.7802198    4.1286142  
  37 H       4.1119502    0.0000000    1.7701969 *  1.7583354 *
  38 H       3.7802198    1.7701969 *  0.0000000    1.7733459 *
  39 H       4.1286142    1.7583354 *  1.7733459 *  0.0000000  

  * ... LESS THAN  3.000


     ATOMIC BASIS SET
     ----------------
 THE CONTRACTED PRIMITIVE FUNCTIONS HAVE BEEN UNNORMALIZED
 THE CONTRACTED BASIS FUNCTIONS ARE NOW NORMALIZED TO UNITY

  SHELL TYPE  PRIMITIVE        EXPONENT          CONTRACTION COEFFICIENT(S)

 C         

      1   S       1           172.2560000    0.061766907377
      1   S       2            25.9109000    0.358794042852
      1   S       3             5.5333500    0.700713083689

      2   L       4             3.6649800   -0.395895162119    0.236459946619
      2   L       5             0.7705450    1.215834355681    0.860618805716

      3   L       6             0.1958570    1.000000000000    1.000000000000

 C         

      4   S       7           172.2560000    0.061766907377
      4   S       8            25.9109000    0.358794042852
      4   S       9             5.5333500    0.700713083689

      5   L      10             3.6649800   -0.395895162119    0.236459946619
      5   L      11             0.7705450    1.215834355681    0.860618805716

      6   L      12             0.1958570    1.000000000000    1.000000000000

 C         

      7   S      13           172.2560000    0.061766907377
      7   S      14            25.9109000    0.358794042852
      7   S      15             5.5333500    0.700713083689

      8   L      16             3.6649800   -0.395895162119    0.236459946619
      8   L      17             0.7705450    1.215834355681    0.860618805716

      9   L      18             0.1958570    1.000000000000    1.000000000000

 C         

     10   S      19           172.2560000    0.061766907377
     10   S      20            25.9109000    0.358794042852
     10   S      21             5.5333500    0.700713083689

     11   L      22             3.6649800   -0.395895162119    0.236459946619
     11   L      23             0.7705450    1.215834355681    0.860618805716

     12   L      24             0.1958570    1.000000000000    1.000000000000

 C         

     13   S      25           172.2560000    0.061766907377
     13   S      26            25.9109000    0.358794042852
     13   S      27             5.5333500    0.700713083689

     14   L      28             3.6649800   -0.395895162119    0.236459946619
     14   L      29             0.7705450    1.215834355681    0.860618805716

     15   L      30             0.1958570    1.000000000000    1.000000000000

 C         

     16   S      31           172.2560000    0.061766907377
     16   S      32            25.9109000    0.358794042852
     16   S      33             5.5333500    0.700713083689

     17   L      34             3.6649800   -0.395895162119    0.236459946619
     17   L      35             0.7705450    1.215834355681    0.860618805716

     18   L      36             0.1958570    1.000000000000    1.000000000000

 C         

     19   S      37           172.2560000    0.061766907377
     19   S      38            25.9109000    0.358794042852
     19   S      39             5.5333500    0.700713083689

     20   L      40             3.6649800   -0.395895162119    0.236459946619
     20   L      41             0.7705450    1.215834355681    0.860618805716

     21   L      42             0.1958570    1.000000000000    1.000000000000

 C         

     22   S      43           172.2560000    0.061766907377
     22   S      44            25.9109000    0.358794042852
     22   S      45             5.5333500    0.700713083689

     23   L      46             3.6649800   -0.395895162119    0.236459946619
     23   L      47             0.7705450    1.215834355681    0.860618805716

     24   L      48             0.1958570    1.000000000000    1.000000000000

 C         

     25   S      49           172.2560000    0.061766907377
     25   S      50            25.9109000    0.358794042852
     25   S      51             5.5333500    0.700713083689

     26   L      52             3.6649800   -0.395895162119    0.236459946619
     26   L      53             0.7705450    1.215834355681    0.860618805716

     27   L      54             0.1958570    1.000000000000    1.000000000000

 C         

     28   S      55           172.2560000    0.061766907377
     28   S      56            25.9109000    0.358794042852
     28   S      57             5.5333500    0.700713083689

     29   L      58             3.6649800   -0.395895162119    0.236459946619
     29   L      59             0.7705450    1.215834355681    0.860618805716

     30   L      60             0.1958570    1.000000000000    1.000000000000

 C         

     31   S      61           172.2560000    0.061766907377
     31   S      62            25.9109000    0.358794042852
     31   S      63             5.5333500    0.700713083689

     32   L      64             3.6649800   -0.395895162119    0.236459946619
     32   L      65             0.7705450    1.215834355681    0.860618805716

     33   L      66             0.1958570    1.000000000000    1.000000000000

 C         

     34   S      67           172.2560000    0.061766907377
     34   S      68            25.9109000    0.358794042852
     34   S      69             5.5333500    0.700713083689

     35   L      70             3.6649800   -0.395895162119    0.236459946619
     35   L      71             0.7705450    1.215834355681    0.860618805716

     36   L      72             0.1958570    1.000000000000    1.000000000000

 C         

     37   S      73           172.2560000    0.061766907377
     37   S      74            25.9109000    0.358794042852
     37   S      75             5.5333500    0.700713083689

     38   L      76             3.6649800   -0.395895162119    0.236459946619
     38   L      77             0.7705450    1.215834355681    0.860618805716

     39   L      78             0.1958570    1.000000000000    1.000000000000

 C         

     40   S      79           172.2560000    0.061766907377
     40   S      80            25.9109000    0.358794042852
     40   S      81             5.5333500    0.700713083689

     41   L      82             3.6649800   -0.395895162119    0.236459946619
     41   L      83             0.7705450    1.215834355681    0.860618805716

     42   L      84             0.1958570    1.000000000000    1.000000000000

 C         

     43   S      85           172.2560000    0.061766907377
     43   S      86            25.9109000    0.358794042852
     43   S      87             5.5333500    0.700713083689

     44   L      88             3.6649800   -0.395895162119    0.236459946619
     44   L      89             0.7705450    1.215834355681    0.860618805716

     45   L      90             0.1958570    1.000000000000    1.000000000000

 H         

     46   S      91             5.4471780    0.156284978695
     46   S      92             0.8245472    0.904690876670

     47   S      93             0.1831916    1.000000000000

 H         

     48   S      94             5.4471780    0.156284978695
     48   S      95             0.8245472    0.904690876670

     49   S      96             0.1831916    1.000000000000

 H         

     50   S      97             5.4471780    0.156284978695
     50   S      98             0.8245472    0.904690876670

     51   S      99             0.1831916    1.000000000000

 H         

     52   S     100             5.4471780    0.156284978695
     52   S     101             0.8245472    0.904690876670

     53   S     102             0.1831916    1.000000000000

 H         

     54   S     103             5.4471780    0.156284978695
     54   S     104             0.8245472    0.904690876670

     55   S     105             0.1831916    1.000000000000

 H         

     56   S     106             5.4471780    0.156284978695
     56   S     107             0.8245472    0.904690876670

     57   S     108             0.1831916    1.000000000000

 H         

     58   S     109             5.4471780    0.156284978695
     58   S     110             0.8245472    0.904690876670

     59   S     111             0.1831916    1.000000000000

 H         

     60   S     112             5.4471780    0.156284978695
     60   S     113             0.8245472    0.904690876670

     61   S     114             0.1831916    1.000000000000

 H         

     62   S     115             5.4471780    0.156284978695
     62   S     116             0.8245472    0.904690876670

     63   S     117             0.1831916    1.000000000000

 H         

     64   S     118             5.4471780    0.156284978695
     64   S     119             0.8245472    0.904690876670

     65   S     120             0.1831916    1.000000000000

 H         

     66   S     121             5.4471780    0.156284978695
     66   S     122             0.8245472    0.904690876670

     67   S     123             0.1831916    1.000000000000

 H         

     68   S     124             5.4471780    0.156284978695
     68   S     125             0.8245472    0.904690876670

     69   S     126             0.1831916    1.000000000000

 H         

     70   S     127             5.4471780    0.156284978695
     70   S     128             0.8245472    0.904690876670

     71   S     129             0.1831916    1.000000000000

 H         

     72   S     130             5.4471780    0.156284978695
     72   S     131             0.8245472    0.904690876670

     73   S     132             0.1831916    1.000000000000

 H         

     74   S     133             5.4471780    0.156284978695
     74   S     134             0.8245472    0.904690876670

     75   S     135             0.1831916    1.000000000000

 H         

     76   S     136             5.4471780    0.156284978695
     76   S     137             0.8245472    0.904690876670

     77   S     138             0.1831916    1.000000000000

 H         

     78   S     139             5.4471780    0.156284978695
     78   S     140             0.8245472    0.904690876670

     79   S     141             0.1831916    1.000000000000

 H         

     80   S     142             5.4471780    0.156284978695
     80   S     143             0.8245472    0.904690876670

     81   S     144             0.1831916    1.000000000000

 H         

     82   S     145             5.4471780    0.156284978695
     82   S     146             0.8245472    0.904690876670

     83   S     147             0.1831916    1.000000000000

 H         

     84   S     148             5.4471780    0.156284978695
     84   S     149             0.8245472    0.904690876670

     85   S     150             0.1831916    1.000000000000

 H         

     86   S     151             5.4471780    0.156284978695
     86   S     152             0.8245472    0.904690876670

     87   S     153             0.1831916    1.000000000000

 H         

     88   S     154             5.4471780    0.156284978695
     88   S     155             0.8245472    0.904690876670

     89   S     156             0.1831916    1.000000000000

 H         

     90   S     157             5.4471780    0.156284978695
     90   S     158             0.8245472    0.904690876670

     91   S     159             0.1831916    1.000000000000

 H         

     92   S     160             5.4471780    0.156284978695
     92   S     161             0.8245472    0.904690876670

     93   S     162             0.1831916    1.000000000000

 TOTAL NUMBER OF BASIS SET SHELLS             =   93
 NUMBER OF CARTESIAN GAUSSIAN BASIS FUNCTIONS =  183
 NUMBER OF ELECTRONS                          =  115
 CHARGE OF MOLECULE                           =   -1
 SPIN MULTIPLICITY                            =    2
 NUMBER OF OCCUPIED ORBITALS (ALPHA)          =   58
 NUMBER OF OCCUPIED ORBITALS (BETA )          =   57
 TOTAL NUMBER OF ATOMS                        =   39
 THE NUCLEAR REPULSION ENERGY IS     1074.1997639685

     $CONTRL OPTIONS
     ---------------
 SCFTYP=UHF          RUNTYP=ENERGY       EXETYP=RUN     
 MPLEVL=       0     CITYP =NONE         CCTYP =NONE         VBTYP =NONE    
 DFTTYP=NONE         TDDFT =NONE    
 MULT  =       2     ICHARG=      -1     NZVAR =       0     COORD =UNIQUE  
 PP    =NONE         RELWFN=NONE         LOCAL =NONE         NUMGRD=       F
 ISPHER=      -1     NOSYM =       0     MAXIT =      60     UNITS =ANGS    
 PLTORB=       F     MOLPLT=       F     AIMPAC=       F     FRIEND=        
 NPRINT=       7     IREST =       0     GEOM  =INPUT   
 NORMF =       0     NORMP =       0     ITOL  =      20     ICUT  =       9
 INTTYP=BEST         GRDTYP=BEST         QMTTOL= 1.0E-06

     $SYSTEM OPTIONS
     ---------------
  REPLICATED MEMORY=    30000000 WORDS (ON EVERY NODE).
 DISTRIBUTED MEMDDI=        1000 MILLION WORDS IN AGGREGATE,
 MEMDDI DISTRIBUTED OVER   6 PROCESSORS IS   166666666 WORDS/PROCESSOR.
 TOTAL MEMORY REQUESTED ON EACH PROCESSOR=   196666666 WORDS.
 TIMLIM=      525600.00 MINUTES, OR     365.0 DAYS.
 PARALL= T  BALTYP=  DLB     KDIAG=    0  COREFL= F
 MXSEQ2=     300 MXSEQ3=     150  mem10=         0

          ----------------
          PROPERTIES INPUT
          ----------------

     MOMENTS            FIELD           POTENTIAL          DENSITY
 IEMOM =       1   IEFLD =       0   IEPOT =       0   IEDEN =       0
 WHERE =COMASS     WHERE =NUCLEI     WHERE =NUCLEI     WHERE =NUCLEI  
 OUTPUT=BOTH       OUTPUT=BOTH       OUTPUT=BOTH       OUTPUT=BOTH    
 IEMINT=       0   IEFINT=       0                     IEDINT=       0
                                                       MORB  =       0
          EXTRAPOLATION IN EFFECT
          SOSCF IN EFFECT
          DIIS or SOSCF will be reset if energy rises
 ORBITAL PRINTING OPTION: NPREO=     1   183     2     1

     -------------------------------
     INTEGRAL TRANSFORMATION OPTIONS
     -------------------------------
     NWORD  =            0
     CUTOFF = 1.0E-09     MPTRAN =       0
     DIRTRF =       T     AOINTS =DUP     

          ----------------------
          INTEGRAL INPUT OPTIONS
          ----------------------
 NOPK  =       1 NORDER=       0 SCHWRZ=       T

     ------------------------------------------
     THE POINT GROUP IS C1 , NAXIS= 0, ORDER= 1
     ------------------------------------------

     DIMENSIONS OF THE SYMMETRY SUBSPACES ARE
 A   =  183

 ..... DONE SETTING UP THE RUN .....
 CPU     0: STEP CPU TIME=     0.03 TOTAL CPU TIME=          0.0 (      0.0 MIN)
 TOTAL WALL CLOCK TIME=          0.0 SECONDS, CPU UTILIZATION IS    60.00%

          ********************
          1 ELECTRON INTEGRALS
          ********************
 ...... END OF ONE-ELECTRON INTEGRALS ......
 CPU     0: STEP CPU TIME=     0.02 TOTAL CPU TIME=          0.0 (      0.0 MIN)
 TOTAL WALL CLOCK TIME=          0.1 SECONDS, CPU UTILIZATION IS    71.43%

          -------------
          GUESS OPTIONS
          -------------
          GUESS =HUCKEL            NORB  =       0          NORDER=       0
          MIX   =       F          PRTMO =       F          PUNMO =       F
          TOLZ  = 1.0E-08          TOLE  = 1.0E-05
          SYMDEN=       F          PURIFY=       F

 INITIAL GUESS ORBITALS GENERATED BY HUCKEL   ROUTINE.
 HUCKEL GUESS REQUIRES    310380 WORDS.

 SYMMETRIES FOR INITIAL GUESS ORBITALS FOLLOW.  ALPHA SET(S).
    58 ORBITALS ARE OCCUPIED (   15 CORE ORBITALS).
    16=A       17=A       18=A       19=A       20=A       21=A       22=A   
    23=A       24=A       25=A       26=A       27=A       28=A       29=A   
    30=A       31=A       32=A       33=A       34=A       35=A       36=A   
    37=A       38=A       39=A       40=A       41=A       42=A       43=A   
    44=A       45=A       46=A       47=A       48=A       49=A       50=A   
    51=A       52=A       53=A       54=A       55=A       56=A       57=A   
    58=A       59=A       60=A       61=A       62=A       63=A       64=A   
    65=A       66=A       67=A       68=A   

 SYMMETRIES FOR INITIAL GUESS ORBITALS FOLLOW.   BETA SET(S).
    57 ORBITALS ARE OCCUPIED (   15 CORE ORBITALS).
    16=A       17=A       18=A       19=A       20=A       21=A       22=A   
    23=A       24=A       25=A       26=A       27=A       28=A       29=A   
    30=A       31=A       32=A       33=A       34=A       35=A       36=A   
    37=A       38=A       39=A       40=A       41=A       42=A       43=A   
    44=A       45=A       46=A       47=A       48=A       49=A       50=A   
    51=A       52=A       53=A       54=A       55=A       56=A       57=A   
    58=A       59=A       60=A       61=A       62=A       63=A       64=A   
    65=A       66=A       67=A   
 ...... END OF INITIAL ORBITAL SELECTION ......
 CPU     0: STEP CPU TIME=     0.08 TOTAL CPU TIME=          0.1 (      0.0 MIN)
 TOTAL WALL CLOCK TIME=          0.2 SECONDS, CPU UTILIZATION IS    65.00%

                    ----------------------
                    AO INTEGRAL TECHNOLOGY
                    ----------------------
     S,P,L SHELL ROTATED AXIS INTEGRALS, REPROGRAMMED BY
        KAZUYA ISHIMURA (IMS) AND JOSE SIERRA (SYNSTAR).
     S,P,D,L SHELL ROTATED AXIS INTEGRALS PROGRAMMED BY
        KAZUYA ISHIMURA (INSTITUTE FOR MOLECULAR SCIENCE).
     S,P,D,F,G SHELL TO TOTAL QUARTET ANGULAR MOMENTUM SUM 5,
        ERIC PROGRAM BY GRAHAM FLETCHER (ELORET AND NASA ADVANCED
        SUPERCOMPUTING DIVISION, AMES RESEARCH CENTER).
     S,P,D,F,G,L SHELL GENERAL RYS QUADRATURE PROGRAMMED BY
        MICHEL DUPUIS (PACIFIC NORTHWEST NATIONAL LABORATORY).

          --------------------
          2 ELECTRON INTEGRALS
          --------------------

 DIRECT SCF METHOD SKIPS INTEGRAL STORAGE ON DISK.
 DIRECT TRANSFORMATION SKIPS AO INTEGRAL STORAGE ON DISK.
  ...... END OF TWO-ELECTRON INTEGRALS .....
 CPU     0: STEP CPU TIME=     0.01 TOTAL CPU TIME=          0.1 (      0.0 MIN)
 TOTAL WALL CLOCK TIME=          0.2 SECONDS, CPU UTILIZATION IS    63.64%

          ---------------------------
                  UHF SCF CALCULATION
          ---------------------------

     NUCLEAR ENERGY =      1074.1997639685
     MAXIT = 60     NPUNCH=  2     MULT=  2
     EXTRAP=T  DAMP=F  SHIFT=F  RSTRCT=F  DIIS=F  SOSCF=T
     DENSITY MATRIX CONV=  2.00E-05
     SOSCF WILL OPTIMIZE    7250 ALPHA AND    7182 BETA ROTATION ANGLES.
     SOGTOL= 2.500E-01
     MEMORY REQUIRED FOR UHF/ROHF ITERS=    491940 WORDS.

 DIRECT SCF CALCULATION, SCHWRZ=T   FDIFF=T
 SCHWARZ INEQUALITY OVERHEAD:     15608 INTEGRALS, T=        0.00

                                                                                NONZERO     BLOCKS
 ITER EX      TOTAL ENERGY        E CHANGE  DENSITY CHANGE    ORB. GRAD       INTEGRALS    SKIPPED
   1  0     -577.3780628034  -577.3780628034   0.788205822   0.000000000       76386599    5800903
          ---------------START SECOND ORDER SCF---------------
   2  1     -578.4772950544    -1.0992322510   0.154656813   0.037414491       76011686    5889272
   3  2     -578.5415949610    -0.0642999066   0.110208315   0.017760905       74714637    6075761
   4  3     -578.5597062368    -0.0181112758   0.029984356   0.011398545       72717860    6274845
   5  4     -578.5612156828    -0.0015094460   0.010561589   0.001793380       70150876    6491471
   6  5     -578.5614719396    -0.0002562568   0.007210069   0.000872057       67603412    6664670
   7  6     -578.5615374566    -0.0000655170   0.002678956   0.000439253       64718217    6842499
   8  7     -578.5615521459    -0.0000146893   0.002311024   0.000237784       60151493    7096090
   9  8     -578.5615582691    -0.0000061231   0.001191624   0.000202422       59286834    7153043
  10  9     -578.5615599012    -0.0000016321   0.000858001   0.000145338       57534381    7263005
  11 10     -578.5615606128    -0.0000007116   0.000953463   0.000146870       55557215    7365024
  12 11     -578.5615614113    -0.0000007984   0.002298499   0.000162053       55347646    7368315
  13 12     -578.5615631127    -0.0000017014   0.007652654   0.000181474       57419992    7253712
  14 13     -578.5615685438    -0.0000054311   0.046612608   0.000260596       61222285    7043031
  15 14     -578.5615820570    -0.0000135133   0.013089513   0.000808656       67541187    6657619
  16 15     -578.5616053418    -0.0000232848   0.015620237   0.000569113       63655501    6900797
 *** RESETTTING SOSCF, UPON ENCOUNTERING A HUGE TOTAL ROTATION=   4.045E+01
  17 16     -578.5616877298    -0.0000823880  19.928105456   0.000565692       62504938    6979661
  18 17     -539.1451826382    39.4165050916  19.367090433   0.732292039       77473652    5362207
          ---------------START SECOND ORDER SCF---------------
  19 18     -573.5955921830   -34.4504095448   2.342040132   0.162255402       77458433    5383661
  20 19     -575.2309477945    -1.6353556114   2.903587649   0.198418180       77148788    5597075
  21 20     -577.6901449398    -2.4591971453   2.182615956   0.146754549       76937282    5665979
  22 21     -576.7847335906     0.9054113492   1.685553585   0.246757076       76910055    5676384
  23 22     -577.6112707503    -0.8265371597   1.805515018   0.203209012       76750311    5710533
  24 23     -576.9656422468     0.6456285035   1.442066372   0.176817448       76928339    5668041
  25 24     -578.0336364892    -1.0679942424   1.294272868   0.142973359       76738163    5719734
  26 25     -577.5096322438     0.5240042454   1.211521169   0.264442622       76751107    5721777
  27 26     -578.0778338780    -0.5682016342   1.458400501   0.250355547       76427539    5777248
  28 27     -577.1352871701     0.9425467079   1.339751413   0.174008552       76834911    5700607
  29 28     -578.2481946544    -1.1129074843   1.437317961   0.164122070       76671044    5738757
  30 29     -576.9941711265     1.2540235278   1.496431377   0.319209954       76752381    5723843
  31 30     -578.2956856464    -1.3015145199   1.126666146   0.148603528       76551738    5760941
  32 31     -577.3765692009     0.9191164455   1.150978380   0.188626399       76757672    5720751
  33 32     -578.3746359270    -0.9980667261   0.821153979   0.084433552       76597179    5755603
  34 33     -577.4198712235     0.9547647034   0.972298712   0.291840088       76586567    5763579
  35 34     -578.2697227640    -0.8498515405   1.997286148   0.127202219       76424384    5791395
  36 35     -576.7853296674     1.4843930967   2.050361037   0.259338348       76815759    5702616
  37 36     -578.3282264655    -1.5428967981   1.882318495   0.088882211       76670641    5740033
  38 37     -576.8142629097     1.5139635558   1.774766131   0.396599681       76676010    5738983
  39 38     -578.2463631599    -1.4321002502   2.406065941   0.139556391       76523581    5768415
  40 39     -576.8105676515     1.4357955083   2.037119419   0.184704168       76813769    5696385
  41 40     -578.3211847012    -1.5106170497   1.308753400   0.106022247       76674361    5737230
  42 41     -577.0951529455     1.2260317557   1.342239447   0.303524374       76651037    5753094
  43 42     -578.3953594316    -1.3002064861   0.804087088   0.101388975       76571057    5774042
  44 43     -577.6278741734     0.7674852582   0.699913362   0.185539726       76545099    5775077
  45 44     -578.4707554774    -0.8428813040   0.849648248   0.078961533       76439062    5804735
  46 45     -577.5330296744     0.9377258030   0.857901951   0.249828834       76479888    5789228
  47 46     -578.4388381800    -0.9058085056   1.018595924   0.107003658       76324844    5819796
  48 47     -577.5177390726     0.9210991075   1.104553684   0.196587771       76531735    5779829
  49 48     -578.4944929525    -0.9767538800   0.971798950   0.067237533       76396862    5813020
  50 49     -577.9115304614     0.5829624912   1.010268176   0.206047554       76188105    5848112
  51 50     -578.4955413842    -0.5840109229   0.596064002   0.098304142       76072930    5865011
  52 51     -577.8509612339     0.6445801503   0.543302608   0.206129030       76460811    5804380
  53 52     -578.5129732224    -0.6620119885   0.574562392   0.057151657       76300599    5841101
  54 53     -577.9779680014     0.5350052210   0.558303059   0.234537734       76207405    5852706
  55 54     -578.5218250375    -0.5438570361   0.484052900   0.079091099       76005140    5890699
  56 55     -578.0995161816     0.4223088559   0.451004801   0.198889838       76059720    5885420
  57 56     -578.5364587350    -0.4369425534   0.421000722   0.056249811       75863707    5923083
  58 57     -578.2320211849     0.3044375501   0.369569007   0.202581665       75768625    5931159
  59 58     -578.5502763722    -0.3182551873   0.263631064   0.028721040       75598391    5962262
  60 59     -578.3970017790     0.1532745932   0.208719463   0.120186304       75510991    5985149

 SCF IS UNCONVERGED, TOO MANY ITERATIONS
     TIME TO FORM FOCK OPERATORS=      97.2 SECONDS (       1.6 SEC/ITER)
     FOCK TIME ON FIRST ITERATION=       1.5, LAST ITERATION=       1.6
     TIME TO SOLVE SCF EQUATIONS=       1.4 SECONDS (       0.0 SEC/ITER)

 FINAL UHF ENERGY IS        0.0000000000 AFTER  60 ITERATIONS

          --------------------
          SPIN SZ   =    0.500
          S-SQUARED =    0.841
          --------------------

  ----- ALPHA SET ----- 

          ------------
          EIGENVECTORS
          ------------

                      1          2          3          4          5
                  -11.0605   -11.0451   -11.0434   -11.0400   -11.0397
                     A          A          A          A          A   
    1  C  1  S   -0.001340  -0.006148   0.023452   0.821500  -0.232049
    2  C  1  S   -0.000448  -0.003135   0.003109   0.086217  -0.023475
    3  C  1  X   -0.000034   0.000165   0.000241  -0.000260   0.000146
    4  C  1  Y    0.000041   0.000676  -0.000184   0.000476  -0.000181
    5  C  1  Z    0.000072   0.001147   0.000066   0.000468  -0.000079
    6  C  1  S    0.001717   0.025584  -0.003968  -0.070247   0.016515
    7  C  1  X    0.000658   0.004776  -0.000882   0.000036  -0.000889
    8  C  1  Y   -0.000402   0.003634   0.001029  -0.003239   0.000350
    9  C  1  Z    0.000054   0.012398   0.000461  -0.004878   0.000261
   10  C  2  S    0.000288  -0.013131   0.005721  -0.453117   0.213235
   11  C  2  S    0.000130  -0.003906   0.000891  -0.048642   0.021989
   12  C  2  X   -0.000012   0.000379   0.000023   0.000010   0.000081
   13  C  2  Y    0.000051  -0.000817  -0.000009   0.000515  -0.000098
   14  C  2  Z    0.000006  -0.000367  -0.000019   0.000865  -0.000234
   15  C  2  S   -0.000928   0.022707  -0.002639   0.042156  -0.016195
   16  C  2  X   -0.000511   0.010931  -0.001033   0.002562   0.000246
   17  C  2  Y    0.000044  -0.006565   0.000891  -0.003476  -0.000022
   18  C  2  Z    0.000037   0.000375   0.000647  -0.002530   0.001752
   19  C  3  S    0.000219   0.000053  -0.000110  -0.000072  -0.000044
   20  C  3  S    0.000127   0.000158  -0.000117  -0.000064  -0.000058
   21  C  3  X   -0.000155   0.000022  -0.000012   0.000013   0.000007
   22  C  3  Y   -0.000331   0.000119   0.000011  -0.000001   0.000026
   23  C  3  Z    0.000139  -0.000133   0.000011  -0.000004  -0.000054
   24  C  3  S    0.000995  -0.001264   0.000505   0.000144  -0.000287
   25  C  3  X    0.001303   0.000734   0.000064  -0.000112  -0.000179
   26  C  3  Y    0.000217  -0.000101  -0.000200   0.000042  -0.000288
   27  C  3  Z   -0.000228   0.000114  -0.000061  -0.000001   0.000101
   28  C  4  S   -0.001675  -0.013260  -0.024243  -0.041135  -0.029979
   29  C  4  S   -0.000487  -0.004997  -0.003910  -0.006655  -0.006075
   30  C  4  X   -0.000271  -0.000350  -0.000689   0.000239   0.001404
   31  C  4  Y    0.000098   0.001266   0.000124   0.000385   0.000294
   32  C  4  Z    0.000053  -0.001382   0.000704   0.000884  -0.000148
   33  C  4  S    0.000097   0.035525   0.006010   0.018277   0.030271
   34  C  4  X    0.000153  -0.001229   0.002706   0.007066   0.012429
   35  C  4  Y   -0.000079   0.011430   0.001572   0.001805   0.001617
   36  C  4  Z   -0.000931  -0.011171  -0.003179  -0.004720  -0.003121
   37  C  5  S   -0.000015  -0.001245  -0.000490  -0.000248  -0.002158
   38  C  5  S    0.000039  -0.000345  -0.000495  -0.000183  -0.001222
   39  C  5  X    0.000043   0.000383  -0.000038  -0.000297   0.000261
   40  C  5  Y    0.000149   0.000724   0.000046   0.000294   0.000981
   41  C  5  Z   -0.000015   0.000186   0.000040  -0.000113   0.000110
   42  C  5  S   -0.000836  -0.002297   0.002273   0.001586   0.002067
   43  C  5  X    0.000043   0.002711   0.000722   0.001264  -0.002368
   44  C  5  Y    0.000299   0.001328  -0.001265  -0.001236  -0.002138
   45  C  5  Z    0.000492   0.000753  -0.000779  -0.000899  -0.001903
   46  C  6  S    0.988072   0.000240   0.004742   0.003030   0.005800
   47  C  6  S    0.104907  -0.000044  -0.000500  -0.000279  -0.000340
   48  C  6  X   -0.000107   0.000044   0.000047  -0.000099   0.000173
   49  C  6  Y    0.000105  -0.000141   0.000037  -0.000058   0.000005
   50  C  6  Z    0.000095   0.000009   0.000104  -0.000118  -0.000478
   51  C  6  S   -0.096997  -0.000125   0.011137   0.002937   0.004325
   52  C  6  X    0.002902  -0.000539  -0.008779   0.001128   0.001306
   53  C  6  Y   -0.001423   0.001327  -0.003537  -0.001335  -0.004333
   54  C  6  Z   -0.007262  -0.000051   0.003914   0.000916   0.003619
   55  C  7  S    0.000319  -0.000521   0.000131   0.000334   0.000153
   56  C  7  S    0.000297  -0.000281   0.000154   0.000279   0.000027
   57  C  7  X   -0.000079  -0.000026   0.000040   0.000003   0.000083
   58  C  7  Y   -0.000047   0.000327  -0.000086  -0.000089  -0.000313
   59  C  7  Z   -0.000028   0.000211   0.000023  -0.000027  -0.000222
   60  C  7  S   -0.001657  -0.001657  -0.000811  -0.000798   0.002404
   61  C  7  X   -0.000209   0.000371   0.000098   0.000457  -0.000912
   62  C  7  Y    0.000230  -0.000790   0.000677   0.000685   0.000972
   63  C  7  Z    0.000757  -0.000002   0.000270   0.000315   0.000490
   64  C  8  S   -0.001860   0.000067  -0.004452   0.000424   0.000570
   65  C  8  S   -0.002400   0.000077  -0.002240   0.000298   0.000462
   66  C  8  X   -0.000337   0.000037   0.001153   0.000019   0.000046
   67  C  8  Y   -0.000533   0.000122   0.000487  -0.000116  -0.000273
   68  C  8  Z   -0.000590  -0.000068  -0.000664   0.000080   0.000111
   69  C  8  S    0.018669  -0.000506   0.004167  -0.001144  -0.001779
   70  C  8  X   -0.010601   0.000082  -0.004315   0.000433   0.000827
   71  C  8  Y   -0.006997  -0.000876  -0.002221   0.001477   0.002870
   72  C  8  Z   -0.001710   0.000265   0.001542  -0.000190  -0.001240
   73  C  9  S   -0.005263   0.044485   0.985575  -0.013181   0.018107
   74  C  9  S   -0.002055   0.005399   0.100284  -0.001637   0.000101
   75  C  9  X   -0.000366  -0.000325   0.000003  -0.000187   0.000389
   76  C  9  Y   -0.000132   0.000140  -0.000242  -0.000046  -0.000404
   77  C  9  Z    0.000482   0.000081   0.000405  -0.000074   0.000280
   78  C  9  S    0.016404  -0.008996  -0.083200   0.007912   0.014552
   79  C  9  X    0.016967   0.003225   0.001713  -0.006263  -0.014473
   80  C  9  Y    0.005465  -0.002729   0.005049   0.007659   0.018231
   81  C  9  Z   -0.013898  -0.001805  -0.002587   0.001540   0.003363
   82  C 10  S    0.000167  -0.001041   0.000062   0.000064   0.000428
   83  C 10  S    0.000441  -0.001313   0.000037   0.000072   0.000591
   84  C 10  X    0.000167   0.000531  -0.000120  -0.000048  -0.000258
   85  C 10  Y    0.000154   0.000167  -0.000102   0.000068   0.000021
   86  C 10  Z   -0.000111   0.000070  -0.000009  -0.000000  -0.000023
   87  C 10  S   -0.005334   0.002992   0.000981  -0.000114  -0.001742
   88  C 10  X   -0.002672  -0.001834   0.000098   0.000086   0.001234
   89  C 10  Y    0.003999  -0.000799  -0.000018  -0.000038   0.000876
   90  C 10  Z   -0.000125  -0.000261   0.000523  -0.000121  -0.000765
   91  C 11  S   -0.005639  -0.000570  -0.001796  -0.000865  -0.003838
   92  C 11  S   -0.003098  -0.000175  -0.000443  -0.000316  -0.001496
   93  C 11  X    0.000161   0.000086   0.000150   0.000186   0.000565
   94  C 11  Y    0.000584  -0.000077   0.000605  -0.000031   0.000180
   95  C 11  Z    0.001028   0.000052   0.000041  -0.000086  -0.000356
   96  C 11  S    0.007704  -0.000127  -0.001069   0.000537   0.004121
   97  C 11  X   -0.000580   0.000701   0.000389  -0.000773  -0.002659
   98  C 11  Y    0.003024  -0.000446  -0.000586   0.000241   0.000004
   99  C 11  Z   -0.004833   0.000002   0.000213   0.000831   0.002677
  100  C 12  S   -0.001003  -0.005458  -0.003134  -0.005967  -0.003718
  101  C 12  S   -0.000506  -0.004884  -0.000852  -0.003051  -0.003019
  102  C 12  X   -0.000373  -0.001049   0.000003   0.000366  -0.000268
  103  C 12  Y   -0.000150  -0.000727   0.000730   0.000484  -0.000968
  104  C 12  Z   -0.000018  -0.000190   0.000065   0.000799   0.000635
  105  C 12  S    0.002703   0.036408   0.001421   0.014268   0.024492
  106  C 12  X    0.001723  -0.018638  -0.002000  -0.002002   0.004588
  107  C 12  Y    0.000473  -0.004563  -0.003094  -0.009306  -0.014757
  108  C 12  Z    0.000464  -0.000276   0.000435   0.002155   0.005510
  109  C 13  S   -0.006715  -0.019358  -0.014971   0.306650   0.936002
  110  C 13  S   -0.001626  -0.002865  -0.002449   0.035189   0.102620
  111  C 13  X   -0.000391   0.000425  -0.000000  -0.000149  -0.000854
  112  C 13  Y    0.000242  -0.000087   0.000039  -0.000429   0.000034
  113  C 13  Z    0.000383   0.000585   0.000467  -0.000708  -0.000694
  114  C 13  S    0.003790  -0.002500   0.010818  -0.044106  -0.105598
  115  C 13  X   -0.000111   0.006146   0.008228   0.005441   0.006226
  116  C 13  Y   -0.004225  -0.005361  -0.008768   0.002031   0.001263
  117  C 13  Z    0.000721  -0.002075  -0.004081   0.008915   0.010320
  118  C 14  S   -0.000183   0.987783  -0.044644   0.004972   0.018469
  119  C 14  S   -0.000033   0.111896  -0.003916   0.000516   0.001234
  120  C 14  X    0.000099   0.000767  -0.000020  -0.000401  -0.000494
  121  C 14  Y   -0.000179  -0.000793  -0.000116   0.000112   0.000378
  122  C 14  Z   -0.000045   0.000330  -0.000272  -0.000249   0.000138
  123  C 14  S    0.000377  -0.123664  -0.001053  -0.002932  -0.005957
  124  C 14  X   -0.000265  -0.011292  -0.002934   0.000681  -0.002072
  125  C 14  Y    0.001428   0.005131   0.002748  -0.008349   0.003563
  126  C 14  Z    0.000353  -0.004880  -0.000509  -0.013698  -0.001172
  127  C 15  S   -0.005264   0.001106  -0.001010  -0.002397  -0.011074
  128  C 15  S   -0.001940   0.000044  -0.004037  -0.000473  -0.002184
  129  C 15  X   -0.000635  -0.000016  -0.000402  -0.000066   0.000164
  130  C 15  Y   -0.000393  -0.000108  -0.001692  -0.000129  -0.000686
  131  C 15  Z    0.000450   0.000022   0.000571  -0.000050  -0.000059
  132  C 15  S    0.006738   0.000576   0.028267   0.002177   0.007018
  133  C 15  X   -0.001126  -0.000764   0.002576   0.002430   0.004508
  134  C 15  Y    0.004891   0.001714   0.013866   0.000693   0.003242
  135  C 15  Z    0.000222   0.000171  -0.004375  -0.001290  -0.002796
  136  H 16  S   -0.000059  -0.001269  -0.000019  -0.001536  -0.001645
  137  H 16  S   -0.001626  -0.001390   0.000168   0.001148  -0.001576
  138  H 17  S    0.000046   0.000318  -0.001167   0.000309   0.001170
  139  H 17  S   -0.000532   0.001232   0.002979   0.001972   0.013055
  140  H 18  S   -0.000113  -0.001446  -0.000377  -0.001310  -0.001521
  141  H 18  S    0.000051  -0.001208   0.000073  -0.000370  -0.001920
  142  H 19  S    0.000110  -0.001822   0.000041  -0.000300  -0.001410
  143  H 19  S    0.000339  -0.000702   0.001174   0.000947   0.000112
  144  H 20  S   -0.000049   0.000153  -0.000128  -0.000054  -0.000026
  145  H 20  S   -0.000032   0.000452   0.000569   0.001185  -0.000570
  146  H 21  S   -0.000001   0.000456  -0.000099   0.000035  -0.000486
  147  H 21  S    0.000374  -0.000423   0.000113   0.000556   0.000866
  148  H 22  S    0.000205  -0.001703  -0.000574   0.000502   0.000212
  149  H 22  S   -0.001534  -0.001684   0.003528   0.010368  -0.002862
  150  H 23  S   -0.000066  -0.001272   0.000168   0.000511  -0.000089
  151  H 23  S    0.000049   0.000392   0.000290   0.012303  -0.003396
  152  H 24  S   -0.000103  -0.001224   0.000160   0.000595  -0.000050
  153  H 24  S    0.000022   0.000700   0.000182   0.012255  -0.003171
  154  H 25  S    0.000062  -0.001288   0.000168  -0.000596   0.000122
  155  H 25  S    0.000057   0.000435   0.000023  -0.007555   0.003804
  156  H 26  S   -0.000008  -0.001042   0.000111  -0.000688  -0.000110
  157  H 26  S   -0.000056   0.001105  -0.000027  -0.007448   0.003702
  158  H 27  S    0.000053  -0.001704   0.000132  -0.000303  -0.000018
  159  H 27  S    0.000095  -0.001562  -0.000333  -0.005041   0.001881
  160  H 28  S    0.000984  -0.000240  -0.000981   0.000478   0.000362
  161  H 28  S    0.015769   0.000016   0.000987  -0.000908   0.001643
  162  H 29  S    0.001237   0.000168  -0.000667  -0.000359  -0.000678
  163  H 29  S    0.014137   0.000367  -0.000653  -0.000375  -0.000782
  164  H 30  S    0.000116   0.000122  -0.000001  -0.000013  -0.000216
  165  H 30  S   -0.000073   0.000594  -0.000197  -0.000223  -0.000642
  166  H 31  S   -0.000050   0.000013   0.000167   0.000140   0.000078
  167  H 31  S    0.000065   0.000067  -0.000265  -0.000254  -0.000747
  168  H 32  S   -0.000501  -0.000473  -0.001088   0.000220   0.000150
  169  H 32  S    0.000259   0.000912   0.000376   0.000986   0.001993
  170  H 33  S    0.000099   0.000159  -0.001081  -0.000296  -0.000571
  171  H 33  S    0.000634   0.000660   0.000461  -0.000438  -0.000319
  172  H 34  S   -0.001626  -0.000061  -0.000619   0.000163   0.000347
  173  H 34  S    0.000395  -0.000319  -0.000561   0.000607   0.001338
  174  H 35  S   -0.000721   0.000074  -0.000139  -0.000030  -0.000193
  175  H 35  S    0.001463   0.000248   0.002866  -0.000109  -0.000374
  176  H 36  S    0.000227   0.000137  -0.000153  -0.000069  -0.000358
  177  H 36  S    0.000694  -0.000380   0.000052  -0.000880  -0.003394
  178  H 37  S   -0.000130   0.000028   0.000000  -0.000014   0.000057
  179  H 37  S   -0.000582   0.000159  -0.000017  -0.000011   0.000075
  180  H 38  S    0.000294   0.000037   0.000044  -0.000033   0.000009
  181  H 38  S   -0.001525  -0.000086  -0.000471   0.000094  -0.000054
  182  H 39  S    0.000152  -0.000030  -0.000050   0.000022  -0.000170
  183  H 39  S    0.000232   0.001007   0.000036  -0.000201   0.000469

                      6          7          8          9         10
                  -11.0395   -11.0363   -11.0288   -11.0109   -11.0037
                     A          A          A          A          A   
    1  C  1  S    0.491666   0.064700  -0.001667   0.006388  -0.000193
    2  C  1  S    0.049135   0.004813  -0.000049  -0.000758   0.000094
    3  C  1  X    0.000609  -0.000297   0.000080  -0.000530  -0.000054
    4  C  1  Y   -0.000622   0.000210  -0.000038  -0.000338  -0.000075
    5  C  1  Z   -0.000192  -0.001129   0.000085  -0.000696  -0.000028
    6  C  1  S   -0.034796  -0.001170   0.000130   0.003465  -0.000775
    7  C  1  X   -0.001975   0.000835   0.000044  -0.000100  -0.000154
    8  C  1  Y    0.001120   0.000224   0.000007   0.000332   0.000497
    9  C  1  Z   -0.000108   0.002977  -0.000004   0.002946  -0.000233
   10  C  2  S    0.849470   0.051982  -0.000683   0.002442   0.000122
   11  C  2  S    0.086873   0.004273   0.000050   0.000520  -0.000108
   12  C  2  X   -0.000167  -0.000618  -0.000019  -0.000815   0.000103
   13  C  2  Y    0.000232   0.000824   0.000025   0.000499   0.000018
   14  C  2  Z    0.000386  -0.000382  -0.000012   0.000090  -0.000030
   15  C  2  S   -0.068382  -0.003394  -0.001017  -0.005106   0.001216
   16  C  2  X   -0.002813   0.000670  -0.000358  -0.003210   0.000136
   17  C  2  Y    0.002024  -0.000847   0.000385  -0.000598  -0.000552
   18  C  2  Z   -0.000396  -0.000192   0.000366  -0.001063   0.000037
   19  C  3  S   -0.000008   0.000064   0.000011  -0.000030  -0.002151
   20  C  3  S   -0.000001   0.000067  -0.000011  -0.000176  -0.000624
   21  C  3  X    0.000008  -0.000005  -0.000002  -0.000275  -0.000100
   22  C  3  Y    0.000033  -0.000012  -0.000029  -0.000353   0.000477
   23  C  3  Z   -0.000000  -0.000003   0.000018   0.000273  -0.000795
   24  C  3  S    0.000215  -0.000504   0.000189   0.004558  -0.001738
   25  C  3  X    0.000093  -0.000065  -0.000067   0.000441  -0.000910
   26  C  3  Y   -0.000186   0.000079  -0.000026   0.001450   0.002668
   27  C  3  Z    0.000228  -0.000344  -0.000003   0.000929   0.000799
   28  C  4  S   -0.074792   0.983475   0.002440   0.003853   0.002217
   29  C  4  S   -0.009628   0.103931   0.000124  -0.000362  -0.000696
   30  C  4  X    0.000298   0.000372  -0.000228  -0.000165   0.000053
   31  C  4  Y   -0.000662   0.000692   0.000087  -0.000517  -0.000041
   32  C  4  Z    0.000758  -0.000160   0.000148   0.000122   0.000061
   33  C  4  S    0.009842  -0.090830   0.001046  -0.005966   0.005182
   34  C  4  X    0.000116  -0.006888   0.001366  -0.002333   0.003058
   35  C  4  Y    0.002140  -0.009361   0.001134  -0.002870   0.000555
   36  C  4  Z   -0.003726   0.004991  -0.001226   0.001678  -0.000157
   37  C  5  S   -0.001862   0.000783  -0.000036  -0.002706   0.001190
   38  C  5  S   -0.001486   0.000811   0.000004  -0.003291   0.000792
   39  C  5  X    0.000649  -0.000047   0.000031   0.000294  -0.000060
   40  C  5  Y    0.000049  -0.000002   0.000047  -0.000437  -0.000127
   41  C  5  Z   -0.000065   0.000098   0.000021  -0.000678  -0.000060
   42  C  5  S    0.005731  -0.003778   0.000038   0.026109  -0.003263
   43  C  5  X   -0.003080   0.000366  -0.000329  -0.006951  -0.001201
   44  C  5  Y   -0.002282   0.001739  -0.000166  -0.017675   0.001054
   45  C  5  Z   -0.000262   0.000143  -0.000392  -0.001193   0.000487
   46  C  6  S   -0.000301   0.001948   0.005050   0.000953   0.005072
   47  C  6  S   -0.000047  -0.000351  -0.000800  -0.000460  -0.002274
   48  C  6  X   -0.000151  -0.000025   0.000438   0.000034  -0.000197
   49  C  6  Y   -0.000035  -0.000020   0.000534  -0.000030  -0.001369
   50  C  6  Z    0.000100  -0.000176  -0.000530   0.000220  -0.001010
   51  C  6  S    0.000228   0.002717   0.002926   0.003908   0.006168
   52  C  6  X    0.000272   0.000281  -0.001335  -0.001949  -0.000859
[...]
   36   -0.0000001   0.0000000   0.0035368   0.0000573  -0.0015657
   37    0.0000000  -0.0000000   0.3698151   0.0000000  -0.0010008
   38   -0.0000000   0.0000000   0.3799750   0.0000000  -0.0001109
   39   -0.0000007   0.0000011   0.3624801   0.0000000   0.0048899

             6           7           8           9          10

    6    5.5385990
    7   -0.0000357   5.4306662
    8    0.2076212   0.0037102   5.3632992
    9    0.2834511  -0.0000117  -0.0693510   5.3662622
   10    0.0110292   0.3328100  -0.0925496   0.0014117   5.7794828
   11   -0.1508617  -0.0912767   0.3556395  -0.0113604   0.3106860
   12   -0.0052119  -0.0491785  -0.0000525  -0.0511709  -0.0146680
   13   -0.0411929   0.0009512   0.0023032   0.2914127  -0.0005316
   14    0.0000865   0.0028947  -0.0000059   0.0128532   0.0004430
   15   -0.0802778   0.0000009   0.0010363   0.5185947  -0.0000855
   16   -0.0005353  -0.0018485   0.0000599  -0.0016396   0.0004959
   17    0.0006018   0.0000109   0.0000917  -0.0366367  -0.0001604
   18    0.0000024   0.0000016   0.0000001  -0.0010835   0.0000006
   19   -0.0000212   0.0000109   0.0000005   0.0026295   0.0000006
   20   -0.0000011  -0.0424804  -0.0000012  -0.0000133   0.0054112
   21    0.0000022  -0.0396474   0.0000013  -0.0000455   0.0023296
   22    0.0003301  -0.0000010   0.0000040   0.0014003  -0.0000110
   23    0.0000021   0.0000002  -0.0000000   0.0000346  -0.0000000
   24   -0.0000048  -0.0000020   0.0000000   0.0000331  -0.0000001
   25   -0.0000001  -0.0000162   0.0000000   0.0000021   0.0000017
   26    0.0000000   0.0000002  -0.0000000   0.0000020   0.0000002
   27    0.0000000  -0.0000248  -0.0000000  -0.0000030   0.0000029
   28    0.3832081  -0.0000623  -0.0421343  -0.0544474  -0.0010615
   29    0.3421651  -0.0000005  -0.0338613  -0.0629074  -0.0003147
   30    0.0000008   0.3830858  -0.0000898  -0.0000004  -0.0513117
   31    0.0000428   0.3952978   0.0000616  -0.0000253  -0.0537559
   32    0.0025100   0.0000001  -0.0000488  -0.0544639  -0.0000018
   33   -0.0034687  -0.0000000   0.0002946  -0.0529128  -0.0000030
   34   -0.0583366  -0.0000795   0.3878304   0.0000789   0.0028400
   35   -0.0780378  -0.0000838   0.3818809   0.0035560  -0.0018037
   36    0.0021736  -0.0090213  -0.0519761   0.0005739  -0.0539143
   37    0.0000378   0.0006961   0.0000293  -0.0000003  -0.0694232
   38    0.0000013   0.0032756  -0.0013073   0.0000027  -0.0421958
   39   -0.0003718  -0.0030338   0.0002162  -0.0000040  -0.0725646

            11          12          13          14          15

   11    5.5439767
   12    0.0037427   5.6565577
   13   -0.0070353   0.2401321   5.5863477
   14    0.0001448   0.1883541  -0.2232733   5.8975880
   15    0.0008116   0.0025009  -0.0859425   0.0000256   5.2897292
   16   -0.0007074   0.4050477  -0.0359390  -0.0473795   0.0000503
   17    0.0039707  -0.0361176   0.3932933   0.0082094  -0.0020938
   18   -0.0000065   0.0097345  -0.0342911  -0.0369795   0.0016713
   19   -0.0000037   0.0082651  -0.0399095  -0.0448160  -0.0000685
   20   -0.0004050  -0.0538560   0.0000639  -0.0009674  -0.0000005
   21   -0.0000091  -0.0546723   0.0035602  -0.0003913   0.0000002
   22    0.0000111  -0.0007618  -0.0000168  -0.0398987   0.0006000
   23    0.0000000   0.0040400  -0.0004928  -0.0485718   0.0000045
   24   -0.0000002  -0.0010073  -0.0003405  -0.0473578   0.0000024
   25   -0.0000001  -0.0011495  -0.0002246  -0.0459296   0.0000000
   26   -0.0000000   0.0028554  -0.0002498  -0.0509516  -0.0000001
   27   -0.0000004  -0.0008909   0.0001284  -0.0409145   0.0000000
   28    0.0007684   0.0006255  -0.0030547  -0.0000965   0.0026465
   29    0.0077754   0.0000337   0.0030381   0.0000069  -0.0018369
   30    0.0028157   0.0031863  -0.0000458  -0.0000281  -0.0000000
   31   -0.0015287   0.0009092   0.0003926  -0.0000521  -0.0000009
   32    0.0000565   0.0000682  -0.0024320   0.0000036   0.3934172
   33    0.0000641  -0.0000465   0.0026359  -0.0000007   0.3953835
   34   -0.0412709  -0.0000056  -0.0000149   0.0000001   0.0010149
   35   -0.0475281   0.0000165  -0.0000033   0.0000004  -0.0000094
   36    0.4099338   0.0007369  -0.0030950   0.0000127   0.0001107
   37    0.0022243   0.0000480  -0.0000019   0.0000000  -0.0000000
   38   -0.0008357   0.0000425  -0.0000011  -0.0000000  -0.0000000
   39    0.0037475   0.0002877   0.0000223  -0.0000410   0.0000001

            16          17          18          19          20

   16    0.4666171
   17    0.0011883   0.4619969
   18   -0.0002793   0.0014865   0.5170426
   19   -0.0001330  -0.0028000  -0.0228291   0.5336815
   20    0.0029675   0.0004553  -0.0000042   0.0000813   0.6103032
   21   -0.0028817   0.0000792   0.0000015   0.0000117  -0.0337306
   22   -0.0003840   0.0000215   0.0001369   0.0000148  -0.0000027
   23    0.0001407   0.0000033   0.0013774  -0.0000156   0.0000013
   24    0.0011816   0.0000025   0.0000554  -0.0000565   0.0000025
   25    0.0001000   0.0000046  -0.0000470   0.0000379   0.0000998
   26   -0.0000391   0.0000052   0.0002320   0.0004974   0.0000474
   27    0.0000023  -0.0000230  -0.0000151   0.0011915   0.0024570
   28    0.0020374   0.0000155  -0.0000111  -0.0000015  -0.0000012
   29   -0.0000476  -0.0000163  -0.0000089   0.0000003  -0.0000000
   30    0.0000474  -0.0000015  -0.0000000  -0.0000002   0.0029122
   31    0.0000054   0.0003338  -0.0000001  -0.0000001  -0.0019445
   32    0.0000028   0.0005239   0.0011815  -0.0000306   0.0000000
   33   -0.0000026  -0.0000560  -0.0000711   0.0000001  -0.0000000
   34   -0.0000010  -0.0000008  -0.0000001  -0.0000000  -0.0000000
   35    0.0000031   0.0000163  -0.0000000  -0.0000000  -0.0000001
   36    0.0000311   0.0024327   0.0000003  -0.0000019   0.0000748
   37    0.0000505  -0.0000001  -0.0000000  -0.0000000   0.0000128
   38    0.0000094  -0.0000004   0.0000000   0.0000000   0.0000005
   39    0.0012076  -0.0000015  -0.0000000  -0.0000000  -0.0000939

            21          22          23          24          25

   21    0.5843295
   22    0.0000024   0.4984211
   23   -0.0000020  -0.0270174   0.5683533
   24    0.0000387  -0.0256446  -0.0291087   0.5476980
   25    0.0006418  -0.0000372   0.0000335   0.0020033   0.5428617
   26   -0.0000023  -0.0000345   0.0024250   0.0000632  -0.0294921
   27   -0.0000938  -0.0000546  -0.0000541  -0.0000386  -0.0258285
   28   -0.0000012   0.0005217  -0.0000016  -0.0000022  -0.0000001
   29    0.0000000   0.0000183   0.0000000   0.0000001   0.0000000
   30   -0.0037420  -0.0000000  -0.0000000   0.0000000   0.0000008
   31    0.0031425  -0.0000000  -0.0000000   0.0000000   0.0000006
   32    0.0000000   0.0000117   0.0000002  -0.0000000  -0.0000000
   33   -0.0000000   0.0000013   0.0000001  -0.0000000  -0.0000000
   34    0.0000000   0.0000001   0.0000000  -0.0000000  -0.0000000
   35   -0.0000000   0.0000002   0.0000000  -0.0000000  -0.0000000
   36   -0.0000018  -0.0000001  -0.0000000  -0.0000000  -0.0000000
   37    0.0000613  -0.0000000  -0.0000000   0.0000000   0.0000000
   38   -0.0000035  -0.0000000   0.0000000  -0.0000000   0.0000000
   39   -0.0004454   0.0000046   0.0000000   0.0000049  -0.0000017

            26          27          28          29          30

   26    0.5729284
   27   -0.0291502   0.5169637
   28   -0.0000000  -0.0000000   0.5533802
   29   -0.0000000  -0.0000000  -0.0310732   0.6367476
   30    0.0000000   0.0000028   0.0000004   0.0000000   0.6219628
   31    0.0000000  -0.0000012  -0.0000045  -0.0000003  -0.0265365
   32   -0.0000001  -0.0000000  -0.0000677   0.0002687  -0.0000000
   33    0.0000000  -0.0000000   0.0001342   0.0029836  -0.0000000
   34    0.0000000  -0.0000000   0.0034627  -0.0014721   0.0000012
   35   -0.0000000  -0.0000000  -0.0022793   0.0041613   0.0000010
   36    0.0000000   0.0000000   0.0000736  -0.0000755   0.0002777
   37    0.0000000   0.0000000  -0.0000069  -0.0000005   0.0046691
   38    0.0000000   0.0000000   0.0002264  -0.0000083  -0.0000059
   39   -0.0000000  -0.0000003   0.0002228   0.0000063  -0.0018501

            31          32          33          34          35

   31    0.5808727
   32   -0.0000001   0.5176570
   33   -0.0000000  -0.0260367   0.5143555
   34   -0.0000052  -0.0000066   0.0000295   0.5921635
   35   -0.0000099   0.0000013   0.0000125  -0.0290762   0.6208806
   36    0.0040670   0.0000117   0.0000058  -0.0031312   0.0025096
   37    0.0002094  -0.0000000  -0.0000000   0.0000024  -0.0002219
   38   -0.0000621   0.0000000  -0.0000000  -0.0000272   0.0019553
   39   -0.0002221  -0.0000000   0.0000000  -0.0000041   0.0002174

            36          37          38          39

   36    0.6107974
   37   -0.0000413   0.6475670
   38    0.0000918  -0.0303496   0.5605679
   39   -0.0001055  -0.0591759  -0.0300709   0.6707438

          TOTAL MULLIKEN AND LOWDIN ATOMIC POPULATIONS
       ATOM         MULL.POP.    CHARGE          LOW.POP.     CHARGE
    1 C             6.512450   -0.512450         6.236115   -0.236115
    2 C             6.529937   -0.529937         6.240071   -0.240071
    3 C             6.599069   -0.599069         6.245475   -0.245475
    4 C             6.343203   -0.343203         6.160838   -0.160838
    5 C             6.333706   -0.333706         6.147361   -0.147361
    6 C             6.355803   -0.355803         6.137734   -0.137734
    7 C             6.418092   -0.418092         6.147800   -0.147800
    8 C             6.407106   -0.407106         6.117084   -0.117084
    9 C             6.006706   -0.006706         5.996680    0.003320
   10 C             6.194094   -0.194094         6.313514   -0.313514
   11 C             6.228381   -0.228381         6.317954   -0.317954
   12 C             6.176494   -0.176494         6.056583   -0.056583
   13 C             6.238832   -0.238832         6.066880   -0.066880
   14 C             6.183140   -0.183140         6.040514   -0.040514
   15 C             6.433167   -0.433167         6.273811   -0.273811
   16 H             0.763915    0.236085         0.910975    0.089025
   17 H             0.757252    0.242748         0.899015    0.100985
   18 H             0.816419    0.183581         0.928644    0.071356
   19 H             0.818807    0.181193         0.931765    0.068235
   20 H             0.856462    0.143538         0.954086    0.045914
   21 H             0.841743    0.158257         0.943628    0.056372
   22 H             0.792692    0.207308         0.910221    0.089779
   23 H             0.839222    0.160778         0.935347    0.064653
   24 H             0.824913    0.175087         0.926790    0.073210
   25 H             0.822097    0.177903         0.924579    0.075421
   26 H             0.837850    0.162150         0.934165    0.065835
   27 H             0.809143    0.190857         0.919448    0.080552
   28 H             0.813758    0.186242         0.927424    0.072576
   29 H             0.865562    0.134438         0.959116    0.040884
   30 H             0.864917    0.135083         0.958917    0.041083
   31 H             0.840421    0.159579         0.943832    0.056168
   32 H             0.832969    0.167031         0.929878    0.070122
   33 H             0.833452    0.166548         0.929337    0.070663
   34 H             0.854068    0.145932         0.949655    0.050345
   35 H             0.857141    0.142859         0.956660    0.043340
   36 H             0.914580    0.085420         0.969614    0.030386
   37 H             0.865201    0.134799         0.956984    0.043016
   38 H             0.841170    0.158830         0.936193    0.063807
   39 H             0.876065    0.123935         0.965315    0.034685

          -------------------------------
          BOND ORDER AND VALENCE ANALYSIS     BOND ORDER THRESHOLD=0.050
          -------------------------------

                   BOND                       BOND                       BOND
  ATOM PAIR DIST  ORDER      ATOM PAIR DIST  ORDER      ATOM PAIR DIST  ORDER
    1  14  1.536  0.915        1  22  1.096  0.931        1  23  1.097  0.936
    1  24  1.098  0.935        2  14  1.531  0.928        2  25  1.097  0.934
    2  26  1.097  0.934        2  27  1.095  0.935        3  10  1.509  0.942
    3  37  1.099  0.929        3  38  1.093  0.943        3  39  1.098  0.920
    4  12  2.200 -0.050        4  13  1.565  0.887        4  14  1.557  0.894
    4  18  1.094  0.938        4  19  1.096  0.940        5   7  1.571  0.857
    5  12  1.543  0.921        5  20  1.097  0.936        5  21  1.098  0.938
    6   8  1.562  0.854        6   9  1.526  0.931        6  28  1.097  0.919
    6  29  1.097  0.927        7  10  1.511  0.959        7  30  1.098  0.937
    7  31  1.096  0.940        8  11  1.503  0.979        8  34  1.096  0.945
    8  35  1.097  0.925        9  13  1.537  0.935        9  15  1.343  1.771
   10  11  1.344  1.321       11  36  1.090  0.958       12  13  1.572  0.885
   12  14  1.582  0.855       12  16  1.094  0.919       13  17  1.096  0.912
   15  32  1.087  0.950       15  33  1.087  0.952

                       TOTAL       BONDED        FREE
      ATOM            VALENCE     VALENCE     VALENCE
    1 C                 3.664       3.664       0.000
    2 C                 3.682       3.682       0.000
    3 C                 3.721       3.717       0.004
    4 C                 3.583       3.583       0.000
    5 C                 3.602       3.600       0.002
    6 C                 3.597       3.595       0.002
    7 C                 3.644       3.639       0.005
    8 C                 3.658       3.655       0.003
    9 C                 3.610       3.539       0.071
   10 C                 3.375       3.162       0.213
   11 C                 3.523       3.258       0.265
   12 C                 3.477       3.477       0.000
   13 C                 3.526       3.525       0.001
   14 C                 3.466       3.466       0.000
   15 C                 3.748       3.672       0.076
   16 H                 0.907       0.907       0.000
   17 H                 0.909       0.909       0.000
   18 H                 0.932       0.932       0.000
   19 H                 0.925       0.925       0.000
   20 H                 0.929       0.928       0.000
   21 H                 0.923       0.923       0.000
   22 H                 0.921       0.921       0.000
   23 H                 0.929       0.929       0.000
   24 H                 0.925       0.925       0.000
   25 H                 0.926       0.926       0.000
   26 H                 0.926       0.926       0.000
   27 H                 0.926       0.926       0.000
   28 H                 0.917       0.917       0.000
   29 H                 0.931       0.931       0.000
   30 H                 0.928       0.928       0.000
   31 H                 0.928       0.928       0.000
   32 H                 0.940       0.940       0.001
   33 H                 0.942       0.940       0.001
   34 H                 0.929       0.929       0.000
   35 H                 0.927       0.926       0.001
   36 H                 0.957       0.954       0.004
   37 H                 0.922       0.920       0.001
   38 H                 0.931       0.930       0.000
   39 H                 0.923       0.921       0.002

          -----------------------------------------
          ATOMIC SPIN DENSITY AT THE NUCLEUS (A.U.)
          -----------------------------------------
                            SPIN DENS    ALPHA DENS     BETA DENS
    1  C            6.0     0.0004835      47.00682      47.00634
    2  C            6.0     0.0014838      47.00341      47.00193
    3  C            6.0    -0.0343923      46.98334      47.01773
    4  C            6.0     0.0064393      47.06716      47.06072
    5  C            6.0     0.0403540      47.06580      47.02545
    6  C            6.0     0.0263165      47.06944      47.04312
    7  C            6.0    -0.0186706      47.03642      47.05509
    8  C            6.0    -0.0246696      47.02018      47.04485
    9  C            6.0     0.0772368      47.09037      47.01313
   10  C            6.0     0.1188044      47.03505      46.91625
   11  C            6.0     0.0945533      46.97972      46.88516
   12  C            6.0     0.0001311      47.11974      47.11961
   13  C            6.0    -0.0164499      47.09063      47.10708
   14  C            6.0    -0.0008492      47.14158      47.14243
   15  C            6.0    -0.0690236      46.92952      46.99854
   16  H            1.0    -0.0005412       0.18472       0.18526
   17  H            1.0     0.0058680       0.18576       0.17989
   18  H            1.0    -0.0003954       0.18438       0.18477
   19  H            1.0    -0.0004841       0.18448       0.18496
   20  H            1.0    -0.0001491       0.18754       0.18769
   21  H            1.0    -0.0011749       0.18615       0.18733
   22  H            1.0     0.0000361       0.18296       0.18292
   23  H            1.0     0.0000556       0.18467       0.18461
   24  H            1.0     0.0000299       0.18369       0.18366
   25  H            1.0    -0.0000084       0.18363       0.18363
   26  H            1.0     0.0000348       0.18454       0.18450
   27  H            1.0     0.0000131       0.18404       0.18402
   28  H            1.0     0.0022241       0.18616       0.18394
   29  H            1.0     0.0006743       0.18838       0.18770
   30  H            1.0     0.0022202       0.18829       0.18607
   31  H            1.0     0.0034433       0.18883       0.18538
   32  H            1.0     0.0068937       0.18796       0.18106
   33  H            1.0     0.0078711       0.18855       0.18068
   34  H            1.0     0.0014629       0.18814       0.18668
   35  H            1.0     0.0058386       0.19049       0.18465
   36  H            1.0    -0.0156470       0.17835       0.19400
   37  H            1.0     0.0104714       0.19053       0.18005
   38  H            1.0     0.0012673       0.18644       0.18517
   39  H            1.0     0.0120149       0.19275       0.18073

          ---------------------
          ELECTROSTATIC MOMENTS
          ---------------------

 POINT   1           X           Y           Z (BOHR)    CHARGE
                 0.042748   -0.000610   -0.007539       -1.00 (A.U.)
         DX          DY          DZ         /D/  (DEBYE)
    -7.088851   -2.648628   -0.792462    7.608878
 ...... END OF PROPERTY EVALUATION ......
 CPU     0: STEP CPU TIME=     0.08 TOTAL CPU TIME=         99.0 (      1.6 MIN)
 TOTAL WALL CLOCK TIME=        126.2 SECONDS, CPU UTILIZATION IS    78.43%
               580000  WORDS OF DYNAMIC MEMORY USED
 EXECUTION OF GAMESS TERMINATED NORMALLY Mon May 25 18:33:39 2020
 DDI: 263640 bytes (0.3 MB / 0 MWords) used by master data server.
Note: The following floating-point exceptions are signalling: IEEE_DENORMALNote: The following floating-point exceptions are signalling: IEEE_DENORMALNote: The following floating-point exceptions are signalling: IEEE_DENORMALNote: The following floating-point exceptions are signalling: IEEE_DENORMALNote: The following floating-point exceptions are signalling: IEEE_DENORMAL

 ----------------------------------------
 CPU timing information for all processes
 ========================================
 0: 98.265 + 0.732 = 98.997
 1: 98.12 + 0.485 = 98.498
 2: 97.233 + 0.447 = 97.681
 3: 97.643 + 0.419 = 98.63
 4: 97.753 + 0.412 = 98.165
 5: 97.70 + 0.371 = 97.442
 ----------------------------------------




Note: The following floating-point exceptions are signalling: IEEE_DENORMAL
 ddikick.x: exited gracefully.
unset echo
----- accounting info -----
Files used on the master node pietdev were:
-rwxr-xr-x 1 piet piet     1660 mei 25 18:31 /home/piet/scr/caryophylene_fukui_acid.F05*
-rw-r--r-- 1 piet piet 68812800 mei 25 18:33 /home/piet/scr/caryophylene_fukui_acid.F10
ls: No match.
ls: No match.
ls: No match.
ma 25 mei 2020 18:33:42 CEST
0.155u 0.024s 2:09.42 0.1%	0+0k 0+8io 0pf+0w
