----- GAMESS execution script 'rungms' -----
This job is running on host pietdev
under operating system Linux at ma 25 mei 2020 18:36:28 CEST
Available scratch disk space (Kbyte units) at beginning of the job is
Filesystem     1K-blocks     Used Available Use% Mounted on
/dev/sda2      244568380 31071364 201003960  14% /
GAMESS temporary binary files will be written to /home/piet/scr
GAMESS supplementary output files will be written to /home/piet/gamess/scr
Copying input file diosmine_charge_chelpg.inp to your run's scratch directory...
cp diosmine_charge_chelpg.inp /home/piet/scr/diosmine_charge_chelpg.F05
unset echo
 
Assuming a single but multicore node.
 
/home/piet/gamess/ddikick.x /home/piet/gamess/gamess.03.x diosmine_charge_chelpg -ddi 1 6 pietdev:cpus=6 -scr /home/piet/scr

 Distributed Data Interface kickoff program.
 Initiating 6 compute processes on 1 nodes to run the following command:
 /home/piet/gamess/gamess.03.x diosmine_charge_chelpg 

          ******************************************************
          *         GAMESS VERSION = 30 SEP 2019 (R2)          *
          *             FROM IOWA STATE UNIVERSITY             *
          * M.W.SCHMIDT, K.K.BALDRIDGE, J.A.BOATZ, S.T.ELBERT, *
          *   M.S.GORDON, J.H.JENSEN, S.KOSEKI, N.MATSUNAGA,   *
          *          K.A.NGUYEN, S.J.SU, T.L.WINDUS,           *
          *       TOGETHER WITH M.DUPUIS, J.A.MONTGOMERY       *
          *         J.COMPUT.CHEM.  14, 1347-1363(1993)        *
          **************** 64 BIT LINUX VERSION ****************

  SINCE 1993, STUDENTS AND POSTDOCS WORKING AT IOWA STATE UNIVERSITY
  AND ALSO IN THEIR VARIOUS JOBS AFTER LEAVING ISU HAVE MADE IMPORTANT
  CONTRIBUTIONS TO THE CODE:
     IVANA ADAMOVIC, CHRISTINE AIKENS, YURI ALEXEEV, POOJA ARORA,
     ANDREY ASADCHEV, ROB BELL, PRADIPTA BANDYOPADHYAY, JONATHAN BENTZ,
     COLLEEN BERTONI, BRETT BODE, KURT BRORSEN, CALEB CARLIN, GALINA CHABAN,
     WEI CHEN, CHEOL HO CHOI, PAUL DAY, ALBERT DEFUSCO, NUWAN DESILVA,
     TIM DUDLEY, DMITRI FEDOROV, ALEX FINDLATER, GRAHAM FLETCHER, 
     MARK FREITAG, KURT GLAESEMANN, EMILIE B GUIDEZ, ANASTASIA GUNINA, 
     DAN KEMP, SAROM SOK LEANG, GRANT MERRILL,
     NORIYUKI MINEZAWA, JONATHAN MULLIN,
     TAKESHI NAGATA, SEAN NEDD, HEATHER NETZLOFF, BOSILJKA NJEGIC, RYAN OLSON,
     MIKE PAK, BUU PHAM, DAVID POOLE,
     SPENCER PRUITT, LUKE ROSKOP, TOSAPORN SATTASATHUCHANA,
     JIM SHOEMAKER, LYUDMILA SLIPCHENKO,
     TONY SMITH, JIE SONG, TETSUYA TAKETSUGU, SIMON WEBB,
     JORGE LUIS GALVEZ VALLEJO, PENG XU, SOOHAENG YOO,
     FEDERICO ZAHARIEV

  ADDITIONAL CODE HAS BEEN PROVIDED BY COLLABORATORS IN OTHER GROUPS:
     IOWA STATE UNIVERSITY:
          JOE IVANIC, AARON WEST, LAIMUTIS BYTAUTAS, KLAUS RUEDENBERG
     UNIVERSITY OF TOKYO: KIMIHIKO HIRAO, TAKAHITO NAKAJIMA,
          TAKAO TSUNEDA, MUNEAKI KAMIYA, SUSUMU YANAGISAWA,
          KIYOSHI YAGI, MAHITO CHIBA, SEIKEN TOKURA, NAOAKI KAWAKAMI
     UNIVERSITY OF AARHUS: FRANK JENSEN
     UNIVERSITY OF IOWA: VISVALDAS KAIRYS, HUI LI
     NATIONAL INST. OF STANDARDS AND TECHNOLOGY: WALT STEVENS, DAVID GARMER
     UNIVERSITY OF PISA: BENEDETTA MENNUCCI, JACOPO TOMASI
     UNIVERSITY OF MEMPHIS: HENRY KURTZ, PRAKASHAN KORAMBATH
     UNIVERSITY OF ALBERTA: TOBY ZENG, MARIUSZ KLOBUKOWSKI
     UNIVERSITY OF NEW ENGLAND: MARK SPACKMAN
     MIE UNIVERSITY: HIROAKI UMEDA
     NAT. INST. OF ADVANCED INDUSTRIAL SCIENCE AND TECHNOLOGY: KAZUO KITAURA
     MICHIGAN STATE UNIVERSITY:
          KAROL KOWALSKI, MARTA WLOCH, JEFFREY GOUR, JESSE LUTZ,
          WEI LI, JUN SHEN, J. EMILIANO DEUSTUA, PIOTR PIECUCH
     UNIVERSITY OF MINNESOTA:
          ANDREW SAND, PRACHI SHARMA, YINAN SHU
     UNIVERSITY OF SILESIA: MONIKA MUSIAL, STANISLAW KUCHARSKI
     FACULTES UNIVERSITAIRES NOTRE-DAME DE LA PAIX:
          OLIVIER QUINET, BENOIT CHAMPAGNE
     UNIVERSITY OF CALIFORNIA - SANTA BARBARA: BERNARD KIRTMAN
     INSTITUTE FOR MOLECULAR SCIENCE:
          KAZUYA ISHIMURA, MICHIO KATOUDA, AND SHIGERU NAGASE
     UNIVERSITY OF NOTRE DAME: ANNA POMOGAEVA, DAN CHIPMAN
     KYUSHU UNIVERSITY:
          HARUYUKI NAKANO,
          FENG LONG GU, JACEK KORCHOWIEC, MARCIN MAKOWSKI, AND YURIKO AOKI,
          HIROTOSHI MORI AND EISAKU MIYOSHI
     PENNSYLVANIA STATE UNIVERSITY:
          TZVETELIN IORDANOV, CHET SWALINA, JONATHAN SKONE,
          SHARON HAMMES-SCHIFFER
     WASEDA UNIVERSITY:
          MASATO KOBAYASHI, TOMOKO AKAMA, TSUGUKI TOUMA,
          TAKESHI YOSHIKAWA, YASUHIRO IKABATA, JUNJI SEINO,
          YUYA NAKAJIMA, HIROMI NAKAI
     NANJING UNIVERSITY: SHUHUA LI
     UNIVERSITY OF NEBRASKA:
          PEIFENG SU, DEJUN SI, NANDUN THELLAMUREGE, YALI WANG, HUI LI
     UNIVERSITY OF ZURICH: ROBERTO PEVERATI, KIM BALDRIDGE
     N. COPERNICUS UNIVERSITY AND JACKSON STATE UNIVERSITY:
          MARIA BARYSZ
     UNIVERSITY OF COPENHAGEN: Jimmy Kromann, CASPER STEINMANN
     TOKYO INSTITUTE OF TECHNOLOGY: HIROYA NAKATA
     NAGOYA UNIVERSITY: YOSHIO NISHIMOTO, STEPHAN IRLE
     MOSCOW STATE UNIVERSITY: VLADIMIR MIRONOV
     A.N.NESMEYANOV INSTITUTE OF ORGANOELEMENT COMPOUNDS OF RUSSIAN ACADEMY OF SCIENCES:
          IGOR S. GERASIMOV
     JOHANNES KEPLER UNIVERSITY LINZ:
          CHRISTIAN FRIEDL


 PARALLEL VERSION RUNNING ON        6 PROCESSORS IN        1 NODES.

 EXECUTION OF GAMESS BEGUN Mon May 25 18:36:28 2020

            ECHO OF THE FIRST FEW INPUT CARDS -
 INPUT CARD> $BASIS GBASIS=N21 NGAUSS=3 $END                                                
 INPUT CARD> $CONTRL SCFTYP=RHF DFTTYP=B3LYP MAXIT=60 MULT=1 ICHARG=0 $END                  
 INPUT CARD> $SYSTEM MEMDDI=1000 MWORDS=30 $END                                             
 INPUT CARD> $SCF DIRSCF=.TRUE. $END                                                        
 INPUT CARD> $ELPOT  IEPOT=1 WHERE=PDC $END                                                 
 INPUT CARD> $PDC PTSEL=CHELPG CONSTR=CHARGE $END                                           
 INPUT CARD> $DATA                                                                          
 INPUT CARD>                                                                                
 INPUT CARD>C1                                                                              
 INPUT CARD>C 6.0000000 1.85164 2.74535 -0.14975                                            
 INPUT CARD>C 6.0000000 2.15696 4.22544 0.09519                                             
 INPUT CARD>C 6.0000000 4.05337 2.06084 0.36784                                             
 INPUT CARD>C 6.0000000 3.64678 4.46715 -0.14571                                            
 INPUT CARD>C 6.0000000 4.51483 3.49470 0.65787                                             
 INPUT CARD>C 6.0000000 4.53705 -1.39804 1.47581                                            
 INPUT CARD>C 6.0000000 3.45799 -2.42900 1.08380                                            
 INPUT CARD>C 6.0000000 3.72203 -2.84447 -0.36629                                           
 INPUT CARD>C 6.0000000 6.15628 -2.35925 -0.02847                                           
 INPUT CARD>C 6.0000000 5.13496 -3.41450 -0.48318                                           
 INPUT CARD>C 6.0000000 -1.50911 1.37573 -0.04204                                           
 INPUT CARD>C 6.0000000 0.57329 0.23510 -0.65931                                            
 INPUT CARD>C 6.0000000 -6.26439 0.67721 -0.07809                                           
 INPUT CARD>C 6.0000000 -6.62365 -1.71905 -0.12828                                          
 INPUT CARD>C 6.0000000 -7.97657 -1.52730 0.15364                                           
 INPUT CARD>C 6.0000000 4.77451 0.98706 1.16193                                             
 INPUT CARD>C 6.0000000 -10.72259 -0.94246 0.76327                                          
 INPUT CARD>C 6.0000000 7.57678 -2.89558 0.02357                                            
 INPUT CARD>H 1.0000000 -0.27583 -2.64433 -1.72348                                          
 INPUT CARD>H 1.0000000 -9.03920 2.05793 0.55325                                            
 INPUT CARD>H 1.0000000 0.50588 4.96882 -0.60768                                            
 INPUT CARD>H 1.0000000 3.47669 6.39222 -0.27636                                            
 INPUT CARD>H 1.0000000 6.08743 4.56206 0.33995                                             
 INPUT CARD>H 1.0000000 3.31993 -3.31914 2.81275                                            
 INPUT CARD>H 1.0000000 1.99629 -3.34059 -1.08249                                           
 INPUT CARD>H 1.0000000 4.61938 -4.19971 -2.14822                                           
 INPUT CARD>C 6.0000000 -0.15911 -0.89405 -1.03211                                          
 INPUT CARD>C 6.0000000 -0.11642 1.36113 -0.18396                                           
 INPUT CARD>C 6.0000000 -5.75665 -0.62460 -0.25311                                          
 INPUT CARD>C 6.0000000 -7.60809 0.87408 0.20199                                            
 INPUT CARD>C 6.0000000 -8.47360 -0.23606 0.31757                                           
 INPUT CARD>O 8.0000000 -1.81592 -3.10507 -1.76252                                          
 INPUT CARD>O 8.0000000 0.46401 -1.99004 -1.50671                                           
 INPUT CARD>O 8.0000000 -8.09078 2.13455 0.36476                                            
 INPUT CARD>O 8.0000000 1.44941 5.08601 -0.78495                                            
 INPUT CARD>O 8.0000000 4.03804 5.78220 0.22328                                             
 INPUT CARD>O 8.0000000 5.87841 3.61731 0.29666                                             
 INPUT CARD>O 8.0000000 3.52252 -3.58337 1.90585                                            
 INPUT CARD>O 8.0000000 2.81422 -3.81494 -0.86447                                           
 INPUT CARD>O 8.0000000 5.41911 -3.74951 -1.83476                                           
 INPUT CARD>O 8.0000000 0.50043 2.53066 0.18645                                             
   30000000 WORDS OF MEMORY AVAILABLE

     BASIS OPTIONS
     -------------
     GBASIS=N21          IGAUSS=       3      POLAR=NONE    
     NDFUNC=       0     NFFUNC=       0     DIFFSP=       F
     NPFUNC=       0      DIFFS=       F     BASNAM=        


     RUN TITLE
     ---------
                                                                                 

 THE POINT GROUP OF THE MOLECULE IS C1      
 THE ORDER OF THE PRINCIPAL AXIS IS     0

 ATOM      ATOMIC                      COORDINATES (BOHR)
           CHARGE         X                   Y                   Z
 C           6.0     3.4990922279        5.1879592404       -0.2829864667
 C           6.0     4.0760633665        7.9849237776        0.1798830168
 C           6.0     7.6597586269        3.8944229045        0.6951168073
 C           6.0     6.8914149375        8.4416894461       -0.2753519737
 C           6.0     8.5317915811        6.6040254093        1.2431940355
 C           6.0     8.5737812926       -2.6419125199        2.7888765099
 C           6.0     6.5346535683       -4.5901444242        2.0480850255
 C           6.0     7.0336168181       -5.3752688803       -0.6921877320
 C           6.0    11.6336823037       -4.4583360365       -0.0538004989
 C           6.0     9.7036673579       -6.4524693851       -0.9130778027
 C           6.0    -2.8518043853        2.5997527331       -0.0794440805
 C           6.0     1.0833610115        0.4442745797       -1.2459152410
 C           6.0   -11.8379805802        1.2797413361       -0.1475687024
 C           6.0   -12.5168835386       -3.2485334592       -0.2424140497
 C           6.0   -15.0735316219       -2.8861785010        0.2903375008
 C           6.0     9.0225156256        1.8652729334        2.1957293169
 C           6.0   -20.2627569787       -1.7809911544        1.4423711546
 C           6.0    14.3180380693       -5.4718527755        0.0445408415
 H           1.0    -0.5212431192       -4.9970591211       -3.2569049453
 H           1.0   -17.0816111482        3.8889238019        1.0454909027
 H           1.0     0.9559745827        9.3897082823       -1.1483486882
 H           1.0     6.5699914443       12.0795442532       -0.5222446740
 H           1.0    11.5035746694        8.6210433395        0.6424123495
 H           1.0     6.2737579984       -6.2722651149        5.3153267720
 H           1.0     3.7724410920       -6.3127997373       -2.0456094844
 H           1.0     8.7293624332       -7.9363011279       -4.0595471613
 C           6.0    -0.3006743019       -1.6895095193       -1.9504050892
 C           6.0    -0.2200018995        2.5721627337       -0.3476339927
 C           6.0   -10.8784911072       -1.1803228519       -0.4783085448
 C           6.0   -14.3772053899        1.6517716913        0.3817057523
 C           6.0   -16.0127821296       -0.4460887167        0.6001202819
 O           8.0    -3.4315912156       -5.8677314727       -3.3306798479
 O           8.0     0.8768517556       -3.7606303046       -2.8472690430
 O           8.0   -15.2893572269        4.0337146071        0.6892964513
 O           8.0     2.7389877439        9.6111652708       -1.4833404141
 O           8.0     7.6307891275       10.9267736062        0.4219380185
 O           8.0    11.1085841435        6.8357247126        0.5606061115
 O           8.0     6.6565975863       -6.7715874126        3.6015342737
 O           8.0     5.3181046692       -7.2091912596       -1.6336114246
 O           8.0    10.2406329973       -7.0855464882       -3.4671936532
 O           8.0     0.9456755760        4.7822539681        0.3523394104
 O           8.0   -18.4607331741        0.1923363110        1.1321159420
 O           8.0     8.0396313449       -0.4738109969        1.3250758626
 C           6.0    -4.4500212422       -3.9234113012       -2.4323797024
 C           6.0    -8.1841197939       -1.5711937752       -1.0366091906
 C           6.0    -2.9736539170       -1.7191971146       -1.7146428750
 C           6.0    -4.1767101726        0.4397203401       -0.7519408678
 O           8.0    -6.7488162145        0.4809919557       -0.4295914088
 O           8.0     5.0269734835        3.6991008264        1.3076903835
 O           8.0    11.0415177682       -3.5555950349        2.4557934073
 C           6.0    -7.1420115007       -3.6990063401       -2.0448157995
 H           1.0    -3.8134859405        4.2561164586        0.6395210688
 H           1.0    -8.3221453801       -5.2758503961       -2.5927985415
 H           1.0     3.1256445782        0.3837844508       -1.3067455205
 H           1.0   -10.6192207017        2.9158849936       -0.3057387676
 H           1.0   -11.8046836083       -5.1610684396       -0.4165334022
 H           1.0     3.8139394747        4.6946462713       -2.2845842329
 H           1.0   -16.3048581782       -4.5110782889        0.4813887981
 H           1.0     3.6283305882        8.3913093512        2.1688952079
 H           1.0     7.9432742168        3.4946891664       -1.3284962666
 H           1.0     7.2767489637        8.1198691103       -2.2981713627
 H           1.0     8.2521877240        7.0010379421        3.2691692670
 H           1.0    11.0647802951        2.0176793344        1.8843402687
 H           1.0     8.6360855584        2.1071200653        4.2251816442
 H           1.0   -20.4519374473       -2.9015608706       -0.2901107336
 H           1.0   -19.7453689005       -3.0252623337        3.0164751079
 H           1.0   -22.0562014273       -0.8561214615        1.8602840568
 H           1.0     8.4510246924       -2.1813862967        4.8153052756
 H           1.0     4.6784702168       -3.6630259573        2.1918931732
 H           1.0     6.9506011554       -3.6576024438       -1.8550684131
 H           1.0    11.5257600525       -2.8705126726       -1.3881927106
 H           1.0     9.8515762110       -8.1222690623        0.3157732125
 H           1.0    14.4516416966       -7.0106755446        1.4210928400
 H           1.0    14.8550037087       -6.1945217878       -1.8140613592
 H           1.0    15.6392021990       -3.9815581698        0.5983628368

          INTERNUCLEAR DISTANCES (ANGS.)
          ------------------------------

                1 C          2 C          3 C          4 C          5 C     

   1 C       0.0000000    1.5309743 *  2.3630633 *  2.4873961 *  2.8820750 *
   2 C       1.5309743 *  0.0000000    2.8907096 *  1.5284045 *  2.5318256 *
   3 C       2.3630633 *  2.8907096 *  0.0000000    2.4938678 *  1.5339548 *
   4 C       2.4873961 *  1.5284045 *  2.4938678 *  0.0000000    1.5313101 *
   5 C       2.8820750 *  2.5318256 *  1.5339548 *  1.5313101 *  0.0000000  
   6 C       5.1982259    6.2605485    3.6640681    6.1499887    4.9606879  
   7 C       5.5566090    6.8521238    4.5853832    7.0074404    6.0322922  
   8 C       5.8984181    7.2557588    4.9709958    7.3153336    6.4701246  
   9 C       6.6784411    7.7050629    4.9108541    7.2739998    6.1183455  
  10 C       6.9882128    8.2201995    5.6456550    8.0280117    7.0301921  
  11 C       3.6307163    4.6454008    5.6194805    6.0125558    6.4239988  
  12 C       2.8627234 *  4.3589098    4.0619356    5.2555088    5.2816373  
  13 C       8.3756959    9.1399725   10.4196668   10.6112916   11.1656379  
  14 C       9.5792416   10.6059423   11.3372157   11.9896250   12.3234312  
  15 C      10.7210678   11.6527192   12.5554803   13.0814872   13.4725575  
  16 C       3.6544845    4.2984424    1.5177698 *  3.8849355    2.5709470 *
  17 C      13.1356312   13.8937515   15.0832745   15.3807971   15.8706795  
  18 C       8.0391143    8.9492181    6.0908981    8.3476553    7.1143203  
  19 H       6.0042822    7.5113093    6.7271254    8.2734138    8.1430302  
  20 H      10.9351338   11.4132343   13.0938831   12.9316269   13.6303699  
  21 H       2.6390507 *  1.9423453 *  4.6896346    3.2140849    4.4549216  
  22 H       3.9945561    2.5641124 *  4.4168321    1.9369808 *  3.2165420  
  23 H       4.6348849    3.9524442    3.2240160    2.4903104 *  1.9270187 *
  24 H       6.9072658    8.1029821    5.9548051    8.3358040    7.2456683  
  25 H       6.1587006    7.6588220    5.9590671    8.0350780    7.4895318  
  26 H       7.7387419    9.0597767    6.7709240    8.9482098    8.1907885  
  27 C       4.2505184    5.7309828    5.3325625    6.6342271    6.6304505  
  28 C       2.4063448 *  3.6674859    4.2639449    4.8796001    5.1681017  
  29 C       8.3218581    9.2881335   10.1898802   10.6940146   11.1041352  
  30 C       9.6494489   10.3246899   11.7228646   11.8196085   12.4113120  
  31 C      10.7572197   11.5309688   12.7359041   13.0091669   13.5179025  
  32 O       7.0907995    8.5423205    8.1039265    9.4759528    9.4601082  
  33 O       5.1176924    6.6380987    5.7277458    7.3265032    7.1538047  
  34 O       9.9744430   10.4623451   12.1443741   11.9779763   12.6821656  
  35 O       2.4584461 *  1.4198078 *  4.1546583    2.3706645 *  3.7430999  
  36 O       3.7605790    2.4450707 *  3.7241983    1.4207725 *  2.3767317 *
  37 O       4.1442095    3.7761889    2.3996742 *  2.4285987 *  1.4159295 *
  38 O       6.8607600    8.1314671    5.8740432    8.3087431    7.2554261  
  39 O       6.6689422    8.1240783    6.1301608    8.3548062    7.6577040  
  40 O       7.5992965    8.8298447    6.3621427    8.5736541    7.7142404  
  41 O       1.4088615 *  2.3716448 *  3.5884559    3.7094261    4.1553601  
  42 O      11.9410426   12.6288166   13.9624248   14.1277859   14.6813882  
  43 O       3.9336775    4.9802167    2.3441190 *  4.8316496    3.7547240  
  44 C       6.4988777    7.8725940    7.8050780    8.9519628    9.0559565  
  45 C       7.1537159    8.2509463    8.9162884    9.5854012    9.9205338  
  46 C       5.0661610    6.4259138    6.4894725    7.5328295    7.6758087  
  47 C       4.7826510    5.9377994    6.5697081    7.2317844    7.5486209  
  48 O       5.9681403    6.9774879    7.8583001    8.3578584    8.7560323  
  49 O       1.4081856 *  2.3985485 *  1.4341538 *  2.8237600 *  2.4091515 *
  50 O       6.2800396    7.2340852    4.4286491    6.8715116    5.5749020  
  51 C       7.3955297    8.6518249    8.9219315    9.8640762   10.0770630  
  52 H       3.9313685    4.6241814    6.0744674    6.1016435    6.6576087  
  53 H       8.4431255    9.7180268    9.9046030   10.9091899   11.0988728  
  54 H       2.6068434 *  4.1293013    3.2140810    4.7382683    4.5650553  
  55 H       7.5672272    8.2300649    9.7011387    9.7166771   10.3529961  
  56 H       9.7765517   10.9140283   11.3754918   12.2353179   12.4637178  
  57 H       1.1035446 *  2.1798142 *  2.6090800 *  2.7774599 *  3.2770164  
  58 H      11.6761500   12.6519069   13.4394456   14.0647104   14.4047554  
  59 H       2.1357975 *  1.1001013 *  3.2896964    2.1576291 *  2.8049008 *
  60 H       2.5767731 *  3.2358977    1.1018047 *  2.7337694 *  2.1578441 *
  61 H       2.7460045 *  2.1432235 *  2.7476922 *  1.1029061 *  2.1439310 *
  62 H       3.2833298    2.7977284 *  2.1578350 *  2.1489295 *  1.1024647 *
  63 H       4.4898317    4.9459065    2.1515199 *  4.2118372    2.7932174 *
  64 H       3.9672009    4.4810666    2.1566179 *  4.2143727    2.8558557 *
  65 H      13.3777454   14.2028578   15.3134746   15.6651524   16.1616982  
  66 H      13.1620374   13.9679850   15.0076736   15.4447736   15.8352745  
  67 H      13.9425658   14.6256310   15.9366152   16.1288392   16.6641261  
  68 H       5.4178413    6.3497144    3.9072318    6.2880178    5.0188204  
  69 H       4.9032749    6.2632283    4.3715119    6.6413022    5.8248081  
  70 H       5.0929927    6.4366840    4.2347221    6.4570873    5.7337130  
  71 H       6.0471751    7.0162865    4.2680203    6.4957771    5.4393376  
  72 H       7.8109635    9.0552213    6.4669888    8.9096338    7.8394299  
  73 H       8.7221016    9.6719535    6.8092979    9.1474305    7.8567471  
  74 H       8.5468563    9.4842094    6.6905739    8.8549089    7.7254919  
  75 H       8.0643400    8.8085045    5.9332065    8.0536577    6.7557859  

                6 C          7 C          8 C          9 C         10 C     

   1 C       5.1982259    5.5566090    5.8984181    6.6784411    6.9882128  
   2 C       6.2605485    6.8521238    7.2557588    7.7050629    8.2201995  
   3 C       3.6640681    4.5853832    4.9709958    4.9108541    5.6456550  
   4 C       6.1499887    7.0074404    7.3153336    7.2739998    8.0280117  
   5 C       4.9606879    6.0322922    6.4701246    6.1183455    7.0301921  
   6 C       0.0000000    1.5430233 *  2.4798689 *  2.4101221 *  2.8742389 *
   7 C       1.5430233 *  0.0000000    1.5313698 *  2.9193798 *  2.4977720 *
   8 C       2.4798689 *  1.5313698 *  0.0000000    2.5050217 *  1.5280604 *
   9 C       2.4101221 *  2.9193798 *  2.5050217 *  0.0000000    1.5373381 *
  10 C       2.8742389 *  2.4977720 *  1.5280604 *  1.5373381 *  0.0000000  
  11 C       6.8230286    6.3573240    6.7290454    8.5269258    8.2027175  
  12 C       4.7892877    4.2962024    4.4140883    6.1885692    5.8446074  
  13 C      11.1082120   10.2724487   10.5931050   12.7865396   12.1182247  
  14 C      11.2799546   10.1790290   10.4094339   12.7963444   11.8855128  
  15 C      12.5839393   11.5077115   11.7839936   14.1584870   13.2619487  
  16 C       2.4173560 *  3.6618022    4.2572048    3.8110538    4.7127531  
  17 C      15.2830586   14.2618859   14.6130283   16.9567213   16.0974070  
  18 C       3.6866768    4.2785764    3.8747517    1.5192690 *  2.5472649 *
  19 H       5.9120647    4.6763875    4.2266896    6.6578051    5.6042978  
  20 H      14.0395659   13.2888593   13.7013894   15.8351662   15.2291986  
  21 H       7.8184505    8.1427145    8.4527741    9.2716295    9.5772614  
  22 H       8.0549745    8.9254864    9.2403853    9.1558658    9.9480848  
  23 H       6.2623197    7.5061433    7.8070852    6.9314505    8.0752865  
  24 H       2.6380703 *  1.9495327 *  3.2393350    4.1278083    3.7638520  
  25 H       4.0955904    2.7677384 *  1.9331984 *  4.4022157    3.1962297  
  26 H       4.5814546    3.8639609    2.4118845 *  3.2004210    1.9117363 *
  27 C       5.3476712    4.4627972    4.3943944    6.5603548    5.8890720  
  28 C       5.6588549    5.3617821    5.6968425    7.2946672    7.1044469  
  29 C      10.4665005    9.4843438    9.7358106   12.0406551   11.2456055  
  30 C      12.4213354   11.5821437   11.9382652   14.1409128   13.4627894  
  31 C      13.1136849   12.1556133   12.4901905   14.7871927   13.9977351  
  32 O       7.3321866    6.0309813    5.7171899    8.1926278    7.0744039  
  33 O       5.0828677    3.9833835    3.5560234    5.8926605    4.9894362  
  34 O      13.1596244   12.4385327   12.8400761   14.9441489   14.3677123  
  35 O       7.5291076    8.0001247    8.2603021    8.8407457    9.2700062  
  36 O       7.3057299    8.2765185    8.6525655    8.4162656    9.2887895  
  37 O       5.3238498    6.5601743    6.8442734    5.9918437    7.1138752  
  38 O       2.4474216 *  1.4186262 *  2.3975816 *  3.4895208    2.8872035 *
  39 O       3.7797433    2.4760908 *  1.4191950 *  3.7399591    2.3857008 *
  40 O       4.1553959    3.7560259    2.4198310 *  2.3956056 *  1.4211761 *
  41 O       5.7785322    5.8438537    6.2909658    7.4797092    7.5678399  
  42 O      14.4111472   13.4756468   13.8426962   16.1265323   15.3513373  
  43 O       1.4128827 *  2.3506373 *  2.8548957 *  2.9318016 *  3.4910744  
  44 C       7.4560152    6.2876897    6.1940892    8.6083543    7.6507998  
  45 C       9.1136557    8.1168216    8.3026734   10.6105882    9.8121369  
  46 C       6.5770655    5.6204596    5.6638715    7.9135543    7.1734431  
  47 C       7.1899763    6.4349563    6.6829263    8.7665821    8.2012764  
  48 O       8.4485110    7.6375123    7.9256587   10.0746014    9.4512725  
  49 O       3.9238487    4.4756281    5.0305337    5.6014364    6.0302448  
  50 O       1.4036154 *  2.4564510 *  2.8636396 *  1.4456965 *  2.4554633 *
  51 C       8.7188785    7.5692166    7.5875215    9.9994535    9.0524780  
  52 H       7.5886107    7.2426635    7.7085101    9.3925218    9.1625296  
  53 H       9.4864877    8.2445148    8.1880948   10.6540860    9.6003870  
  54 H       3.9462276    3.6515607    3.6973029    5.2225990    5.0246689  
  55 H      10.6998159    9.9864085   10.3225548   12.4061800   11.8464185  
  56 H      10.9975030    9.7966644    9.9705115   12.4101080   11.4052544  
  57 H       5.3502200    5.6098191    5.6576260    6.4789507    6.7109213  
  58 H      13.2586623   12.1146239   12.3742476   14.7871787   13.8211224  
  59 H       6.4066265    7.0398367    7.6557235    8.0972665    8.6427143  
  60 H       3.9247753    4.6959837    4.7303983    4.6883602    5.3501238  
  61 H       6.3363599    7.1190586    7.1928610    7.1435266    7.8518468  
  62 H       5.1119891    6.2343386    6.9067309    6.5625209    7.4948172  
  63 H       2.8366595 *  4.2404302    4.6598995    3.5897886    4.7749735  
  64 H       2.6257093 *  3.8889710    4.8133193    4.4400616    5.3131086  
  65 H      15.4465373   14.3620165   14.6050677   16.9994136   16.0712929  
  66 H      14.9877069   13.9408451   14.3600297   16.7016015   15.8261413  
  67 H      16.2436486   15.2584402   15.6367654   17.9581267   17.1285113  
  68 H       1.1016000 *  2.1903146 *  3.4515344    3.3056429    3.8388386  
  69 H       2.1542461 *  1.1005928 *  2.1687498 *  3.8904654    3.4568864  
  70 H       2.6581645 *  2.1349698 *  1.0985446 *  2.6887719 *  2.1350188 *
  71 H       2.7093846 *  3.3332405    2.7465052 *  1.0990379 *  2.1414470 *
  72 H       3.2527535    2.7230160 *  2.1497164 *  2.1649036 *  1.0998975 *
  73 H       3.9425007    4.3934713    4.1723739    2.1580211 *  2.8152631 *
  74 H       4.5293933    4.9278430    4.2036752    2.1488617 *  2.7707154 *
  75 H       3.9781029    4.8892335    4.6634914    2.1623107 *  3.4949916  

               11 C         12 C         13 C         14 C         15 C     

   1 C       3.6307163    2.8627234 *  8.3756959    9.5792416   10.7210678  
   2 C       4.6454008    4.3589098    9.1399725   10.6059423   11.6527192  
   3 C       5.6194805    4.0619356   10.4196668   11.3372157   12.5554803  
   4 C       6.0125558    5.2555088   10.6112916   11.9896250   13.0814872  
   5 C       6.4239988    5.2816373   11.1656379   12.3234312   13.4725575  
   6 C       6.8230286    4.7892877   11.1082120   11.2799546   12.5839393  
   7 C       6.3573240    4.2962024   10.2724487   10.1790290   11.5077115  
   8 C       6.7290454    4.4140883   10.5931050   10.4094339   11.7839936  
   9 C       8.5269258    6.1885692   12.7865396   12.7963444   14.1584870  
  10 C       8.2027175    5.8446074   12.1182247   11.8855128   13.2619487  
  11 C       0.0000000    2.4532527 *  4.8064454    5.9785968    7.0918201  
  12 C       2.4532527 *  0.0000000    6.8765650    7.4764056    8.7673854  
  13 C       4.8064454    6.8765650    0.0000000    2.4235612 *  2.8009148 *
  14 C       5.9785968    7.4764056    2.4235612 *  0.0000000    1.3952202 *
  15 C       7.0918201    8.7673854    2.8009148 *  1.3952202 *  0.0000000  
  16 C       6.4097183    4.6403242   11.1126491   11.7858273   13.0356701  
  17 C       9.5347125   11.4458414    4.8173400    4.2660594    2.8730319 *
  18 C      10.0400095    7.7017111   14.2952142   14.2498945   15.6139618  
  19 H       4.5286977    3.1850557    7.0429246    6.6102666    8.0045445  
  20 H       7.5843274    9.8586498    3.1629968    4.5348586    3.7606841  
  21 H       4.1581762    4.7344815    8.0333640    9.7871154   10.7112624  
  22 H       7.0766008    6.8181016   11.2955429   12.9549796   13.9312907  
  23 H       8.2465772    7.0800313   12.9550868   14.1860191   15.3268103  
  24 H       7.3151389    5.6773104   10.7790055   10.4921270   11.7427624  
  25 H       5.9677500    3.8716365    9.2406910    8.8228836   10.2114629  
  26 H       8.5486791    6.1850818   12.1048022   11.6892923   13.0804545  
  27 C       2.8203971 *  1.3965562 *  6.3760063    6.5793473    7.9321932  
  28 C       1.3999785 *  1.4034248 *  6.1867997    7.1996286    8.3808687  
  29 C       4.6997305    6.4009548    1.4082405 *  1.4018175 *  2.4307113 *
  30 C       6.1244396    8.2513703    1.3866262 *  2.7932998 *  2.4299673 *
  31 C       7.1576049    9.1116686    2.4230596 *  2.4125415 *  1.3932741 *
  32 O       4.8095481    4.2523091    6.0771566    5.2636546    6.6418850  
  33 O       4.1673575    2.3835429 *  7.3774348    7.2255401    8.6147711  
  34 O       6.6377462    8.9287591    2.3781624 *  4.1528053    3.6697086  
  35 O       4.8032212    4.9309938    8.9129052   10.5789581   11.5527451  
  36 O       7.0893050    6.5995285   11.5018177   13.0408581   14.0635875  
  37 O       7.7275384    6.3637663   12.4992887   13.5999565   14.7799844  
  38 O       7.3283183    5.4643130   10.8568949   10.5146631   11.8121435  
  39 O       6.8051913    4.6332151   10.1596735    9.6957785   11.0774994  
  40 O       8.8023953    6.3828498   12.6168899   12.3313791   13.7235635  
  41 O       2.3290174 *  2.4474914 *  7.0191202    8.3013015    9.3982788  
  42 O       8.3821107   10.4194197    3.6155198    3.7064424    2.4627490 *
  43 O       6.0345431    3.9544299   10.5883473   11.0079860   12.3095831  
  44 C       3.7658044    3.7828844    4.9322925    4.4377019    5.8293147  
  45 C       3.6180614    5.0199965    2.4971853 *  2.4942755 *  3.7773756  
  46 C       2.4446643 *  2.4456741 *  5.0209312    5.1734907    6.5196019  
  47 C       1.3873497 *  2.7957582 *  4.0909873    4.8332550    6.0541362  
  48 O       2.3545980 *  4.1671065    2.7301203 *  3.6361446    4.7672092  
  49 O       4.2731792    3.0245095    9.0487415   10.0189251   11.2059604  
  50 O       8.1524240    6.0071872   12.4511866   12.5491222   13.8714419  
  51 C       4.1648276    4.8920075    3.7582614    3.0093779    4.3963975  
  52 H       1.0825889 *  3.4320773    4.5481802    6.0992518    7.0585766  
  53 H       5.2457110    5.8687994    4.1436988    2.7613800 *  4.0854479  
  54 H       3.4354438    1.0816830 *  7.9562729    8.5165521    9.8212410  
  55 H       4.1154855    6.3488747    1.0828574 *  3.4133036    3.8836034  
  56 H       6.2724364    7.4501211    3.4113460    1.0838884 *  2.1403998 *
  57 H       3.8772252    2.7292699 *  8.5525753    9.6704930   10.8556903  
  58 H       8.0578094    9.6113692    3.8843980    2.1473555 *  1.0835820 *
  59 H       4.7505060    4.7712061    9.0911848   10.6095524   11.5993717  
  60 H       5.7700892    3.9730696   10.5517283   11.4143996   12.6683469  
  61 H       6.2160203    5.2487354   10.8033233   12.1279137   13.2544747  
  62 H       6.5644254    5.6690967   11.2008487   12.3960745   13.4988923  
  63 H       7.4436749    5.5978558   12.1734884   12.8356952   14.0983785  
  64 H       6.4971267    5.0130043   11.0874048   11.7864125   12.9897869  
  65 H       9.7586012   11.5437959    5.0675142    4.2031382    2.8626682 *
  66 H       9.5635965   11.3993384    5.0499987    4.1975869    2.8632956 *
  67 H      10.3766582   12.3739119    5.6253662    5.3219438    3.9367210  
  68 H       6.9917875    5.2363140   11.2037366   11.4279316   12.6823465  
  69 H       5.3204399    3.4136344    9.2067288    9.1927371   10.5086792  
  70 H       6.2253040    3.8020187   10.3196853   10.3393022   11.7169485  
  71 H       8.1697664    5.7980963   12.5742596   12.7388300   14.1037405  
  72 H       8.7992141    6.5392722   12.5119858   12.1181921   13.4777019  
  73 H      10.5041509    8.2218571   14.6108124   14.4361874   15.7871050  
  74 H      10.5022583    8.0957988   14.6951028   14.5919524   15.9728351  
  75 H      10.3925131    8.1097492   14.8097158   14.9112477   16.2636303  

               16 C         17 C         18 C         19 H         20 H     

   1 C       3.6544845   13.1356312    8.0391143    6.0042822   10.9351338  
   2 C       4.2984424   13.8937515    8.9492181    7.5113093   11.4132343  
   3 C       1.5177698 * 15.0832745    6.0908981    6.7271254   13.0938831  
   4 C       3.8849355   15.3807971    8.3476553    8.2734138   12.9316269  
   5 C       2.5709470 * 15.8706795    7.1143203    8.1430302   13.6303699  
   6 C       2.4173560 * 15.2830586    3.6866768    5.9120647   14.0395659  
   7 C       3.6618022   14.2618859    4.2785764    4.6763875   13.2888593  
   8 C       4.2572048   14.6130283    3.8747517    4.2266896   13.7013894  
   9 C       3.8110538   16.9567213    1.5192690 *  6.6578051   15.8351662  
  10 C       4.7127531   16.0974070    2.5472649 *  5.6042978   15.2291986  
  11 C       6.4097183    9.5347125   10.0400095    4.5286977    7.5843274  
  12 C       4.6403242   11.4458414    7.7017111    3.1850557    9.8586498  
  13 C      11.1126491    4.8173400   14.2952142    7.0429246    3.1629968  
  14 C      11.7858273    4.2660594   14.2498945    6.6102666    4.5348586  
  15 C      13.0356701    2.8730319 * 15.6139618    8.0045445    3.7606841  
  16 C       0.0000000   15.6218464    4.9217349    6.8570051   13.8685197  
  17 C      15.6218464    0.0000000   18.4181643   10.8726759    3.4467739  
  18 C       4.9217349   18.4181643    0.0000000    8.0485274   17.3467177  
  19 H       6.8570051   10.8726759    8.0485274    0.0000000   10.2025194  
  20 H      13.8685197    3.4467739   17.3467177   10.2025194    0.0000000  
  21 H       6.0997651   12.7632783   10.5945689    7.7340890   10.0463720  
  22 H       5.7418437   16.0155522   10.1569644    9.8911475   13.2710898  
  23 H       3.8961564   17.6933805    7.6114817    9.8326435   15.3339851  
  24 H       4.8357386   14.3889313    5.1068288    5.8277132   13.6662473  
  25 H       5.6111035   13.0739346    5.7064237    2.4613361 * 12.3936154  
  26 H       6.1549770   15.9518806    3.8940521    5.1539007   15.2647570  
  27 C       5.7177786   10.7150755    8.0600606    1.8854963 *  9.4912355  
  28 C       5.0865061   10.8947058    8.7947698    4.2940940    8.9802568  
  29 C      10.7473307    5.0788408   13.5282762    6.0233450    4.3152425  
  30 C      12.4202670    3.6489674   15.6468031    8.3575523    1.8902276 *
  31 C      13.3312184    2.3990843 * 16.2718831    8.7845935    2.3744133 *
  32 O       8.2904586    9.5071167    9.5633057    1.6080058 *  9.1757906  
  33 O       5.8792154   11.4625587    7.3316612    1.0111616 * 10.5328295  
  34 O      12.9409389    4.0685654   16.4587683    9.3953118    0.9699998 *
  35 O       5.6256575   13.6710285   10.0947584    7.9759293   10.9986812  
  36 O       4.9413378   16.2292587    9.3737095    9.6646654   13.6012232  
  37 O       2.9808560 * 17.2221494    6.7362285    9.0090938   15.0010864  
  38 O       4.7968455   14.5328268    4.5225056    5.3367870   13.8365676  
  39 O       5.5685041   13.9336249    4.9311069    3.4141814   13.3042887  
  40 O       5.6418752   16.5886639    2.9728987 *  5.8022537   15.7629845  
  41 O       4.6477975   11.7622898    8.9188194    5.5705416    9.5583762  
  42 O      14.5812960    1.4236313 * 17.6122535   10.1516367    2.0883563 *
  43 O       1.4194791 * 14.9930742    4.3003127    5.6684466   13.4933812  
  44 C       8.1369070    8.6895717   10.0512041    2.1989756 *  8.0720821  
  45 C       9.4414122    6.5259128   12.0987457    4.5945857    5.6330260  
  46 C       6.9410532    9.3003356    9.4095358    2.3149476 *  8.1655293  
  47 C       7.1964316    8.6712029   10.2834375    3.7116364    7.1324031  
  48 O       8.4923214    7.3181101   11.5873326    4.6370366    5.8102727  
  49 O       2.3733995 * 13.6935287    6.9406154    5.9691906   11.7006139  
  50 O       3.0641973   16.6007707    2.3796371 *  6.8672892   15.4127831  
  51 C       9.3206632    7.2555820   11.4483694    3.6274193    6.8163765  
  52 H       6.9582453    9.2820428   10.8930793    5.5913344    7.0271628  
  53 H      10.2442334    6.9214046   12.0621294    4.1456179    6.9794944  
  54 H       3.7131213   12.5143564    6.7225119    3.5912539   10.9240463  
  55 H      10.4926513    5.7511203   13.9239367    6.9661360    3.5314451  
  56 H      11.7134268    4.9193409   13.8266812    6.1578281    5.5974307  
  57 H       3.9318912   13.3402151    7.8332286    5.6418428   11.2051033  
  58 H      13.8506288    2.5946865 * 16.2145617    8.5872526    4.4740236  
  59 H       4.4804505   13.7462650    9.3316922    7.9536358   11.2309715  
  60 H       2.1325203 * 15.2554624    5.8669918    6.4263256   13.3036899  
  61 H       4.1789197   15.6124605    8.1946127    8.0910779   13.2019986  
  62 H       2.8062245 * 15.8184463    7.5352642    8.5902448   13.5580061  
  63 H       1.0961809 * 16.7008862    4.4293634    7.6662224   14.9339087  
  64 H       1.1007008 * 15.5005089    5.4790464    7.3001080   13.7452217  
  65 H      15.8545380    1.0964266 * 18.4505340   10.7205820    4.0734143  
  66 H      15.4478263    1.0965217 * 18.1403157   10.7516823    4.0573215  
  67 H      16.5100348    1.0904747 * 19.4265516   11.9163316    3.6634162  
  68 H       2.5687853 * 15.3006206    4.3640029    6.5581733   14.0304405  
  69 H       3.7205652   13.2417939    5.3130093    4.0476375   12.2037880  
  70 H       3.7866300   14.5399732    4.1390709    4.0848832   13.4176492  
  71 H       3.4105626   16.8981547    2.1571041 *  6.5486528   15.6084369  
  72 H       5.3958586   16.2962030    2.7521061 *  6.0364802   15.6102609  
  73 H       5.5211711   18.5773590    1.0948626 *  8.3691284   17.6565156  
  74 H       5.6761908   18.8088140    1.0928484 *  8.1970338   17.7869713  
  75 H       4.7483908   19.0393938    1.0938967 *  8.8081283   17.8105374  

               21 H         22 H         23 H         24 H         25 H     

   1 C       2.6390507 *  3.9945561    4.6348849    6.9072658    6.1587006  
   2 C       1.9423453 *  2.5641124 *  3.9524442    8.1029821    7.6588220  
   3 C       4.6896346    4.4168321    3.2240160    5.9548051    5.9590671  
   4 C       3.2140849    1.9369808 *  2.4903104 *  8.3358040    8.0350780  
   5 C       4.4549216    3.2165420    1.9270187 *  7.2456683    7.4895318  
   6 C       7.8184505    8.0549745    6.2623197    2.6380703 *  4.0955904  
   7 C       8.1427145    8.9254864    7.5061433    1.9495327 *  2.7677384 *
   8 C       8.4527741    9.2403853    7.8070852    3.2393350    1.9331984 *
   9 C       9.2716295    9.1558658    6.9314505    4.1278083    4.4022157  
  10 C       9.5772614    9.9480848    8.0752865    3.7638520    3.1962297  
  11 C       4.1581762    7.0766008    8.2465772    7.3151389    5.9677500  
  12 C       4.7344815    6.8181016    7.0800313    5.6773104    3.8716365  
  13 C       8.0333640   11.2955429   12.9550868   10.7790055    9.2406910  
  14 C       9.7871154   12.9549796   14.1860191   10.4921270    8.8228836  
  15 C      10.7112624   13.9312907   15.3268103   11.7427624   10.2114629  
  16 C       6.0997651    5.7418437    3.8961564    4.8357386    5.6111035  
  17 C      12.7632783   16.0155522   17.6933805   14.3889313   13.0739346  
  18 C      10.5945689   10.1569644    7.6114817    5.1068288    5.7064237  
  19 H       7.7340890    9.8911475    9.8326435    5.8277132    2.4613361 *
  20 H      10.0463720   13.2710898   15.3339851   13.6662473   12.3936154  
  21 H       0.0000000    3.3108235    5.6760159    9.3972602    8.4553569  
  22 H       3.3108235    0.0000000    3.2473508   10.1920404    9.8777032  
  23 H       5.6760159    3.2473508    0.0000000    8.7113208    9.0118055  
  24 H       9.3972602   10.1920404    8.7113208    0.0000000    4.1140464  
  25 H       8.4553569    9.8777032    9.0118055    4.1140464    0.0000000  
  26 H      10.1664196   10.8165883    9.2257669    5.2033832    2.9587952 *
  27 C       5.9157077    8.1780151    8.4066014    5.7243104    3.2609577  
  28 C       3.6854068    6.1831096    7.0005849    6.5340416    5.2323103  
  29 C       8.4042459   11.5970199   12.9435464    9.9521027    8.2566671  
  30 C       9.1246354   12.3915711   14.1840579   11.9925303   10.5668088  
  31 C      10.4200731   13.6783142   15.3312117   12.4426145   11.0098534  
  32 O       8.4801008   10.9735550   11.2101830    6.8815606    3.8795432  
  33 O       7.0168184    8.9917898    8.8296670    5.3460752    2.0861040 *
  34 O       9.1039161   12.3428178   14.3845424   12.8817581   11.5680885  
  35 O       0.9671644 *  2.4646932 *  4.8011616    9.3321400    8.4495678  
  36 O       3.7186336    0.9679248 *  2.3879600 *  9.4897538    9.4392307  
  37 O       5.6132423    3.7143958    0.9685639 *  7.8096650    8.0861167  
  38 O       9.4105209   10.2115884    8.6820986    0.9660889 *  3.3642973  
  39 O       9.0856378   10.2455285    9.0740653    3.7447973    0.9703351 *
  40 O      10.0824021   10.4430021    8.6173204    5.1177265    3.5282889  
  41 O       2.5642341 *  4.8973424    5.9468241    7.0047978    6.1902651  
  42 O      11.4331768   14.6896001   16.4738467   13.7085037   12.3733452  
  43 O       6.5580635    6.7593806    5.1627013    3.8401821    4.2222980  
  44 C       7.6339698   10.3316201   10.8621273    7.1103685    4.5357515  
  45 C       7.5525141   10.6401613   11.7651958    8.7190265    6.8274172  
  46 C       6.2427318    8.9006959    9.4967257    6.6023325    4.3224590  
  47 C       5.4637103    8.3842429    9.3882308    7.3148064    5.5616280  
  48 O       6.2444180    9.3460199   10.5909430    8.3368178    6.6823998  
  49 O       3.9240615    4.6120886    4.3190226    5.7249974    5.6266405  
  50 O       8.8909479    8.7485794    6.5192483    3.2744384    4.7538935  
  51 C       8.1585246   11.0912813   11.9113403    8.2112253    5.9389908  
  52 H       3.8268698    6.9071787    8.4281331    8.1028506    7.0294621  
  53 H       9.2151103   12.1511894   12.9258995    8.8004529    6.4301830  
  54 H       4.9027986    6.4652763    6.3023514    5.2403367    3.5815765  
  55 H       7.0323958   10.3086192   12.1003052   10.6019339    9.0937798  
  56 H      10.2487720   13.3335718   14.3400481   10.0532401    8.3103945  
  57 H       2.9701226 *  4.2741795    4.8243553    7.1797185    5.8263040  
  58 H      11.7594599   14.9628531   16.2741362   12.2543403   10.7506349  
  59 H       2.3152575 *  2.8741038 *  4.2467058    8.0587759    8.0947454  
  60 H       4.8386036    4.6204079    3.4635743    6.3129995    5.6524686  
  61 H       3.4654756    2.3267226 *  2.7376556 *  8.6323209    7.8604804  
  62 H       4.6871765    3.4698790    2.3722129 *  7.1835986    7.9477645  
  63 H       6.8124653    5.9690608    3.5631883    5.3822488    6.2168665  
  64 H       6.2812921    5.9460322    4.2165143    4.6430020    6.1227639  
  65 H      13.0708984   16.3503956   17.9826448   14.5600250   12.9787540  
  66 H      12.9623895   16.1652685   17.6920114   13.9287525   12.8484409  
  67 H      13.4247287   16.6709044   18.4648622   15.3721986   14.1216986  
  68 H       7.9487844    8.1190668    6.3374048    2.4665451 *  4.9082402  
  69 H       7.3969073    8.5125676    7.4814753    2.3132316 *  2.6878151 *
  70 H       7.6074143    8.3599801    7.0547906    4.0546562    2.1938262 *
  71 H       8.5669679    8.3471519    6.1752901    4.8526627    4.5025332  
  72 H      10.4228405   10.8395386    8.9048803    3.3974182    3.5814860  
  73 H      11.3212727   10.9775070    8.4278530    4.8090564    5.9529590  
  74 H      11.0558085   10.6396440    8.1425800    5.9038728    5.8662538  
  75 H      10.5496092    9.7785506    7.0189517    5.6799390    6.5508060  

               26 H         27 C         28 C         29 C         30 C     

   1 C       7.7387419    4.2505184    2.4063448 *  8.3218581    9.6494489  
   2 C       9.0597767    5.7309828    3.6674859    9.2881335   10.3246899  
   3 C       6.7709240    5.3325625    4.2639449   10.1898802   11.7228646  
   4 C       8.9482098    6.6342271    4.8796001   10.6940146   11.8196085  
   5 C       8.1907885    6.6304505    5.1681017   11.1041352   12.4113120  
   6 C       4.5814546    5.3476712    5.6588549   10.4665005   12.4213354  
   7 C       3.8639609    4.4627972    5.3617821    9.4843438   11.5821437  
   8 C       2.4118845 *  4.3943944    5.6968425    9.7358106   11.9382652  
   9 C       3.2004210    6.5603548    7.2946672   12.0406551   14.1409128  
  10 C       1.9117363 *  5.8890720    7.1044469   11.2456055   13.4627894  
  11 C       8.5486791    2.8203971 *  1.3999785 *  4.6997305    6.1244396  
  12 C       6.1850818    1.3965562 *  1.4034248 *  6.4009548    8.2513703  
  13 C      12.1048022    6.3760063    6.1867997    1.4082405 *  1.3866262 *
  14 C      11.6892923    6.5793473    7.1996286    1.4018175 *  2.7932998 *
  15 C      13.0804545    7.9321932    8.3808687    2.4307113 *  2.4299673 *
  16 C       6.1549770    5.7177786    5.0865061   10.7473307   12.4202670  
  17 C      15.9518806   10.7150755   10.8947058    5.0788408    3.6489674  
  18 C       3.8940521    8.0600606    8.7947698   13.5282762   15.6468031  
  19 H       5.1539007    1.8854963 *  4.2940940    6.0233450    8.3575523  
  20 H      15.2647570    9.4912355    8.9802568    4.3152425    1.8902276 *
  21 H      10.1664196    5.9157077    3.6854068    8.4042459    9.1246354  
  22 H      10.8165883    8.1780151    6.1831096   11.5970199   12.3915711  
  23 H       9.2257669    8.4066014    7.0005849   12.9435464   14.1840579  
  24 H       5.2033832    5.7243104    6.5340416    9.9521027   11.9925303  
  25 H       2.9587952 *  3.2609577    5.2323103    8.2566671   10.5668088  
  26 H       0.0000000    5.9166761    7.5636671   11.1370935   13.4453655  
  27 C       5.9166761    0.0000000    2.4097754 *  5.6579058    7.7547785  
  28 C       7.5636671    2.4097754 *  0.0000000    5.9799749    7.5173995  
  29 C      11.1370935    5.6579058    5.9799749    0.0000000    2.4250748 *
  30 C      13.4453655    7.7547785    7.5173995    2.4250748 *  0.0000000  
  31 C      13.9002434    8.4489840    8.5232040    2.8032938 *  1.4124012 *
  32 O       6.5391198    2.8578187 *  5.0326031    4.8949365    7.2967231  
  33 O       4.7498712    1.3471146 *  3.6492337    6.4909591    8.7339360  
  34 O      14.4217227    8.6043624    8.0305473    3.6664472    1.3595103 *
  35 O       9.9061502    6.1975432    4.0850635    9.2098437   10.0375650  
  36 O      10.2762102    7.9852606    6.0803982   11.7136666   12.6381343  
  37 O       8.2866396    7.6530809    6.4233426   12.3963974   13.7629922  
  38 O       4.2448157    5.4238778    6.4851577    9.9758921   12.1104285  
  39 O       2.2482581 *  4.1713778    5.9869396    9.1657975   11.4781876  
  40 O       0.9697965 *  6.3177874    7.7127086   11.7117160   13.9726116  
  41 O       8.2288707    3.6943904    1.3731380 *  7.0213908    8.2760253  
  42 O      15.2668270    9.7980854    9.7658297    4.1656722    2.3288769 *
  43 O       4.8833242    4.7851026    4.7418963   10.0633696   11.9261410  
  44 C       7.3410277    2.5067421 *  4.2476722    3.8403889    6.2062978  
  45 C       9.6959169    4.2001387    4.7646311    1.4707050 *  3.7699351  
  46 C       7.1215453    1.4200583 *  2.7934887 *  4.2435053    6.3896722  
  47 C       8.3278563    2.4246247 *  2.3881269 *  3.6514489    5.4688446  
  48 O       9.5193297    3.6891847    3.6280544    2.3556743 *  4.1065399  
  49 O       7.0580721    4.3648668    2.9719246 *  8.8545503   10.3368672  
  50 O       4.3310599    6.5143026    6.9447422   11.7703303   13.7741697  
  51 C       8.7580724    3.7735527    5.0236233    2.5245133 *  4.9320587  
  52 H       9.5846744    3.9029479    2.1640246 *  4.7543186    5.7590739  
  53 H       9.1653632    4.6621239    6.0861550    2.7890863 *  5.1169928  
  54 H       5.5045473    2.1464323 *  2.1755715 *  7.4696242    9.3292676  
  55 H      11.9062375    6.0425227    5.5060798    2.1738766 *  2.1294379 *
  56 H      11.1331211    6.4104034    7.3708229    2.1630332 *  3.8767370  
  57 H       7.2335396    4.0231104    2.6208646 *  8.4278087    9.8615405  
  58 H      13.5851710    8.6954108    9.3108460    3.4073595    3.4174569  
  59 H       9.6334227    6.1263237    3.9246637    9.3031664   10.2175719  
  60 H       6.2331625    5.1638962    4.3781934   10.2725477   11.8861850  
  61 H       8.5820271    6.5618447    5.0420045   10.8373926   12.0428438  
  62 H       8.8082484    7.0187542    5.4088593   11.1875771   12.3994883  
  63 H       6.2583058    6.6436951    6.0944007   11.8009669   13.4881710  
  64 H       6.8897931    6.0894012    5.2800433   10.7638972   12.3491333  
  65 H      15.7966768   10.7189297   11.0912342    5.1482434    4.0330995  
  66 H      15.7424559   10.6435724   10.8949918    5.1370775    4.0173524  
  67 H      17.0073014   11.6961203   11.7549749    6.0454958    4.3457891  
  68 H       5.5992735    5.8595244    5.9030872   10.6186065   12.4719567  
  69 H       4.5444932    3.5830139    4.4059148    8.4554649   10.5124310  
  70 H       2.7154054 *  3.9763533    5.0894605    9.5532091   11.6907213  
  71 H       3.3725736    6.2964399    6.8725519   11.8992550   13.9460768  
  72 H       2.3922895 *  6.4720811    7.7817429   11.5762512   13.8253071  
  73 H       4.2214509    8.4885150    9.3203770   13.7913009   15.9388745  
  74 H       3.5733958    8.3671659    9.2607676   13.8916757   16.0586574  
  75 H       4.8811260    8.6278511    9.0944699   14.1221357   16.1617184  

               31 C         32 O         33 O         34 O         35 O     

   1 C      10.7572197    7.0907995    5.1176924    9.9744430    2.4584461 *
   2 C      11.5309688    8.5423205    6.6380987   10.4623451    1.4198078 *
   3 C      12.7359041    8.1039265    5.7277458   12.1443741    4.1546583  
   4 C      13.0091669    9.4759528    7.3265032   11.9779763    2.3706645 *
   5 C      13.5179025    9.4601082    7.1538047   12.6821656    3.7430999  
   6 C      13.1136849    7.3321866    5.0828677   13.1596244    7.5291076  
   7 C      12.1556133    6.0309813    3.9833835   12.4385327    8.0001247  
   8 C      12.4901905    5.7171899    3.5560234   12.8400761    8.2603021  
   9 C      14.7871927    8.1926278    5.8926605   14.9441489    8.8407457  
  10 C      13.9977351    7.0744039    4.9894362   14.3677123    9.2700062  
  11 C       7.1576049    4.8095481    4.1673575    6.6377462    4.8032212  
  12 C       9.1116686    4.2523091    2.3835429 *  8.9287591    4.9309938  
  13 C       2.4230596 *  6.0771566    7.3774348    2.3781624 *  8.9129052  
  14 C       2.4125415 *  5.2636546    7.2255401    4.1528053   10.5789581  
  15 C       1.3932741 *  6.6418850    8.6147711    3.6697086   11.5527451  
  16 C      13.3312184    8.2904586    5.8792154   12.9409389    5.6256575  
  17 C       2.3990843 *  9.5071167   11.4625587    4.0685654   13.6710285  
  18 C      16.2718831    9.5633057    7.3316612   16.4587683   10.0947584  
  19 H       8.7845935    1.6080058 *  1.0111616 *  9.3953118    7.9759293  
  20 H       2.3744133 *  9.1757906   10.5328295    0.9699998 * 10.9986812  
  21 H      10.4200731    8.4801008    7.0168184    9.1039161    0.9671644 *
  22 H      13.6783142   10.9735550    8.9917898   12.3428178    2.4646932 *
  23 H      15.3312117   11.2101830    8.8296670   14.3845424    4.8011616  
  24 H      12.4426145    6.8815606    5.3460752   12.8817581    9.3321400  
  25 H      11.0098534    3.8795432    2.0861040 * 11.5680885    8.4495678  
  26 H      13.9002434    6.5391198    4.7498712   14.4217227    9.9061502  
  27 C       8.4489840    2.8578187 *  1.3471146 *  8.6043624    6.1975432  
  28 C       8.5232040    5.0326031    3.6492337    8.0305473    4.0850635  
  29 C       2.8032938 *  4.8949365    6.4909591    3.6664472    9.2098437  
  30 C       1.4124012 *  7.2967231    8.7339360    1.3595103 * 10.0375650  
  31 C       0.0000000    7.5420618    9.2889890    2.4017847 * 11.3139784  
  32 O       7.5420618    0.0000000    2.5508452 *  8.4470590    8.8719679  
  33 O       9.2889890    2.5508452 *  0.0000000    9.6798282    7.1806987  
  34 O       2.4017847 *  8.4470590    9.6798282    0.0000000   10.0522721  
  35 O      11.3139784    8.8719679    7.1806987   10.0522721    0.0000000  
  36 O      13.8841449   10.8257017    8.7277873   12.6662402    2.8639507 *
  37 O      14.8603193   10.4227314    8.0006403   14.0478284    4.7898853  
  38 O      12.5552385    6.4949712    4.8516749   13.0360387    9.3110869  
  39 O      11.9004404    4.7695498    3.0440465   12.4830470    9.0053285  
  40 O      14.4908332    7.2640334    5.2684312   14.8988986    9.7430505  
  41 O       9.3917595    6.3972974    4.8275093    8.6021850    2.8937855 *
  42 O       1.3680097 *  8.8945247   10.6547923    2.6464102 * 12.3535759  
  43 O      12.7337786    7.1460364    4.7187971   12.5779957    6.2094564  
  44 C       6.5878905    1.2550009 *  2.8287089 *  7.3047916    8.1253661  
  45 C       4.2739933    3.6011095    5.0250480    4.8752749    8.2754761  
  46 C       7.0402016    2.3684226 *  2.3828661 *  7.3047829    6.7158595  
  47 C       6.3215162    3.6274336    3.6498592    6.2273367    6.0907641  
  48 O       4.9568078    4.0896393    4.7915338    4.9305745    6.9901265  
  49 O      11.3539609    7.1895322    5.0239740   10.7573766    3.6653781  
  50 O      14.4441903    8.3385328    6.0679107   14.5310291    8.4967537  
  51 C       5.1920819    2.3738796 *  4.2647188    6.1176549    8.7771679  
  52 H       6.9185774    5.7580865    5.2499398    6.0739674    4.6168403  
  53 H       5.0940621    2.6359355 *  4.9353317    6.3936830    9.8319196  
  54 H      10.1872352    4.9123813    2.6249782 *  9.9903629    4.8880984  
  55 H       3.3972171    6.2156188    7.1623885    2.5951175 *  7.9315754  
  56 H       3.3872599    4.7064151    6.8730131    5.2361773   10.9844163  
  57 H      10.9457543    6.8006144    4.7459500   10.2367659    2.6967109 *
  58 H       2.1575606 *  7.1408225    9.2697339    4.5548593   12.5891478  
  59 H      11.4274595    8.9085551    7.1075848   10.3027529    2.0912750 *
  60 H      12.8878501    7.8676970    5.4193708   12.3437578    4.2505767  
  61 H      13.2207286    9.3379559    7.1469587   12.2381981    2.5641459 *
  62 H      13.5056596    9.8386265    7.6249264   12.6302215    4.0919634  
  63 H      14.4040624    9.1582975    6.6846393   14.0010449    6.2236537  
  64 H      13.2529758    8.6357791    6.3645695   12.8388594    5.8849098  
  65 H       2.7255431 *  9.2830332   11.3766255    4.6044356   13.9587603  
  66 H       2.7201518 *  9.3845874   11.3520576    4.5858928   13.8546844  
  67 H       3.2740234   10.5694919   12.4836733    4.4611836   14.3517838  
  68 H      13.1685085    7.8693261    5.7623771   13.1685114    7.6933814  
  69 H      11.1128526    5.3216564    3.3407386   11.3521995    7.3605700  
  70 H      12.3385565    5.6711414    3.2571497   12.5253684    7.3693716  
  71 H      14.6669236    8.1376198    5.7072806   14.6939366    8.0776910  
  72 H      14.2776850    7.3861865    5.5393108   14.7788699   10.1555224  
  73 H      16.4968316    9.8104336    7.7241143   16.7928636   10.8695066  
  74 H      16.6644037    9.7116133    7.5280942   16.8969711   10.5401556  
  75 H      16.8536736   10.3520135    8.0227212   16.9074297    9.9776388  

               36 O         37 O         38 O         39 O         40 O     

   1 C       3.7605790    4.1442095    6.8607600    6.6689422    7.5992965  
   2 C       2.4450707 *  3.7761889    8.1314671    8.1240783    8.8298447  
   3 C       3.7241983    2.3996742 *  5.8740432    6.1301608    6.3621427  
   4 C       1.4207725 *  2.4285987 *  8.3087431    8.3548062    8.5736541  
   5 C       2.3767317 *  1.4159295 *  7.2554261    7.6577040    7.7142404  
   6 C       7.3057299    5.3238498    2.4474216 *  3.7797433    4.1553959  
   7 C       8.2765185    6.5601743    1.4186262 *  2.4760908 *  3.7560259  
   8 C       8.6525655    6.8442734    2.3975816 *  1.4191950 *  2.4198310 *
   9 C       8.4162656    5.9918437    3.4895208    3.7399591    2.3956056 *
  10 C       9.2887895    7.1138752    2.8872035 *  2.3857008 *  1.4211761 *
  11 C       7.0893050    7.7275384    7.3283183    6.8051913    8.8023953  
  12 C       6.5995285    6.3637663    5.4643130    4.6332151    6.3828498  
  13 C      11.5018177   12.4992887   10.8568949   10.1596735   12.6168899  
  14 C      13.0408581   13.5999565   10.5146631    9.6957785   12.3313791  
  15 C      14.0635875   14.7799844   11.8121435   11.0774994   13.7235635  
  16 C       4.9413378    2.9808560 *  4.7968455    5.5685041    5.6418752  
  17 C      16.2292587   17.2221494   14.5328268   13.9336249   16.5886639  
  18 C       9.3737095    6.7362285    4.5225056    4.9311069    2.9728987 *
  19 H       9.6646654    9.0090938    5.3367870    3.4141814    5.8022537  
  20 H      13.6012232   15.0010864   13.8365676   13.3042887   15.7629845  
  21 H       3.7186336    5.6132423    9.4105209    9.0856378   10.0824021  
  22 H       0.9679248 *  3.7143958   10.2115884   10.2455285   10.4430021  
  23 H       2.3879600 *  0.9685639 *  8.6820986    9.0740653    8.6173204  
  24 H       9.4897538    7.8096650    0.9660889 *  3.7447973    5.1177265  
  25 H       9.4392307    8.0861167    3.3642973    0.9703351 *  3.5282889  
  26 H      10.2762102    8.2866396    4.2448157    2.2482581 *  0.9697965 *
  27 C       7.9852606    7.6530809    5.4238778    4.1713778    6.3177874  
  28 C       6.0803982    6.4233426    6.4851577    5.9869396    7.7127086  
  29 C      11.7136666   12.3963974    9.9758921    9.1657975   11.7117160  
  30 C      12.6381343   13.7629922   12.1104285   11.4781876   13.9726116  
  31 C      13.8841449   14.8603193   12.5552385   11.9004404   14.4908332  
  32 O      10.8257017   10.4227314    6.4949712    4.7695498    7.2640334  
  33 O       8.7277873    8.0006403    4.8516749    3.0440465    5.2684312  
  34 O      12.6662402   14.0478284   13.0360387   12.4830470   14.8988986  
  35 O       2.8639507 *  4.7898853    9.3110869    9.0053285    9.7430505  
  36 O       0.0000000    2.8423749 *  9.5294650    9.7358118    9.8486739  
  37 O       2.8423749 *  0.0000000    7.7452891    8.1225503    7.6827043  
  38 O       9.5294650    7.7452891    0.0000000    2.8687953 *  4.1972395  
  39 O       9.7358118    8.1225503    2.8687953 *  0.0000000    2.7805028 *
  40 O       9.8486739    7.6827043    4.1972395    2.7805028 *  0.0000000  
  41 O       4.8050550    5.4877703    7.0335430    6.8355465    8.2291699  
  42 O      14.9346161   16.0403197   13.8546908   13.2597183   15.8566940  
  43 O       6.0556964    4.2145969    3.6184672    4.1507837    4.4753913  
  44 C      10.2422950   10.1346379    6.8564140    5.4700309    7.9708439  
  45 C      10.6945909   11.1684711    8.6759794    7.7493937   10.2582254  
  46 C       8.8063071    8.8020626    6.4056711    5.2625836    7.6040859  
  47 C       8.3799577    8.7956816    7.2618133    6.4688472    8.7252009  
  48 O       9.4159728   10.0439162    8.3428112    7.5987930    9.9721612  
  49 O       4.0922775    3.6425901    5.7374311    5.9805657    6.8239326  
  50 O       7.9466257    5.5896690    2.9407620 *  4.1945252    3.6732582  
  51 C      11.0778167   11.2361792    8.0553856    6.8537133    9.4016219  
  52 H       7.0106787    8.0136514    8.1980884    7.8490805    9.8007381  
  53 H      12.1377825   12.2306070    8.6138895    7.3079027    9.8804111  
  54 H       6.1357023    5.5207635    4.9572975    4.1857553    5.5772747  
  55 H      10.5539585   11.6924608   10.6831936   10.0164008   12.3555457  
  56 H      13.3585480   13.6963471   10.0342604    9.1482789   11.8209969  
  57 H       4.1239518    4.2955103    6.9843702    6.3586680    7.1286657  
  58 H      15.0722279   15.7001908   12.3205563   11.5853031   14.2670180  
  59 H       2.6722200 *  4.1316725    8.2173627    8.5440417    9.3922791  
  60 H       4.0438819    2.6326456 *  6.0649617    5.8343482    5.8399995  
  61 H       2.0768473 *  2.6195394 *  8.4824751    8.1852965    8.2211034  
  62 H       2.5872526 *  2.0848941 *  7.3390147    8.1048245    8.3295316  
  63 H       5.1115037    2.6441792 *  5.2820277    6.0459608    5.6049553  
  64 H       5.1103722    3.4254598    4.8250623    6.0827333    6.3995960  
  65 H      16.5689899   17.4837230   14.6362686   13.8443908   16.4780177  
  66 H      16.3175901   17.1900098   14.1146669   13.6698506   16.3761693  
  67 H      16.9189715   18.0290049   15.5406080   14.9853564   17.6325899  
  68 H       7.3286429    5.4603651    2.6859671 *  4.6339293    5.1808932  
  69 H       7.9325625    6.5718452    2.0876180 *  2.7810218 *  4.5729171  
  70 H       7.8195038    6.1081411    3.3282621    2.0717726 *  2.6550810 *
  71 H       7.6467940    5.2434736    4.2276097    4.0098700    2.5783646 *
  72 H      10.1487477    7.9443868    2.5283630 *  2.6557200 *  2.0858578 *
  73 H      10.1689422    7.5514775    4.2851662    5.0974940    3.4144665  
  74 H       9.9046337    7.2838712    5.2084469    5.0760915    2.6363007 *
  75 H       8.9558331    6.2060904    5.2249518    5.8431420    3.9354582  

               41 O         42 O         43 O         44 C         45 C     

   1 C       1.4088615 * 11.9410426    3.9336775    6.4988777    7.1537159  
   2 C       2.3716448 * 12.6288166    4.9802167    7.8725940    8.2509463  
   3 C       3.5884559   13.9624248    2.3441190 *  7.8050780    8.9162884  
   4 C       3.7094261   14.1277859    4.8316496    8.9519628    9.5854012  
   5 C       4.1553601   14.6813882    3.7547240    9.0559565    9.9205338  
   6 C       5.7785322   14.4111472    1.4128827 *  7.4560152    9.1136557  
   7 C       5.8438537   13.4756468    2.3506373 *  6.2876897    8.1168216  
   8 C       6.2909658   13.8426962    2.8548957 *  6.1940892    8.3026734  
   9 C       7.4797092   16.1265323    2.9318016 *  8.6083543   10.6105882  
  10 C       7.5678399   15.3513373    3.4910744    7.6507998    9.8121369  
  11 C       2.3290174 *  8.3821107    6.0345431    3.7658044    3.6180614  
  12 C       2.4474914 * 10.4194197    3.9544299    3.7828844    5.0199965  
  13 C       7.0191202    3.6155198   10.5883473    4.9322925    2.4971853 *
  14 C       8.3013015    3.7064424   11.0079860    4.4377019    2.4942755 *
  15 C       9.3982788    2.4627490 * 12.3095831    5.8293147    3.7773756  
  16 C       4.6477975   14.5812960    1.4194791 *  8.1369070    9.4414122  
  17 C      11.7622898    1.4236313 * 14.9930742    8.6895717    6.5259128  
  18 C       8.9188194   17.6122535    4.3003127   10.0512041   12.0987457  
  19 H       5.5705416   10.1516367    5.6684466    2.1989756 *  4.5945857  
  20 H       9.5583762    2.0883563 * 13.4933812    8.0720821    5.6330260  
  21 H       2.5642341 * 11.4331768    6.5580635    7.6339698    7.5525141  
  22 H       4.8973424   14.6896001    6.7593806   10.3316201   10.6401613  
  23 H       5.9468241   16.4738467    5.1627013   10.8621273   11.7651958  
  24 H       7.0047978   13.7085037    3.8401821    7.1103685    8.7190265  
  25 H       6.1902651   12.3733452    4.2222980    4.5357515    6.8274172  
  26 H       8.2288707   15.2668270    4.8833242    7.3410277    9.6959169  
  27 C       3.6943904    9.7980854    4.7851026    2.5067421 *  4.2001387  
  28 C       1.3731380 *  9.7658297    4.7418963    4.2476722    4.7646311  
  29 C       7.0213908    4.1656722   10.0633696    3.8403889    1.4707050 *
  30 C       8.2760253    2.3288769 * 11.9261410    6.2062978    3.7699351  
  31 C       9.3917595    1.3680097 * 12.7337786    6.5878905    4.2739933  
  32 O       6.3972974    8.8945247    7.1460364    1.2550009 *  3.6011095  
  33 O       4.8275093   10.6547923    4.7187971    2.8287089 *  5.0250480  
  34 O       8.6021850    2.6464102 * 12.5779957    7.3047916    4.8752749  
  35 O       2.8937855 * 12.3535759    6.2094564    8.1253661    8.2754761  
  36 O       4.8050550   14.9346161    6.0556964   10.2422950   10.6945909  
  37 O       5.4877703   16.0403197    4.2145969   10.1346379   11.1684711  
  38 O       7.0335430   13.8546908    3.6184672    6.8564140    8.6759794  
  39 O       6.8355465   13.2597183    4.1507837    5.4700309    7.7493937  
  40 O       8.2291699   15.8566940    4.4753913    7.9708439   10.2582254  
  41 O       0.0000000   10.5608202    4.7003525    5.6166827    5.9317121  
  42 O      10.5608202    0.0000000   14.0281915    7.9543113    5.6357300  
  43 O       4.7003525   14.0281915    0.0000000    7.1391804    8.6951392  
  44 C       5.6166827    7.9543113    7.1391804    0.0000000    2.4493874 *
  45 C       5.9317121    5.6357300    8.6951392    2.4493874 *  0.0000000  
  46 C       4.1634658    8.3938859    6.0817024    1.4543584 *  2.7816100 *
  47 C       3.6013562    7.6253722    6.5751745    2.4784197 *  2.3774223 *
  48 O       4.6830684    6.2544016    7.8967837    2.8346513 *  1.3635978 *
  49 O       2.2909714 * 12.5672699    2.7235722 *  6.7333359    7.6283196  
  50 O       7.0177418   15.7529759    2.3539311 *  8.5983944   10.3934489  
  51 C       6.3300043    6.5530201    8.4044332    1.4441183 *  1.3625730 *
  52 H       2.5383366 *  8.0479981    6.7630962    4.6358593    3.9553795  
  53 H       7.4034111    6.4064772    9.2585917    2.1720886 *  2.1276122 *
  54 H       2.7421065 * 11.4961416    2.9845418 *  4.6498302    6.0753071  
  55 H       6.2088352    4.4581248   10.0724876    5.0022674    2.7291269 *
  56 H       8.5660131    4.5938027   10.8294081    4.0882664    2.7179409 *
  57 H       2.0622968 * 12.1607842    4.0161405    6.3188684    7.1931447  
  58 H      10.3692224    2.7595136 * 13.0661300    6.4675020    4.6403031  
  59 H       2.5664711 * 12.4803378    5.2589135    8.1651868    8.3512941  
  60 H       3.8687677   14.1413326    2.5267714 *  7.6655950    8.9467146  
  61 H       4.0386790   14.3662670    4.9517320    8.8954641    9.6789788  
  62 H       4.3255512   14.6315888    4.0886621    9.3650524   10.0707184  
  63 H       5.6099323   15.6591199    2.0948888 *  9.0833656   10.4762677  
  64 H       4.7713379   14.4676618    2.0784999 *  8.3993720    9.5271856  
  65 H      12.0358640    2.0873895 * 15.1558460    8.5604920    6.5418484  
  66 H      11.7874069    2.0870015 * 14.7921557    8.6053455    6.5285181  
  67 H      12.5578067    2.0189956 * 15.9298328    9.7261110    7.5086871  
  68 H       5.9102398   14.4286284    2.0676384 *  7.8845736    9.3373212  
  69 H       4.9821544   12.4262005    2.4944334 *  5.4167969    7.1044920  
  70 H       5.6043582   13.6921094    2.4500297 *  6.0423175    8.0962866  
  71 H       6.9709433   16.0063896    2.6595618 *  8.4903601   10.4543141  
  72 H       8.2971739   15.6209139    4.1935668    8.0204566   10.1793658  
  73 H       9.5049801   17.8293575    4.8457641   10.3379799   12.3877892  
  74 H       9.4462557   18.0185455    4.9930899   10.2914329   12.4416403  
  75 H       9.0544169   18.1817778    4.4459040   10.7511013   12.7006251  

               46 C         47 C         48 O         49 O         50 O     

   1 C       5.0661610    4.7826510    5.9681403    1.4081856 *  6.2800396  
   2 C       6.4259138    5.9377994    6.9774879    2.3985485 *  7.2340852  
   3 C       6.4894725    6.5697081    7.8583001    1.4341538 *  4.4286491  
   4 C       7.5328295    7.2317844    8.3578584    2.8237600 *  6.8715116  
   5 C       7.6758087    7.5486209    8.7560323    2.4091515 *  5.5749020  
   6 C       6.5770655    7.1899763    8.4485110    3.9238487    1.4036154 *
   7 C       5.6204596    6.4349563    7.6375123    4.4756281    2.4564510 *
   8 C       5.6638715    6.6829263    7.9256587    5.0305337    2.8636396 *
   9 C       7.9135543    8.7665821   10.0746014    5.6014364    1.4456965 *
  10 C       7.1734431    8.2012764    9.4512725    6.0302448    2.4554633 *
  11 C       2.4446643 *  1.3873497 *  2.3545980 *  4.2731792    8.1524240  
  12 C       2.4456741 *  2.7957582 *  4.1671065    3.0245095    6.0071872  
  13 C       5.0209312    4.0909873    2.7301203 *  9.0487415   12.4511866  
  14 C       5.1734907    4.8332550    3.6361446   10.0189251   12.5491222  
  15 C       6.5196019    6.0541362    4.7672092   11.2059604   13.8714419  
  16 C       6.9410532    7.1964316    8.4923214    2.3733995 *  3.0641973  
  17 C       9.3003356    8.6712029    7.3181101   13.6935287   16.6007707  
  18 C       9.4095358   10.2834375   11.5873326    6.9406154    2.3796371 *
  19 H       2.3149476 *  3.7116364    4.6370366    5.9691906    6.8672892  
  20 H       8.1655293    7.1324031    5.8102727   11.7006139   15.4127831  
  21 H       6.2427318    5.4637103    6.2444180    3.9240615    8.8909479  
  22 H       8.9006959    8.3842429    9.3460199    4.6120886    8.7485794  
  23 H       9.4967257    9.3882308   10.5909430    4.3190226    6.5192483  
  24 H       6.6023325    7.3148064    8.3368178    5.7249974    3.2744384  
  25 H       4.3224590    5.5616280    6.6823998    5.6266405    4.7538935  
  26 H       7.1215453    8.3278563    9.5193297    7.0580721    4.3310599  
  27 C       1.4200583 *  2.4246247 *  3.6891847    4.3648668    6.5143026  
  28 C       2.7934887 *  2.3881269 *  3.6280544    2.9719246 *  6.9447422  
  29 C       4.2435053    3.6514489    2.3556743 *  8.8545503   11.7703303  
  30 C       6.3896722    5.4688446    4.1065399   10.3368672   13.7741697  
  31 C       7.0402016    6.3215162    4.9568078   11.3539609   14.4441903  
  32 O       2.3684226 *  3.6274336    4.0896393    7.1895322    8.3385328  
  33 O       2.3828661 *  3.6498592    4.7915338    5.0239740    6.0679107  
  34 O       7.3047829    6.2273367    4.9305745   10.7573766   14.5310291  
  35 O       6.7158595    6.0907641    6.9901265    3.6653781    8.4967537  
  36 O       8.8063071    8.3799577    9.4159728    4.0922775    7.9466257  
  37 O       8.8020626    8.7956816   10.0439162    3.6425901    5.5896690  
  38 O       6.4056711    7.2618133    8.3428112    5.7374311    2.9407620 *
  39 O       5.2625836    6.4688472    7.5987930    5.9805657    4.1945252  
  40 O       7.6040859    8.7252009    9.9721612    6.8239326    3.6732582  
  41 O       4.1634658    3.6013562    4.6830684    2.2909714 *  7.0177418  
  42 O       8.3938859    7.6253722    6.2544016   12.5672699   15.7529759  
  43 O       6.0817024    6.5751745    7.8967837    2.7235722 *  2.3539311 *
  44 C       1.4543584 *  2.4784197 *  2.8346513 *  6.7333359    8.5983944  
  45 C       2.7816100 *  2.3774223 *  1.3635978 *  7.6283196   10.3934489  
  46 C       0.0000000    1.4035736 *  2.4101709 *  5.3575764    7.7986784  
  47 C       1.4035736 *  0.0000000    1.3719212 *  5.2804740    8.4973174  
  48 O       2.4101709 *  1.3719212 *  0.0000000    6.5250708    9.7735394  
  49 O       5.3575764    5.2804740    6.5250708    0.0000000    5.0236593  
  50 O       7.7986784    8.4973174    9.7735394    5.0236593    0.0000000  
  51 C       2.4482020 *  2.7797473 *  2.3804707 *  7.7421992    9.9129573  
  52 H       3.4274912    2.1581725 *  2.5930080 *  4.7007634    8.9334276  
  53 H       3.4305750    3.8612225    3.3591738    8.7588433   10.6284168  
  54 H       3.4208906    3.8754899    5.2461679    2.4503621 *  5.0849627  
  55 H       4.7896735    3.6599954    2.4206070 *  8.3338272   12.0519315  
  56 H       5.0623943    5.0109289    4.0090131   10.1068730   12.2144463  
  57 H       4.9509515    4.8587542    6.0974376    2.0744153 *  6.3230714  
  58 H       7.3006932    6.9627236    5.7256046   12.1034401   14.5175561  
  59 H       6.7122209    6.0953711    7.0404528    2.6307453 *  7.4417860  
  60 H       6.4052975    6.6212588    7.9508406    2.0831091 *  4.5406513  
  61 H       7.5250882    7.3431279    8.5090733    3.2451521    6.9620528  
  62 H       7.9711099    7.7357265    8.8741297    2.6539278 *  5.7940545  
  63 H       7.9199037    8.2276931    9.5404642    3.3306575    2.9647382 *
  64 H       7.1919115    7.3271409    8.5492250    2.5963060 *  3.3876926  
  65 H       9.3008479    8.7955001    7.4694011   13.9535984   16.7324262  
  66 H       9.2474342    8.6725387    7.3530807   13.6133967   16.2968380  
  67 H      10.2838709    9.5864243    8.2209596   14.5360451   17.5755436  
  68 H       6.9678222    7.4334641    8.6246535    4.0511488    1.9917321 *
  69 H       4.6614028    5.3943101    6.5802918    3.9281986    3.3705541  
  70 H       5.3514440    6.3019212    7.6104811    4.3580717    3.1453583  
  71 H       7.6988489    8.4986926    9.8448537    5.0939140    2.0820322 *
  72 H       7.6613544    8.7152215    9.9020460    6.7768885    2.7420451 *
  73 H       9.7786674   10.6789748   11.9388947    7.5495725    2.6266139 *
  74 H       9.7273581   10.6803046   11.9879879    7.5622240    3.3358433  
  75 H       9.9972029   10.7677026   12.0925328    6.9424156    2.6336974 *

               51 C         52 H         53 H         54 H         55 H     

   1 C       7.3955297    3.9313685    8.4431255    2.6068434 *  7.5672272  
   2 C       8.6518249    4.6241814    9.7180268    4.1293013    8.2300649  
   3 C       8.9219315    6.0744674    9.9046030    3.2140810    9.7011387  
   4 C       9.8640762    6.1016435   10.9091899    4.7382683    9.7166771  
   5 C      10.0770630    6.6576087   11.0988728    4.5650553   10.3529961  
   6 C       8.7188785    7.5886107    9.4864877    3.9462276   10.6998159  
   7 C       7.5692166    7.2426635    8.2445148    3.6515607    9.9864085  
   8 C       7.5875215    7.7085101    8.1880948    3.6973029   10.3225548  
   9 C       9.9994535    9.3925218   10.6540860    5.2225990   12.4061800  
  10 C       9.0524780    9.1625296    9.6003870    5.0246689   11.8464185  
  11 C       4.1648276    1.0825889 *  5.2457110    3.4354438    4.1154855  
  12 C       4.8920075    3.4320773    5.8687994    1.0816830 *  6.3488747  
  13 C       3.7582614    4.5481802    4.1436988    7.9562729    1.0828574 *
  14 C       3.0093779    6.0992518    2.7613800 *  8.5165521    3.4133036  
  15 C       4.3963975    7.0585766    4.0854479    9.8212410    3.8836034  
  16 C       9.3206632    6.9582453   10.2442334    3.7131213   10.4926513  
  17 C       7.2555820    9.2820428    6.9214046   12.5143564    5.7511203  
  18 C      11.4483694   10.8930793   12.0621294    6.7225119   13.9239367  
  19 H       3.6274193    5.5913344    4.1456179    3.5912539    6.9661360  
  20 H       6.8163765    7.0271628    6.9794944   10.9240463    3.5314451  
  21 H       8.1585246    3.8268698    9.2151103    4.9027986    7.0323958  
  22 H      11.0912813    6.9071787   12.1511894    6.4652763   10.3086192  
  23 H      11.9113403    8.4281331   12.9258995    6.3023514   12.1003052  
  24 H       8.2112253    8.1028506    8.8004529    5.2403367   10.6019339  
  25 H       5.9389908    7.0294621    6.4301830    3.5815765    9.0937798  
  26 H       8.7580724    9.5846744    9.1653632    5.5045473   11.9062375  
  27 C       3.7735527    3.9029479    4.6621239    2.1464323 *  6.0425227  
  28 C       5.0236233    2.1640246 *  6.0861550    2.1755715 *  5.5060798  
  29 C       2.5245133 *  4.7543186    2.7890863 *  7.4696242    2.1738766 *
  30 C       4.9320587    5.7590739    5.1169928    9.3292676    2.1294379 *
  31 C       5.1920819    6.9185774    5.0940621   10.1872352    3.3972171  
  32 O       2.3738796 *  5.7580865    2.6359355 *  4.9123813    6.2156188  
  33 O       4.2647188    5.2499398    4.9353317    2.6249782 *  7.1623885  
  34 O       6.1176549    6.0739674    6.3936830    9.9903629    2.5951175 *
  35 O       8.7771679    4.6168403    9.8319196    4.8880984    7.9315754  
  36 O      11.0778167    7.0106787   12.1377825    6.1357023   10.5539585  
  37 O      11.2361792    8.0136514   12.2306070    5.5207635   11.6924608  
  38 O       8.0553856    8.1980884    8.6138895    4.9572975   10.6831936  
  39 O       6.8537133    7.8490805    7.3079027    4.1857553   10.0164008  
  40 O       9.4016219    9.8007381    9.8804111    5.5772747   12.3555457  
  41 O       6.3300043    2.5383366 *  7.4034111    2.7421065 *  6.2088352  
  42 O       6.5530201    8.0479981    6.4064772   11.4961416    4.4581248  
  43 O       8.4044332    6.7630962    9.2585917    2.9845418 * 10.0724876  
  44 C       1.4441183 *  4.6358593    2.1720886 *  4.6498302    5.0022674  
  45 C       1.3625730 *  3.9553795    2.1276122 *  6.0753071    2.7291269 *
  46 C       2.4482020 *  3.4274912    3.4305750    3.4208906    4.7896735  
  47 C       2.7797473 *  2.1581725 *  3.8612225    3.8754899    3.6599954  
  48 O       2.3804707 *  2.5930080 *  3.3591738    5.2461679    2.4206070 *
  49 O       7.7421992    4.7007634    8.7588433    2.4503621 *  8.3338272  
  50 O       9.9129573    8.9334276   10.6284168    5.0849627   12.0519315  
  51 C       0.0000000    4.7792858    1.0818327 *  5.8602334    4.0602816  
  52 H       4.7792858    0.0000000    5.8361868    4.3293828    3.7045341  
  53 H       1.0818327 *  5.8361868    0.0000000    6.7919914    4.6619202  
  54 H       5.8602334    4.3293828    6.7919914    0.0000000    7.4148075  
  55 H       4.0602816    3.7045341    4.6619202    7.4148075    0.0000000  
  56 H       2.7256194 *  6.5596181    2.1739705 *  8.4412077    4.3203288  
  57 H       7.3046351    4.3289260    8.3131431    2.3673481 *  7.7664029  
  58 H       5.0479995    8.0762069    4.5447425   10.6455620    4.9671066  
  59 H       8.8537437    4.5772896    9.9321771    4.6269955    8.1825383  
  60 H       8.8521123    6.3208284    9.8017098    3.0347176    9.8425157  
  61 H       9.8667175    6.4061476   10.8817374    4.6754120    9.9186080  
  62 H      10.3116369    6.6942517   11.3470357    5.0482646   10.3912748  
  63 H      10.3102149    7.9890515   11.2142290    4.6096933   11.5428481  
  64 H       9.4953381    6.9495093   10.4312998    4.2313359   10.4765089  
  65 H       7.1167757    9.5974523    6.6531593   12.6087450    6.0457253  
  66 H       7.1959392    9.3545200    6.8388689   12.4485514    6.0247456  
[...]
   2084   14.93287   11.04932   -0.12800       -19.847324      19.856762       0.009438
   2085   14.93287   11.04932    1.38378       -19.806879      19.816567       0.009688
   2086   14.93287   11.04932    2.89556       -19.431605      19.437717       0.006112
   2087   14.93287   11.04932    4.40734       -18.817148      18.819736       0.002588
   2088   14.93287   12.56110   -0.12800       -18.543407      18.548928       0.005521
   2089   14.93287   12.56110    1.38378       -18.502965      18.508411       0.005446
   2090   16.44465  -11.62739   -1.63978       -18.418111      18.400089      -0.018022
   2091   16.44465  -11.62739   -0.12800       -18.544379      18.527626      -0.016753
   2092   16.44465  -11.62739    1.38378       -18.422185      18.407082      -0.015103
   2093   16.44465  -11.62739    2.89556       -18.075663      18.061877      -0.013787
   2094   16.44465  -10.11561   -4.66334       -18.631529      18.611181      -0.020348
   2095   16.44465  -10.11561   -3.15156       -19.337808      19.317505      -0.020302
   2096   16.44465  -10.11561   -1.63978       -19.840067      19.820262      -0.019806
   2097   16.44465  -10.11561   -0.12800       -20.035661      20.017369      -0.018292
   2098   16.44465  -10.11561    1.38378       -19.869641      19.854423      -0.015218
   2099   16.44465  -10.11561    2.89556       -19.384255      19.370705      -0.013551
   2100   16.44465  -10.11561    4.40734       -18.698394      18.685032      -0.013362
   2101   16.44465   -8.60383   -6.17512       -18.692190      18.671717      -0.020474
   2102   16.44465   -8.60383   -4.66334       -19.706812      19.686202      -0.020609
   2103   16.44465   -8.60383   -3.15156       -20.665085      20.646859      -0.018226
   2104   16.44465   -8.60383   -1.63978       -21.424039      21.405463      -0.018576
   2105   16.44465   -8.60383   -0.12800       -21.761386      21.741976      -0.019411
   2106   16.44465   -8.60383    2.89556       -20.799250      20.787630      -0.011620
   2107   16.44465   -8.60383    4.40734       -19.860918      19.846852      -0.014065
   2108   16.44465   -8.60383    5.91912       -18.876959      18.862984      -0.013975
   2109   16.44465   -7.09205   -6.17512       -19.428123      19.407737      -0.020386
   2110   16.44465   -7.09205   -4.66334       -20.640139      20.621870      -0.018269
   2111   16.44465   -7.09205    4.40734       -20.945820      20.929005      -0.016816
   2112   16.44465   -7.09205    5.91912       -19.753994      19.738103      -0.015890
   2113   16.44465   -5.58027   -6.17512       -19.946936      19.927615      -0.019321
   2114   16.44465   -5.58027   -4.66334       -21.274216      21.256898      -0.017318
   2115   16.44465   -5.58027    2.89556       -23.221185      23.200528      -0.020657
   2116   16.44465   -5.58027    4.40734       -21.790589      21.769704      -0.020885
   2117   16.44465   -5.58027    5.91912       -20.458626      20.440710      -0.017917
   2118   16.44465   -4.06849   -6.17512       -20.218911      20.201283      -0.017628
   2119   16.44465   -4.06849   -4.66334       -21.539344      21.521626      -0.017718
   2120   16.44465   -4.06849   -3.15156       -22.944197      22.926632      -0.017564
   2121   16.44465   -4.06849    4.40734       -22.269978      22.248305      -0.021672
   2122   16.44465   -4.06849    5.91912       -20.917641      20.899135      -0.018506
   2123   16.44465   -2.55670   -4.66334       -21.513866      21.497909      -0.015957
   2124   16.44465   -2.55670   -3.15156       -22.748517      22.732133      -0.016384
   2125   16.44465   -2.55670   -1.63978       -23.858600      23.844745      -0.013854
   2126   16.44465   -2.55670    2.89556       -23.542721      23.528200      -0.014521
   2127   16.44465   -2.55670    4.40734       -22.379133      22.359697      -0.019436
   2128   16.44465   -2.55670    5.91912       -21.111457      21.094479      -0.016978
   2129   16.44465   -1.04492   -3.15156       -22.388727      22.375070      -0.013657
   2130   16.44465   -1.04492   -1.63978       -23.276594      23.263879      -0.012715
   2131   16.44465   -1.04492   -0.12800       -23.789055      23.779082      -0.009973
   2132   16.44465   -1.04492    1.38378       -23.750400      23.739832      -0.010569
   2133   16.44465   -1.04492    2.89556       -23.172075      23.157225      -0.014851
   2134   16.44465   -1.04492    4.40734       -22.224003      22.208038      -0.015965
   2135   16.44465    0.46686   -1.63978       -22.744884      22.732684      -0.012200
   2136   16.44465    0.46686   -0.12800       -23.180356      23.168436      -0.011921
   2137   16.44465    0.46686    1.38378       -23.181147      23.169005      -0.012142
   2138   16.44465    0.46686    2.89556       -22.732781      22.720045      -0.012736
   2139   16.44465    1.97864    1.38378       -22.666987      22.654983      -0.012003
   2140   16.44465    1.97864    2.89556       -22.273244      22.262078      -0.011166
   2141   16.44465    3.49042    1.38378       -22.164426      22.151330      -0.013096
   2142   16.44465    3.49042    2.89556       -21.786978      21.775809      -0.011169
   2143   16.44465    6.51398   -0.12800       -20.988335      20.976704      -0.011631
   2144   16.44465    6.51398    1.38378       -20.976136      20.965187      -0.010950
   2145   16.44465    8.02576   -1.63978       -19.884123      19.878615      -0.005507
   2146   16.44465    8.02576   -0.12800       -20.194215      20.189233      -0.004983
   2147   16.44465    8.02576    1.38378       -20.173217      20.168753      -0.004465
   2148   16.44465    8.02576    2.89556       -19.820296      19.816221      -0.004076
   2149   16.44465    9.53754   -1.63978       -19.002792      19.002060      -0.000732
   2150   16.44465    9.53754   -0.12800       -19.259628      19.260359       0.000731
   2151   16.44465    9.53754    1.38378       -19.232995      19.234076       0.001081
   2152   16.44465    9.53754    2.89556       -18.924007      18.924214       0.000208
   2153   16.44465   11.04932   -0.12800       -18.253933      18.256710       0.002777
   2154   16.44465   11.04932    1.38378       -18.224595      18.227539       0.002944
   2155   17.95643  -10.11561   -3.15156       -17.846880      17.830777      -0.016103
   2156   17.95643  -10.11561   -1.63978       -18.225319      18.209347      -0.015972
   2157   17.95643  -10.11561   -0.12800       -18.375185      18.359834      -0.015351
   2158   17.95643  -10.11561    1.38378       -18.263515      18.249455      -0.014059
   2159   17.95643  -10.11561    2.89556       -17.915670      17.902777      -0.012892
   2160   17.95643  -10.11561    4.40734       -17.400442      17.388298      -0.012144
   2161   17.95643   -8.60383   -4.66334       -18.139890      18.123787      -0.016103
   2162   17.95643   -8.60383   -3.15156       -18.826606      18.810807      -0.015798
   2163   17.95643   -8.60383   -1.63978       -19.339225      19.322967      -0.016259
   2164   17.95643   -8.60383   -0.12800       -19.558210      19.541703      -0.016507
   2165   17.95643   -8.60383    1.38378       -19.414030      19.398994      -0.015036
   2166   17.95643   -8.60383    2.89556       -18.952987      18.939381      -0.013606
   2167   17.95643   -8.60383    4.40734       -18.300066      18.287118      -0.012948
   2168   17.95643   -7.09205   -6.17512       -17.971488      17.955739      -0.015749
   2169   17.95643   -7.09205   -4.66334       -18.857592      18.842184      -0.015409
   2170   17.95643   -7.09205   -3.15156       -19.698655      19.684220      -0.014435
   2171   17.95643   -7.09205   -1.63978       -20.375215      20.359480      -0.015734
   2172   17.95643   -7.09205   -0.12800       -20.688790      20.671387      -0.017403
   2173   17.95643   -7.09205    1.38378       -20.504545      20.487905      -0.016640
   2174   17.95643   -7.09205    2.89556       -19.909918      19.894664      -0.015254
   2175   17.95643   -7.09205    4.40734       -19.113792      19.099515      -0.014277
   2176   17.95643   -5.58027   -6.17512       -18.409832      18.394656      -0.015176
   2177   17.95643   -5.58027   -4.66334       -19.371540      19.356574      -0.014965
   2178   17.95643   -5.58027   -3.15156       -20.312368      20.297804      -0.014565
   2179   17.95643   -5.58027   -1.63978       -21.111913      21.095723      -0.016190
   2180   17.95643   -5.58027   -0.12800       -21.522517      21.506749      -0.015768
   2181   17.95643   -5.58027    1.38378       -21.321839      21.306518      -0.015321
   2182   17.95643   -5.58027    2.89556       -20.634266      20.618175      -0.016091
   2183   17.95643   -5.58027    4.40734       -19.745959      19.730597      -0.015362
   2184   17.95643   -4.06849   -4.66334       -19.637649      19.623058      -0.014591
   2185   17.95643   -4.06849   -3.15156       -20.578522      20.563486      -0.015035
   2186   17.95643   -4.06849   -1.63978       -21.380311      21.365208      -0.015103
   2187   17.95643   -4.06849    2.89556       -21.006897      20.993565      -0.013332
   2188   17.95643   -4.06849    4.40734       -20.126147      20.111187      -0.014959
   2189   17.95643   -2.55670   -4.66334       -19.684840      19.671387      -0.013453
   2190   17.95643   -2.55670   -3.15156       -20.558199      20.544578      -0.013621
   2191   17.95643   -2.55670   -1.63978       -21.271085      21.258696      -0.012388
   2192   17.95643   -2.55670   -0.12800       -21.662796      21.655944      -0.006852
   2193   17.95643   -2.55670    1.38378       -21.571466      21.565548      -0.005918
   2194   17.95643   -2.55670    2.89556       -21.039805      21.028285      -0.011520
   2195   17.95643   -2.55670    4.40734       -20.251447      20.237850      -0.013597
   2196   17.95643   -1.04492   -3.15156       -20.367522      20.355478      -0.012044
   2197   17.95643   -1.04492   -1.63978       -20.985123      20.973814      -0.011309
   2198   17.95643   -1.04492   -0.12800       -21.315851      21.306080      -0.009771
   2199   17.95643   -1.04492    1.38378       -21.270624      21.260951      -0.009673
   2200   17.95643   -1.04492    2.89556       -20.859735      20.848408      -0.011327
   2201   17.95643   -1.04492    4.40734       -20.178425      20.166383      -0.012041
   2202   17.95643    0.46686   -1.63978       -20.638125      20.627228      -0.010897
   2203   17.95643    0.46686   -0.12800       -20.932282      20.921710      -0.010572
   2204   17.95643    0.46686    1.38378       -20.911218      20.900710      -0.010508
   2205   17.95643    0.46686    2.89556       -20.572819      20.562131      -0.010688
   2206   19.46821   -8.60383   -3.15156       -17.254987      17.241442      -0.013545
   2207   19.46821   -8.60383   -1.63978       -17.606078      17.592387      -0.013692
   2208   19.46821   -8.60383   -0.12800       -17.753143      17.739541      -0.013602
   2209   19.46821   -8.60383    1.38378       -17.664598      17.651586      -0.013012
   2210   19.46821   -8.60383    2.89556       -17.361274      17.349066      -0.012208
   2211   19.46821   -7.09205   -4.66334       -17.318694      17.305467      -0.013227
   2212   19.46821   -7.09205   -3.15156       -17.892612      17.879251      -0.013361
   2213   19.46821   -7.09205   -1.63978       -18.316249      18.302500      -0.013749
   2214   19.46821   -7.09205   -0.12800       -18.503540      18.489609      -0.013931
   2215   19.46821   -7.09205    1.38378       -18.404676      18.391189      -0.013487
   2216   19.46821   -7.09205    2.89556       -18.049282      18.036530      -0.012752
   2217   19.46821   -5.58027   -4.66334       -17.733579      17.720699      -0.012880
   2218   19.46821   -5.58027   -3.15156       -18.361352      18.348261      -0.013092
   2219   19.46821   -5.58027   -1.63978       -18.837874      18.824417      -0.013457
   2220   19.46821   -5.58027   -0.12800       -19.060665      19.047269      -0.013396
   2221   19.46821   -5.58027    1.38378       -18.962297      18.949331      -0.012966
   2222   19.46821   -5.58027    2.89556       -18.576613      18.563970      -0.012643
   2223   19.46821   -5.58027    4.40734       -18.003555      17.991415      -0.012140
   2224   19.46821   -4.06849   -3.15156       -18.619472      18.606949      -0.012523
   2225   19.46821   -4.06849   -1.63978       -19.109205      19.096802      -0.012404
   2226   19.46821   -4.06849   -0.12800       -19.348611      19.337077      -0.011535
   2227   19.46821   -4.06849    1.38378       -19.265918      19.254870      -0.011048
   2228   19.46821   -4.06849    2.89556       -18.888594      18.877049      -0.011544
   2229   19.46821   -4.06849    4.40734       -18.313558      18.301891      -0.011667
   2230   19.46821   -2.55670   -3.15156       -18.681936      18.670390      -0.011545
   2231   19.46821   -2.55670   -1.63978       -19.149397      19.138322      -0.011075
   2232   19.46821   -2.55670   -0.12800       -19.382713      19.372686      -0.010027
   2233   19.46821   -2.55670    1.38378       -19.323128      19.313432      -0.009697
   2234   19.46821   -2.55670    2.89556       -18.986114      18.975674      -0.010440
   2235   19.46821   -2.55670    4.40734       -18.445515      18.434705      -0.010810
   2236   19.46821   -1.04492   -1.63978       -19.030186      19.019968      -0.010219
   2237   19.46821   -1.04492   -0.12800       -19.247839      19.238195      -0.009644
   2238   19.46821   -1.04492    1.38378       -19.208466      19.198989      -0.009477
   2239   19.46821   -1.04492    2.89556       -18.917997      18.908192      -0.009804
   2240   20.97999   -5.58027   -0.12800       -17.233261      17.222112      -0.011149
   2241   20.97999   -5.58027    1.38378       -17.174239      17.163355      -0.010884
   2242   20.97999   -4.06849   -0.12800       -17.484168      17.473796      -0.010372
   2243   20.97999   -4.06849    1.38378       -17.432144      17.422014      -0.010130
   2244   20.97999   -2.55670   -0.12800       -17.574128      17.564576      -0.009552
   2245   20.97999   -2.55670    1.38378       -17.532044      17.522695      -0.009349

 NET CHARGES:
 -------------------------------------
 ATOM                CHARGE    E.S.D.
 -------------------------------------
 C                   0.3145    1.8013
 C                   0.2343    1.0442
 C                   0.1429    2.5121
 C                   0.3271    1.2669
 C                  -0.0093    1.8889
 C                   0.2685    1.5600
 C                   0.2444    1.5207
 C                   0.3557    1.6409
 C                   0.4186    0.9210
 C                   0.1846    1.5476
 C                  -0.5584    0.4257
 C                  -0.7426    0.5634
 C                  -0.3189    0.3881
 C                  -0.1748    0.3987
 C                  -0.2547    0.4670
 C                   0.2780    2.4149
 C                   0.0251    0.9302
 C                  -0.4296    1.0127
 H                   0.4692    0.0926
 H                   0.4095    0.0330
 H                   0.4350    0.0258
 H                   0.4419    0.0295
 H                   0.4491    0.0403
 H                   0.4118    0.0302
 H                   0.4394    0.0744
 H                   0.4297    0.0359
 C                   0.7603    0.5222
 C                   0.6219    0.4207
 C                   0.0412    0.4609
 C                   0.2427    0.4123
 C                   0.2623    0.5287
 O                  -0.5527    0.0498
 O                  -0.6719    0.1917
 O                  -0.5220    0.0643
 O                  -0.6797    0.0953
 O                  -0.6692    0.1105
 O                  -0.6225    0.1669
 O                  -0.6546    0.1259
 O                  -0.6947    0.1440
 O                  -0.6826    0.1348
 O                  -0.4085    0.2663
 O                  -0.3437    0.1630
 O                  -0.4932    0.5707
 C                   0.7023    0.2688
 C                   0.3348    0.3642
 C                  -0.6239    0.5104
 C                   0.4872    0.4606
 O                  -0.3096    0.1462
 O                  -0.4200    0.3329
 O                  -0.4971    0.2002
 C                  -0.4861    0.3101
 H                   0.2160    0.0466
 H                   0.1883    0.0355
 H                   0.2861    0.1258
 H                   0.2094    0.0418
 H                   0.1396    0.0402
 H                   0.0278    0.1793
 H                   0.1568    0.0448
 H                   0.0238    0.1076
 H                   0.0669    0.1804
 H                   0.0083    0.1183
 H                   0.0818    0.1520
 H                   0.0538    0.1576
 H                   0.0104    0.1590
 H                   0.0591    0.0654
 H                   0.0663    0.0689
 H                   0.0918    0.0651
 H                   0.0688    0.1284
 H                  -0.0212    0.1522
 H                  -0.0411    0.1696
 H                   0.0016    0.1020
 H                   0.0484    0.1563
 H                   0.1068    0.0694
 H                   0.1216    0.0776
 H                   0.1171    0.0715
 -------------------------------------

 RMS DEVIATION IS            1.903 KCAL/MOLE
 RELATIVE RMS DEVIATION IS  16.575 %

 MULTIPOLE MOMENTS:
 ---------------------------------------------------------
 STATUS  ACTUAL VALUE       QUANTITY        FITTED VALUE 
 ---------------------------------------------------------
 FIXED       0.0000       TOTAL CHARGE        -0.0000
            12.8933 D    DIPOLE MOMENT        12.9430 D
 FREE      -11.6554 D          DX            -11.7238 D
 FREE        4.9871 D          DY              4.9895 D
 FREE        2.3488 D          DZ              2.2758 D
 FREE        0.0000 BU         QXX            68.1769 BU
 FREE        0.0000 BU         QYY           -40.6073 BU
 FREE        0.0000 BU         QZZ           -27.5696 BU
 FREE        0.0000 BU         QXY            58.7993 BU
 FREE        0.0000 BU         QXZ            -5.2489 BU
 FREE        0.0000 BU         QYZ           -11.8831 BU
 ---------------------------------------------------------
 ...... END OF PROPERTY EVALUATION ......
 CPU     0: STEP CPU TIME=    10.63 TOTAL CPU TIME=        722.0 (     12.0 MIN)
 TOTAL WALL CLOCK TIME=       1076.9 SECONDS, CPU UTILIZATION IS    67.05%
              3966384  WORDS OF DYNAMIC MEMORY USED
 EXECUTION OF GAMESS TERMINATED NORMALLY Mon May 25 18:54:25 2020
 DDI: 263640 bytes (0.3 MB / 0 MWords) used by master data server.
Note: The following floating-point exceptions are signalling: IEEE_UNDERFLOW_FLAGNote: The following floating-point exceptions are signalling:Note: The following floating-point exceptions are signalling: IEEE_UNDERFLOW_FLAGNote: The following floating-point exceptions are signalling: IEEE_UNDERFLOW_FLAG IEEE_DENORMAL
Note: The following floating-point exceptions are signalling: IEEE_UNDERFLOW_FLAG IEEE_UNDERFLOW_FLAG
 ----------------------------------------
 CPU timing information for all processes
 ========================================
 0: 719.767 + 2.280 = 722.47
 1: 716.738 + 1.862 = 718.600
 2: 702.512 + 1.332 = 703.845
 3: 709.558 + 1.652 = 711.211
 4: 701.365 + 1.726 = 703.91
 5: 706.115 + 1.208 = 707.324
 ----------------------------------------
Note: The following floating-point exceptions are signalling: IEEE_DENORMAL
 IEEE_DENORMAL
 IEEE_DENORMAL
 IEEE_DENORMAL IEEE_UNDERFLOW_FLAG IEEE_DENORMAL

 ddikick.x: exited gracefully.
unset echo
----- accounting info -----
Files used on the master node pietdev were:
-rwxr-xr-x 1 piet piet     3057 mei 25 18:36 /home/piet/scr/diosmine_charge_chelpg.F05*
-rw-r--r-- 1 piet piet 50790400 mei 25 18:54 /home/piet/scr/diosmine_charge_chelpg.F10
ls: No match.
ls: No match.
ls: No match.
ma 25 mei 2020 18:54:28 CEST
0.126u 0.023s 18:00.22 0.0%	0+0k 0+8io 0pf+0w
