----- GAMESS execution script 'rungms' -----
This job is running on host pietdev
under operating system Linux at zo 17 mei 2020 14:38:23 CEST
Available scratch disk space (Kbyte units) at beginning of the job is
Filesystem     1K-blocks     Used Available Use% Mounted on
/dev/sda2      244568380 30379792 201695532  14% /
GAMESS temporary binary files will be written to /home/piet/scr
GAMESS supplementary output files will be written to /home/piet/gamess/scr
Copying input file leucine_geoopt.inp to your run's scratch directory...
cp leucine_geoopt.inp /home/piet/scr/leucine_geoopt.F05
unset echo
 
Assuming a single but multicore node.
 
/home/piet/gamess/ddikick.x /home/piet/gamess/gamess.03.x leucine_geoopt -ddi 1 6 pietdev:cpus=6 -scr /home/piet/scr

 Distributed Data Interface kickoff program.
 Initiating 6 compute processes on 1 nodes to run the following command:
 /home/piet/gamess/gamess.03.x leucine_geoopt 

          ******************************************************
          *         GAMESS VERSION = 30 SEP 2019 (R2)          *
          *             FROM IOWA STATE UNIVERSITY             *
          * M.W.SCHMIDT, K.K.BALDRIDGE, J.A.BOATZ, S.T.ELBERT, *
          *   M.S.GORDON, J.H.JENSEN, S.KOSEKI, N.MATSUNAGA,   *
          *          K.A.NGUYEN, S.J.SU, T.L.WINDUS,           *
          *       TOGETHER WITH M.DUPUIS, J.A.MONTGOMERY       *
          *         J.COMPUT.CHEM.  14, 1347-1363(1993)        *
          **************** 64 BIT LINUX VERSION ****************

  SINCE 1993, STUDENTS AND POSTDOCS WORKING AT IOWA STATE UNIVERSITY
  AND ALSO IN THEIR VARIOUS JOBS AFTER LEAVING ISU HAVE MADE IMPORTANT
  CONTRIBUTIONS TO THE CODE:
     IVANA ADAMOVIC, CHRISTINE AIKENS, YURI ALEXEEV, POOJA ARORA,
     ANDREY ASADCHEV, ROB BELL, PRADIPTA BANDYOPADHYAY, JONATHAN BENTZ,
     COLLEEN BERTONI, BRETT BODE, KURT BRORSEN, CALEB CARLIN, GALINA CHABAN,
     WEI CHEN, CHEOL HO CHOI, PAUL DAY, ALBERT DEFUSCO, NUWAN DESILVA,
     TIM DUDLEY, DMITRI FEDOROV, ALEX FINDLATER, GRAHAM FLETCHER, 
     MARK FREITAG, KURT GLAESEMANN, EMILIE B GUIDEZ, ANASTASIA GUNINA, 
     DAN KEMP, SAROM SOK LEANG, GRANT MERRILL,
     NORIYUKI MINEZAWA, JONATHAN MULLIN,
     TAKESHI NAGATA, SEAN NEDD, HEATHER NETZLOFF, BOSILJKA NJEGIC, RYAN OLSON,
     MIKE PAK, BUU PHAM, DAVID POOLE,
     SPENCER PRUITT, LUKE ROSKOP, TOSAPORN SATTASATHUCHANA,
     JIM SHOEMAKER, LYUDMILA SLIPCHENKO,
     TONY SMITH, JIE SONG, TETSUYA TAKETSUGU, SIMON WEBB,
     JORGE LUIS GALVEZ VALLEJO, PENG XU, SOOHAENG YOO,
     FEDERICO ZAHARIEV

  ADDITIONAL CODE HAS BEEN PROVIDED BY COLLABORATORS IN OTHER GROUPS:
     IOWA STATE UNIVERSITY:
          JOE IVANIC, AARON WEST, LAIMUTIS BYTAUTAS, KLAUS RUEDENBERG
     UNIVERSITY OF TOKYO: KIMIHIKO HIRAO, TAKAHITO NAKAJIMA,
          TAKAO TSUNEDA, MUNEAKI KAMIYA, SUSUMU YANAGISAWA,
          KIYOSHI YAGI, MAHITO CHIBA, SEIKEN TOKURA, NAOAKI KAWAKAMI
     UNIVERSITY OF AARHUS: FRANK JENSEN
     UNIVERSITY OF IOWA: VISVALDAS KAIRYS, HUI LI
     NATIONAL INST. OF STANDARDS AND TECHNOLOGY: WALT STEVENS, DAVID GARMER
     UNIVERSITY OF PISA: BENEDETTA MENNUCCI, JACOPO TOMASI
     UNIVERSITY OF MEMPHIS: HENRY KURTZ, PRAKASHAN KORAMBATH
     UNIVERSITY OF ALBERTA: TOBY ZENG, MARIUSZ KLOBUKOWSKI
     UNIVERSITY OF NEW ENGLAND: MARK SPACKMAN
     MIE UNIVERSITY: HIROAKI UMEDA
     NAT. INST. OF ADVANCED INDUSTRIAL SCIENCE AND TECHNOLOGY: KAZUO KITAURA
     MICHIGAN STATE UNIVERSITY:
          KAROL KOWALSKI, MARTA WLOCH, JEFFREY GOUR, JESSE LUTZ,
          WEI LI, JUN SHEN, J. EMILIANO DEUSTUA, PIOTR PIECUCH
     UNIVERSITY OF MINNESOTA:
          ANDREW SAND, PRACHI SHARMA, YINAN SHU
     UNIVERSITY OF SILESIA: MONIKA MUSIAL, STANISLAW KUCHARSKI
     FACULTES UNIVERSITAIRES NOTRE-DAME DE LA PAIX:
          OLIVIER QUINET, BENOIT CHAMPAGNE
     UNIVERSITY OF CALIFORNIA - SANTA BARBARA: BERNARD KIRTMAN
     INSTITUTE FOR MOLECULAR SCIENCE:
          KAZUYA ISHIMURA, MICHIO KATOUDA, AND SHIGERU NAGASE
     UNIVERSITY OF NOTRE DAME: ANNA POMOGAEVA, DAN CHIPMAN
     KYUSHU UNIVERSITY:
          HARUYUKI NAKANO,
          FENG LONG GU, JACEK KORCHOWIEC, MARCIN MAKOWSKI, AND YURIKO AOKI,
          HIROTOSHI MORI AND EISAKU MIYOSHI
     PENNSYLVANIA STATE UNIVERSITY:
          TZVETELIN IORDANOV, CHET SWALINA, JONATHAN SKONE,
          SHARON HAMMES-SCHIFFER
     WASEDA UNIVERSITY:
          MASATO KOBAYASHI, TOMOKO AKAMA, TSUGUKI TOUMA,
          TAKESHI YOSHIKAWA, YASUHIRO IKABATA, JUNJI SEINO,
          YUYA NAKAJIMA, HIROMI NAKAI
     NANJING UNIVERSITY: SHUHUA LI
     UNIVERSITY OF NEBRASKA:
          PEIFENG SU, DEJUN SI, NANDUN THELLAMUREGE, YALI WANG, HUI LI
     UNIVERSITY OF ZURICH: ROBERTO PEVERATI, KIM BALDRIDGE
     N. COPERNICUS UNIVERSITY AND JACKSON STATE UNIVERSITY:
          MARIA BARYSZ
     UNIVERSITY OF COPENHAGEN: Jimmy Kromann, CASPER STEINMANN
     TOKYO INSTITUTE OF TECHNOLOGY: HIROYA NAKATA
     NAGOYA UNIVERSITY: YOSHIO NISHIMOTO, STEPHAN IRLE
     MOSCOW STATE UNIVERSITY: VLADIMIR MIRONOV
     A.N.NESMEYANOV INSTITUTE OF ORGANOELEMENT COMPOUNDS OF RUSSIAN ACADEMY OF SCIENCES:
          IGOR S. GERASIMOV
     JOHANNES KEPLER UNIVERSITY LINZ:
          CHRISTIAN FRIEDL


 PARALLEL VERSION RUNNING ON        6 PROCESSORS IN        1 NODES.

 EXECUTION OF GAMESS BEGUN Sun May 17 14:38:23 2020

            ECHO OF THE FIRST FEW INPUT CARDS -
 INPUT CARD> $BASIS GBASIS=N21 NGAUSS=3 $END                                                
 INPUT CARD> $CONTRL SCFTYP=RHF RUNTYP=OPTIMIZE DFTTYP=B3LYP MAXIT=60 MULT=1 ICHARG=0 $END  
 INPUT CARD> $SYSTEM MEMDDI=1000 MWORDS=30 $END                                             
 INPUT CARD> $STATPT NSTEP=999 $END                                                         
 INPUT CARD> $SCF DIRSCF=.TRUE. $END                                                        
 INPUT CARD> $DATA                                                                          
 INPUT CARD>                                                                                
 INPUT CARD>C1                                                                              
 INPUT CARD>C 6.0000000 -0.54890 0.22274 -0.41089                                           
 INPUT CARD>H 1.0000000 -0.49802 -0.32144 -1.35958                                          
 INPUT CARD>C 6.0000000 0.59047 -0.16956 0.53650                                            
 INPUT CARD>C 6.0000000 2.00817 0.15538 0.02331                                             
 INPUT CARD>C 6.0000000 3.05114 -0.11772 1.11761                                            
 INPUT CARD>C 6.0000000 2.36019 -0.61131 -1.26050                                           
 INPUT CARD>H 1.0000000 0.44517 0.34309 1.49704                                             
 INPUT CARD>H 1.0000000 0.53191 -1.24572 0.75638                                            
 INPUT CARD>H 1.0000000 2.03826 1.23164 -0.20816                                            
 INPUT CARD>H 1.0000000 2.84331 0.46410 2.02252                                             
 INPUT CARD>H 1.0000000 3.05427 -1.17857 1.39857                                            
 INPUT CARD>H 1.0000000 4.06147 0.13698 0.77854                                             
 INPUT CARD>H 1.0000000 1.67529 -0.37765 -2.08152                                           
 INPUT CARD>H 1.0000000 3.37375 -0.36660 -1.59702                                           
 INPUT CARD>H 1.0000000 2.32066 -1.69485 -1.09011                                           
 INPUT CARD>H 1.0000000 -1.52434 0.00660 0.03760                                            
 INPUT CARD>H 1.0000000 -0.51986 1.29428 -0.64177                                           
 INPUT CARD> $END                                                                           
   30000000 WORDS OF MEMORY AVAILABLE

     BASIS OPTIONS
     -------------
     GBASIS=N21          IGAUSS=       3      POLAR=NONE    
     NDFUNC=       0     NFFUNC=       0     DIFFSP=       F
     NPFUNC=       0      DIFFS=       F     BASNAM=        


     RUN TITLE
     ---------
                                                                                 

 THE POINT GROUP OF THE MOLECULE IS C1      
 THE ORDER OF THE PRINCIPAL AXIS IS     0

 ATOM      ATOMIC                      COORDINATES (BOHR)
           CHARGE         X                   Y                   Z
 C           6.0    -1.0372705947        0.4209175665       -0.7764695111
 H           1.0    -0.9411213364       -0.6074335215       -2.5692336584
 C           6.0     1.1158265040       -0.3204219385        1.0138379924
 C           6.0     3.7948910368        0.2936256240        0.0440495128
 C           6.0     5.7658185502       -0.2224585433        2.1119766611
 C           6.0     4.4601123790       -1.1552083936       -2.3819996075
 H           1.0     0.8412493180        0.6483460891        2.8289953927
 H           1.0     1.0051641501       -2.3540694574        1.4293509426
 H           1.0     3.8517528917        2.3274621155       -0.3933653616
 H           1.0     5.3730767981        0.8770218309        3.8220086047
 H           1.0     5.7717333925       -2.2271743573        2.6429140746
 H           1.0     7.6750654074        0.2588546658        1.4712272705
 H           1.0     3.1658390500       -0.7136550193       -3.9335024380
 H           1.0     6.3754630511       -0.6927735471       -3.0179301969
 H           1.0     4.3854115107       -3.2028020903       -2.0600091965
 H           1.0    -2.8805849121        0.0124721915        0.0710536971
 H           1.0    -0.9823929520        2.4458345514       -1.2127694471

          INTERNUCLEAR DISTANCES (ANGS.)
          ------------------------------

                1 C          2 H          3 C          4 C          5 C     

   1 C       0.0000000    1.0948668 *  1.5328441 *  2.5945470 *  3.9258774  
   2 H       1.0948668 *  0.0000000    2.1915742 *  2.9018495 *  4.3329561  
   3 C       1.5328441 *  2.1915742 *  0.0000000    1.5423434 *  2.5288877 *
   4 C       2.5945470 *  2.9018495 *  1.5423434 *  0.0000000    1.5361844 *
   5 C       3.9258774    4.3329561    2.5288877 *  1.5361844 *  0.0000000  
   6 C       3.1432915    2.8745793 *  2.5605197 *  1.5361965 *  2.5251634 *
   7 H       2.1547288 *  3.0808254    1.0984349 *  2.1564054 *  2.6734608 *
   8 H       2.1649583 *  2.5283070 *  1.0999531 *  2.1632883 *  2.7837728 *
   9 H       2.7843088 *  3.1891287    2.1480167 *  1.1012808 *  2.1457783 *
  10 H       4.1817254    4.8187301    2.7721956 *  2.1885172 *  1.0957052 *
  11 H       4.2685652    4.5782996    2.7984954 *  2.1829081 *  1.0974293 *
  12 H       4.7621014    5.0567435    3.4929058    2.1878647 *  1.0957223 *
  13 H       2.8457853 *  2.2907713 *  2.8415075 *  2.1966428 *  3.4921282  
  14 H       4.1402185    3.8793067    3.5124607    2.1823705 *  2.7450382 *
  15 H       3.5175085    3.1470345    2.8223974 *  2.1819040 *  2.8097985 *
  16 H       1.0951452 *  1.7643851 *  2.1799897 *  3.5356706    4.7028602  
  17 H       1.0965158 *  1.7681288 *  2.1826544 *  2.8513787 *  4.2238848  

                6 C          7 H          8 H          9 H         10 H     

   1 C       3.1432915    2.1547288 *  2.1649583 *  2.7843088 *  4.1817254  
   2 H       2.8745793 *  3.0808254    2.5283070 *  3.1891287    4.8187301  
   3 C       2.5605197 *  1.0984349 *  1.0999531 *  2.1480167 *  2.7721956 *
   4 C       1.5361965 *  2.1564054 *  2.1632883 *  1.1012808 *  2.1885172 *
   5 C       2.5251634 *  2.6734608 *  2.7837728 *  2.1457783 *  1.0957052 *
   6 C       0.0000000    3.4903020    2.7951545 *  2.1465142 *  3.4882850  
   7 H       3.4903020    0.0000000    1.7551120 *  2.4970310 *  2.4580171 *
   8 H       2.7951545 *  1.7551120 *  0.0000000    3.0556080    3.1415227  
   9 H       2.1465142 *  2.4970310 *  3.0556080    0.0000000    2.4926204 *
  10 H       3.4882850    2.4580171 *  3.1415227    2.4926204 *  0.0000000  
  11 H       2.8060977 *  3.0220106    2.6036930 *  3.0696856    1.7697973 *
  12 H       2.7589809 *  3.6927428    3.7907973    2.5030454 *  1.7715551 *
  13 H       1.0944217 *  3.8521102    3.1803364    2.4962050 *  4.3492480  
  14 H       1.0956425 *  4.3189638    3.7930724    2.5033651 *  3.7513329  
  15 H       1.0975674 *  3.7899878    2.6097643 *  3.0695161    3.8239631  
  16 H       4.1420345    2.4743000 *  2.5125911 *  3.7753463    4.8192925  
  17 H       3.5083882    2.5319071 *  3.0842574    2.5953650 *  4.3701891  

               11 H         12 H         13 H         14 H         15 H     

   1 C       4.2685652    4.7621014    2.8457853 *  4.1402185    3.5175085  
   2 H       4.5782996    5.0567435    2.2907713 *  3.8793067    3.1470345  
   3 C       2.7984954 *  3.4929058    2.8415075 *  3.5124607    2.8223974 *
   4 C       2.1829081 *  2.1878647 *  2.1966428 *  2.1823705 *  2.1819040 *
   5 C       1.0974293 *  1.0957223 *  3.4921282    2.7450382 *  2.8097985 *
   6 C       2.8060977 *  2.7589809 *  1.0944217 *  1.0956425 *  1.0975674 *
   7 H       3.0220106    3.6927428    3.8521102    4.3189638    3.7899878  
   8 H       2.6036930 *  3.7907973    3.1803364    3.7930724    2.6097643 *
   9 H       3.0696856    2.5030454 *  2.4962050 *  2.5033651 *  3.0695161  
  10 H       1.7697973 *  1.7715551 *  4.3492480    3.7513329    3.8239631  
  11 H       0.0000000    1.7690565 *  3.8280655    3.1200837    2.6454219 *
  12 H       1.7690565 *  0.0000000    3.7601386    2.5238536 *  3.1429084  
  13 H       3.8280655    3.7601386    0.0000000    1.7662471 *  1.7704271 *
  14 H       3.1200837    2.5238536 *  1.7662471 *  0.0000000    1.7692384 *
  15 H       2.6454219 *  3.1429084    1.7704271 *  1.7692384 *  0.0000000  
  16 H       4.9214365    5.6362456    3.8569353    5.1771176    4.3532387  
  17 H       4.8012894    4.9340864    3.1123807    4.3394958    4.1478260  

               16 H         17 H     

   1 C       1.0951452 *  1.0965158 *
   2 H       1.7643851 *  1.7681288 *
   3 C       2.1799897 *  2.1826544 *
   4 C       3.5356706    2.8513787 *
   5 C       4.7028602    4.2238848  
   6 C       4.1420345    3.5083882  
   7 H       2.4743000 *  2.5319071 *
   8 H       2.5125911 *  3.0842574  
   9 H       3.7753463    2.5953650 *
  10 H       4.8192925    4.3701891  
  11 H       4.9214365    4.8012894  
  12 H       5.6362456    4.9340864  
  13 H       3.8569353    3.1123807  
  14 H       5.1771176    4.3394958  
  15 H       4.3532387    4.1478260  
  16 H       0.0000000    1.7687972 *
  17 H       1.7687972 *  0.0000000  

  * ... LESS THAN  3.000


     ATOMIC BASIS SET
     ----------------
 THE CONTRACTED PRIMITIVE FUNCTIONS HAVE BEEN UNNORMALIZED
 THE CONTRACTED BASIS FUNCTIONS ARE NOW NORMALIZED TO UNITY

  SHELL TYPE  PRIMITIVE        EXPONENT          CONTRACTION COEFFICIENT(S)

 C         

      1   S       1           172.2560000    0.061766907377
      1   S       2            25.9109000    0.358794042852
      1   S       3             5.5333500    0.700713083689

      2   L       4             3.6649800   -0.395895162119    0.236459946619
      2   L       5             0.7705450    1.215834355681    0.860618805716

      3   L       6             0.1958570    1.000000000000    1.000000000000

 H         

      4   S       7             5.4471780    0.156284978695
      4   S       8             0.8245472    0.904690876670

      5   S       9             0.1831916    1.000000000000

 C         

      6   S      10           172.2560000    0.061766907377
      6   S      11            25.9109000    0.358794042852
      6   S      12             5.5333500    0.700713083689

      7   L      13             3.6649800   -0.395895162119    0.236459946619
      7   L      14             0.7705450    1.215834355681    0.860618805716

      8   L      15             0.1958570    1.000000000000    1.000000000000

 C         

      9   S      16           172.2560000    0.061766907377
      9   S      17            25.9109000    0.358794042852
      9   S      18             5.5333500    0.700713083689

     10   L      19             3.6649800   -0.395895162119    0.236459946619
     10   L      20             0.7705450    1.215834355681    0.860618805716

     11   L      21             0.1958570    1.000000000000    1.000000000000

 C         

     12   S      22           172.2560000    0.061766907377
     12   S      23            25.9109000    0.358794042852
     12   S      24             5.5333500    0.700713083689

     13   L      25             3.6649800   -0.395895162119    0.236459946619
     13   L      26             0.7705450    1.215834355681    0.860618805716

     14   L      27             0.1958570    1.000000000000    1.000000000000

 C         

     15   S      28           172.2560000    0.061766907377
     15   S      29            25.9109000    0.358794042852
     15   S      30             5.5333500    0.700713083689

     16   L      31             3.6649800   -0.395895162119    0.236459946619
     16   L      32             0.7705450    1.215834355681    0.860618805716

     17   L      33             0.1958570    1.000000000000    1.000000000000

 H         

     18   S      34             5.4471780    0.156284978695
     18   S      35             0.8245472    0.904690876670

     19   S      36             0.1831916    1.000000000000

 H         

     20   S      37             5.4471780    0.156284978695
     20   S      38             0.8245472    0.904690876670

     21   S      39             0.1831916    1.000000000000

 H         

     22   S      40             5.4471780    0.156284978695
     22   S      41             0.8245472    0.904690876670

     23   S      42             0.1831916    1.000000000000

 H         

     24   S      43             5.4471780    0.156284978695
     24   S      44             0.8245472    0.904690876670

     25   S      45             0.1831916    1.000000000000

 H         

     26   S      46             5.4471780    0.156284978695
     26   S      47             0.8245472    0.904690876670

     27   S      48             0.1831916    1.000000000000

 H         

     28   S      49             5.4471780    0.156284978695
     28   S      50             0.8245472    0.904690876670

     29   S      51             0.1831916    1.000000000000

 H         

     30   S      52             5.4471780    0.156284978695
     30   S      53             0.8245472    0.904690876670

     31   S      54             0.1831916    1.000000000000

 H         

     32   S      55             5.4471780    0.156284978695
     32   S      56             0.8245472    0.904690876670

     33   S      57             0.1831916    1.000000000000

 H         

     34   S      58             5.4471780    0.156284978695
     34   S      59             0.8245472    0.904690876670

     35   S      60             0.1831916    1.000000000000

 H         

     36   S      61             5.4471780    0.156284978695
     36   S      62             0.8245472    0.904690876670

     37   S      63             0.1831916    1.000000000000

 H         

     38   S      64             5.4471780    0.156284978695
     38   S      65             0.8245472    0.904690876670

     39   S      66             0.1831916    1.000000000000

 TOTAL NUMBER OF BASIS SET SHELLS             =   39
 NUMBER OF CARTESIAN GAUSSIAN BASIS FUNCTIONS =   69
 NUMBER OF ELECTRONS                          =   42
 CHARGE OF MOLECULE                           =    0
 SPIN MULTIPLICITY                            =    1
 NUMBER OF OCCUPIED ORBITALS (ALPHA)          =   21
 NUMBER OF OCCUPIED ORBITALS (BETA )          =   21
 TOTAL NUMBER OF ATOMS                        =   17
 THE NUCLEAR REPULSION ENERGY IS      191.6575866580

 SELECTED MURRAY-HANDY-LAMING RADIAL GRID

 LEGACY BECKE'S FUZZY CELL METHOD

 SELECTED ORIGINAL BECKE'S PARTITION FUNCTION

     LEBEDEV GRID-BASED DFT OPTIONS
     ------------------------------
     DFTTYP=B3LYP   
     NRAD  =      96     NLEB  =     302
     NRAD0 =      24     NLEB0 =     110
     SWOFF =    5.00E-03 (PURE SCF -> DFT)
     SWITCH=    3.00E-04 (COARSE -> TIGHT GRID)
     THRESH=    0.00E+00 GTHRE=    1.00E+00

 GRIMME'S EMPIRICAL DISPERSION CORRECTION= F

     $CONTRL OPTIONS
     ---------------
 SCFTYP=RHF          RUNTYP=OPTIMIZE     EXETYP=RUN     
 MPLEVL=       0     CITYP =NONE         CCTYP =NONE         VBTYP =NONE    
 DFTTYP=B3LYP        TDDFT =NONE    
 MULT  =       1     ICHARG=       0     NZVAR =       0     COORD =UNIQUE  
 PP    =NONE         RELWFN=NONE         LOCAL =NONE         NUMGRD=       F
 ISPHER=      -1     NOSYM =       0     MAXIT =      60     UNITS =ANGS    
 PLTORB=       F     MOLPLT=       F     AIMPAC=       F     FRIEND=        
 NPRINT=       7     IREST =       0     GEOM  =INPUT   
 NORMF =       0     NORMP =       0     ITOL  =      20     ICUT  =       9
 INTTYP=BEST         GRDTYP=BEST         QMTTOL= 1.0E-06

     $SYSTEM OPTIONS
     ---------------
  REPLICATED MEMORY=    30000000 WORDS (ON EVERY NODE).
 DISTRIBUTED MEMDDI=        1000 MILLION WORDS IN AGGREGATE,
 MEMDDI DISTRIBUTED OVER   6 PROCESSORS IS   166666666 WORDS/PROCESSOR.
 TOTAL MEMORY REQUESTED ON EACH PROCESSOR=   196666666 WORDS.
 TIMLIM=      525600.00 MINUTES, OR     365.0 DAYS.
 PARALL= T  BALTYP=  DLB     KDIAG=    0  COREFL= F
 MXSEQ2=     300 MXSEQ3=     150  mem10=         0

          ----------------
          PROPERTIES INPUT
          ----------------

     MOMENTS            FIELD           POTENTIAL          DENSITY
 IEMOM =       1   IEFLD =       0   IEPOT =       0   IEDEN =       0
 WHERE =COMASS     WHERE =NUCLEI     WHERE =NUCLEI     WHERE =NUCLEI  
 OUTPUT=BOTH       OUTPUT=BOTH       OUTPUT=BOTH       OUTPUT=BOTH    
 IEMINT=       0   IEFINT=       0                     IEDINT=       0
                                                       MORB  =       0
          EXTRAPOLATION IN EFFECT
          DIIS IN EFFECT
 ORBITAL PRINTING OPTION: NPREO=     1    69     2     1

     -------------------------------
     INTEGRAL TRANSFORMATION OPTIONS
     -------------------------------
     NWORD  =            0
     CUTOFF = 1.0E-09     MPTRAN =       0
     DIRTRF =       T     AOINTS =DUP     

          ----------------------
          INTEGRAL INPUT OPTIONS
          ----------------------
 NOPK  =       1 NORDER=       0 SCHWRZ=       T

     ------------------------------------------
     THE POINT GROUP IS C1 , NAXIS= 0, ORDER= 1
     ------------------------------------------

     DIMENSIONS OF THE SYMMETRY SUBSPACES ARE
 A   =   69

 ..... DONE SETTING UP THE RUN .....
 CPU     0: STEP CPU TIME=     0.01 TOTAL CPU TIME=          0.0 (      0.0 MIN)
 TOTAL WALL CLOCK TIME=          0.0 SECONDS, CPU UTILIZATION IS    50.00%


          -----------------------------
          STATIONARY POINT LOCATION RUN
          -----------------------------

 OBTAINING INITIAL HESSIAN, HESS=GUESS   
 CARTESIAN COORDINATE OPTIMIZATION USING BADGER'S RULE FORCE CONSTANT GUESS

          PARAMETERS CONTROLLING GEOMETRY SEARCH ARE
          METHOD =QA                  UPHESS =BFGS    
          NNEG   =         0          NFRZ   =         0
          NSTEP  =       999          IFOLOW =         1
          HESS   =GUESS               RESTAR =         F
          IHREP  =         0          HSSEND =         F
          NPRT   =         0          NPUN   =         0
          OPTTOL = 1.000E-04          RMIN   = 1.500E-03
          RMAX   = 1.000E-01          RLIM   = 7.000E-02
          DXMAX  = 3.000E-01          PURIFY =         F
          MOVIE  =         F          TRUPD  =         T
          TRMAX  = 5.000E-01          TRMIN  = 5.000E-02
          ITBMAT =         5          STPT   =         F
          STSTEP = 1.000E-02          PROJCT=          T

 BEGINNING GEOMETRY SEARCH POINT NSERCH=   0 ...

 COORDINATES OF ALL ATOMS ARE (ANGS)
   ATOM   CHARGE       X              Y              Z
 ------------------------------------------------------------
 C           6.0  -0.5489000000   0.2227400000  -0.4108900000
 H           1.0  -0.4980200000  -0.3214400000  -1.3595800000
 C           6.0   0.5904700000  -0.1695600000   0.5365000000
 C           6.0   2.0081700000   0.1553800000   0.0233100000
 C           6.0   3.0511400000  -0.1177200000   1.1176100000
 C           6.0   2.3601900000  -0.6113100000  -1.2605000000
 H           1.0   0.4451700000   0.3430900000   1.4970400000
 H           1.0   0.5319100000  -1.2457200000   0.7563800000
 H           1.0   2.0382600000   1.2316400000  -0.2081600000
 H           1.0   2.8433100000   0.4641000000   2.0225200000
 H           1.0   3.0542700000  -1.1785700000   1.3985700000
 H           1.0   4.0614700000   0.1369800000   0.7785400000
 H           1.0   1.6752900000  -0.3776500000  -2.0815200000
 H           1.0   3.3737500000  -0.3666000000  -1.5970200000
 H           1.0   2.3206600000  -1.6948500000  -1.0901100000
 H           1.0  -1.5243400000   0.0066000000   0.0376000000
 H           1.0  -0.5198600000   1.2942800000  -0.6417700000

          ********************
          1 ELECTRON INTEGRALS
          ********************
 ...... END OF ONE-ELECTRON INTEGRALS ......
 CPU     0: STEP CPU TIME=     0.02 TOTAL CPU TIME=          0.0 (      0.0 MIN)
 TOTAL WALL CLOCK TIME=          0.0 SECONDS, CPU UTILIZATION IS    75.00%

          -------------
          GUESS OPTIONS
          -------------
          GUESS =HUCKEL            NORB  =       0          NORDER=       0
          MIX   =       F          PRTMO =       F          PUNMO =       F
          TOLZ  = 1.0E-08          TOLE  = 1.0E-05
          SYMDEN=       F          PURIFY=       F

 INITIAL GUESS ORBITALS GENERATED BY HUCKEL   ROUTINE.
 HUCKEL GUESS REQUIRES     52158 WORDS.

 SYMMETRIES FOR INITIAL GUESS ORBITALS FOLLOW.   BOTH SET(S).
    21 ORBITALS ARE OCCUPIED (    5 CORE ORBITALS).
     6=A        7=A        8=A        9=A       10=A       11=A       12=A   
    13=A       14=A       15=A       16=A       17=A       18=A       19=A   
    20=A       21=A       22=A       23=A       24=A       25=A       26=A   
    27=A       28=A       29=A       30=A       31=A   
 ...... END OF INITIAL ORBITAL SELECTION ......
 CPU     0: STEP CPU TIME=     0.01 TOTAL CPU TIME=          0.0 (      0.0 MIN)
 TOTAL WALL CLOCK TIME=          0.1 SECONDS, CPU UTILIZATION IS    80.00%

                    ----------------------
                    AO INTEGRAL TECHNOLOGY
                    ----------------------
     S,P,L SHELL ROTATED AXIS INTEGRALS, REPROGRAMMED BY
        KAZUYA ISHIMURA (IMS) AND JOSE SIERRA (SYNSTAR).
     S,P,D,L SHELL ROTATED AXIS INTEGRALS PROGRAMMED BY
        KAZUYA ISHIMURA (INSTITUTE FOR MOLECULAR SCIENCE).
     S,P,D,F,G SHELL TO TOTAL QUARTET ANGULAR MOMENTUM SUM 5,
        ERIC PROGRAM BY GRAHAM FLETCHER (ELORET AND NASA ADVANCED
        SUPERCOMPUTING DIVISION, AMES RESEARCH CENTER).
     S,P,D,F,G,L SHELL GENERAL RYS QUADRATURE PROGRAMMED BY
        MICHEL DUPUIS (PACIFIC NORTHWEST NATIONAL LABORATORY).

          --------------------
          2 ELECTRON INTEGRALS
          --------------------

 DIRECT SCF METHOD SKIPS INTEGRAL STORAGE ON DISK.
 DIRECT TRANSFORMATION SKIPS AO INTEGRAL STORAGE ON DISK.
  ...... END OF TWO-ELECTRON INTEGRALS .....
 CPU     0: STEP CPU TIME=     0.01 TOTAL CPU TIME=          0.0 (      0.0 MIN)
 TOTAL WALL CLOCK TIME=          0.1 SECONDS, CPU UTILIZATION IS    83.33%

          --------------------------
             R-B3LYP SCF CALCULATION
          --------------------------

     NUCLEAR ENERGY =       191.6575866580
     MAXIT =   60     NPUNCH=    2
     EXTRAP=T  DAMP=F  SHIFT=F  RSTRCT=F  DIIS=T  DEM=F  SOSCF=F
         DENSITY MATRIX CONVERGENCE THRESHOLD=  2.00E-05
     COARSE -> FINE DFT GRID SWITCH THRESHOLD=  3.00E-04 (SWITCH IN $DFT)
                   HF -> DFT SWITCH THRESHOLD=  5.00E-03 (SWOFF IN $DFT)
     MEMORY REQUIRED FOR RHF ITERS=    643563 WORDS.

 DIRECT SCF CALCULATION, SCHWRZ=T   FDIFF=T,  DIRTHR=  0.00E+00 NITDIR=10
 SCHWARZ INEQUALITY OVERHEAD:      2398 INTEGRALS, T=        0.00

 DFT CODE IS SWITCHING FROM THE FINE GRID NRAD= 96,  NLEB=  302
                      TO THE COARSE GRID NRAD0= 24, NLEB0=  110

     EXCHANGE FUNCTIONAL   =B88&HFX   
     CORRELATION FUNCTIONAL=LYP88&VWN5
     DFT THRESHOLD         =.812E-08
     GRID CHANGE THRESHOLD =.300E-03
 FOR AN EULER-MACLAURIN QUADRATURE USING  96 RADIAL POINTS:
 SMALLEST GAUSSIAN PRIMITIVE EXPONENT=        0.1831915800 OF TYPE -S-
 ON ATOM NUMBER   2 HAS RADIAL NORMALIZATION=  1.000000
  LARGEST GAUSSIAN PRIMITIVE EXPONENT=      172.2560000000 OF TYPE -S-
 ON ATOM NUMBER   1 HAS RADIAL NORMALIZATION=  1.000000
 DFT IS SWITCHED OFF, PERFORMING PURE SCF UNTIL SWOFF THRESHOLD IS REACHED.

                                                                                   NONZERO     BLOCKS
 ITER EX DEM     TOTAL ENERGY        E CHANGE  DENSITY CHANGE    DIIS ERROR      INTEGRALS    SKIPPED
   1  0  0     -194.8864994292  -194.8864994292   0.629725009   0.527369723        2541717      67844
          * * *   INITIATING DIIS PROCEDURE   * * *
   2  1  0     -195.2330544081    -0.3465549789   0.096234060   0.044709967        2532427      72498
   3  2  0     -195.2484877063    -0.0154332982   0.058274989   0.017679271        2505511      79872
   4  3  0     -195.2505113511    -0.0020236448   0.014923848   0.004471090        2468614      89637
   5  4  0     -195.2506776954    -0.0001663443   0.003700077   0.000631302        2440186      93258
 CONVERGED TO SWOFF, SO DFT CALCULATION IS NOW SWITCHED ON.
          * * *   INITIATING DIIS PROCEDURE   * * *
   6  5  0     -196.5342678954    -1.2835902000   0.048181292   0.075873245        2542535      67210
   7  6  0     -196.5433174298    -0.0090495344   0.058186415   0.025598493        2514410      78376
   8  7  0     -196.5455729707    -0.0022555409   0.029205676   0.017739149        2493384      83128
   9  8  0     -196.5481230320    -0.0025500613   0.002220182   0.000890508        2469091      88755
  10  9  0     -196.5481262633    -0.0000032314   0.000203075   0.000238057        2319483     112844
 DFT CODE IS SWITCHING BACK TO THE FINE GRID
          * * *   INITIATING DIIS PROCEDURE   * * *
  11 10  0     -196.5521309212    -0.0040046579   0.002514875   0.001675780        2543184      66860
  12 11  0     -196.5521482050    -0.0000172838   0.000753974   0.000229866        2415858      98090
  13 12  0     -196.5521483391    -0.0000001341   0.000328144   0.000224235        2286589     117072
  14 13  0     -196.5521485911    -0.0000002520   0.000022536   0.000023108        2215281     129426
  15 14  0     -196.5521485953    -0.0000000042   0.000013985   0.000003731        2088594     145447
  16 15  0     -196.5521485952     0.0000000001   0.000004263   0.000001856        1924657     165833

          -----------------
          DENSITY CONVERGED
          -----------------
     TIME TO FORM FOCK OPERATORS=       5.3 SECONDS (       0.3 SEC/ITER)
     FOCK TIME ON FIRST ITERATION=       0.0, LAST ITERATION=       0.7
     TIME TO SOLVE SCF EQUATIONS=       0.1 SECONDS (       0.0 SEC/ITER)

 FINAL R-B3LYP ENERGY IS     -196.5521485952 AFTER  16 ITERATIONS
 DFT EXCHANGE + CORRELATION ENERGY =       -25.3793077480
 TOTAL ELECTRON NUMBER             =        42.0001506830

          ------------
          EIGENVECTORS
          ------------

                      1          2          3          4          5
                  -10.1141   -10.1053   -10.0996   -10.0982   -10.0975
                     A          A          A          A          A   
    1  C  1  S   -0.010352  -0.060918   0.980920   0.076504   0.030816
    2  C  1  S   -0.002080  -0.009676   0.111618   0.007440   0.003149
    3  C  1  X   -0.000934   0.000217  -0.000024  -0.000208  -0.000173
    4  C  1  Y   -0.000161  -0.000080   0.000054  -0.000087   0.000227
    5  C  1  Z   -0.000098   0.000040  -0.000156   0.000045  -0.000029
    6  C  1  S    0.001418   0.029323  -0.090144  -0.001161  -0.001035
    7  C  1  X    0.000242   0.011079  -0.003501   0.003430  -0.000181
    8  C  1  Y    0.000999  -0.003001   0.001060  -0.000165  -0.000514
    9  C  1  Z   -0.000208   0.008272  -0.002259   0.000930   0.000666
   10  H  2  S    0.000268  -0.001469  -0.000236  -0.000459   0.000088
   11  H  2  S   -0.001217  -0.000090   0.016556   0.001244  -0.000485
   12  C  3  S   -0.035239   0.983601   0.057672   0.015330   0.038628
   13  C  3  S   -0.006923   0.115058   0.004689   0.001083   0.002047
   14  C  3  X    0.000724   0.000147   0.000304  -0.000765  -0.001004
   15  C  3  Y    0.000039   0.000030  -0.000138   0.000098   0.000474
   16  C  3  Z   -0.000043  -0.000212   0.000482  -0.000990   0.000807
   17  C  3  S    0.029384  -0.102694   0.013419  -0.000305   0.002101
   18  C  3  X    0.014756   0.000048  -0.011028   0.002758   0.003707
   19  C  3  Y    0.001759  -0.003156   0.003327  -0.001411  -0.001939
   20  C  3  Z   -0.004957   0.005951  -0.008275   0.003783  -0.002171
   21  C  4  S    0.986404   0.032852   0.010709   0.011086   0.024254
   22  C  4  S    0.118897   0.001958   0.000339   0.000386   0.001046
   23  C  4  X    0.000107  -0.000360   0.001109  -0.000017   0.000134
   24  C  4  Y   -0.000484  -0.000067  -0.000106  -0.000034  -0.000033
   25  C  4  Z    0.000152   0.000000   0.000624   0.000030   0.000072
   26  C  4  S   -0.118666   0.014917  -0.001286   0.008205   0.016739
   27  C  4  X    0.000217  -0.013922  -0.005032   0.006519   0.005419
   28  C  4  Y    0.007697  -0.000223   0.000339   0.001871  -0.003904
   29  C  4  Z   -0.002270   0.004593  -0.004008   0.012776  -0.007762
   30  C  5  S   -0.018110  -0.024563  -0.084662   0.911036   0.367049
   31  C  5  S   -0.004746  -0.004177  -0.010986   0.104471   0.039797
   32  C  5  X   -0.000679   0.000839   0.000399  -0.000170  -0.000016
   33  C  5  Y   -0.000010   0.000081   0.000067  -0.000358   0.000402
   34  C  5  Z   -0.000611  -0.000037  -0.000023  -0.000502   0.001004
   35  C  5  S    0.028441   0.005837   0.013153  -0.084171  -0.027960
   36  C  5  X   -0.010000  -0.001676  -0.003884   0.003172   0.000545
   37  C  5  Y    0.001808  -0.000606   0.000203   0.000563  -0.001901
   38  C  5  Z   -0.010484  -0.000178  -0.001541   0.004021  -0.002378
   39  C  6  S   -0.017794  -0.031054  -0.001851  -0.369940   0.913587
   40  C  6  S   -0.004719  -0.005455  -0.000002  -0.044033   0.103160
   41  C  6  X   -0.000172   0.001086   0.000261  -0.000533  -0.000118
   42  C  6  Y    0.000321   0.000118  -0.000220   0.000085  -0.000046
   43  C  6  Z    0.000708  -0.000732   0.000088  -0.001107  -0.000317
   44  C  6  S    0.027743   0.007495  -0.000892   0.038196  -0.080930
   45  C  6  X   -0.003469  -0.003095   0.000575   0.001221   0.001093
   46  C  6  Y    0.006143  -0.000699   0.000036   0.000038  -0.001995
   47  C  6  Z    0.012930   0.002566  -0.001013   0.004958  -0.001639
   48  H  7  S   -0.001215   0.000841  -0.001075  -0.000393  -0.000294
   49  H  7  S   -0.000535   0.016063   0.002305  -0.001738   0.002612
   50  H  8  S   -0.001759   0.000753  -0.001138  -0.000370  -0.000694
   51  H  8  S   -0.000146   0.016191   0.002396  -0.000944  -0.001142
   52  H  9  S    0.001628  -0.001394  -0.000149  -0.000726  -0.001616
   53  H  9  S    0.016164   0.001114  -0.000870   0.000429   0.001672
   54  H 10  S   -0.001309  -0.000005  -0.000459  -0.000064  -0.000185
   55  H 10  S   -0.000281  -0.002117  -0.001701   0.013504   0.007954
   56  H 11  S   -0.001625  -0.000240  -0.000521   0.000192  -0.000588
   57  H 11  S    0.000086  -0.001791  -0.001425   0.015481   0.004555
   58  H 12  S   -0.001312  -0.000261  -0.000144  -0.000014  -0.000462
   59  H 12  S   -0.000503   0.001124  -0.000257   0.014860   0.004394
   60  H 13  S   -0.001390  -0.000203   0.000177   0.000043  -0.000362
   61  H 13  S    0.000292  -0.002066  -0.001171  -0.003854   0.015811
   62  H 14  S   -0.001253  -0.000191  -0.000080  -0.000385  -0.000231
   63  H 14  S   -0.000231   0.002184   0.000010  -0.007129   0.014278
   64  H 15  S   -0.001686  -0.000585   0.000296  -0.000544  -0.000312
   65  H 15  S   -0.000050  -0.002107  -0.000118  -0.007545   0.014189
   66  H 16  S   -0.000295  -0.001144  -0.000125  -0.000178  -0.000296
   67  H 16  S    0.001547  -0.000581   0.015534   0.002096   0.000499
   68  H 17  S    0.000017  -0.001525  -0.000074  -0.000552   0.000123
   69  H 17  S   -0.001733  -0.000483   0.015980   0.001101   0.000365

                      6          7          8          9         10
                   -0.8016    -0.7251    -0.6740    -0.6174    -0.5478
                     A          A          A          A          A   
    1  C  1  S   -0.065355  -0.149449  -0.005182  -0.127750  -0.035875
    2  C  1  S    0.066388   0.144459   0.003604   0.118803   0.033342
    3  C  1  X    0.030593   0.020217   0.000319  -0.068822  -0.025959
    4  C  1  Y   -0.007250  -0.008953  -0.001607   0.017896   0.046963
    5  C  1  Z    0.017409   0.024136  -0.010178  -0.052257  -0.065966
    6  C  1  S    0.141952   0.402782   0.020838   0.429978   0.138707
    7  C  1  X   -0.000568  -0.001679   0.011695  -0.019167  -0.002365
    8  C  1  Y   -0.000340  -0.002217   0.000746   0.006295   0.023530
    9  C  1  Z   -0.003818   0.006154  -0.003088  -0.016235  -0.037069
   10  H  2  S    0.030463   0.075881   0.008596   0.095083   0.039446
   11  H  2  S    0.001678   0.001978   0.010533   0.031249   0.014561
   12  C  3  S   -0.114207  -0.105836   0.021754   0.109737   0.081168
   13  C  3  S    0.112898   0.097253  -0.019704  -0.100199  -0.072372
   14  C  3  X    0.029571  -0.074221  -0.008825  -0.085013   0.068185
   15  C  3  Y    0.009520   0.011878  -0.005561   0.011503   0.080148
   16  C  3  Z   -0.022656  -0.023410  -0.030837  -0.050309  -0.084199
   17  C  3  S    0.258985   0.297104  -0.070060  -0.365660  -0.317878
   18  C  3  X   -0.009218  -0.001206  -0.004548  -0.021045   0.018411
   19  C  3  Y    0.006597   0.001435  -0.005229   0.000168   0.048030
   20  C  3  Z   -0.000427  -0.004813  -0.009008  -0.015185  -0.036960
   21  C  4  S   -0.145680   0.057799  -0.000127   0.059918  -0.124990
   22  C  4  S    0.134613  -0.050613  -0.000193  -0.053352   0.110114
   23  C  4  X   -0.009985  -0.079661  -0.019425   0.100917   0.019342
   24  C  4  Y   -0.018976   0.012250  -0.025770  -0.010732   0.113674
   25  C  4  Z    0.005879   0.007112  -0.124148  -0.025245  -0.036351
   26  C  4  S    0.365067  -0.170993   0.003651  -0.202312   0.481780
   27  C  4  X    0.005773  -0.005397  -0.004964   0.026544   0.003347
   28  C  4  Y   -0.014664   0.007598  -0.005591   0.003035   0.057350
   29  C  4  Z    0.007573   0.001100  -0.025918  -0.014713  -0.021499
   30  C  5  S   -0.084359   0.089161   0.138567  -0.086419   0.046761
   31  C  5  S    0.087566  -0.085526  -0.130149   0.079971  -0.042372
   32  C  5  X   -0.032808   0.003852   0.000399   0.057288  -0.054240
   33  C  5  Y    0.003910  -0.001738  -0.006384  -0.009733   0.057146
   34  C  5  Z   -0.031662   0.021496  -0.024053   0.020629  -0.080971
   35  C  5  S    0.174133  -0.240288  -0.415268   0.292216  -0.186344
   36  C  5  X    0.005623   0.000803   0.004796   0.024265  -0.011514
   37  C  5  Y    0.001792  -0.001243  -0.001191  -0.005273   0.035616
   38  C  5  Z    0.006948   0.004800  -0.006959  -0.000141  -0.031398
   39  C  6  S   -0.084976   0.071636  -0.160584  -0.046125   0.058888
   40  C  6  S    0.087348  -0.070357   0.151084   0.041973  -0.053125
   41  C  6  X   -0.012467  -0.012631  -0.006019   0.028131  -0.023448
   42  C  6  Y    0.018903  -0.008488  -0.002678  -0.014813   0.094748
   43  C  6  Z    0.040081  -0.018878  -0.022012  -0.029245   0.078211
   44  C  6  S    0.182488  -0.186286   0.480253   0.158060  -0.233634
   45  C  6  X    0.000765  -0.009347  -0.002901   0.008803  -0.007388
   46  C  6  Y    0.002172  -0.001177  -0.000791  -0.006715   0.047012
   47  C  6  Z   -0.007807   0.002462  -0.004502   0.000326   0.023775
   48  H  7  S    0.051247   0.053707  -0.024690  -0.078281  -0.078346
   49  H  7  S   -0.005054   0.002127  -0.014138  -0.020648  -0.038956
   50  H  8  S    0.053062   0.050849  -0.012142  -0.073888  -0.105979
   51  H  8  S    0.000758  -0.002184  -0.002482  -0.017333  -0.056657
   52  H  9  S    0.064726  -0.026281   0.000187  -0.036444   0.144130
   53  H  9  S   -0.003670   0.002368   0.000017  -0.006296   0.068654
   54  H 10  S    0.037673  -0.042383  -0.089199   0.053700  -0.046477
   55  H 10  S   -0.001119   0.001035  -0.022565   0.011027  -0.026816
   56  H 11  S    0.040178  -0.045697  -0.079161   0.059516  -0.072187
   57  H 11  S    0.002523  -0.003751  -0.010504   0.014821  -0.044475
   58  H 12  S    0.037316  -0.049706  -0.076858   0.073590  -0.038803
   59  H 12  S   -0.001866  -0.009955  -0.009887   0.026567  -0.021646
   60  H 13  S    0.038156  -0.030878   0.101103   0.031982  -0.050950
   61  H 13  S   -0.001866   0.008096   0.022535   0.015746  -0.021019
   62  H 14  S    0.037499  -0.042028   0.092201   0.043177  -0.053308
   63  H 14  S   -0.003331  -0.007534   0.013920   0.022743  -0.026274
   64  H 15  S    0.040194  -0.037432   0.091550   0.031731  -0.082468
   65  H 15  S    0.003861  -0.002797   0.012344   0.007890  -0.048456
   66  H 16  S    0.027769   0.078690   0.001196   0.095626   0.018549
   67  H 16  S   -0.004213   0.007419   0.003390   0.032136   0.006042
   68  H 17  S    0.030099   0.076619   0.002488   0.090672   0.056059
   69  H 17  S    0.001834   0.005191   0.000640   0.025560   0.036231

                     11         12         13         14         15
                   -0.4583    -0.4374    -0.4220    -0.4036    -0.3761
                     A          A          A          A          A   
    1  C  1  S    0.008968   0.006971   0.008505  -0.000442  -0.005858
    2  C  1  S   -0.007624  -0.006226  -0.006002   0.002142   0.006358
    3  C  1  X    0.011091   0.137158   0.091313   0.177179   0.149166
    4  C  1  Y    0.092608   0.029790  -0.189309   0.167693  -0.003704
    5  C  1  Z    0.110410  -0.111790   0.022134   0.074925  -0.128908
    6  C  1  S   -0.044294  -0.024607  -0.050358  -0.009436   0.017586
    7  C  1  X    0.006280   0.103820   0.061679   0.121849   0.099506
    8  C  1  Y    0.067960   0.023160  -0.138629   0.131934  -0.006914
    9  C  1  Z    0.074803  -0.080197   0.004525   0.049332  -0.101004
   10  H  2  S   -0.092223   0.057664   0.047695  -0.095637   0.087524
   11  H  2  S   -0.069090   0.059304   0.040515  -0.092270   0.072993
   12  C  3  S   -0.017952  -0.002652  -0.024154  -0.023544  -0.016457
   13  C  3  S    0.013947   0.004155   0.019262   0.020829   0.012007
   14  C  3  X   -0.090657   0.090605  -0.122848  -0.054610   0.011071
   15  C  3  Y    0.166036   0.061242  -0.122185   0.121807   0.000392
   16  C  3  Z    0.112447  -0.116118  -0.102137  -0.088617  -0.045852
   17  C  3  S    0.083959  -0.004514   0.115561   0.096829   0.084282
   18  C  3  X   -0.051894   0.069254  -0.078190  -0.031310   0.023420
   19  C  3  Y    0.118145   0.036117  -0.090534   0.100844   0.005331
   20  C  3  Z    0.074291  -0.082232  -0.077185  -0.062918  -0.053199
   21  C  4  S    0.033116   0.021350   0.011929   0.011109   0.013882
   22  C  4  S   -0.028503  -0.017209  -0.010086  -0.007890  -0.009230
   23  C  4  X    0.015174  -0.189456   0.028119  -0.035159   0.019701
   24  C  4  Y    0.194664   0.037236   0.077321  -0.064353   0.017654
   25  C  4  Z    0.004479  -0.004443  -0.149053  -0.110101   0.112320
   26  C  4  S   -0.134263  -0.095421  -0.046285  -0.056949  -0.078199
   27  C  4  X    0.012947  -0.142076   0.037145  -0.019865   0.034766
   28  C  4  Y    0.152932   0.034008   0.064311  -0.052924   0.023009
   29  C  4  Z    0.006465  -0.008817  -0.117299  -0.090748   0.085515
   30  C  5  S   -0.003919  -0.016159  -0.007448  -0.002619   0.001702
   31  C  5  S    0.002240   0.011762   0.005305   0.001436  -0.000070
   32  C  5  X    0.051218   0.008308   0.190772   0.170924   0.040117
   33  C  5  Y    0.125473   0.010318   0.067566  -0.154516   0.214462
   34  C  5  Z    0.054761   0.190512  -0.024652  -0.074863  -0.079135
   35  C  5  S    0.022873   0.089407   0.039554   0.024346  -0.017990
   36  C  5  X    0.025574  -0.001973   0.131644   0.126260   0.036109
   37  C  5  Y    0.083400   0.012715   0.054549  -0.115853   0.163552
   38  C  5  Z    0.028800   0.124947  -0.019297  -0.063878  -0.065277
   39  C  6  S   -0.021240  -0.003669   0.010080   0.003711   0.006068
   40  C  6  S    0.015969   0.001877  -0.008021  -0.001329  -0.007134
   41  C  6  X    0.078301  -0.176483  -0.025846   0.006563   0.128749
   42  C  6  Y    0.052269  -0.014745   0.152251   0.007203  -0.207082
   43  C  6  Z   -0.152172  -0.123362  -0.017739   0.104506   0.041675
   44  C  6  S    0.106025   0.026871  -0.052091  -0.027667  -0.011329
   45  C  6  X    0.052823  -0.127591  -0.027446   0.015562   0.087388
   46  C  6  Y    0.045201  -0.006408   0.104833  -0.001264  -0.162334
   47  C  6  Z   -0.092256  -0.077690  -0.012047   0.077469   0.047161
   48  H  7  S    0.129789  -0.046747  -0.067773   0.006330  -0.015323
   49  H  7  S    0.103090  -0.032508  -0.066710  -0.011920  -0.016417
   50  H  8  S   -0.072328  -0.051627   0.084874  -0.067751   0.006204
   51  H  8  S   -0.064317  -0.043913   0.059645  -0.062843   0.000703
   52  H  9  S    0.090724   0.005266   0.057658  -0.032820  -0.014370
   53  H  9  S    0.077143   0.010378   0.044546  -0.019507  -0.009600
   54  H 10  S    0.068218   0.113247  -0.011116  -0.119524   0.029197
   55  H 10  S    0.062746   0.090193  -0.015501  -0.107883   0.031335
   56  H 11  S   -0.065594   0.034948  -0.042373   0.089074  -0.162267
   57  H 11  S   -0.056038   0.024856  -0.037933   0.078368  -0.150486
   58  H 12  S    0.040897  -0.022087   0.136873   0.100568   0.082670
   59  H 12  S    0.039025  -0.027147   0.119709   0.089128   0.082810
   60  H 13  S    0.058150   0.134766   0.035999  -0.058186  -0.113666
   61  H 13  S    0.037858   0.120091   0.036532  -0.050056  -0.095327
   62  H 14  S    0.095860  -0.080876   0.006867  -0.015181   0.040325
   63  H 14  S    0.074027  -0.069877   0.020082  -0.010272   0.050216
   64  H 15  S   -0.035722   0.002624  -0.106946   0.004167   0.138991
   65  H 15  S   -0.037835   0.002247  -0.087568   0.002985   0.129839
   66  H 16  S    0.003479  -0.116161  -0.029048  -0.108110  -0.129704
   67  H 16  S    0.006753  -0.095915  -0.021526  -0.101198  -0.133945
   68  H 17  S    0.036374   0.030850  -0.127420   0.105653   0.025365
   69  H 17  S    0.034075   0.028334  -0.105557   0.090632   0.020159

                     16         17         18         19         20
                   -0.3719    -0.3521    -0.3398    -0.3140    -0.3105
                     A          A          A          A          A   
    1  C  1  S   -0.001562   0.017854   0.002381   0.021562  -0.001412
    2  C  1  S    0.000177  -0.018252  -0.003088  -0.019912   0.000094
    3  C  1  X    0.096294  -0.104016  -0.016842  -0.162187   0.059797
    4  C  1  Y    0.011481   0.116655   0.221884   0.000599  -0.077333
    5  C  1  Z   -0.188821  -0.167784   0.032081  -0.133489  -0.090953
    6  C  1  S    0.017968  -0.069760  -0.002790  -0.089299   0.011628
    7  C  1  X    0.073443  -0.070075  -0.012399  -0.134446   0.053943
    8  C  1  Y    0.004532   0.095573   0.177217  -0.005074  -0.055284
    9  C  1  Z   -0.148354  -0.125119   0.023904  -0.111867  -0.074288
   10  H  2  S    0.114719   0.052437  -0.115337   0.057322   0.106783
   11  H  2  S    0.098305   0.077958  -0.126892   0.061499   0.125713
   12  C  3  S   -0.012036   0.002112   0.000378  -0.000338   0.008112
   13  C  3  S    0.007775  -0.005457  -0.001008  -0.003410  -0.006603
   14  C  3  X    0.047722   0.107341   0.024273   0.149293  -0.100420
   15  C  3  Y   -0.033605  -0.061860  -0.191295  -0.026696   0.146825
   16  C  3  Z    0.032259   0.204849  -0.028090   0.117248   0.145402
   17  C  3  S    0.071626   0.017033   0.006399   0.014978  -0.029075
   18  C  3  X    0.055728   0.076224   0.021329   0.114114  -0.077773
   19  C  3  Y   -0.021675  -0.048925  -0.155955  -0.012697   0.114186
   20  C  3  Z    0.030667   0.154850  -0.021301   0.090523   0.123030
   21  C  4  S    0.013577   0.004596   0.000790   0.002921   0.001454
   22  C  4  S   -0.009232  -0.003559   0.000075  -0.004712   0.001955
   23  C  4  X    0.015230   0.034145   0.014955  -0.181012   0.115968
   24  C  4  Y    0.000325  -0.030794  -0.112402   0.101200  -0.163406
   25  C  4  Z    0.057671   0.050954  -0.097325  -0.182026  -0.160077
   26  C  4  S   -0.076671  -0.028898  -0.012000  -0.005981  -0.024981
   27  C  4  X    0.023762   0.025948   0.015680  -0.136727   0.088215
   28  C  4  Y    0.007712  -0.024285  -0.100015   0.087229  -0.112695
   29  C  4  Z    0.024053   0.028494  -0.075729  -0.134113  -0.111840
   30  C  5  S    0.001826  -0.002598   0.003321   0.036318   0.001295
   31  C  5  S   -0.002018   0.002028  -0.002146  -0.032801  -0.000539
   32  C  5  X   -0.079866   0.119683  -0.020030   0.199244  -0.039265
   33  C  5  Y   -0.121058   0.029268   0.157265  -0.060442   0.067616
   34  C  5  Z   -0.002310  -0.185526   0.113602   0.186295   0.062443
   35  C  5  S   -0.003116   0.012675  -0.013594  -0.157955  -0.003546
   36  C  5  X   -0.073612   0.086956  -0.019621   0.157494  -0.037471
   37  C  5  Y   -0.102450   0.023817   0.132285  -0.048853   0.047439
   38  C  5  Z   -0.002766  -0.143940   0.098371   0.147856   0.055527
   39  C  6  S    0.007564   0.005316  -0.013993  -0.005001  -0.029775
   40  C  6  S   -0.006561  -0.003970   0.014264   0.003454   0.025221
   41  C  6  X    0.223719  -0.156980   0.017477   0.086128  -0.070755
   42  C  6  Y    0.164183   0.036380   0.126726  -0.049389   0.117328
   43  C  6  Z   -0.097169  -0.091266   0.086140   0.127137   0.209865
   44  C  6  S   -0.034987  -0.029194   0.049575   0.018544   0.137191
   45  C  6  X    0.173069  -0.126253   0.013615   0.076412  -0.062917
   46  C  6  Y    0.129969   0.028879   0.102333  -0.036029   0.091655
   47  C  6  Z   -0.066836  -0.067680   0.056604   0.113961   0.182463
   48  H  7  S    0.012799   0.093776  -0.087394   0.057910   0.173045
   49  H  7  S    0.004158   0.090106  -0.082472   0.069377   0.209345
   50  H  8  S    0.034675   0.065567   0.135328   0.037207  -0.104571
   51  H  8  S    0.026487   0.062978   0.132404   0.055380  -0.125552
   52  H  9  S   -0.018084  -0.031396  -0.063903   0.104653  -0.103851
   53  H  9  S   -0.013184  -0.024672  -0.051830   0.120780  -0.128719
   54  H 10  S   -0.038598  -0.117314   0.137401   0.033756   0.089505
   55  H 10  S   -0.035515  -0.116846   0.137723   0.061374   0.116683
   56  H 11  S    0.081445  -0.053921  -0.098769   0.053885  -0.048823
   57  H 11  S    0.073551  -0.055565  -0.098827   0.090503  -0.069618
   58  H 12  S   -0.068913   0.134813  -0.015532   0.056230  -0.037746
   59  H 12  S   -0.052474   0.134743  -0.011719   0.085644  -0.044864
   60  H 13  S   -0.022893   0.131994  -0.029710  -0.131447  -0.032444
   61  H 13  S   -0.002393   0.142730  -0.046463  -0.145977  -0.036995
   62  H 14  S    0.192370  -0.084078   0.028878   0.032775  -0.057803
   63  H 14  S    0.189543  -0.074175   0.021178   0.038792  -0.081657
   64  H 15  S   -0.140406  -0.038694  -0.072523   0.064540  -0.041377
   65  H 15  S   -0.128106  -0.037113  -0.084297   0.080131  -0.076676
   66  H 16  S   -0.121559  -0.019103  -0.015498   0.051565  -0.063032
   67  H 16  S   -0.120323  -0.008601  -0.014640   0.068228  -0.069552
   68  H 17  S    0.039968   0.091949   0.161480  -0.000520  -0.050005
   69  H 17  S    0.039552   0.102823   0.170639   0.017980  -0.069201

                     21         22         23         24         25
                   -0.3050     0.1110     0.1493     0.1538     0.1660
                     A          A          A          A          A   
    1  C  1  S   -0.000578  -0.060039  -0.091456  -0.088975   0.024968
    2  C  1  S    0.001567   0.032267   0.037901   0.039281  -0.015672
    3  C  1  X   -0.098684  -0.059099  -0.010493  -0.029038   0.094219
    4  C  1  Y   -0.062380   0.010179   0.085802  -0.116402  -0.063290
    5  C  1  Z    0.046462  -0.073919  -0.029169  -0.043196  -0.174560
    6  C  1  S    0.005177   0.748203   1.202543   1.133368  -0.307379
    7  C  1  X   -0.097220  -0.257687  -0.070173  -0.095699   0.303705
    8  C  1  Y   -0.045538   0.047140   0.227039  -0.350280  -0.247671
    9  C  1  Z    0.035494  -0.282978  -0.067994  -0.101930  -0.485075
   10  H  2  S   -0.014664   0.002811  -0.004022  -0.034571  -0.052471
   11  H  2  S   -0.023578  -0.446285  -0.344306  -0.811334  -0.659609
   12  C  3  S   -0.025641  -0.064703   0.015813   0.013935   0.056467
   13  C  3  S    0.022841   0.031748  -0.006456  -0.012733  -0.016883
   14  C  3  X    0.214676  -0.030267   0.047259   0.000255   0.037560
   15  C  3  Y    0.133955  -0.032703   0.121691  -0.148282   0.001377
   16  C  3  Z   -0.102913   0.095253   0.004577  -0.003313  -0.168221
   17  C  3  S    0.115816   0.815073  -0.175292  -0.052570  -0.845775
   18  C  3  X    0.165652  -0.157365   0.343314   0.212082  -0.006832
   19  C  3  Y    0.104973  -0.116593   0.318964  -0.428606   0.003466
   20  C  3  Z   -0.088509   0.340036   0.037703  -0.005699  -0.499945
   21  C  4  S   -0.015944  -0.050927   0.002421   0.031150   0.013981
   22  C  4  S    0.015359   0.018205   0.001814  -0.005202  -0.009518
   23  C  4  X   -0.205709   0.016134   0.028949  -0.009696  -0.011078
   24  C  4  Y   -0.187231   0.095476   0.103088  -0.105127   0.060239
   25  C  4  Z    0.083344  -0.013870  -0.008408   0.036771  -0.056384
   26  C  4  S    0.064388   0.713689  -0.070204  -0.489853  -0.093083
   27  C  4  X   -0.154279   0.077367   0.231837   0.112318  -0.205683
   28  C  4  Y   -0.149347   0.267256   0.249206  -0.261250   0.215689
   29  C  4  Z    0.069802  -0.072954  -0.035246   0.137809  -0.082188
   30  C  5  S    0.000900  -0.059060   0.071108   0.061859  -0.046213
   31  C  5  S    0.000425   0.031161  -0.029016  -0.028076   0.024508
   32  C  5  X    0.090252   0.067644  -0.048688  -0.081212   0.041518
   33  C  5  Y    0.080358  -0.002823   0.131354  -0.091828   0.023622
   34  C  5  Z   -0.026101   0.074926  -0.034056  -0.021452  -0.129462
   35  C  5  S   -0.003359   0.738870  -0.961507  -0.817486   0.507581
   36  C  5  X    0.083283   0.259286  -0.227874  -0.315315   0.108503
   37  C  5  Y    0.058530  -0.027060   0.407722  -0.219215   0.069357
   38  C  5  Z   -0.017626   0.338890  -0.085011  -0.031110  -0.404139
   39  C  6  S   -0.002966  -0.080952   0.009321  -0.032360  -0.049492
   40  C  6  S    0.003817   0.047411   0.000612   0.009838   0.011569
   41  C  6  X    0.071606   0.015528  -0.058008  -0.124604  -0.015241
   42  C  6  Y    0.091132  -0.026190   0.151055  -0.060275   0.029174
   43  C  6  Z   -0.037810  -0.078303  -0.028781  -0.052310  -0.132508
   44  C  6  S    0.018666   0.936380  -0.202342   0.452205   0.757896
   45  C  6  X    0.064719   0.109665  -0.180392  -0.363276  -0.083356
   46  C  6  Y    0.066955  -0.148318   0.462204  -0.111015   0.102182
   47  C  6  Z   -0.036752  -0.367439  -0.065706  -0.139167  -0.344509
   48  H  7  S   -0.020742  -0.013888  -0.012829   0.028600   0.064617
   49  H  7  S   -0.036733  -0.592801  -0.160321   0.396645   0.961389
   50  H  8  S   -0.118369   0.011238   0.022233  -0.059336   0.017249
   51  H  8  S   -0.169700  -0.450658   0.559864  -0.611019   0.434438
   52  H  9  S   -0.159518   0.001324  -0.056686   0.060266  -0.045955
   53  H  9  S   -0.203250  -0.555070  -0.503347   0.685088  -0.316571
   54  H 10  S    0.001353  -0.028124  -0.015676  -0.015300  -0.012166
   55  H 10  S   -0.000390  -0.530705   0.086120   0.404298   0.143859
   56  H 11  S   -0.082392   0.012329   0.034774  -0.002903   0.022583
   57  H 11  S   -0.116416  -0.329546   0.927729  -0.011822   0.049166
   58  H 12  S    0.099502  -0.008176   0.017741   0.045273  -0.008316
   59  H 12  S    0.120723  -0.427413   0.414674   0.749334  -0.527168
   60  H 13  S    0.001028  -0.018606   0.002307  -0.002978  -0.043416
   61  H 13  S   -0.009085  -0.546276  -0.263537  -0.496904  -0.738157
   62  H 14  S    0.093917  -0.031082  -0.019295  -0.004708   0.010297
   63  H 14  S    0.113086  -0.588984   0.044974   0.244589  -0.310233
   64  H 15  S   -0.089500   0.023696   0.035092  -0.012251  -0.000635
   65  H 15  S   -0.124963  -0.370649   0.692801  -0.364356  -0.047674
   66  H 16  S    0.104473  -0.035577  -0.000440  -0.022104   0.036448
   67  H 16  S    0.115012  -0.452328  -0.371323  -0.580942   0.725239
   68  H 17  S   -0.069351   0.012569  -0.032821   0.029449   0.015804
   69  H 17  S   -0.096720  -0.341522  -0.823358   0.051381   0.265593

                     26         27         28         29         30
                    0.1766     0.1881     0.1978     0.2006     0.2107
                     A          A          A          A          A   
    1  C  1  S   -0.026072   0.027969   0.009466  -0.024774   0.064404
    2  C  1  S    0.016041  -0.006850  -0.000915   0.005103  -0.023527
    3  C  1  X   -0.022519  -0.007686  -0.043771   0.205303   0.091043
    4  C  1  Y    0.026333  -0.138628  -0.179942   0.044046  -0.015726
    5  C  1  Z   -0.014264   0.092874  -0.010629  -0.103297  -0.071737
    6  C  1  S    0.349326  -0.471754  -0.125380   0.357974  -0.858390
    7  C  1  X   -0.104112  -0.127838  -0.156065   0.897703   0.264085
    8  C  1  Y    0.154572  -0.604449  -0.620042   0.130458   0.064556
    9  C  1  Z   -0.082426   0.349218  -0.090852  -0.445363  -0.370576
   10  H  2  S   -0.010594   0.033299  -0.029865  -0.022980  -0.030569
   11  H  2  S   -0.156446   0.246972  -0.413381  -0.545256  -0.085885
   12  C  3  S   -0.043400   0.035855  -0.055930  -0.000750  -0.089411
   13  C  3  S    0.033287  -0.011698   0.029019   0.005764   0.031887
   14  C  3  X    0.078304   0.004062   0.042680   0.058009  -0.021946
   15  C  3  Y   -0.039471   0.115669  -0.011610   0.055547  -0.114901
   16  C  3  Z   -0.054604   0.031924   0.037910   0.091749   0.014046
   17  C  3  S    0.391123  -0.548618   0.649262  -0.009124   1.233708
   18  C  3  X    0.188257  -0.019226   0.140690   0.204044  -0.117029
   19  C  3  Y   -0.112026   0.560910   0.086913   0.177126  -0.478694
   20  C  3  Z   -0.138556   0.047415   0.132045   0.619270   0.076051
   21  C  4  S   -0.000737   0.018207   0.047336   0.070385  -0.000870
   22  C  4  S   -0.001010   0.000624  -0.014674  -0.036207  -0.006225
   23  C  4  X    0.096238  -0.026959   0.011545   0.030118   0.068282
   24  C  4  Y   -0.027748  -0.024488  -0.099107  -0.056602   0.041403
   25  C  4  Z   -0.005600   0.134774  -0.014589   0.035056   0.004027
   26  C  4  S    0.006512  -0.317550  -0.678655  -0.837278   0.101387
   27  C  4  X    0.199495  -0.101379   0.023481  -0.145740   0.252440
   28  C  4  Y   -0.065059  -0.161776  -0.520115  -0.232831   0.161859
   29  C  4  Z    0.102389   0.614467  -0.105055  -0.107056  -0.026728
   30  C  5  S    0.070119   0.052548  -0.041328  -0.013898   0.057036
   31  C  5  S   -0.035024  -0.021048   0.015969  -0.010397  -0.023388
   32  C  5  X    0.158280   0.006749   0.040771  -0.089995  -0.034870
   33  C  5  Y   -0.051879   0.089362   0.062104  -0.042774   0.200334
   34  C  5  Z   -0.151637   0.026620   0.001474   0.073537   0.009020
   35  C  5  S   -0.851664  -0.699538   0.548026   0.319321  -0.781442
   36  C  5  X    0.585817   0.091793   0.113973  -0.443303  -0.020123
   37  C  5  Y   -0.177899   0.358848   0.296668  -0.104520   0.744826
   38  C  5  Z   -0.549570   0.129045  -0.046080   0.160969   0.075361
   39  C  6  S   -0.002936  -0.120378   0.052593  -0.038562  -0.003916
   40  C  6  S   -0.008650   0.053646  -0.018148   0.019474   0.004696
   41  C  6  X    0.183848   0.066647   0.045038   0.096148  -0.033859
   42  C  6  Y   -0.034273   0.017888   0.212608  -0.003181  -0.071293
   43  C  6  Z   -0.018150   0.019303  -0.039193   0.049882   0.045902
   44  C  6  S    0.177220   1.544334  -0.784187   0.399082   0.008505
   45  C  6  X    0.707218   0.206485   0.239987   0.419258  -0.142474
   46  C  6  Y   -0.100974   0.105711   0.871234   0.123682  -0.278041
   47  C  6  Z    0.033614   0.148629  -0.263904   0.173957   0.155752
   48  H  7  S   -0.011345  -0.054751   0.023614  -0.041827   0.022487
   49  H  7  S    0.060771  -0.288972  -0.305047  -0.620526  -0.218827
   50  H  8  S    0.019728   0.023651  -0.056710   0.021589  -0.065505
   51  H  8  S   -0.244052   0.728263  -0.384368   0.149631  -1.055885
   52  H  9  S    0.018971  -0.017173  -0.020878   0.021568  -0.031551
   53  H  9  S    0.132094   0.300523   0.621494   0.608045  -0.239929
   54  H 10  S    0.073065  -0.040437   0.004586  -0.010165  -0.028452
   55  H 10  S    1.217823  -0.143291  -0.283882  -0.303283  -0.291072
   56  H 11  S   -0.001685   0.026017  -0.006289  -0.045929   0.101025
   57  H 11  S    0.279307   0.631718   0.076763  -0.369961   1.248044
   58  H 12  S   -0.055333   0.028259  -0.014391   0.047571  -0.043731
   59  H 12  S   -0.543418   0.198527  -0.443556   0.525349   0.085742
   60  H 13  S    0.081093   0.018893  -0.012917   0.024338   0.003412
   61  H 13  S    0.653547  -0.287714   0.025559   0.283287   0.107716
   62  H 14  S   -0.074778  -0.013322  -0.044081  -0.053990   0.011733
   63  H 14  S   -0.882678  -0.803150  -0.326725  -0.623407   0.263532
   64  H 15  S   -0.027066  -0.039341   0.087188   0.032469  -0.011040
   65  H 15  S   -0.172510  -0.559446   1.376058  -0.072065  -0.363728
   66  H 16  S    0.018193  -0.047112  -0.000020   0.092733   0.036714
   67  H 16  S   -0.120340  -0.317944  -0.227547   1.113706   0.824925
   68  H 17  S   -0.022478   0.044906   0.032414  -0.055353   0.022393
   69  H 17  S   -0.315810   0.909672   0.804436  -0.514927   0.257367

                     31         32         33         34         35
                    0.2176     0.2374     0.2534     0.2691     0.2773
                     A          A          A          A          A   
    1  C  1  S    0.032874  -0.032108  -0.080668  -0.011086  -0.023254
    2  C  1  S   -0.014749   0.012414   0.024851   0.012000   0.018847
    3  C  1  X    0.058229   0.040888  -0.034682   0.138485   0.156342
    4  C  1  Y   -0.108619   0.064194  -0.160240  -0.012361  -0.026231
    5  C  1  Z    0.013938   0.108624  -0.064046  -0.029146   0.060219
    6  C  1  S   -0.441811   0.401929   1.169639   0.026782   0.188443
    7  C  1  X    0.172578   0.155383   0.219483   0.472600   0.483123
    8  C  1  Y   -0.397743   0.374890  -0.644890  -0.103223  -0.220543
    9  C  1  Z    0.013505   0.625860  -0.239346  -0.038591   0.408679
   10  H  2  S   -0.020660   0.034558  -0.082880   0.050452   0.002124
   11  H  2  S   -0.092095   0.566952  -1.170370  -0.079450   0.087264
   12  C  3  S    0.009095   0.060946   0.076965   0.063372  -0.004582
   13  C  3  S   -0.000572  -0.022070  -0.018253  -0.014157  -0.011771
   14  C  3  X   -0.038514   0.106621   0.028722  -0.030552   0.206441
   15  C  3  Y   -0.047382  -0.188994   0.014972   0.062355  -0.014659
   16  C  3  Z    0.007095  -0.130873   0.046798   0.106212   0.067137
   17  C  3  S   -0.087817  -0.860047  -1.112043  -0.864467   0.140451
   18  C  3  X   -0.119434   0.441008   0.008108  -0.362964   0.967825
   19  C  3  Y   -0.252018  -0.738493   0.022147   0.308636  -0.074740
   20  C  3  Z    0.183610  -0.444289   0.329318   0.521561  -0.104810
   21  C  4  S   -0.092010  -0.023053  -0.042905  -0.156781   0.015061
   22  C  4  S    0.033599   0.008203   0.011802   0.033153   0.000016
   23  C  4  X    0.009599   0.031799  -0.041978   0.078042   0.232742
   24  C  4  Y    0.153314  -0.027560   0.036058  -0.244085   0.109928
   25  C  4  Z   -0.017345   0.009388   0.011899  -0.014228   0.186945
   26  C  4  S    1.262771   0.289360   0.585563   2.276823  -0.232699
   27  C  4  X   -0.040106   0.222957  -0.397754   0.318538   1.155577
   28  C  4  Y    0.679945  -0.107992   0.169238  -1.172305   0.541217
   29  C  4  Z   -0.178708   0.002993  -0.034365  -0.164804   0.854326
   30  C  5  S    0.062851  -0.003685  -0.018551   0.064910   0.029744
   31  C  5  S   -0.028623  -0.000072  -0.007258  -0.009692  -0.005544
   32  C  5  X   -0.122885   0.007828   0.077884   0.102879   0.197137
   33  C  5  Y   -0.129681   0.083867   0.105136   0.020894  -0.104984
   34  C  5  Z    0.021413   0.149233   0.088828   0.033413   0.084835
   35  C  5  S   -0.787162   0.115795   0.454668  -0.931911  -0.430291
   36  C  5  X   -0.418929  -0.079671   0.190624   0.606050   0.792125
   37  C  5  Y   -0.671590   0.318068   0.265740   0.192431  -0.529353
   38  C  5  Z    0.145429   0.657465   0.133756   0.553443   0.547738
   39  C  6  S    0.021026  -0.005749   0.055844   0.068673  -0.022370
   40  C  6  S   -0.005481   0.004967  -0.020370  -0.001945  -0.002202
   41  C  6  X    0.079787   0.199256   0.041290  -0.022560  -0.116739
   42  C  6  Y    0.064368   0.036512  -0.102081  -0.055641   0.063237
   43  C  6  Z   -0.036279  -0.025404   0.203435  -0.166481   0.073127
   44  C  6  S   -0.260998   0.092364  -0.842054  -1.052561   0.354809
   45  C  6  X    0.376522   0.519618   0.328638   0.002110  -0.783110
   46  C  6  Y    0.083541   0.113371  -0.416005  -0.329389   0.291352
   47  C  6  Z   -0.105273  -0.200020   0.659883  -1.174170   0.383694
   48  H  7  S   -0.027591   0.043721   0.033018  -0.000971  -0.000978
   49  H  7  S   -0.025411   1.258240   0.188047  -0.273440   0.064439
   50  H  8  S   -0.023375  -0.038300  -0.003179  -0.032684   0.001173
   51  H  8  S   -0.253864  -0.426935   0.354710   0.421614  -0.044790
   52  H  9  S   -0.049209   0.025348  -0.010813   0.036021  -0.005461
   53  H  9  S   -1.216612   0.051331  -0.375496   0.354134  -0.287234
   54  H 10  S    0.016858  -0.087432  -0.014970  -0.004142  -0.037281
   55  H 10  S    0.473563  -0.940998  -0.481605   0.043559   0.125956
   56  H 11  S   -0.047367   0.002623  -0.012560  -0.034912  -0.023182
   57  H 11  S   -0.443645   0.155235   0.166341   0.305319  -0.504616
   58  H 12  S    0.059402   0.046004  -0.015540  -0.010979  -0.045355
   59  H 12  S    1.046646   0.216202  -0.375023  -0.112812  -0.441595
   60  H 13  S    0.016013  -0.021426   0.080202  -0.041200   0.010698
   61  H 13  S    0.238661   0.204758   1.308525  -0.422375  -0.327957
   62  H 14  S   -0.060164  -0.012720   0.007943  -0.006020   0.029811
   63  H 14  S   -0.443703  -0.783414   0.382029   0.153276   0.606684
   64  H 15  S    0.043671   0.012735  -0.032093  -0.034982   0.023041
   65  H 15  S    0.399852   0.182429  -0.335288   0.141837   0.127852
   66  H 16  S   -0.015721  -0.005931   0.026064  -0.022994   0.032896
   67  H 16  S    0.207394  -0.183664  -0.328791   0.415884   0.298701
   68  H 17  S    0.065736  -0.007958   0.036449   0.013801   0.049192
   69  H 17  S    0.717917  -0.389419   0.292652   0.016733   0.203844

                     36         37         38         39         40
                    0.2846     0.3021     0.6600     0.6672     0.6925
                     A          A          A          A          A   
    1  C  1  S    0.049824   0.016917  -0.001892  -0.000660  -0.009363
    2  C  1  S   -0.000759   0.010769   0.039049  -0.012985   0.015459
    3  C  1  X   -0.102527   0.000687   0.292043  -0.105129  -0.319692
    4  C  1  Y   -0.007932   0.091766  -0.149276  -0.180951   0.078383
    5  C  1  Z   -0.149216  -0.138866  -0.154712  -0.040314  -0.185020
    6  C  1  S   -0.769732  -0.434783  -0.128437   0.022276  -0.208378
    7  C  1  X   -0.894356  -0.203268  -0.392533   0.173204   0.515493
    8  C  1  Y   -0.025909   0.489578   0.241016   0.271233  -0.080208
    9  C  1  Z   -0.687141  -0.706434   0.335651   0.029670   0.301033
   10  H  2  S   -0.058451  -0.010554   0.303759   0.191180   0.064203
   11  H  2  S   -0.416326  -0.270759   0.068513  -0.052299   0.054006
   12  C  3  S   -0.086400   0.025098  -0.001300   0.001490   0.013575
   13  C  3  S    0.012769   0.002066   0.029245   0.043031   0.041524
   14  C  3  X   -0.032945  -0.234445   0.199349   0.167473   0.443054
   15  C  3  Y    0.168201  -0.078688  -0.146923  -0.172932  -0.104947
   16  C  3  Z   -0.230861  -0.040711  -0.175728  -0.178796   0.315448
   17  C  3  S    1.325046  -0.444648  -0.036389  -0.253450  -0.709735
   18  C  3  X   -0.023701  -1.457385  -0.178499  -0.298184  -0.582986
   19  C  3  Y    0.811432  -0.315199   0.137767   0.272045   0.004722
   20  C  3  Z   -1.136641  -0.330870   0.079304   0.328496  -0.294524
   21  C  4  S    0.004740  -0.049120   0.004548  -0.004750  -0.004710
   22  C  4  S   -0.002470   0.004471   0.022101  -0.063944  -0.033590
   23  C  4  X    0.230883  -0.106709  -0.121309   0.054821   0.087012
   24  C  4  Y   -0.049467  -0.033571   0.019555  -0.089397  -0.045790
   25  C  4  Z   -0.028579   0.312695  -0.100725   0.066944  -0.006581
   26  C  4  S   -0.032720   0.789987  -0.174430   0.729287   0.376534
   27  C  4  X    1.296386  -0.663209  -0.217324  -0.085799  -0.353995
   28  C  4  Y   -0.281011  -0.157306   0.006511  -0.197279   0.029371
   29  C  4  Z    0.021022   1.635700   0.014407  -0.125909   0.474175
   30  C  5  S    0.021879   0.037751  -0.005590  -0.001664  -0.002189
   31  C  5  S    0.013508   0.004303  -0.022741   0.037994   0.038259
   32  C  5  X   -0.086712   0.022263   0.037510  -0.107052  -0.535784
   33  C  5  Y   -0.055520  -0.039659   0.137225  -0.186772  -0.050496
   34  C  5  Z    0.162463   0.064106   0.350520  -0.275957   0.123841
   35  C  5  S   -0.511342  -0.672839   0.168647  -0.084784  -0.123549
   36  C  5  X   -0.109366   0.685258  -0.054604   0.183011   0.859964
   37  C  5  Y   -0.155858  -0.165156  -0.137076   0.357968   0.074316
   38  C  5  Z    0.869950   0.246556  -0.533445   0.388895  -0.240221
   39  C  6  S    0.024643  -0.024278   0.000915  -0.005494   0.001937
   40  C  6  S   -0.003037  -0.002597   0.011339   0.078308  -0.043857
   41  C  6  X    0.036122  -0.007532  -0.459028  -0.140137   0.066680
   42  C  6  Y   -0.056071   0.152774   0.052683  -0.143875  -0.021646
   43  C  6  Z    0.013699   0.080190  -0.088500   0.452856  -0.258199
   44  C  6  S   -0.395056   0.478372   0.016968  -0.270260   0.227976
   45  C  6  X   -0.018108  -0.019259   0.699541   0.199738  -0.045858
   46  C  6  Y   -0.237193   0.829745  -0.048494   0.266209   0.136850
   47  C  6  Z   -0.161591   0.522416   0.193104  -0.683486   0.334265
   48  H  7  S    0.062439  -0.017461  -0.209008  -0.253441   0.181194
   49  H  7  S    0.248232   0.314175   0.157988   0.034732   0.059252
   50  H  8  S    0.039633  -0.003332   0.129544   0.289011   0.143800
   51  H  8  S    0.602770  -0.219666  -0.057880  -0.027218  -0.003123
   52  H  9  S   -0.002462   0.014797   0.049675  -0.330784  -0.121479
   53  H  9  S    0.219041   0.257060  -0.008524   0.163094   0.057680
   54  H 10  S   -0.007077  -0.028616   0.226949  -0.240625   0.182715
   55  H 10  S   -0.500537   0.107848  -0.065930   0.014636   0.000903
   56  H 11  S    0.001269  -0.012468  -0.063770   0.206397   0.129120
   57  H 11  S   -0.277805  -0.053577   0.036436   0.013064  -0.021403
   58  H 12  S   -0.034938  -0.015642  -0.103167  -0.031462  -0.382165
   59  H 12  S    0.593664  -0.092031  -0.022772  -0.029546  -0.003187
   60  H 13  S    0.045514   0.037493   0.338384  -0.216348   0.020592
   61  H 13  S    0.266598   0.096008   0.012254   0.031420  -0.023258
   62  H 14  S   -0.045832   0.037341  -0.304052  -0.152679   0.010056
   63  H 14  S    0.018280  -0.083904   0.011210   0.011679  -0.038353
   64  H 15  S   -0.016415   0.019122  -0.037761   0.327308  -0.016103
   65  H 15  S   -0.136220   0.586256   0.007564  -0.016300   0.063097
   66  H 16  S   -0.014902  -0.053982  -0.210709   0.033139   0.131619
   67  H 16  S   -0.120579   0.295365  -0.005613   0.012206   0.020032
   68  H 17  S   -0.027256  -0.009231  -0.077063  -0.216119   0.056376
   69  H 17  S    0.117773  -0.500358   0.001184   0.023414   0.007548

                     41         42         43         44         45
                    0.7049     0.7501     0.7633     0.7799     0.7993
                     A          A          A          A          A   
    1  C  1  S   -0.014023   0.001503   0.014138   0.037310   0.013397
    2  C  1  S    0.076268  -0.032572  -0.045229  -0.104224  -0.020993
    3  C  1  X    0.358533  -0.041630  -0.167599  -0.503765  -0.025551
    4  C  1  Y    0.284865   0.225167   0.216079   0.314063  -0.184129
    5  C  1  Z   -0.106734   0.226212  -0.250024  -0.452116  -0.602150
    6  C  1  S   -0.235216   0.102498   0.020934   0.086807  -0.041618
    7  C  1  X   -0.589877   0.096386   0.246493   0.776041  -0.077216
    8  C  1  Y   -0.512220  -0.321978  -0.332199  -0.515559   0.311219
    9  C  1  Z    0.134188  -0.387074   0.376485   0.701334   1.076569
   10  H  2  S   -0.051910  -0.153908   0.074155   0.129105   0.338221
   11  H  2  S   -0.040503  -0.076455   0.057596   0.114511   0.199230
   12  C  3  S    0.001449   0.005315  -0.038786  -0.040106  -0.016224
   13  C  3  S   -0.019481  -0.010641   0.128926   0.108108  -0.005503
   14  C  3  X    0.219917   0.204092   0.279743  -0.101961  -0.250505
   15  C  3  Y    0.074454   0.223015   0.160603   0.053453   0.037851
   16  C  3  Z    0.154382  -0.272841  -0.278532  -0.215346   0.138135
   17  C  3  S    0.330484   0.130640  -0.248921  -0.485521   0.224173
   18  C  3  X   -0.110703  -0.333660  -0.229807   0.202327   0.691520
   19  C  3  Y    0.123910  -0.310033  -0.223450  -0.160206  -0.024072
   20  C  3  Z   -0.460361   0.518324   0.444926   0.576009  -0.447863
   21  C  4  S    0.015457  -0.020078   0.062364  -0.013465  -0.010631
   22  C  4  S   -0.017167   0.053431  -0.212429   0.031157   0.081961
   23  C  4  X   -0.443030  -0.156906   0.074143   0.250075  -0.303776
   24  C  4  Y   -0.001521  -0.055301   0.223165  -0.128550   0.077088
   25  C  4  Z   -0.265332   0.338344   0.107852   0.035246  -0.156930
   26  C  4  S    0.031288  -0.084847   0.714370  -0.213984  -0.618511
   27  C  4  X    0.690397  -0.045281  -0.052126  -0.436246   0.908313
   28  C  4  Y   -0.200538   0.041781  -0.351592   0.279734   0.002137
   29  C  4  Z    0.298444  -0.410656  -0.180038  -0.327039   0.321427
   30  C  5  S   -0.014865   0.008997  -0.021689   0.027099  -0.009571
   31  C  5  S    0.074330  -0.044853   0.067717  -0.084696   0.035543
   32  C  5  X   -0.045730   0.124095  -0.260621   0.388012   0.040388
   33  C  5  Y   -0.354218  -0.002109   0.366820  -0.203650   0.037603
   34  C  5  Z   -0.038635   0.092389  -0.432132   0.351257  -0.225668
   35  C  5  S   -0.379577   0.158763   0.079567   0.139686  -0.258374
   36  C  5  X    0.022069  -0.170188   0.280089  -0.612483  -0.005773
   37  C  5  Y    0.564132   0.037388  -0.580534   0.331943  -0.130573
   38  C  5  Z    0.078170  -0.139801   0.570068  -0.580673   0.551700
   39  C  6  S    0.000660   0.004765  -0.022296  -0.000995   0.031030
   40  C  6  S    0.017822  -0.017091   0.080813  -0.021264  -0.047638
   41  C  6  X    0.104407  -0.046411  -0.122233  -0.016232   0.303936
   42  C  6  Y    0.124921  -0.567574   0.133619   0.163826  -0.414695
   43  C  6  Z    0.317231  -0.228289   0.283303   0.017345  -0.248243
   44  C  6  S   -0.034146  -0.201703  -0.178382   0.093221  -0.161820
   45  C  6  X   -0.154552   0.131131   0.179664   0.062388  -0.574103
   46  C  6  Y   -0.145237   0.840963  -0.203061  -0.345173   0.674732
   47  C  6  Z   -0.397780   0.191762  -0.363599  -0.041771   0.458174
   48  H  7  S    0.068099   0.049067  -0.013062  -0.185184  -0.090135
   49  H  7  S    0.040302  -0.144358  -0.127807  -0.148181   0.145511
   50  H  8  S   -0.121683  -0.230480  -0.203474  -0.112853  -0.019573
   51  H  8  S    0.170675   0.005657  -0.068481  -0.113479   0.003994
   52  H  9  S    0.010126  -0.125591   0.245056  -0.126967   0.018950
   53  H  9  S    0.149427  -0.000439   0.097831  -0.084156  -0.014671
   54  H 10  S   -0.111089   0.107487   0.036176  -0.030179  -0.058806
   55  H 10  S   -0.004641  -0.047328  -0.074113   0.130466  -0.139556
   56  H 11  S    0.320158   0.021957  -0.327256   0.182693  -0.105460
   57  H 11  S   -0.000828   0.029659  -0.102061   0.101566  -0.055197
   58  H 12  S   -0.063505  -0.117193   0.070941   0.133503   0.037360
   59  H 12  S    0.038004   0.069063  -0.053164   0.063281   0.028093
   60  H 13  S    0.009804  -0.009407  -0.021012  -0.003622   0.108143
   61  H 13  S   -0.012365   0.010408  -0.018659  -0.040362   0.040696
   62  H 14  S   -0.034913  -0.207485  -0.026723  -0.057512   0.169976
   63  H 14  S   -0.000976   0.061767  -0.038202   0.036108   0.172538
   64  H 15  S   -0.038483   0.390575  -0.047125  -0.081162   0.206103
   65  H 15  S    0.005339   0.065602  -0.064636  -0.097701   0.161853
   66  H 16  S   -0.284425  -0.113620  -0.127152   0.055848  -0.131535
   67  H 16  S   -0.027659   0.101814   0.080547   0.128088  -0.018372
   68  H 17  S    0.336121   0.179267   0.209710   0.211387   0.000061
   69  H 17  S   -0.002139  -0.049408   0.046447   0.169638   0.023107

                     46         47         48         49         50
                    0.8411     0.8517     0.8903     0.9329     0.9684
                     A          A          A          A          A   
    1  C  1  S   -0.008748   0.022292   0.024200  -0.024589   0.039777
    2  C  1  S    0.006107  -0.005340  -0.019463   0.021287  -0.012672
    3  C  1  X   -0.011853  -0.034435  -0.209269   0.019056   0.146081
    4  C  1  Y   -0.491397   0.174036  -0.257326  -0.127554  -0.040601
    5  C  1  Z   -0.100423  -0.129994   0.170219  -0.113068   0.003810
    6  C  1  S   -0.002269   0.013822   0.335917  -0.039797  -0.022434
    7  C  1  X    0.005958   0.130816   0.788783  -0.210079  -0.028598
    8  C  1  Y    0.995367  -0.443178   0.468014   0.301865  -0.041901
    9  C  1  Z    0.144609   0.465384  -0.145779   0.094131   0.218603
   10  H  2  S    0.111852   0.065808   0.130819  -0.208085   0.237878
   11  H  2  S    0.146430   0.127431  -0.017369   0.179023   0.043663
   12  C  3  S    0.001193   0.024757   0.003011  -0.002657   0.027654
   13  C  3  S   -0.018756  -0.049687   0.008398  -0.102075   0.047292
   14  C  3  X    0.242387  -0.490372  -0.149524   0.182274  -0.015130
   15  C  3  Y    0.313815  -0.169146   0.391129   0.262011   0.104598
   16  C  3  Z    0.002517   0.146755  -0.423434   0.205419  -0.210517
   17  C  3  S    0.230868   0.257118   0.129589   0.662303  -0.133288
   18  C  3  X   -0.341213   1.207270   0.278604   0.017440   0.113849
   19  C  3  Y   -0.597550   0.453472  -0.841211  -0.580513  -0.066976
   20  C  3  Z    0.041274  -0.410264   0.861444  -0.379529   0.067712
   21  C  4  S    0.010074  -0.005363   0.010890   0.016095   0.000458
   22  C  4  S   -0.044588   0.024137  -0.094416  -0.035613   0.127406
   23  C  4  X   -0.071177  -0.507861  -0.355305  -0.121595   0.055498
   24  C  4  Y    0.350619   0.038979  -0.142731  -0.662527  -0.323027
   25  C  4  Z    0.531531   0.475636  -0.094871   0.163248   0.075609
   26  C  4  S    0.193151  -0.232812   0.399265   0.012972  -0.075755
   27  C  4  X    0.071614   1.114194   0.361099   0.502014  -0.162034
   28  C  4  Y   -0.620012   0.008776   0.423963   1.649730   0.258775
   29  C  4  Z   -0.888034  -0.918431  -0.070807  -0.300364  -0.037408
   30  C  5  S    0.024422  -0.002240  -0.042031   0.007996   0.046749
   31  C  5  S   -0.011076  -0.008098  -0.010529  -0.011022  -0.014102
   32  C  5  X    0.127436  -0.001362  -0.128908   0.175869  -0.109195
[...]
   67  H 16  S    0.196181
   68  H 17  S    0.067620
   69  H 17  S    0.755028

     ---------------------------------------------------------------------
     PROPERTIES FOR THE B3LYP    DFT FUNCTIONAL (RHF  TYPE) DENSITY MATRIX
     ---------------------------------------------------------------------

          -----------------
          ENERGY COMPONENTS
          -----------------

         WAVEFUNCTION NORMALIZATION =       1.0000000000

                ONE ELECTRON ENERGY =    -641.4798977186
                TWO ELECTRON ENERGY =     253.6774268092
           NUCLEAR REPULSION ENERGY =     191.2498963121
                                      ------------------
                       TOTAL ENERGY =    -196.5525745972

 ELECTRON-ELECTRON POTENTIAL ENERGY =     253.6774268092
  NUCLEUS-ELECTRON POTENTIAL ENERGY =    -836.3475711795
   NUCLEUS-NUCLEUS POTENTIAL ENERGY =     191.2498963121
                                      ------------------
             TOTAL POTENTIAL ENERGY =    -391.4202480581
               TOTAL KINETIC ENERGY =     194.8676734609
                 VIRIAL RATIO (V/T) =       2.0086463861

          ---------------------------------------
          MULLIKEN AND LOWDIN POPULATION ANALYSES
          ---------------------------------------

     ATOMIC MULLIKEN POPULATION IN EACH MOLECULAR ORBITAL

                      1          2          3          4          5

                  2.000000   2.000000   2.000000   2.000000   2.000000

    1             0.000245   0.011394   1.965804   0.010886   0.002301
    2             0.000000   0.000004   0.003329   0.000016  -0.000006
    3             0.007880   1.972138   0.010404   0.000294   0.003306
    4             1.976502   0.006696   0.000499   0.004117   0.005176
    5             0.006084   0.001223   0.013503   1.612199   0.358985
    6             0.006100   0.002087  -0.000004   0.363040   1.620704
    7            -0.000006   0.003195   0.000069  -0.000017   0.000029
    8            -0.000001   0.003242   0.000071  -0.000006  -0.000019
    9             0.003206   0.000025  -0.000005   0.000003   0.000053
   10            -0.000004   0.000001   0.000028   0.002332   0.000745
   11             0.000001   0.000002   0.000024   0.002733   0.000462
   12            -0.000007  -0.000005   0.000004   0.002601   0.000452
   13             0.000006   0.000006  -0.000004   0.000402   0.002815
   14            -0.000003  -0.000012   0.000000   0.000658   0.002500
   15            -0.000000   0.000006  -0.000000   0.000699   0.002490
   16            -0.000004  -0.000002   0.003086   0.000030   0.000004
   17             0.000000   0.000000   0.003191   0.000013   0.000004

                      6          7          8          9         10

                  2.000000   2.000000   2.000000   2.000000   2.000000

    1             0.153098   0.757349   0.002448   0.572646   0.093940
    2             0.007689   0.039919   0.002063   0.080552   0.011489
    3             0.451182   0.399318   0.025340   0.431638   0.338633
    4             0.752746   0.144784   0.110448   0.174911   0.570962
    5             0.242112   0.271726   0.628371   0.263441   0.164920
    6             0.257909   0.172572   0.836937   0.080000   0.221387
    7             0.014600   0.020823   0.007980   0.052185   0.055313
    8             0.020616   0.015878   0.001141   0.045380   0.109587
    9             0.026882   0.003904  -0.000000   0.009855   0.196384
   10             0.009206   0.011681   0.071822   0.021679   0.020382
   11             0.012995   0.016394   0.048340   0.028019   0.054925
   12             0.008530   0.022785   0.045269   0.049398   0.014042
   13             0.009430   0.003446   0.088257   0.011190   0.020619
   14             0.008040   0.015863   0.067004   0.019948   0.024570
   15             0.014100   0.010560   0.064518   0.008188   0.068813
   16             0.003549   0.048790   0.000012   0.081446   0.002153
   17             0.007314   0.044210   0.000049   0.069522   0.031881

                     11         12         13         14         15

                  2.000000   2.000000   2.000000   2.000000   2.000000

    1             0.178791   0.268356   0.345986   0.465239   0.189529
    2             0.080109   0.042287   0.027263   0.070282   0.040974
    3             0.406520   0.178336   0.307801   0.190274   0.023815
    4             0.339976   0.284281   0.214549   0.134535   0.078579
    5             0.163832   0.280674   0.304793   0.474317   0.441588
    6             0.268521   0.383085   0.182382   0.068954   0.452196
    7             0.168901   0.017252   0.042530   0.000916   0.002383
    8             0.054334   0.021122   0.069867   0.034478   0.000105
    9             0.078712   0.001051   0.030012   0.005857   0.000985
   10             0.049278   0.122188   0.000847   0.134534   0.013743
   11             0.042641   0.007663   0.025106   0.063457   0.258105
   12             0.018355   0.005816   0.166269   0.115342   0.070807
   13             0.026838   0.192451   0.015539   0.023761   0.096970
   14             0.092133   0.061270   0.003096   0.001169   0.003018
   15             0.015567   0.000021   0.101712   0.000074   0.211148
   16             0.000292   0.127102   0.003032   0.127688   0.112615
   17             0.015198   0.007044   0.159216   0.089122   0.003440

                     16         17         18         19         20

                  2.000000   2.000000   2.000000   2.000000   2.000000

    1             0.379607   0.336421   0.347132   0.154657   0.168524
    2             0.130481   0.040758   0.126074   0.000565   0.100182
    3             0.038897   0.357144   0.260541   0.193092   0.250207
    4             0.034870   0.037778   0.125276   0.426174   0.336474
    5             0.112141   0.305497   0.234869   0.273980   0.234272
    6             0.582972   0.227956   0.140322   0.141401   0.417639
    7             0.000763   0.079357   0.069256   0.013297   0.241252
    8             0.008268   0.031486   0.154988   0.155796   0.031337
    9             0.002986   0.008804   0.028910   0.319663   0.008510
   10             0.006781   0.113714   0.138601   0.003910   0.094895
   11             0.029179   0.025730   0.075266   0.101704   0.000942
   12             0.030334   0.131426   0.001664   0.013235   0.002292
   13             0.010045   0.161171   0.007586   0.044133   0.093915
   14             0.342646   0.051678   0.005394   0.007058   0.006459
   15             0.118111   0.014419   0.053327   0.102938   0.001648
   16             0.159148   0.001984   0.001265   0.015002   0.000346
   17             0.012771   0.074677   0.229531   0.033394   0.011108

                     21

                  2.000000

    1             0.152578
    2             0.007273
    3             0.500208
    4             0.479709
    5             0.136434
    6             0.103798
    7             0.027035
    8             0.062837
    9             0.090956
   10             0.001960
   11             0.024949
   12             0.119916
   13             0.004426
   14             0.104673
   15             0.031476
   16             0.127165
   17             0.024609

               ----- POPULATIONS IN EACH AO -----
                             MULLIKEN      LOWDIN
              1  C  1  S      1.98642     1.97431
              2  C  1  S      0.36789     0.42161
              3  C  1  X      0.55591     0.52343
              4  C  1  Y      0.56250     0.52289
              5  C  1  Z      0.55903     0.52396
              6  C  1  S      1.10234     0.57998
              7  C  1  X      0.44306     0.55773
              8  C  1  Y      0.51025     0.58616
              9  C  1  Z      0.46953     0.57216
             10  H  2  S      0.47241     0.47178
             11  H  2  S      0.33889     0.44161
             12  C  3  S      1.98749     1.97412
             13  C  3  S      0.36252     0.42183
             14  C  3  X      0.54417     0.52491
             15  C  3  Y      0.56232     0.52346
             16  C  3  Z      0.55333     0.52044
             17  C  3  S      1.07993     0.56339
             18  C  3  X      0.32214     0.50553
             19  C  3  Y      0.49321     0.56933
             20  C  3  Z      0.44186     0.55175
             21  C  4  S      1.98860     1.97392
             22  C  4  S      0.35431     0.41609
             23  C  4  X      0.54390     0.52419
             24  C  4  Y      0.55937     0.52474
             25  C  4  Z      0.54234     0.51882
             26  C  4  S      1.08714     0.54915
             27  C  4  X      0.33979     0.50583
             28  C  4  Y      0.47375     0.54958
             29  C  4  Z      0.34984     0.51461
             30  C  5  S      1.98652     1.97436
             31  C  5  S      0.36835     0.42589
             32  C  5  X      0.55677     0.52486
             33  C  5  Y      0.56194     0.52190
             34  C  5  Z      0.55538     0.52419
             35  C  5  S      1.09440     0.58087
             36  C  5  X      0.44857     0.55818
             37  C  5  Y      0.51164     0.58836
             38  C  5  Z      0.44140     0.55685
             39  C  6  S      1.98647     1.97434
             40  C  6  S      0.36793     0.42491
             41  C  6  X      0.56278     0.52356
             42  C  6  Y      0.55659     0.52014
             43  C  6  Z      0.55627     0.52884
             44  C  6  S      1.09620     0.58015
             45  C  6  X      0.50658     0.58138
             46  C  6  Y      0.48077     0.57736
             47  C  6  Z      0.41636     0.54667
             48  H  7  S      0.47355     0.47982
             49  H  7  S      0.34356     0.44064
             50  H  8  S      0.47233     0.47785
             51  H  8  S      0.34817     0.44340
             52  H  9  S      0.47381     0.48496
             53  H  9  S      0.34295     0.43876
             54  H 10  S      0.47171     0.47127
             55  H 10  S      0.34661     0.44385
             56  H 11  S      0.47026     0.47016
             57  H 11  S      0.34838     0.44499
             58  H 12  S      0.47155     0.47116
             59  H 12  S      0.34698     0.44355
             60  H 13  S      0.47278     0.47176
             61  H 13  S      0.34022     0.44203
             62  H 14  S      0.47134     0.47099
             63  H 14  S      0.34583     0.44307
             64  H 15  S      0.47014     0.46997
             65  H 15  S      0.34968     0.44546
             66  H 16  S      0.47138     0.47086
             67  H 16  S      0.34332     0.44113
             68  H 17  S      0.47082     0.47077
             69  H 17  S      0.34547     0.44342

          ----- MULLIKEN ATOMIC OVERLAP POPULATIONS -----
          (OFF-DIAGONAL ELEMENTS NEED TO BE MULTIPLIED BY 2)

             1           2           3           4           5

    1    5.3188016
    2    0.3659380   0.5394200
    3    0.2847078  -0.0405388   5.3575010
    4   -0.0616567  -0.0033070   0.2820152   5.3957666
    5    0.0035870   0.0000057  -0.0716794   0.2903829   5.3363893
    6   -0.0023677   0.0025093  -0.0725464   0.2875028  -0.0784566
    7   -0.0422310   0.0035088   0.3701990  -0.0433694  -0.0023397
    8   -0.0414163  -0.0027311   0.3653924  -0.0460930  -0.0011710
    9   -0.0022548  -0.0001159  -0.0476739   0.3753104  -0.0430096
   10   -0.0000182   0.0000007  -0.0017284  -0.0377489   0.3641520
   11   -0.0000179   0.0000004  -0.0028066  -0.0442490   0.3633454
   12   -0.0000814   0.0000012   0.0038855  -0.0376092   0.3644950
   13    0.0017603   0.0036372  -0.0027294  -0.0364733   0.0037951
   14    0.0000221  -0.0000589   0.0038447  -0.0378900  -0.0022195
   15   -0.0000454   0.0001305  -0.0029019  -0.0444212  -0.0022464
   16    0.3658107  -0.0280134  -0.0355148   0.0033923  -0.0000743
   17    0.3663928  -0.0290837  -0.0424563  -0.0025120   0.0000052

             6           7           8           9          10

    6    5.3468682
    7    0.0041085   0.5608659
    8   -0.0040892  -0.0309570   0.5667746
    9   -0.0454564  -0.0019263   0.0043194   0.5732499
   10    0.0040062   0.0041412  -0.0001530  -0.0020453   0.5429547
   11   -0.0023694  -0.0001530   0.0039925   0.0039200  -0.0280537
   12   -0.0016766   0.0000036  -0.0000631  -0.0020741  -0.0270341
   13    0.3642758  -0.0000151  -0.0000470  -0.0019372  -0.0000867
   14    0.3647382  -0.0000806  -0.0000362  -0.0019008  -0.0000208
   15    0.3629824  -0.0000231   0.0047008   0.0039614  -0.0000397
   16    0.0000409  -0.0021795  -0.0015804  -0.0000222  -0.0000015
   17   -0.0001114  -0.0024379   0.0036628   0.0044083  -0.0000014

            11          12          13          14          15

   11    0.5495127
   12   -0.0282955   0.5437371
   13   -0.0000346  -0.0000254   0.5360863
   14   -0.0001406   0.0034194  -0.0274168   0.5430768
   15    0.0039807  -0.0001566  -0.0278831  -0.0281607   0.5499164
   16    0.0000009   0.0000005  -0.0000408   0.0000002  -0.0000122
   17    0.0000040   0.0000002   0.0001367  -0.0000124   0.0000337

            16          17

   16    0.5408379
   17   -0.0279422   0.5462077

          TOTAL MULLIKEN AND LOWDIN ATOMIC POPULATIONS
       ATOM         MULL.POP.    CHARGE          LOW.POP.     CHARGE
    1 C             6.556931   -0.556931         6.262224   -0.262224
    2 H             0.811303    0.188697         0.913391    0.086609
    3 C             6.346970   -0.346970         6.154766   -0.154766
    4 C             6.239041   -0.239041         6.076925   -0.076925
    5 C             6.524961   -0.524961         6.255457   -0.255457
    6 C             6.529958   -0.529958         6.257344   -0.257344
    7 H             0.817114    0.182886         0.920466    0.079534
    8 H             0.820505    0.179495         0.921249    0.078751
    9 H             0.816753    0.183247         0.923719    0.076281
   10 H             0.818323    0.181677         0.915125    0.084875
   11 H             0.818636    0.181364         0.915150    0.084850
   12 H             0.818526    0.181474         0.914715    0.085285
   13 H             0.813002    0.186998         0.913790    0.086210
   14 H             0.817164    0.182836         0.914055    0.085945
   15 H             0.819816    0.180184         0.915432    0.084568
   16 H             0.814702    0.185298         0.911995    0.088005
   17 H             0.816294    0.183706         0.914196    0.085804

          -------------------------------
          BOND ORDER AND VALENCE ANALYSIS     BOND ORDER THRESHOLD=0.050
          -------------------------------

                   BOND                       BOND                       BOND
  ATOM PAIR DIST  ORDER      ATOM PAIR DIST  ORDER      ATOM PAIR DIST  ORDER
    1   2  1.095  0.918        1   3  1.545  0.949        1  16  1.096  0.925
    1  17  1.097  0.924        3   4  1.551  0.914        3   7  1.099  0.914
    3   8  1.099  0.911        4   5  1.546  0.937        4   6  1.545  0.934
    4   9  1.100  0.903        5  10  1.097  0.925        5  11  1.098  0.921
    5  12  1.097  0.925        6  13  1.095  0.919        6  14  1.097  0.924
    6  15  1.098  0.922

                       TOTAL       BONDED        FREE
      ATOM            VALENCE     VALENCE     VALENCE
    1 C                 3.703       3.703       0.000
    2 H                 0.921       0.921      -0.000
    3 C                 3.649       3.649       0.000
    4 C                 3.639       3.639      -0.000
    5 C                 3.688       3.688      -0.000
    6 C                 3.684       3.684       0.000
    7 H                 0.918       0.918       0.000
    8 H                 0.920       0.920      -0.000
    9 H                 0.914       0.914      -0.000
   10 H                 0.924       0.924       0.000
   11 H                 0.924       0.924       0.000
   12 H                 0.924       0.924      -0.000
   13 H                 0.923       0.923      -0.000
   14 H                 0.923       0.923       0.000
   15 H                 0.925       0.925      -0.000
   16 H                 0.921       0.921       0.000
   17 H                 0.921       0.921      -0.000

          ---------------------
          ELECTROSTATIC MOMENTS
          ---------------------

 POINT   1           X           Y           Z (BOHR)    CHARGE
                 2.816737   -0.206119   -0.010757       -0.00 (A.U.)
         DX          DY          DZ         /D/  (DEBYE)
    -0.016074    0.035112    0.001137    0.038633
 ...... END OF PROPERTY EVALUATION ......
 CPU     0: STEP CPU TIME=     0.04 TOTAL CPU TIME=         82.8 (      1.4 MIN)
 TOTAL WALL CLOCK TIME=         83.9 SECONDS, CPU UTILIZATION IS    98.74%
  $VIB   
          IVIB=   0 IATOM=   0 ICOORD=   0 E=     -196.5525745972
 -2.826734599E-05-4.981438733E-05-3.080528831E-05-1.463692963E-05 1.060651694E-05
 -1.430204311E-05 2.178196050E-05 3.718839567E-05 3.052980379E-05 4.686646077E-06
 -4.375233600E-05 3.894620650E-05-3.102135746E-05-3.445589080E-05-1.550559098E-05
 -2.958746833E-05-2.898947160E-05 2.529406460E-05 1.518388622E-07 1.385744090E-06
  1.392190984E-05 1.352739601E-05-1.785041972E-05-7.545282555E-06 1.160027953E-06
  4.028564624E-05-4.929627821E-06 4.196291105E-05-2.129125307E-06 1.588197552E-05
  3.911598170E-06 2.627151813E-05-5.100578210E-07 1.062657583E-05 1.436716459E-05
  2.164051169E-05 3.847381349E-05-8.997782629E-06-4.306024827E-05 1.100236783E-05
  3.704807240E-06-2.257371405E-05-1.302577519E-05 1.811716068E-05-6.987673492E-06
 -5.399799865E-06 2.225896292E-05 5.437938488E-06-2.534645930E-05 1.180349689E-05
 -5.432884026E-06
 -1.607422502E-02 3.511153586E-02 1.137393836E-03
 ......END OF GEOMETRY SEARCH......
 CPU     0: STEP CPU TIME=     0.00 TOTAL CPU TIME=         82.8 (      1.4 MIN)
 TOTAL WALL CLOCK TIME=         83.9 SECONDS, CPU UTILIZATION IS    98.72%
               643974  WORDS OF DYNAMIC MEMORY USED
 EXECUTION OF GAMESS TERMINATED NORMALLY Sun May 17 14:39:47 2020
 DDI: 263640 bytes (0.3 MB / 0 MWords) used by master data server.
Note: The following floating-point exceptions are signalling: IEEE_UNDERFLOW_FLAGNote: The following floating-point exceptions are signalling: IEEE_UNDERFLOW_FLAGNote: The following floating-point exceptions are signalling: IEEE_DENORMAL

 ----------------------------------------
 CPU timing information for all processes
 ========================================
 0: 81.600 + 1.236 = 82.836
 1: 81.722 + 0.445 = 82.167
 2: 81.742 + 0.309 = 82.51
 3: 81.623 + 0.397 = 82.20
 4: 81.799 + 0.364 = 82.164
 5: 81.742 + 0.301 = 82.43
 ----------------------------------------
 IEEE_DENORMAL
 IEEE_UNDERFLOW_FLAG IEEE_DENORMALNote: The following floating-point exceptions are signalling: IEEE_UNDERFLOW_FLAGNote: The following floating-point exceptions are signalling: IEEE_UNDERFLOW_FLAGNote: The following floating-point exceptions are signalling:
 IEEE_DENORMAL
 IEEE_DENORMAL IEEE_UNDERFLOW_FLAG IEEE_DENORMAL

 ddikick.x: exited gracefully.
unset echo
----- accounting info -----
Files used on the master node pietdev were:
-rwxr-xr-x 1 piet piet      848 mei 17 14:38 /home/piet/scr/leucine_geoopt.F05*
-rw-r--r-- 1 piet piet 57344000 mei 17 14:39 /home/piet/scr/leucine_geoopt.F10
-rw-r--r-- 1 piet piet  4470800 mei 17 14:39 /home/piet/scr/leucine_geoopt.F22
-rw-r--r-- 1 piet piet  4470800 mei 17 14:39 /home/piet/scr/leucine_geoopt.F22.001
-rw-r--r-- 1 piet piet  4470800 mei 17 14:39 /home/piet/scr/leucine_geoopt.F22.002
-rw-r--r-- 1 piet piet  4470800 mei 17 14:39 /home/piet/scr/leucine_geoopt.F22.003
-rw-r--r-- 1 piet piet  4470800 mei 17 14:39 /home/piet/scr/leucine_geoopt.F22.004
-rw-r--r-- 1 piet piet  4470800 mei 17 14:39 /home/piet/scr/leucine_geoopt.F22.005
ls: No match.
ls: No match.
ls: No match.
zo 17 mei 2020 14:39:50 CEST
0.109u 0.026s 1:27.04 0.1%	0+0k 0+8io 0pf+0w
