----- GAMESS execution script 'rungms' -----
This job is running on host pietdev
under operating system Linux at do 21 mei 2020 21:04:53 CEST
Available scratch disk space (Kbyte units) at beginning of the job is
Filesystem     1K-blocks     Used Available Use% Mounted on
/dev/sda2      244568380 30779652 201295672  14% /
GAMESS temporary binary files will be written to /home/piet/scr
GAMESS supplementary output files will be written to /home/piet/gamess/scr
Copying input file beta-d-acetylgalactosamine_geoopt.inp to your run's scratch directory...
cp beta-d-acetylgalactosamine_geoopt.inp /home/piet/scr/beta-d-acetylgalactosamine_geoopt.F05
unset echo
 
Assuming a single but multicore node.
 
/home/piet/gamess/ddikick.x /home/piet/gamess/gamess.03.x beta-d-acetylgalactosamine_geoopt -ddi 1 8 pietdev:cpus=8 -scr /home/piet/scr

 Distributed Data Interface kickoff program.
 Initiating 8 compute processes on 1 nodes to run the following command:
 /home/piet/gamess/gamess.03.x beta-d-acetylgalactosamine_geoopt 

          ******************************************************
          *         GAMESS VERSION = 30 SEP 2019 (R2)          *
          *             FROM IOWA STATE UNIVERSITY             *
          * M.W.SCHMIDT, K.K.BALDRIDGE, J.A.BOATZ, S.T.ELBERT, *
          *   M.S.GORDON, J.H.JENSEN, S.KOSEKI, N.MATSUNAGA,   *
          *          K.A.NGUYEN, S.J.SU, T.L.WINDUS,           *
          *       TOGETHER WITH M.DUPUIS, J.A.MONTGOMERY       *
          *         J.COMPUT.CHEM.  14, 1347-1363(1993)        *
          **************** 64 BIT LINUX VERSION ****************

  SINCE 1993, STUDENTS AND POSTDOCS WORKING AT IOWA STATE UNIVERSITY
  AND ALSO IN THEIR VARIOUS JOBS AFTER LEAVING ISU HAVE MADE IMPORTANT
  CONTRIBUTIONS TO THE CODE:
     IVANA ADAMOVIC, CHRISTINE AIKENS, YURI ALEXEEV, POOJA ARORA,
     ANDREY ASADCHEV, ROB BELL, PRADIPTA BANDYOPADHYAY, JONATHAN BENTZ,
     COLLEEN BERTONI, BRETT BODE, KURT BRORSEN, CALEB CARLIN, GALINA CHABAN,
     WEI CHEN, CHEOL HO CHOI, PAUL DAY, ALBERT DEFUSCO, NUWAN DESILVA,
     TIM DUDLEY, DMITRI FEDOROV, ALEX FINDLATER, GRAHAM FLETCHER, 
     MARK FREITAG, KURT GLAESEMANN, EMILIE B GUIDEZ, ANASTASIA GUNINA, 
     DAN KEMP, SAROM SOK LEANG, GRANT MERRILL,
     NORIYUKI MINEZAWA, JONATHAN MULLIN,
     TAKESHI NAGATA, SEAN NEDD, HEATHER NETZLOFF, BOSILJKA NJEGIC, RYAN OLSON,
     MIKE PAK, BUU PHAM, DAVID POOLE,
     SPENCER PRUITT, LUKE ROSKOP, TOSAPORN SATTASATHUCHANA,
     JIM SHOEMAKER, LYUDMILA SLIPCHENKO,
     TONY SMITH, JIE SONG, TETSUYA TAKETSUGU, SIMON WEBB,
     JORGE LUIS GALVEZ VALLEJO, PENG XU, SOOHAENG YOO,
     FEDERICO ZAHARIEV

  ADDITIONAL CODE HAS BEEN PROVIDED BY COLLABORATORS IN OTHER GROUPS:
     IOWA STATE UNIVERSITY:
          JOE IVANIC, AARON WEST, LAIMUTIS BYTAUTAS, KLAUS RUEDENBERG
     UNIVERSITY OF TOKYO: KIMIHIKO HIRAO, TAKAHITO NAKAJIMA,
          TAKAO TSUNEDA, MUNEAKI KAMIYA, SUSUMU YANAGISAWA,
          KIYOSHI YAGI, MAHITO CHIBA, SEIKEN TOKURA, NAOAKI KAWAKAMI
     UNIVERSITY OF AARHUS: FRANK JENSEN
     UNIVERSITY OF IOWA: VISVALDAS KAIRYS, HUI LI
     NATIONAL INST. OF STANDARDS AND TECHNOLOGY: WALT STEVENS, DAVID GARMER
     UNIVERSITY OF PISA: BENEDETTA MENNUCCI, JACOPO TOMASI
     UNIVERSITY OF MEMPHIS: HENRY KURTZ, PRAKASHAN KORAMBATH
     UNIVERSITY OF ALBERTA: TOBY ZENG, MARIUSZ KLOBUKOWSKI
     UNIVERSITY OF NEW ENGLAND: MARK SPACKMAN
     MIE UNIVERSITY: HIROAKI UMEDA
     NAT. INST. OF ADVANCED INDUSTRIAL SCIENCE AND TECHNOLOGY: KAZUO KITAURA
     MICHIGAN STATE UNIVERSITY:
          KAROL KOWALSKI, MARTA WLOCH, JEFFREY GOUR, JESSE LUTZ,
          WEI LI, JUN SHEN, J. EMILIANO DEUSTUA, PIOTR PIECUCH
     UNIVERSITY OF MINNESOTA:
          ANDREW SAND, PRACHI SHARMA, YINAN SHU
     UNIVERSITY OF SILESIA: MONIKA MUSIAL, STANISLAW KUCHARSKI
     FACULTES UNIVERSITAIRES NOTRE-DAME DE LA PAIX:
          OLIVIER QUINET, BENOIT CHAMPAGNE
     UNIVERSITY OF CALIFORNIA - SANTA BARBARA: BERNARD KIRTMAN
     INSTITUTE FOR MOLECULAR SCIENCE:
          KAZUYA ISHIMURA, MICHIO KATOUDA, AND SHIGERU NAGASE
     UNIVERSITY OF NOTRE DAME: ANNA POMOGAEVA, DAN CHIPMAN
     KYUSHU UNIVERSITY:
          HARUYUKI NAKANO,
          FENG LONG GU, JACEK KORCHOWIEC, MARCIN MAKOWSKI, AND YURIKO AOKI,
          HIROTOSHI MORI AND EISAKU MIYOSHI
     PENNSYLVANIA STATE UNIVERSITY:
          TZVETELIN IORDANOV, CHET SWALINA, JONATHAN SKONE,
          SHARON HAMMES-SCHIFFER
     WASEDA UNIVERSITY:
          MASATO KOBAYASHI, TOMOKO AKAMA, TSUGUKI TOUMA,
          TAKESHI YOSHIKAWA, YASUHIRO IKABATA, JUNJI SEINO,
          YUYA NAKAJIMA, HIROMI NAKAI
     NANJING UNIVERSITY: SHUHUA LI
     UNIVERSITY OF NEBRASKA:
          PEIFENG SU, DEJUN SI, NANDUN THELLAMUREGE, YALI WANG, HUI LI
     UNIVERSITY OF ZURICH: ROBERTO PEVERATI, KIM BALDRIDGE
     N. COPERNICUS UNIVERSITY AND JACKSON STATE UNIVERSITY:
          MARIA BARYSZ
     UNIVERSITY OF COPENHAGEN: Jimmy Kromann, CASPER STEINMANN
     TOKYO INSTITUTE OF TECHNOLOGY: HIROYA NAKATA
     NAGOYA UNIVERSITY: YOSHIO NISHIMOTO, STEPHAN IRLE
     MOSCOW STATE UNIVERSITY: VLADIMIR MIRONOV
     A.N.NESMEYANOV INSTITUTE OF ORGANOELEMENT COMPOUNDS OF RUSSIAN ACADEMY OF SCIENCES:
          IGOR S. GERASIMOV
     JOHANNES KEPLER UNIVERSITY LINZ:
          CHRISTIAN FRIEDL


 PARALLEL VERSION RUNNING ON        8 PROCESSORS IN        1 NODES.

 EXECUTION OF GAMESS BEGUN Thu May 21 21:04:53 2020

            ECHO OF THE FIRST FEW INPUT CARDS -
 INPUT CARD> $BASIS GBASIS=N21 NGAUSS=3 $END                                                
 INPUT CARD> $CONTRL SCFTYP=RHF RUNTYP=OPTIMIZE DFTTYP=B3LYP MAXIT=60 MULT=1 ICHARG=0 $END  
 INPUT CARD> $SYSTEM MEMDDI=1000 MWORDS=30 $END                                             
 INPUT CARD> $STATPT NSTEP=999 $END                                                         
 INPUT CARD> $SCF DIRSCF=.TRUE. $END                                                        
 INPUT CARD> $DATA                                                                          
 INPUT CARD>                                                                                
 INPUT CARD>C1                                                                              
 INPUT CARD>O 8.0000000 -1.37383730 -1.00236400 -0.38241530                                 
 INPUT CARD>O 8.0000000 0.65114190 2.48097590 0.80987300                                    
 INPUT CARD>O 8.0000000 -1.38576180 1.96297830 -0.95449410                                  
 INPUT CARD>O 8.0000000 0.01025840 -1.63444310 1.40941790                                   
 INPUT CARD>O 8.0000000 -4.15447570 -1.31069660 -0.16650850                                 
 INPUT CARD>O 8.0000000 2.75415330 -1.24204230 -1.32584690                                  
 INPUT CARD>N 7.0000000 2.10490190 0.05585310 0.42143600                                    
 INPUT CARD>C 6.0000000 -0.01283140 1.22585770 0.82768370                                   
 INPUT CARD>C 6.0000000 0.72139640 0.16345690 -0.01157860                                   
 INPUT CARD>C 6.0000000 -1.46391600 1.35232520 0.34205020                                   
 INPUT CARD>C 6.0000000 -2.14264780 -0.02729140 0.33929300                                  
 INPUT CARD>C 6.0000000 -0.03789530 -1.17807670 0.07304790                                  
 INPUT CARD>C 6.0000000 -3.52901270 -0.04226930 -0.29717120                                 
 INPUT CARD>C 6.0000000 3.04499630 -0.60883260 -0.31008770                                  
 INPUT CARD>C 6.0000000 4.47454070 -0.51291240 0.19567880                                   
 INPUT CARD>H 1.0000000 -0.02223930 0.90751870 1.87561700                                   
 INPUT CARD>H 1.0000000 0.70053820 0.45286960 -1.06877620                                   
 INPUT CARD>H 1.0000000 -2.00614960 2.01263240 1.03423750                                   
 INPUT CARD>H 1.0000000 -2.23749650 -0.34819660 1.38696050                                  
 INPUT CARD>H 1.0000000 0.40178620 -1.90403370 -0.61394850                                  
 INPUT CARD>H 1.0000000 -3.44972340 0.24453730 -1.35578050                                  
 INPUT CARD>H 1.0000000 -4.17897670 0.67538880 0.21583130                                   
 INPUT CARD>H 1.0000000 2.40109260 0.63810060 1.19199830                                    
 INPUT CARD>H 1.0000000 0.48279490 2.87955090 -0.05863910                                   
 INPUT CARD>H 1.0000000 -2.22752510 2.37674090 -1.17958800                                  
 INPUT CARD>H 1.0000000 -0.28053200 -2.55575590 1.43524760                                  
 INPUT CARD>H 1.0000000 -3.56319780 -1.96203480 -0.57088940                                 
 INPUT CARD>H 1.0000000 5.03433120 0.16628470 -0.45619610                                   
 INPUT CARD>H 1.0000000 4.54885680 -0.15149690 1.22566290                                   
 INPUT CARD>H 1.0000000 4.93712970 -1.49962500 0.12198450                                   
 INPUT CARD> $END                                                                           
   30000000 WORDS OF MEMORY AVAILABLE

     BASIS OPTIONS
     -------------
     GBASIS=N21          IGAUSS=       3      POLAR=NONE    
     NDFUNC=       0     NFFUNC=       0     DIFFSP=       F
     NPFUNC=       0      DIFFS=       F     BASNAM=        


     RUN TITLE
     ---------
                                                                                 

 THE POINT GROUP OF THE MOLECULE IS C1      
 THE ORDER OF THE PRINCIPAL AXIS IS     0

 ATOM      ATOMIC                      COORDINATES (BOHR)
           CHARGE         X                   Y                   Z
 O           8.0    -2.5961760487       -1.8941933000       -0.7226601305
 O           8.0     1.2304797701        4.6883646331        1.5304380549
 O           8.0    -2.6187100863        3.7094911068       -1.8037323059
 O           8.0     0.0193855651       -3.0886496015        2.6634136332
 O           8.0    -7.8508206956       -2.4768574270       -0.3146554396
 O           8.0     5.2045950652       -2.3471196122       -2.5054873427
 N           7.0     3.9776878220        0.1055470546        0.7963985614
 C           6.0    -0.0242478300        2.3165351529        1.5640953975
 C           6.0     1.3632415245        0.3088887518       -0.0218803813
 C           6.0    -2.7664001090        2.5555240743        0.6463811520
 C           6.0    -4.0490172302       -0.0515732678        0.6411707996
 C           6.0    -0.0716117332       -2.2262421555        0.1380405150
 C           6.0    -6.6688670102       -0.0798773947       -0.5615721394
 C           6.0     5.7542086406       -1.1505267864       -0.5859807852
 C           6.0     8.4556558439       -0.9692638917        0.3697793136
 H           1.0    -0.0420261832        1.7149616717        3.5444021879
 H           1.0     1.3238252419        0.8557994522       -2.0196941602
 H           1.0    -3.7910730344        3.8033237500        1.9544254812
 H           1.0    -4.2282552835       -0.6579961639        2.6209753008
 H           1.0     0.7592658236       -3.5981019644       -1.1601944356
 H           1.0    -6.5190319594        0.4621084908       -2.5620536445
 H           1.0    -7.8971208721        1.2762997672        0.4078620166
 H           1.0     4.5374070851        1.2058352866        2.2525501648
 H           1.0     0.9123500693        5.4415621687       -0.1108118312
 H           1.0    -4.2094120698        4.4913890448       -2.2290980984
 H           1.0    -0.5301286108       -4.8296783425        2.7122246885
 H           1.0    -6.7334674821       -3.7077081504       -1.0788245353
 H           1.0     9.5135064994        0.3142325190       -0.8620856257
 H           1.0     8.5960929094       -0.2862876290        2.3161670343
 H           1.0     9.3298222988       -2.8338803343        0.2305172797

          INTERNUCLEAR DISTANCES (ANGS.)
          ------------------------------

                1 O          2 O          3 O          4 O          5 O     

   1 O       0.0000000    4.2018745    3.0200449    2.3507257 *  2.8059998 *
   2 O       4.2018745    0.0000000    2.7441373 *  4.2079519    6.1987145  
   3 O       3.0200449    2.7441373 *  0.0000000    4.5253059    4.3593171  
   4 O       2.3507257 *  4.2079519    4.5253059    0.0000000    4.4646798  
   5 O       2.8059998 *  6.1987145    4.3593171    4.4646798    0.0000000  
   6 O       4.2412045    4.7796256    5.2487100    3.8941766    7.0055645  
   7 N       3.7239263    2.8540361 *  4.2089242    2.8671834 *  6.4337349  
   8 C       2.8777854 *  1.4200350 *  2.3673703 *  2.9189499 *  4.9573928  
   9 C       2.4262445 *  2.4597993 *  2.9270262 *  2.3994568 *  5.0962006  
  10 C       2.4652638 *  2.4425766 *  1.4352813 *  3.4976062    3.8196110  
  11 C       1.4362100 *  3.7839280    2.4915728 *  2.8919040 *  2.4393474 *
  12 C       1.4223441 *  3.7955697    3.5691474    1.4129663 *  4.1256769  
  13 C       2.3608959 *  5.0065962    3.0077593    4.2395641    1.4202762 *
  14 C       4.4369121    4.0659276    5.1634376    3.6356857    7.2350277  
  15 C       5.8972265    4.8947911    6.4649886    4.7603372    8.6733825  
  16 H       3.2516425    2.0161895 *  3.3140183    2.5845633 *  5.1152843  
  17 H       2.6252295 *  2.7649553 *  2.5780102 *  3.3128246    5.2436068  
  18 H       3.3907119    2.7075604 *  2.0838426 *  4.1842348    4.1354095  
  19 H       2.0747368 *  4.0842966    3.3984395    2.5898526 *  2.6484866 *
  20 H       2.0048578 *  4.6171155    4.2737666    2.0784573 *  4.6164677  
  21 H       2.6098862 *  5.1486706    2.7155124 *  4.8112746    2.0808162 *
  22 H       3.3228844    5.1906720    3.2908354    4.9304830    2.0227010 *
  23 H       4.4068127    2.5699293 *  4.5500546    3.3057245    6.9727202  
  24 H       4.3152262    0.9703175 *  2.2658697 *  4.7701807    6.2509270  
  25 H       3.5752786    3.5007919    0.9645891 *  5.2725917    4.2821331  
  26 H       2.6291142 *  5.1602109    5.2298525    0.9664593 *  4.3730121  
  27 H       2.3978720 *  6.2775400    4.5048982    4.0986001    0.9681812 *
  28 H       6.5142772    5.1159627    6.6853574    5.6537106    9.3112601  
  29 H       6.1958208    4.7217556    6.6666174    4.7782602    8.8898752  
  30 H       6.3505899    5.8896575    7.2888535    5.0940869    9.0981433  

                6 O          7 N          8 C          9 C         10 C     

   1 O       4.2412045    3.7239263    2.8777854 *  2.4262445 *  2.4652638 *
   2 O       4.7796256    2.8540361 *  1.4200350 *  2.4597993 *  2.4425766 *
   3 O       5.2487100    4.2089242    2.3673703 *  2.9270262 *  1.4352813 *
   4 O       3.8941766    2.8671834 *  2.9189499 *  2.3994568 *  3.4976062  
   5 O       7.0055645    6.4337349    4.9573928    5.0962006    3.8196110  
   6 O       0.0000000    2.2713558 *  4.2877067    2.7990766 *  5.2253930  
   7 N       2.2713558 *  0.0000000    2.4533125 *  1.4536739 *  3.7978419  
   8 C       4.2877067    2.4533125 *  0.0000000    1.5401776 *  1.5354089 *
   9 C       2.7990766 *  1.4536739 *  1.5401776 *  0.0000000    2.5127776 *
  10 C       5.2253930    3.7978419    1.5354089 *  2.5127776 *  0.0000000  
  11 C       5.3129061    4.2491574    2.5189335 *  2.8917547 *  1.5375391 *
  12 C       3.1235450    2.4971057 *  2.5197230 *  1.5438257 *  2.9169901 *
  13 C       6.4788737    5.6804065    3.9034569    4.2649577    2.5725711 *
  14 C       1.2317918 *  1.3640790 *  3.7431167    2.4667094 *  4.9600115  
  15 C       2.4096480 *  2.4473758 *  4.8537882    3.8192307    6.2262191  
  16 H       4.7516670    2.7137992 *  1.0952591 *  2.1605854 *  2.1513046 *
  17 H       2.6750975 *  2.0858073 *  2.1686325 *  1.0962945 *  2.7357473 *
  18 H       6.2308418    4.5940456    2.1529042 *  3.4572660    1.0996118 *
  19 H       5.7510740    4.4667569    2.7820087 *  3.3125139    2.1405697 *
  20 H       2.5453218 *  2.7953140 *  3.4707969    2.1770433 *  3.8728093  
  21 H       6.3795690    5.8350632    4.1884045    4.3831146    2.8378256 *
  22 H       7.3567388    6.3176917    4.2466629    4.9322861    2.8010228 *
  23 H       3.1621407    1.0102016 *  2.5110182 *  2.1202036 *  4.0212958  
  24 H       4.8736449    3.2916519    1.9405965 *  2.7269602 *  2.5065222 *
  25 H       6.1590667    5.1691123    3.2028956    3.8676879    1.9869346 *
  26 H       4.3079927    3.6794851    3.8394529    3.2390253    4.2271239  
  27 H       6.4029114    6.0978632    4.9723000    4.8154222    4.0280796  
  28 H       2.8176034 *  3.0600636    5.3145924    4.3357928    6.6536536  
  29 H       3.3046107    2.5812188 *  4.7816830    4.0347758    6.2606461  
  30 H       2.6321000 *  3.2451036    5.6945924    4.5338822    7.0110937  

               11 C         12 C         13 C         14 C         15 C     

   1 O       1.4362100 *  1.4223441 *  2.3608959 *  4.4369121    5.8972265  
   2 O       3.7839280    3.7955697    5.0065962    4.0659276    4.8947911  
   3 O       2.4915728 *  3.5691474    3.0077593    5.1634376    6.4649886  
   4 O       2.8919040 *  1.4129663 *  4.2395641    3.6356857    4.7603372  
   5 O       2.4393474 *  4.1256769    1.4202762 *  7.2350277    8.6733825  
   6 O       5.3129061    3.1235450    6.4788737    1.2317918 *  2.4096480 *
   7 N       4.2491574    2.4971057 *  5.6804065    1.3640790 *  2.4473758 *
   8 C       2.5189335 *  2.5197230 *  3.9034569    3.7431167    4.8537882  
   9 C       2.8917547 *  1.5438257 *  4.2649577    2.4667094 *  3.8192307  
  10 C       1.5375391 *  2.9169901 *  2.5725711 *  4.9600115    6.2262191  
  11 C       0.0000000    2.4135402 *  1.5255552 *  5.2603742    6.6365380  
  12 C       2.4135402 *  0.0000000    3.6898538    3.1583306    4.5628457  
  13 C       1.5255552 *  3.6898538    0.0000000    6.5983903    8.0325135  
  14 C       5.2603742    3.1583306    6.5983903    0.0000000    1.5194070 *
  15 C       6.6365380    4.5628457    8.0325135    1.5194070 *  0.0000000  
  16 H       2.7803405 *  2.7566662 *  4.2332689    4.0601183    5.0060810  
  17 H       3.2088814    2.1234482 *  4.3277751    2.6831518 *  4.0956900  
  18 H       2.1593677 *  3.8702112    2.8834670 *  5.8475092    7.0057765  
  19 H       1.0998107 *  2.6931975 *  2.1442726 *  5.5545147    6.8189242  
  20 H       3.3022682    1.0919237 *  4.3609282    2.9591277 *  4.3792744  
  21 H       2.1576866 *  3.9630736    1.0996356 *  6.6334831    8.1101614  
  22 H       2.1576927 *  4.5391934    1.0957454 *  7.3560588    8.7347484  
  23 H       4.6706991    3.2402487    6.1519654    2.0556548 *  2.5722890 *
  24 H       3.9371349    4.0930186    4.9687555    4.3355417    5.2447611  
  25 H       2.8449209 *  4.3589338    2.8851585 *  6.1212059    7.4269200  
  26 H       3.3259171    1.9525523 *  4.4577479    4.2303480    5.3216968  
  27 H       2.5670267 *  3.6683788    1.9394819 *  6.7503632    8.2032203  
  28 H       7.2235242    5.2739822    8.5673591    2.1400018 *  1.0952694 *
  29 H       6.7510971    4.8394919    8.2208838    2.1975628 *  1.0940801 *
  30 H       7.2345172    4.9856456    8.6008804    2.1355014 *  1.0922551 *

               16 H         17 H         18 H         19 H         20 H     

   1 O       3.2516425    2.6252295 *  3.3907119    2.0747368 *  2.0048578 *
   2 O       2.0161895 *  2.7649553 *  2.7075604 *  4.0842966    4.6171155  
   3 O       3.3140183    2.5780102 *  2.0838426 *  3.3984395    4.2737666  
   4 O       2.5845633 *  3.3128246    4.1842348    2.5898526 *  2.0784573 *
   5 O       5.1152843    5.2436068    4.1354095    2.6484866 *  4.6164677  
   6 O       4.7516670    2.6750975 *  6.2308418    5.7510740    2.5453218 *
   7 N       2.7137992 *  2.0858073 *  4.5940456    4.4667569    2.7953140 *
   8 C       1.0952591 *  2.1686325 *  2.1529042 *  2.7820087 *  3.4707969  
   9 C       2.1605854 *  1.0962945 *  3.4572660    3.3125139    2.1770433 *
  10 C       2.1513046 *  2.7357473 *  1.0996118 *  2.1405697 *  3.8728093  
  11 C       2.7803405 *  3.2088814    2.1593677 *  1.0998107 *  3.3022682  
  12 C       2.7566662 *  2.1234482 *  3.8702112    2.6931975 *  1.0919237 *
  13 C       4.2332689    4.3277751    2.8834670 *  2.1442726 *  4.3609282  
  14 C       4.0601183    2.6831518 *  5.8475092    5.5545147    2.9591277 *
  15 C       5.0060810    4.0956900    7.0057765    6.8189242    4.3792744  
  16 H       0.0000000    3.0657078    2.4217960 *  2.5928692 *  3.7792276  
  17 H       3.0657078    0.0000000    3.7658579    3.9120835    2.4189076 *
  18 H       2.4217960 *  3.7658579    0.0000000    2.3982178 *  4.8841525  
  19 H       2.5928692 *  3.9120835    2.3982178 *  0.0000000    3.6592457  
  20 H       3.7792276    2.4189076 *  4.8841525    3.6592457    0.0000000  
  21 H       4.7570076    4.1653866    3.3048830    3.0567067    4.4722252  
  22 H       4.4818789    5.0506828    2.6794004 *  2.4876929 *  5.3221559  
  23 H       2.5322832 *  2.8350127 *  4.6193084    4.7462934    3.7042026  
  24 H       2.8080807 *  2.6375313 *  2.8532038 *  4.4618491    4.8163900  
  25 H       4.0442771    3.5052981    2.2544635 *  3.7433347    5.0555175  
  26 H       3.5007015    4.0354010    4.8998711    2.9504847 *  2.2559930 *
  27 H       5.1728249    4.9253527    4.5605713    2.8627144 *  3.9656420  
  28 H       5.6174447    4.3862452    7.4295869    7.5194013    5.0765714  
  29 H       4.7369689    4.5209806    6.9056649    6.7911191    4.8635121  
  30 H       5.7848862    4.8144422    7.8343656    7.3757178    4.6124272  

               21 H         22 H         23 H         24 H         25 H     

   1 O       2.6098862 *  3.3228844    4.4068127    4.3152262    3.5752786  
   2 O       5.1486706    5.1906720    2.5699293 *  0.9703175 *  3.5007919  
   3 O       2.7155124 *  3.2908354    4.5500546    2.2658697 *  0.9645891 *
   4 O       4.8112746    4.9304830    3.3057245    4.7701807    5.2725917  
   5 O       2.0808162 *  2.0227010 *  6.9727202    6.2509270    4.2821331  
   6 O       6.3795690    7.3567388    3.1621407    4.8736449    6.1590667  
   7 N       5.8350632    6.3176917    1.0102016 *  3.2916519    5.1691123  
   8 C       4.1884045    4.2466629    2.5110182 *  1.9405965 *  3.2028956  
   9 C       4.3831146    4.9322861    2.1202036 *  2.7269602 *  3.8676879  
  10 C       2.8378256 *  2.8010228 *  4.0212958    2.5065222 *  1.9869346 *
  11 C       2.1576866 *  2.1576927 *  4.6706991    3.9371349    2.8449209 *
  12 C       3.9630736    4.5391934    3.2402487    4.0930186    4.3589338  
  13 C       1.0996356 *  1.0957454 *  6.1519654    4.9687555    2.8851585 *
  14 C       6.6334831    7.3560588    2.0556548 *  4.3355417    6.1212059  
  15 C       8.1101614    8.7347484    2.5722890 *  5.2447611    7.4269200  
  16 H       4.7570076    4.4818789    2.5322832 *  2.8080807 *  4.0442771  
  17 H       4.1653866    5.0506828    2.8350127 *  2.6375313 *  3.5052981  
  18 H       3.3048830    2.6794004 *  4.6193084    2.8532038 *  2.2544635 *
  19 H       3.0567067    2.4876929 *  4.7462934    4.4618491    3.7433347  
  20 H       4.4722252    5.3221559    3.7042026    4.8163900    5.0555175  
  21 H       0.0000000    1.7853311 *  6.3935997    4.9082148    2.4639612 *
  22 H       1.7853311 *  0.0000000    6.6521879    5.1638918    2.9410810 *
  23 H       6.3935997    6.6521879    0.0000000    3.2043813    5.4837390  
  24 H       4.9082148    5.1638918    3.2043813    0.0000000    2.9757653 *
  25 H       2.4639612 *  2.9410810 *  5.4837390    2.9757653 *  0.0000000  
  26 H       5.0670755    5.2081804    4.1774394    5.6883148    5.9125013  
  27 H       2.3447582 *  2.8203043 *  6.7410116    6.3303562    4.5803395  
  28 H       8.5319727    9.2518025    3.1421490    5.3137885    7.6252193  
  29 H       8.4141535    8.8248840    2.2885560 *  5.2315907    7.6221106  
  30 H       8.6928244    9.3724537    3.4851520    6.2490723    8.2493989  

               26 H         27 H         28 H         29 H         30 H     

   1 O       2.6291142 *  2.3978720 *  6.5142772    6.1958208    6.3505899  
   2 O       5.1602109    6.2775400    5.1159627    4.7217556    5.8896575  
   3 O       5.2298525    4.5048982    6.6853574    6.6666174    7.2888535  
   4 O       0.9664593 *  4.0986001    5.6537106    4.7782602    5.0940869  
   5 O       4.3730121    0.9681812 *  9.3112601    8.8898752    9.0981433  
   6 O       4.3079927    6.4029114    2.8176034 *  3.3046107    2.6321000 *
   7 N       3.6794851    6.0978632    3.0600636    2.5812188 *  3.2451036  
   8 C       3.8394529    4.9723000    5.3145924    4.7816830    5.6945924  
   9 C       3.2390253    4.8154222    4.3357928    4.0347758    4.5338822  
  10 C       4.2271239    4.0280796    6.6536536    6.2606461    7.0110937  
  11 C       3.3259171    2.5670267 *  7.2235242    6.7510971    7.2345172  
  12 C       1.9525523 *  3.6683788    5.2739822    4.8394919    4.9856456  
  13 C       4.4577479    1.9394819 *  8.5673591    8.2208838    8.6008804  
  14 C       4.2303480    6.7503632    2.1400018 *  2.1975628 *  2.1355014 *
  15 C       5.3216968    8.2032203    1.0952694 *  1.0940801 *  1.0922551 *
  16 H       3.5007015    5.1728249    5.6174447    4.7369689    5.7848862  
  17 H       4.0354010    4.9253527    4.3862452    4.5209806    4.8144422  
  18 H       4.8998711    4.5605713    7.4295869    6.9056649    7.8343656  
  19 H       2.9504847 *  2.8627144 *  7.5194013    6.7911191    7.3757178  
  20 H       2.2559930 *  3.9656420    5.0765714    4.8635121    4.6124272  
  21 H       5.0670755    2.3447582 *  8.5319727    8.4141535    8.6928244  
  22 H       5.2081804    2.8203043 *  9.2518025    8.8248840    9.3724537  
  23 H       4.1774394    6.7410116    3.1421490    2.2885560 *  3.4851520  
  24 H       5.6883148    6.3303562    5.3137885    5.2315907    6.2490723  
  25 H       5.9125013    4.5803395    7.6252193    7.6221106    8.2493989  
  26 H       0.0000000    3.8926835    6.2637716    5.3988317    5.4830709  
  27 H       3.8926835    0.0000000    8.8577877    8.5035920    8.5410459  
  28 H       6.2637716    8.8577877    0.0000000    1.7791347 *  1.7660680 *
  29 H       5.3988317    8.5035920    1.7791347 *  0.0000000    1.7850242 *
  30 H       5.4830709    8.5410459    1.7660680 *  1.7850242 *  0.0000000  

  * ... LESS THAN  3.000


     ATOMIC BASIS SET
     ----------------
 THE CONTRACTED PRIMITIVE FUNCTIONS HAVE BEEN UNNORMALIZED
 THE CONTRACTED BASIS FUNCTIONS ARE NOW NORMALIZED TO UNITY

  SHELL TYPE  PRIMITIVE        EXPONENT          CONTRACTION COEFFICIENT(S)

 O         

      1   S       1           322.0370000    0.059239393389
      1   S       2            48.4308000    0.351499960776
      1   S       3            10.4206000    0.707657921031

      2   L       4             7.4029400   -0.404453583190    0.244586106967
      2   L       5             1.5762000    1.221561761397    0.853955373466

      3   L       6             0.3736840    1.000000000000    1.000000000000

 O         

      4   S       7           322.0370000    0.059239393389
      4   S       8            48.4308000    0.351499960776
      4   S       9            10.4206000    0.707657921031

      5   L      10             7.4029400   -0.404453583190    0.244586106967
      5   L      11             1.5762000    1.221561761397    0.853955373466

      6   L      12             0.3736840    1.000000000000    1.000000000000

 O         

      7   S      13           322.0370000    0.059239393389
      7   S      14            48.4308000    0.351499960776
      7   S      15            10.4206000    0.707657921031

      8   L      16             7.4029400   -0.404453583190    0.244586106967
      8   L      17             1.5762000    1.221561761397    0.853955373466

      9   L      18             0.3736840    1.000000000000    1.000000000000

 O         

     10   S      19           322.0370000    0.059239393389
     10   S      20            48.4308000    0.351499960776
     10   S      21            10.4206000    0.707657921031

     11   L      22             7.4029400   -0.404453583190    0.244586106967
     11   L      23             1.5762000    1.221561761397    0.853955373466

     12   L      24             0.3736840    1.000000000000    1.000000000000

 O         

     13   S      25           322.0370000    0.059239393389
     13   S      26            48.4308000    0.351499960776
     13   S      27            10.4206000    0.707657921031

     14   L      28             7.4029400   -0.404453583190    0.244586106967
     14   L      29             1.5762000    1.221561761397    0.853955373466

     15   L      30             0.3736840    1.000000000000    1.000000000000

 O         

     16   S      31           322.0370000    0.059239393389
     16   S      32            48.4308000    0.351499960776
     16   S      33            10.4206000    0.707657921031

     17   L      34             7.4029400   -0.404453583190    0.244586106967
     17   L      35             1.5762000    1.221561761397    0.853955373466

     18   L      36             0.3736840    1.000000000000    1.000000000000

 N         

     19   S      37           242.7660000    0.059865700508
     19   S      38            36.4851000    0.352955002994
     19   S      39             7.8144900    0.706513005993

     20   L      40             5.4252200   -0.413300077430    0.237972016222
     20   L      41             1.1491500    1.224417266851    0.858953058551

     21   L      42             0.2832050    1.000000000000    1.000000000000

 C         

     22   S      43           172.2560000    0.061766907377
     22   S      44            25.9109000    0.358794042852
     22   S      45             5.5333500    0.700713083689

     23   L      46             3.6649800   -0.395895162119    0.236459946619
     23   L      47             0.7705450    1.215834355681    0.860618805716

     24   L      48             0.1958570    1.000000000000    1.000000000000

 C         

     25   S      49           172.2560000    0.061766907377
     25   S      50            25.9109000    0.358794042852
     25   S      51             5.5333500    0.700713083689

     26   L      52             3.6649800   -0.395895162119    0.236459946619
     26   L      53             0.7705450    1.215834355681    0.860618805716

     27   L      54             0.1958570    1.000000000000    1.000000000000

 C         

     28   S      55           172.2560000    0.061766907377
     28   S      56            25.9109000    0.358794042852
     28   S      57             5.5333500    0.700713083689

     29   L      58             3.6649800   -0.395895162119    0.236459946619
     29   L      59             0.7705450    1.215834355681    0.860618805716

     30   L      60             0.1958570    1.000000000000    1.000000000000

 C         

     31   S      61           172.2560000    0.061766907377
     31   S      62            25.9109000    0.358794042852
     31   S      63             5.5333500    0.700713083689

     32   L      64             3.6649800   -0.395895162119    0.236459946619
     32   L      65             0.7705450    1.215834355681    0.860618805716

     33   L      66             0.1958570    1.000000000000    1.000000000000

 C         

     34   S      67           172.2560000    0.061766907377
     34   S      68            25.9109000    0.358794042852
     34   S      69             5.5333500    0.700713083689

     35   L      70             3.6649800   -0.395895162119    0.236459946619
     35   L      71             0.7705450    1.215834355681    0.860618805716

     36   L      72             0.1958570    1.000000000000    1.000000000000

 C         

     37   S      73           172.2560000    0.061766907377
     37   S      74            25.9109000    0.358794042852
     37   S      75             5.5333500    0.700713083689

     38   L      76             3.6649800   -0.395895162119    0.236459946619
     38   L      77             0.7705450    1.215834355681    0.860618805716

     39   L      78             0.1958570    1.000000000000    1.000000000000

 C         

     40   S      79           172.2560000    0.061766907377
     40   S      80            25.9109000    0.358794042852
     40   S      81             5.5333500    0.700713083689

     41   L      82             3.6649800   -0.395895162119    0.236459946619
     41   L      83             0.7705450    1.215834355681    0.860618805716

     42   L      84             0.1958570    1.000000000000    1.000000000000

 C         

     43   S      85           172.2560000    0.061766907377
     43   S      86            25.9109000    0.358794042852
     43   S      87             5.5333500    0.700713083689

     44   L      88             3.6649800   -0.395895162119    0.236459946619
     44   L      89             0.7705450    1.215834355681    0.860618805716

     45   L      90             0.1958570    1.000000000000    1.000000000000

 H         

     46   S      91             5.4471780    0.156284978695
     46   S      92             0.8245472    0.904690876670

     47   S      93             0.1831916    1.000000000000

 H         

     48   S      94             5.4471780    0.156284978695
     48   S      95             0.8245472    0.904690876670

     49   S      96             0.1831916    1.000000000000

 H         

     50   S      97             5.4471780    0.156284978695
     50   S      98             0.8245472    0.904690876670

     51   S      99             0.1831916    1.000000000000

 H         

     52   S     100             5.4471780    0.156284978695
     52   S     101             0.8245472    0.904690876670

     53   S     102             0.1831916    1.000000000000

 H         

     54   S     103             5.4471780    0.156284978695
     54   S     104             0.8245472    0.904690876670

     55   S     105             0.1831916    1.000000000000

 H         

     56   S     106             5.4471780    0.156284978695
     56   S     107             0.8245472    0.904690876670

     57   S     108             0.1831916    1.000000000000

 H         

     58   S     109             5.4471780    0.156284978695
     58   S     110             0.8245472    0.904690876670

     59   S     111             0.1831916    1.000000000000

 H         

     60   S     112             5.4471780    0.156284978695
     60   S     113             0.8245472    0.904690876670

     61   S     114             0.1831916    1.000000000000

 H         

     62   S     115             5.4471780    0.156284978695
     62   S     116             0.8245472    0.904690876670

     63   S     117             0.1831916    1.000000000000

 H         

     64   S     118             5.4471780    0.156284978695
     64   S     119             0.8245472    0.904690876670

     65   S     120             0.1831916    1.000000000000

 H         

     66   S     121             5.4471780    0.156284978695
     66   S     122             0.8245472    0.904690876670

     67   S     123             0.1831916    1.000000000000

 H         

     68   S     124             5.4471780    0.156284978695
     68   S     125             0.8245472    0.904690876670

     69   S     126             0.1831916    1.000000000000

 H         

     70   S     127             5.4471780    0.156284978695
     70   S     128             0.8245472    0.904690876670

     71   S     129             0.1831916    1.000000000000

 H         

     72   S     130             5.4471780    0.156284978695
     72   S     131             0.8245472    0.904690876670

     73   S     132             0.1831916    1.000000000000

 H         

     74   S     133             5.4471780    0.156284978695
     74   S     134             0.8245472    0.904690876670

     75   S     135             0.1831916    1.000000000000

 TOTAL NUMBER OF BASIS SET SHELLS             =   75
 NUMBER OF CARTESIAN GAUSSIAN BASIS FUNCTIONS =  165
 NUMBER OF ELECTRONS                          =  118
 CHARGE OF MOLECULE                           =    0
 SPIN MULTIPLICITY                            =    1
 NUMBER OF OCCUPIED ORBITALS (ALPHA)          =   59
 NUMBER OF OCCUPIED ORBITALS (BETA )          =   59
 TOTAL NUMBER OF ATOMS                        =   30
 THE NUCLEAR REPULSION ENERGY IS     1145.1044982604

 SELECTED MURRAY-HANDY-LAMING RADIAL GRID

 LEGACY BECKE'S FUZZY CELL METHOD

 SELECTED ORIGINAL BECKE'S PARTITION FUNCTION

     LEBEDEV GRID-BASED DFT OPTIONS
     ------------------------------
     DFTTYP=B3LYP   
     NRAD  =      96     NLEB  =     302
     NRAD0 =      24     NLEB0 =     110
     SWOFF =    5.00E-03 (PURE SCF -> DFT)
     SWITCH=    3.00E-04 (COARSE -> TIGHT GRID)
     THRESH=    0.00E+00 GTHRE=    1.00E+00

 GRIMME'S EMPIRICAL DISPERSION CORRECTION= F

     $CONTRL OPTIONS
     ---------------
 SCFTYP=RHF          RUNTYP=OPTIMIZE     EXETYP=RUN     
 MPLEVL=       0     CITYP =NONE         CCTYP =NONE         VBTYP =NONE    
 DFTTYP=B3LYP        TDDFT =NONE    
 MULT  =       1     ICHARG=       0     NZVAR =       0     COORD =UNIQUE  
 PP    =NONE         RELWFN=NONE         LOCAL =NONE         NUMGRD=       F
 ISPHER=      -1     NOSYM =       0     MAXIT =      60     UNITS =ANGS    
 PLTORB=       F     MOLPLT=       F     AIMPAC=       F     FRIEND=        
 NPRINT=       7     IREST =       0     GEOM  =INPUT   
 NORMF =       0     NORMP =       0     ITOL  =      20     ICUT  =       9
 INTTYP=BEST         GRDTYP=BEST         QMTTOL= 1.0E-06

     $SYSTEM OPTIONS
     ---------------
  REPLICATED MEMORY=    30000000 WORDS (ON EVERY NODE).
 DISTRIBUTED MEMDDI=        1000 MILLION WORDS IN AGGREGATE,
 MEMDDI DISTRIBUTED OVER   8 PROCESSORS IS   125000000 WORDS/PROCESSOR.
 TOTAL MEMORY REQUESTED ON EACH PROCESSOR=   155000000 WORDS.
 TIMLIM=      525600.00 MINUTES, OR     365.0 DAYS.
 PARALL= T  BALTYP=  DLB     KDIAG=    0  COREFL= F
 MXSEQ2=     300 MXSEQ3=     150  mem10=         0

          ----------------
          PROPERTIES INPUT
          ----------------

     MOMENTS            FIELD           POTENTIAL          DENSITY
 IEMOM =       1   IEFLD =       0   IEPOT =       0   IEDEN =       0
 WHERE =COMASS     WHERE =NUCLEI     WHERE =NUCLEI     WHERE =NUCLEI  
 OUTPUT=BOTH       OUTPUT=BOTH       OUTPUT=BOTH       OUTPUT=BOTH    
 IEMINT=       0   IEFINT=       0                     IEDINT=       0
                                                       MORB  =       0
          EXTRAPOLATION IN EFFECT
          DIIS IN EFFECT
 ORBITAL PRINTING OPTION: NPREO=     1   165     2     1

     -------------------------------
     INTEGRAL TRANSFORMATION OPTIONS
     -------------------------------
     NWORD  =            0
     CUTOFF = 1.0E-09     MPTRAN =       0
     DIRTRF =       T     AOINTS =DUP     

          ----------------------
          INTEGRAL INPUT OPTIONS
          ----------------------
 NOPK  =       1 NORDER=       0 SCHWRZ=       T

     ------------------------------------------
     THE POINT GROUP IS C1 , NAXIS= 0, ORDER= 1
     ------------------------------------------

     DIMENSIONS OF THE SYMMETRY SUBSPACES ARE
 A   =  165

 ..... DONE SETTING UP THE RUN .....
 CPU     0: STEP CPU TIME=     0.02 TOTAL CPU TIME=          0.0 (      0.0 MIN)
 TOTAL WALL CLOCK TIME=          0.0 SECONDS, CPU UTILIZATION IS    66.67%


          -----------------------------
          STATIONARY POINT LOCATION RUN
          -----------------------------

 OBTAINING INITIAL HESSIAN, HESS=GUESS   
 CARTESIAN COORDINATE OPTIMIZATION USING BADGER'S RULE FORCE CONSTANT GUESS

          PARAMETERS CONTROLLING GEOMETRY SEARCH ARE
          METHOD =QA                  UPHESS =BFGS    
          NNEG   =         0          NFRZ   =         0
          NSTEP  =       999          IFOLOW =         1
          HESS   =GUESS               RESTAR =         F
          IHREP  =         0          HSSEND =         F
          NPRT   =         0          NPUN   =         0
          OPTTOL = 1.000E-04          RMIN   = 1.500E-03
          RMAX   = 1.000E-01          RLIM   = 7.000E-02
          DXMAX  = 3.000E-01          PURIFY =         F
          MOVIE  =         F          TRUPD  =         T
          TRMAX  = 5.000E-01          TRMIN  = 5.000E-02
          ITBMAT =         5          STPT   =         F
          STSTEP = 1.000E-02          PROJCT=          T

 BEGINNING GEOMETRY SEARCH POINT NSERCH=   0 ...

 COORDINATES OF ALL ATOMS ARE (ANGS)
   ATOM   CHARGE       X              Y              Z
 ------------------------------------------------------------
 O           8.0  -1.3738373000  -1.0023640000  -0.3824153000
 O           8.0   0.6511419000   2.4809759000   0.8098730000
 O           8.0  -1.3857618000   1.9629783000  -0.9544941000
 O           8.0   0.0102584000  -1.6344431000   1.4094179000
 O           8.0  -4.1544757000  -1.3106966000  -0.1665085000
 O           8.0   2.7541533000  -1.2420423000  -1.3258469000
 N           7.0   2.1049019000   0.0558531000   0.4214360000
 C           6.0  -0.0128314000   1.2258577000   0.8276837000
 C           6.0   0.7213964000   0.1634569000  -0.0115786000
 C           6.0  -1.4639160000   1.3523252000   0.3420502000
 C           6.0  -2.1426478000  -0.0272914000   0.3392930000
 C           6.0  -0.0378953000  -1.1780767000   0.0730479000
 C           6.0  -3.5290127000  -0.0422693000  -0.2971712000
 C           6.0   3.0449963000  -0.6088326000  -0.3100877000
 C           6.0   4.4745407000  -0.5129124000   0.1956788000
 H           1.0  -0.0222393000   0.9075187000   1.8756170000
 H           1.0   0.7005382000   0.4528696000  -1.0687762000
 H           1.0  -2.0061496000   2.0126324000   1.0342375000
 H           1.0  -2.2374965000  -0.3481966000   1.3869605000
 H           1.0   0.4017862000  -1.9040337000  -0.6139485000
 H           1.0  -3.4497234000   0.2445373000  -1.3557805000
 H           1.0  -4.1789767000   0.6753888000   0.2158313000
 H           1.0   2.4010926000   0.6381006000   1.1919983000
 H           1.0   0.4827949000   2.8795509000  -0.0586391000
 H           1.0  -2.2275251000   2.3767409000  -1.1795880000
 H           1.0  -0.2805320000  -2.5557559000   1.4352476000
 H           1.0  -3.5631978000  -1.9620348000  -0.5708894000
 H           1.0   5.0343312000   0.1662847000  -0.4561961000
 H           1.0   4.5488568000  -0.1514969000   1.2256629000
 H           1.0   4.9371297000  -1.4996250000   0.1219845000

          ********************
          1 ELECTRON INTEGRALS
          ********************
 ...... END OF ONE-ELECTRON INTEGRALS ......
 CPU     0: STEP CPU TIME=     0.01 TOTAL CPU TIME=          0.0 (      0.0 MIN)
 TOTAL WALL CLOCK TIME=          0.1 SECONDS, CPU UTILIZATION IS    60.00%

          -------------
          GUESS OPTIONS
          -------------
          GUESS =HUCKEL            NORB  =       0          NORDER=       0
          MIX   =       F          PRTMO =       F          PUNMO =       F
          TOLZ  = 1.0E-08          TOLE  = 1.0E-05
          SYMDEN=       F          PURIFY=       F

 INITIAL GUESS ORBITALS GENERATED BY HUCKEL   ROUTINE.
 HUCKEL GUESS REQUIRES    252105 WORDS.

 SYMMETRIES FOR INITIAL GUESS ORBITALS FOLLOW.   BOTH SET(S).
    59 ORBITALS ARE OCCUPIED (   15 CORE ORBITALS).
    16=A       17=A       18=A       19=A       20=A       21=A       22=A   
    23=A       24=A       25=A       26=A       27=A       28=A       29=A   
    30=A       31=A       32=A       33=A       34=A       35=A       36=A   
    37=A       38=A       39=A       40=A       41=A       42=A       43=A   
    44=A       45=A       46=A       47=A       48=A       49=A       50=A   
    51=A       52=A       53=A       54=A       55=A       56=A       57=A   
    58=A       59=A       60=A       61=A       62=A       63=A       64=A   
    65=A       66=A       67=A       68=A       69=A   
 ...... END OF INITIAL ORBITAL SELECTION ......
 CPU     0: STEP CPU TIME=     0.04 TOTAL CPU TIME=          0.1 (      0.0 MIN)
 TOTAL WALL CLOCK TIME=          0.1 SECONDS, CPU UTILIZATION IS    70.00%

                    ----------------------
                    AO INTEGRAL TECHNOLOGY
                    ----------------------
     S,P,L SHELL ROTATED AXIS INTEGRALS, REPROGRAMMED BY
        KAZUYA ISHIMURA (IMS) AND JOSE SIERRA (SYNSTAR).
     S,P,D,L SHELL ROTATED AXIS INTEGRALS PROGRAMMED BY
        KAZUYA ISHIMURA (INSTITUTE FOR MOLECULAR SCIENCE).
     S,P,D,F,G SHELL TO TOTAL QUARTET ANGULAR MOMENTUM SUM 5,
        ERIC PROGRAM BY GRAHAM FLETCHER (ELORET AND NASA ADVANCED
        SUPERCOMPUTING DIVISION, AMES RESEARCH CENTER).
     S,P,D,F,G,L SHELL GENERAL RYS QUADRATURE PROGRAMMED BY
        MICHEL DUPUIS (PACIFIC NORTHWEST NATIONAL LABORATORY).

          --------------------
          2 ELECTRON INTEGRALS
          --------------------

 DIRECT SCF METHOD SKIPS INTEGRAL STORAGE ON DISK.
 DIRECT TRANSFORMATION SKIPS AO INTEGRAL STORAGE ON DISK.
  ...... END OF TWO-ELECTRON INTEGRALS .....
 CPU     0: STEP CPU TIME=     0.01 TOTAL CPU TIME=          0.1 (      0.0 MIN)
 TOTAL WALL CLOCK TIME=          0.1 SECONDS, CPU UTILIZATION IS    72.73%

          --------------------------
             R-B3LYP SCF CALCULATION
          --------------------------

     NUCLEAR ENERGY =      1145.1044982604
     MAXIT =   60     NPUNCH=    2
     EXTRAP=T  DAMP=F  SHIFT=F  RSTRCT=F  DIIS=T  DEM=F  SOSCF=F
         DENSITY MATRIX CONVERGENCE THRESHOLD=  2.00E-05
     COARSE -> FINE DFT GRID SWITCH THRESHOLD=  3.00E-04 (SWITCH IN $DFT)
                   HF -> DFT SWITCH THRESHOLD=  5.00E-03 (SWOFF IN $DFT)
     MEMORY REQUIRED FOR RHF ITERS=   1215523 WORDS.

 DIRECT SCF CALCULATION, SCHWRZ=T   FDIFF=T,  DIRTHR=  0.00E+00 NITDIR=10
 SCHWARZ INEQUALITY OVERHEAD:     11974 INTEGRALS, T=        0.00

 DFT CODE IS SWITCHING FROM THE FINE GRID NRAD= 96,  NLEB=  302
                      TO THE COARSE GRID NRAD0= 24, NLEB0=  110

     EXCHANGE FUNCTIONAL   =B88&HFX   
     CORRELATION FUNCTIONAL=LYP88&VWN5
     DFT THRESHOLD         =.460E-08
     GRID CHANGE THRESHOLD =.300E-03
 FOR AN EULER-MACLAURIN QUADRATURE USING  96 RADIAL POINTS:
 SMALLEST GAUSSIAN PRIMITIVE EXPONENT=        0.1831915800 OF TYPE -S-
 ON ATOM NUMBER  16 HAS RADIAL NORMALIZATION=  1.000000
  LARGEST GAUSSIAN PRIMITIVE EXPONENT=      322.0370000000 OF TYPE -S-
 ON ATOM NUMBER   1 HAS RADIAL NORMALIZATION=  1.000000
 DFT IS SWITCHED OFF, PERFORMING PURE SCF UNTIL SWOFF THRESHOLD IS REACHED.

                                                                                   NONZERO     BLOCKS
 ITER EX DEM     TOTAL ENERGY        E CHANGE  DENSITY CHANGE    DIIS ERROR      INTEGRALS    SKIPPED
   1  0  0     -808.5358131779  -808.5358131779   0.903437430   0.553376433       39395998    2628703
          * * *   INITIATING DIIS PROCEDURE   * * *
   2  1  0     -810.5674328751    -2.0316196971   0.178044141   0.149676023       39343620    2654388
   3  2  0     -810.6928305922    -0.1253977171   0.132856499   0.124418154       38839923    2741230
   4  3  0     -810.7679159372    -0.0750853450   0.036611273   0.013620535       38049745    2820392
   5  4  0     -810.7712094675    -0.0032935303   0.004914203   0.003349391       37078656    2883426
 CONVERGED TO SWOFF, SO DFT CALCULATION IS NOW SWITCHED ON.
          * * *   INITIATING DIIS PROCEDURE   * * *
   6  5  0     -814.9039021595    -4.1326926920   0.115787797   0.062608110       39461770    2604670
   7  6  0     -814.9641813497    -0.0602791903   0.105963479   0.031775957       38999160    2728375
   8  7  0     -814.9629614773     0.0012198724   0.049922613   0.045820616       38311519    2793274
   9  8  0     -814.9785860766    -0.0156245992   0.022158248   0.016251806       37694884    2845060
  10  9  0     -814.9800100759    -0.0014239994   0.005955768   0.003681556       35978214    2941325
  11 10  0     -814.9800972986    -0.0000872226   0.000665801   0.000376789       33771736    3045979
  12 11  0     -814.9800999938    -0.0000026953   0.000108656   0.000084228       31353761    3133150
 DFT CODE IS SWITCHING BACK TO THE FINE GRID
          * * *   INITIATING DIIS PROCEDURE   * * *
  13 12  0     -814.9949245774    -0.0148245835   0.003644588   0.001191965       39484766    2594721
  14 13  0     -814.9949835744    -0.0000589970   0.002862204   0.000681616       35032378    2992683
  15 14  0     -814.9949823190     0.0000012553   0.001148755   0.000740777       33017913    3078725
  16 15  0     -814.9949894597    -0.0000071407   0.000344732   0.000236661       31569406    3139446
  17 16  0     -814.9949897694    -0.0000003097   0.000090941   0.000084252       28287152    3262489
  18 17  0     -814.9949898053    -0.0000000359   0.000018329   0.000010238       25833008    3349616
  19 18  0     -814.9949898071    -0.0000000018   0.000007216   0.000002790       23071135    3436694

          -----------------
          DENSITY CONVERGED
          -----------------
     TIME TO FORM FOCK OPERATORS=      43.1 SECONDS (       2.3 SEC/ITER)
     FOCK TIME ON FIRST ITERATION=       0.4, LAST ITERATION=       5.3
     TIME TO SOLVE SCF EQUATIONS=       0.3 SECONDS (       0.0 SEC/ITER)

 FINAL R-B3LYP ENERGY IS     -814.9949898071 AFTER  19 ITERATIONS
 DFT EXCHANGE + CORRELATION ENERGY =       -86.4212668535
 TOTAL ELECTRON NUMBER             =       118.0002803074

          ------------
          EIGENVECTORS
          ------------

                      1          2          3          4          5
                  -19.0478   -19.0455   -19.0360   -19.0258   -19.0157
                     A          A          A          A          A   
    1  O  1  S   -0.011936   0.982323  -0.025019  -0.007259  -0.002219
    2  O  1  S   -0.001581   0.107432  -0.001501  -0.000110  -0.000095
    3  O  1  X    0.000236   0.001437  -0.000063   0.000047  -0.000555
    4  O  1  Y    0.000055   0.001805  -0.000175   0.000012  -0.000061
    5  O  1  Z   -0.000011   0.002940   0.000496   0.000185  -0.000189
    6  O  1  S    0.002929  -0.059127  -0.002835  -0.002413   0.000618
    7  O  1  X   -0.001851  -0.004645  -0.001766  -0.000687   0.001691
    8  O  1  Y    0.000939  -0.005559   0.001332  -0.000583   0.000391
    9  O  1  Z    0.000356  -0.008958  -0.003481  -0.001230   0.000780
   10  O  2  S    0.002807   0.007572   0.004435   0.982539  -0.002314
   11  O  2  S    0.000403   0.001487   0.000679   0.105972  -0.000117
   12  O  2  X   -0.000201  -0.000035   0.000056  -0.002210   0.000003
   13  O  2  Y    0.000152  -0.000193  -0.000137  -0.002317  -0.000007
   14  O  2  Z   -0.000022  -0.000075   0.000064  -0.002322   0.000034
   15  O  2  S    0.000577  -0.003248  -0.001122  -0.054203  -0.000619
   16  O  2  X    0.000317   0.000479  -0.000265   0.006992   0.000245
   17  O  2  Y   -0.001279   0.001457   0.000861   0.009188   0.000243
   18  O  2  Z   -0.000107   0.000499  -0.000282   0.004921  -0.000100
   19  O  3  S    0.982452   0.011763  -0.002012  -0.002917  -0.001715
   20  O  3  S    0.105469   0.001001  -0.000081  -0.000223   0.000077
   21  O  3  X   -0.002477  -0.000146   0.000048   0.000562  -0.000080
   22  O  3  Y   -0.000294  -0.000130  -0.000007   0.000017   0.000077
   23  O  3  Z    0.002734   0.000007   0.000014   0.000127   0.000012
   24  O  3  S   -0.052533   0.001519  -0.000523   0.001387  -0.000999
   25  O  3  X    0.004940   0.000524  -0.000217  -0.001864   0.000661
   26  O  3  Y    0.002884  -0.000179   0.000243  -0.000316  -0.000022
   27  O  3  Z   -0.009608   0.000830  -0.000326   0.000321  -0.000183
   28  O  4  S    0.001727   0.025345   0.982231  -0.004569   0.001328
   29  O  4  S    0.000271   0.003984   0.105795  -0.000243   0.000007
   30  O  4  X    0.000018  -0.000492  -0.001100  -0.000129   0.000031
   31  O  4  Y    0.000036   0.000246  -0.001270   0.000009  -0.000029
   32  O  4  Z   -0.000002  -0.000235  -0.003519  -0.000035   0.000009
   33  O  4  S   -0.000307  -0.005919  -0.053576  -0.000856   0.000502
   34  O  4  X   -0.000069   0.002769   0.002729   0.000568  -0.000148
   35  O  4  Y   -0.000175  -0.001848   0.000423  -0.000422   0.000219
   36  O  4  Z    0.000116   0.002762   0.011840   0.000388  -0.000243
   37  O  5  S    0.001759   0.002222  -0.001413   0.002336   0.982478
   38  O  5  S    0.000448   0.000397  -0.000287   0.000380   0.105178
   39  O  5  X    0.000088   0.000094  -0.000006  -0.000032   0.003268
   40  O  5  Y    0.000027   0.000001  -0.000013   0.000062   0.001550
   41  O  5  Z   -0.000113   0.000201   0.000013   0.000018  -0.001482
   42  O  5  S   -0.001165  -0.000028   0.000695  -0.000837  -0.050695
   43  O  5  X   -0.000606   0.000122   0.000161  -0.000053  -0.008356
   44  O  5  Y   -0.000310   0.000282   0.000218  -0.000506  -0.006482
   45  O  5  Z    0.000549  -0.000812  -0.000014  -0.000127   0.003184
   46  O  6  S    0.000001   0.000008  -0.001089   0.000201   0.000167
   47  O  6  S    0.000004   0.000019  -0.000352   0.000046   0.000041
   48  O  6  X    0.000023   0.000028   0.000066  -0.000019  -0.000005
   49  O  6  Y    0.000000   0.000064  -0.000010  -0.000015  -0.000002
   50  O  6  Z   -0.000012  -0.000001  -0.000054   0.000013   0.000005
   51  O  6  S   -0.000047  -0.000269   0.001001   0.000019  -0.000093
   52  O  6  X   -0.000116   0.000098  -0.000288   0.000014   0.000009
   53  O  6  Y    0.000010  -0.000252   0.000130   0.000089  -0.000003
   54  O  6  Z    0.000032  -0.000102   0.000355   0.000006  -0.000036
   55  N  7  S    0.000051  -0.000047  -0.000019  -0.000007   0.000017
   56  N  7  S    0.000291  -0.000302   0.000006   0.000028   0.000092
   57  N  7  X   -0.000101   0.000222   0.000006  -0.000289  -0.000009
   58  N  7  Y    0.000049   0.000209  -0.000204   0.000054  -0.000043
   59  N  7  Z   -0.000046  -0.000025  -0.000298   0.000285  -0.000007
   60  N  7  S   -0.001513   0.000363   0.001846   0.000743  -0.000533
   61  N  7  X    0.001273  -0.001312  -0.001743   0.000717   0.000329
   62  N  7  Y   -0.000634  -0.000402   0.000852   0.000054   0.000218
   63  N  7  Z    0.000247   0.000259   0.001148  -0.001309   0.000041
   64  C  8  S    0.000226   0.000044   0.000049  -0.000995  -0.000059
   65  C  8  S    0.000819   0.000791   0.000690  -0.004138  -0.000340
   66  C  8  X    0.001115  -0.000410   0.000014   0.000581  -0.000041
   67  C  8  Y   -0.000274  -0.000749  -0.000487   0.001052  -0.000128
   68  C  8  Z    0.000220   0.000354  -0.000243   0.000345  -0.000027
   69  C  8  S   -0.007055   0.001593   0.000884   0.026113   0.002700
   70  C  8  X   -0.001224   0.002811   0.004381   0.006471  -0.001566
   71  C  8  Y   -0.001183   0.003783  -0.000430   0.014404   0.001578
   72  C  8  Z    0.004858  -0.004357  -0.000088  -0.004926  -0.000420
   73  C  9  S    0.000066   0.000245   0.000346   0.000233  -0.000045
   74  C  9  S    0.000758   0.000810   0.001614   0.000796  -0.000217
   75  C  9  X   -0.000581   0.000667   0.000221   0.000158  -0.000104
   76  C  9  Y    0.000050   0.000793   0.001185  -0.000222  -0.000003
   77  C  9  Z    0.000019   0.000099   0.000243  -0.000476  -0.000097
   78  C  9  S    0.000420  -0.007288  -0.010363  -0.006049   0.001755
   79  C  9  X    0.003165   0.001979   0.001622   0.000441  -0.000023
   80  C  9  Y    0.002904  -0.000599   0.000239  -0.005334  -0.000681
   81  C  9  Z    0.001518  -0.000249  -0.006532   0.000824   0.000949
   82  C 10  S   -0.001003   0.000121  -0.000164   0.000260  -0.000077
   83  C 10  S   -0.004511   0.000309  -0.000830   0.000966  -0.000581
   84  C 10  X   -0.000567   0.000499  -0.000004  -0.000490   0.000634
   85  C 10  Y    0.001223   0.000765  -0.000296  -0.000061   0.000200
   86  C 10  Z   -0.000986  -0.000165   0.000038  -0.000391   0.000226
   87  C 10  S    0.022349  -0.002256   0.006079  -0.007317   0.000377
   88  C 10  X    0.003771  -0.002591   0.001463  -0.004069  -0.004430
   89  C 10  Y    0.003457  -0.000070  -0.001330  -0.002125  -0.000928
   90  C 10  Z   -0.015282   0.004486   0.000447   0.001126  -0.001557
   91  C 11  S    0.000262  -0.000771   0.000186  -0.000063   0.000236
   92  C 11  S    0.001064  -0.002939   0.001442  -0.000397   0.000889
   93  C 11  X   -0.000371   0.001291   0.000625  -0.000633   0.000453
   94  C 11  Y   -0.000859  -0.001458  -0.000172  -0.000317   0.000224
   95  C 11  Z   -0.000248  -0.000165  -0.000025  -0.000198   0.000115
   96  C 11  S   -0.006210   0.017506  -0.003467  -0.000352  -0.007529
   97  C 11  X   -0.001170   0.004082  -0.004230   0.004411   0.003775
   98  C 11  Y    0.001010  -0.007140  -0.000880   0.000546   0.000519
   99  C 11  Z    0.006572  -0.009447  -0.000647   0.000433   0.000969
  100  C 12  S   -0.000093  -0.000971  -0.001097  -0.000119   0.000088
  101  C 12  S   -0.000385  -0.003908  -0.004869  -0.000780   0.000356
  102  C 12  X   -0.000170  -0.001718   0.000027   0.000010   0.000232
  103  C 12  Y    0.000270  -0.000223  -0.001599  -0.000639   0.000034
  104  C 12  Z    0.000035  -0.000341   0.001227  -0.000357   0.000096
  105  C 12  S    0.003766   0.022361   0.025944   0.000725  -0.002479
  106  C 12  X    0.000371  -0.011134  -0.001686  -0.002304   0.000383
  107  C 12  Y    0.000898   0.003951   0.000511   0.002440  -0.000932
  108  C 12  Z   -0.000828  -0.000235   0.015725   0.001893  -0.000344
  109  C 13  S   -0.000010   0.000207   0.000061  -0.000067  -0.000883
  110  C 13  S    0.000258   0.000828   0.000404  -0.000340  -0.003525
  111  C 13  X    0.000219  -0.000633   0.000069   0.000178  -0.000802
  112  C 13  Y    0.000358   0.000138  -0.000071   0.000089  -0.001712
  113  C 13  Z    0.000381  -0.000419   0.000030  -0.000066  -0.000020
  114  C 13  S    0.002062  -0.006413  -0.002239   0.003122   0.022743
  115  C 13  X    0.001753  -0.003651  -0.000879   0.000532  -0.002687
  116  C 13  Y   -0.002568   0.001573   0.000710  -0.000832  -0.010683
  117  C 13  Z   -0.001974   0.002291  -0.000871   0.001444   0.002550
  118  C 14  S    0.000007  -0.000019   0.000016   0.000005   0.000001
  119  C 14  S    0.000071  -0.000209   0.000219  -0.000056   0.000029
  120  C 14  X   -0.000045   0.000321  -0.000471   0.000112  -0.000028
  121  C 14  Y    0.000039   0.000075   0.000065  -0.000118   0.000002
  122  C 14  Z   -0.000039  -0.000029   0.000140  -0.000049   0.000005
  123  C 14  S   -0.000452   0.000372   0.000816  -0.000805   0.000045
  124  C 14  X    0.000349  -0.001554   0.001587   0.000555  -0.000020
  125  C 14  Y   -0.000277   0.000101   0.000670  -0.000273  -0.000069
  126  C 14  Z   -0.000262  -0.000015   0.000920  -0.000153  -0.000042
  127  C 15  S    0.000003  -0.000029   0.000030   0.000004   0.000002
  128  C 15  S    0.000027  -0.000195   0.000153   0.000031   0.000016
  129  C 15  X   -0.000012   0.000022   0.000089  -0.000006  -0.000013
  130  C 15  Y   -0.000020  -0.000051   0.000002   0.000028   0.000008
  131  C 15  Z    0.000001   0.000026   0.000014  -0.000020  -0.000002
  132  C 15  S   -0.000088   0.001025  -0.001503  -0.000138  -0.000004
  133  C 15  X    0.000012  -0.000510   0.000593   0.000024   0.000033
  134  C 15  Y    0.000134   0.000124  -0.000066  -0.000039  -0.000019
  135  C 15  Z    0.000067  -0.000394   0.000188   0.000165   0.000010
  136  H 16  S   -0.000485   0.000814  -0.000357  -0.001099  -0.000048
  137  H 16  S   -0.000004   0.001903   0.000707  -0.000224   0.000042
  138  H 17  S   -0.000115   0.000550  -0.000464   0.001021   0.000042
  139  H 17  S    0.000681   0.000335   0.000021   0.000784   0.000284
  140  H 18  S   -0.000892  -0.000690  -0.000248   0.000463  -0.000280
  141  H 18  S    0.000083  -0.000156  -0.000086  -0.000188  -0.000256
  142  H 19  S   -0.000686  -0.000928  -0.000054  -0.000213   0.000509
  143  H 19  S   -0.000258   0.000235   0.000841   0.000211   0.000167
  144  H 20  S   -0.000277  -0.001227  -0.001101   0.000312   0.000073
  145  H 20  S   -0.000461  -0.000524   0.000602   0.001539  -0.000087
  146  H 21  S   -0.000360   0.000808   0.000081   0.000076  -0.001403
  147  H 21  S   -0.000771   0.001180  -0.000262   0.000244  -0.001161
  148  H 22  S    0.000647  -0.000338   0.000115  -0.000160  -0.001520
  149  H 22  S    0.000833  -0.000205  -0.000142  -0.000296  -0.001609
  150  H 23  S    0.000185   0.000060  -0.000273  -0.000038  -0.000046
  151  H 23  S   -0.000312  -0.000061  -0.000574   0.000189   0.000055
  152  H 24  S   -0.000512   0.000279  -0.000048   0.003107  -0.000038
  153  H 24  S    0.001723  -0.000638  -0.000353   0.005638  -0.000047
  154  H 25  S    0.003050   0.000175  -0.000049  -0.000608  -0.000099
  155  H 25  S    0.005601   0.000259  -0.000021  -0.000141   0.000685
  156  H 26  S   -0.000007   0.000443   0.003428   0.000064  -0.000005
  157  H 26  S    0.000009  -0.000854   0.004936  -0.000025   0.000033
  158  H 27  S    0.000317  -0.000448   0.000057  -0.000046   0.003095
  159  H 27  S   -0.000424   0.000954  -0.000151  -0.000150   0.005824
  160  H 28  S   -0.000002  -0.000075   0.000089   0.000011   0.000001
  161  H 28  S   -0.000018  -0.000131   0.000010   0.000097   0.000010
  162  H 29  S   -0.000013  -0.000055   0.000032  -0.000009   0.000011
  163  H 29  S   -0.000011   0.000115   0.000157  -0.000053  -0.000022
  164  H 30  S    0.000021  -0.000044   0.000048   0.000014   0.000002
  165  H 30  S    0.000050   0.000099   0.000034  -0.000053  -0.000026

                      6          7          8          9         10
                  -18.9836   -14.2632   -10.2177   -10.2125   -10.1863
                     A          A          A          A          A   
    1  O  1  S   -0.000030  -0.000014  -0.000043  -0.000024   0.000042
    2  O  1  S   -0.000004  -0.000260  -0.000227  -0.000234  -0.000033
    3  O  1  X    0.000007  -0.000092   0.000294  -0.000155  -0.000087
    4  O  1  Y   -0.000074  -0.000211   0.000023  -0.000038  -0.000169
    5  O  1  Z    0.000009   0.000093   0.000438   0.000123  -0.000221
    6  O  1  S   -0.000133   0.000528   0.006937   0.000876  -0.002102
    7  O  1  X   -0.000125  -0.000237   0.004346   0.000777   0.002251
    8  O  1  Y    0.000381   0.001167  -0.001460   0.000201  -0.002530
    9  O  1  Z   -0.000003  -0.000321  -0.001238  -0.000504   0.000211
   10  O  2  S   -0.000194  -0.000014  -0.000029  -0.000017   0.000049
   11  O  2  S   -0.000001   0.000028  -0.000378  -0.000138   0.000100
   12  O  2  X   -0.000041   0.000042  -0.000129  -0.000011   0.000113
   13  O  2  Y    0.000028  -0.000052   0.000286   0.000048   0.000273
   14  O  2  Z   -0.000026  -0.000105   0.000062  -0.000092   0.000061
   15  O  2  S   -0.000037   0.000750   0.000689   0.000691  -0.002201
   16  O  2  X    0.000219  -0.000175   0.000673   0.000125   0.001518
   17  O  2  Y   -0.000246  -0.000509  -0.000991  -0.000470   0.000066
   18  O  2  Z    0.000110   0.000369  -0.000131   0.000394   0.000239
   19  O  3  S    0.000003   0.000039  -0.000025   0.000010  -0.000217
   20  O  3  S    0.000018   0.000304  -0.000101   0.000080  -0.001340
   21  O  3  X   -0.000024  -0.000074   0.000031  -0.000017  -0.000269
   22  O  3  Y    0.000000  -0.000065   0.000005  -0.000018   0.000262
   23  O  3  Z    0.000000   0.000019   0.000071   0.000026   0.000338
   24  O  3  S   -0.000172  -0.001716   0.000970  -0.000392   0.012762
   25  O  3  X    0.000067   0.000115   0.000207   0.000043   0.001449
   26  O  3  Y    0.000109   0.000848  -0.000574   0.000202  -0.004517
   27  O  3  Z   -0.000045  -0.000589   0.000214  -0.000164   0.004118
   28  O  4  S    0.001028   0.000005  -0.000149   0.000028  -0.000068
   29  O  4  S   -0.000158   0.000150  -0.001131   0.000258  -0.000468
   30  O  4  X   -0.000054  -0.000014  -0.000097  -0.000013  -0.000068
   31  O  4  Y    0.000041   0.000221  -0.000433   0.000063   0.000007
   32  O  4  Z    0.000057  -0.000029  -0.000197  -0.000063   0.000081
   33  O  4  S    0.001134  -0.000091   0.011401  -0.001049   0.002454
   34  O  4  X    0.000252   0.000009   0.000229   0.000057  -0.000161
   35  O  4  Y   -0.000005  -0.000875   0.004244  -0.000354   0.000850
   36  O  4  Z   -0.000596   0.000019  -0.003235   0.000459  -0.001166
   37  O  5  S   -0.000162   0.000005   0.000007   0.000003  -0.000032
   38  O  5  S    0.000009   0.000063   0.000028   0.000033  -0.000349
   39  O  5  X    0.000013   0.000040  -0.000022   0.000005  -0.000317
   40  O  5  Y    0.000001  -0.000009   0.000038   0.000002  -0.000082
   41  O  5  Z   -0.000002  -0.000009   0.000139  -0.000004  -0.000063
   42  O  5  S   -0.000087  -0.000193  -0.000324  -0.000112   0.000460
   43  O  5  X   -0.000086  -0.000230  -0.000037  -0.000032   0.001309
   44  O  5  Y   -0.000029   0.000005  -0.000421  -0.000011   0.000200
   45  O  5  Z    0.000013   0.000058  -0.000675   0.000025   0.000133
   46  O  6  S    0.982826   0.000057   0.000015   0.000438  -0.000009
   47  O  6  S    0.107911   0.000274   0.000256   0.002029  -0.000096
   48  O  6  X    0.000927  -0.000715  -0.000355  -0.000756  -0.000015
   49  O  6  Y    0.002448   0.000149  -0.000041  -0.000304   0.000001
   50  O  6  Z    0.003904  -0.000052   0.000062  -0.000635   0.000021
   51  O  6  S   -0.065426  -0.001233  -0.000096  -0.006732   0.000279
   52  O  6  X   -0.003451   0.004453   0.001431   0.001654   0.000213
   53  O  6  Y   -0.009338  -0.001920   0.000248  -0.004026  -0.000038
   54  O  6  Z   -0.014877  -0.001419  -0.000190  -0.005640  -0.000076
   55  N  7  S    0.000043   0.985307   0.000021   0.000320  -0.000106
   56  N  7  S    0.000209   0.113061  -0.000608   0.000406  -0.000962
   57  N  7  X   -0.001659  -0.000127   0.000773  -0.001588   0.000682
   58  N  7  Y   -0.000113  -0.000326   0.000215  -0.000088  -0.000265
   59  N  7  Z   -0.000661  -0.001612   0.000156  -0.000569   0.000016
   60  N  7  S    0.000926  -0.085294  -0.001386   0.003309   0.003930
   61  N  7  X    0.011542   0.001181  -0.001204   0.008440  -0.005247
   62  N  7  Y    0.002045   0.004907   0.001476   0.003187   0.001804
   63  N  7  Z    0.005974   0.011088  -0.000206   0.007135  -0.000352
   64  C  8  S    0.000109   0.000286  -0.006698   0.000457  -0.056903
   65  C  8  S    0.000536   0.001250  -0.002892   0.000095  -0.010258
   66  C  8  X   -0.000046  -0.000026  -0.000476   0.000596  -0.000642
   67  C  8  Y    0.000007   0.000125   0.001085  -0.000178   0.000165
   68  C  8  Z    0.000213   0.000305   0.000427   0.000077   0.000131
   69  C  8  S   -0.003651  -0.007771   0.006790   0.002125   0.035521
   70  C  8  X   -0.001491  -0.004607  -0.003315  -0.002661  -0.017717
   71  C  8  Y    0.002191   0.002799  -0.000681  -0.000693   0.001206
   72  C  8  Z   -0.000031   0.000786  -0.001914  -0.001206  -0.006210
   73  C  9  S   -0.000179  -0.000732  -0.008996  -0.001028  -0.010015
   74  C  9  S   -0.000486  -0.003268  -0.005447  -0.001086  -0.003455
   75  C  9  X    0.001306   0.001065  -0.000063  -0.000029   0.001738
   76  C  9  Y   -0.000089  -0.000150  -0.000068   0.000392  -0.000918
   77  C  9  Z    0.000055  -0.000232  -0.000337   0.000685  -0.000030
   78  C  9  S    0.010422   0.025323   0.030152   0.007392   0.002559
   79  C  9  X    0.001594   0.014003  -0.010699   0.005870  -0.009857
   80  C  9  Y   -0.000546   0.000901  -0.016978  -0.003016  -0.001226
   81  C  9  Z    0.003701   0.006629   0.002521  -0.002560  -0.001900
   82  C 10  S   -0.000030  -0.000222   0.004025  -0.000522   0.984460
   83  C 10  S   -0.000179  -0.001343   0.002504  -0.000114   0.117910
   84  C 10  X    0.000003  -0.000426   0.000375  -0.000211   0.001046
   85  C 10  Y    0.000092   0.000502   0.000468   0.000151  -0.000957
   86  C 10  Z    0.000086   0.000449  -0.000042   0.000155  -0.000095
   87  C 10  S    0.000463   0.003091  -0.012608  -0.001430  -0.115691
   88  C 10  X   -0.000138   0.001464  -0.005296  -0.000496  -0.010389
   89  C 10  Y   -0.000991  -0.003618   0.005042  -0.000681   0.015938
   90  C 10  Z   -0.000622  -0.003854  -0.000760  -0.001515  -0.001581
   91  C 11  S    0.000031   0.000110  -0.008364   0.000074  -0.049200
   92  C 11  S    0.000134   0.000474  -0.004516   0.000034  -0.010865
   93  C 11  X   -0.000126  -0.000302  -0.002225   0.000037  -0.000249
   94  C 11  Y    0.000002  -0.000067   0.000781  -0.000026   0.000193
   95  C 11  Z   -0.000071  -0.000165  -0.000532  -0.000010   0.000728
   96  C 11  S   -0.001280  -0.003925   0.010073   0.000045   0.039446
   97  C 11  X    0.000249  -0.000378   0.016014  -0.000433   0.013952
   98  C 11  Y   -0.000318  -0.001018  -0.002241  -0.000310   0.015560
   99  C 11  Z    0.000732   0.002399   0.003086   0.000280  -0.004601
  100  C 12  S    0.000136  -0.000024   0.986678   0.006560  -0.004109
  101  C 12  S    0.000792  -0.000612   0.113700   0.000801   0.001703
  102  C 12  X    0.000168  -0.000580  -0.000914  -0.000331  -0.000207
  103  C 12  Y   -0.000239  -0.000568   0.001509  -0.000137   0.000153
  104  C 12  Z   -0.000028  -0.000098   0.000464  -0.000244   0.000552
  105  C 12  S   -0.003707   0.000185  -0.092220  -0.002272  -0.009312
  106  C 12  X   -0.002101  -0.002148  -0.003195  -0.000708   0.003273
  107  C 12  Y   -0.000627   0.000529  -0.015512  -0.000302  -0.005258
  108  C 12  Z   -0.001022  -0.000673  -0.001378   0.002584  -0.002834
  109  C 13  S   -0.000021  -0.000045  -0.001278   0.000131  -0.010373
  110  C 13  S   -0.000102  -0.000201  -0.000984   0.000074  -0.001959
  111  C 13  X    0.000024   0.000071   0.000363   0.000002  -0.000636
  112  C 13  Y    0.000013   0.000024  -0.000145   0.000039  -0.000471
  113  C 13  Z    0.000024   0.000058  -0.000276  -0.000000  -0.000351
  114  C 13  S    0.000769   0.001613   0.008233  -0.000282   0.000349
  115  C 13  X    0.000405   0.001001   0.002229  -0.000118  -0.001824
  116  C 13  Y   -0.000067  -0.000066   0.001032  -0.000160   0.000327
  117  C 13  Z   -0.000010  -0.000293   0.004259  -0.000163   0.001819
  118  C 14  S    0.000224  -0.000253  -0.006514   0.985321   0.000549
  119  C 14  S    0.001717  -0.001251  -0.000848   0.105375  -0.000106
  120  C 14  X    0.000095  -0.000582   0.000255   0.000003   0.000050
  121  C 14  Y   -0.001043   0.000228   0.000067  -0.000230   0.000058
  122  C 14  Z   -0.001575  -0.000088  -0.000238  -0.000469   0.000194
  123  C 14  S    0.016198   0.021694   0.001217  -0.055926   0.002091
  124  C 14  X   -0.011498  -0.018756  -0.001617  -0.018116  -0.001440
  125  C 14  Y   -0.016807   0.009913   0.000573  -0.006911   0.000922
  126  C 14  Z   -0.027688   0.009660   0.002009  -0.014644   0.001062
  127  C 15  S   -0.000140  -0.000069   0.000016  -0.004888  -0.000273
  128  C 15  S   -0.000932  -0.000619  -0.000002  -0.003453  -0.000169
  129  C 15  X   -0.000281   0.000172  -0.000043   0.000710   0.000045
  130  C 15  Y   -0.000147   0.000082  -0.000018   0.000035   0.000036
  131  C 15  Z   -0.000200   0.000357   0.000086   0.000015   0.000014
  132  C 15  S    0.010032   0.004006   0.000218   0.024853   0.000484
  133  C 15  X   -0.005790   0.000203   0.000240  -0.016531   0.000009
  134  C 15  Y    0.004750  -0.003206  -0.000119   0.000470  -0.000316
  135  C 15  Z    0.005200  -0.005567  -0.000995  -0.002356  -0.000293
  136  H 16  S    0.000402   0.000830  -0.000431   0.000117  -0.001668
  137  H 16  S    0.000484   0.000087  -0.000017   0.000241   0.000060
  138  H 17  S   -0.000033  -0.001343  -0.001922  -0.001153  -0.000915
  139  H 17  S   -0.000591  -0.000942   0.002532  -0.001176  -0.000319
  140  H 18  S    0.000092   0.000359   0.000103   0.000186   0.000708
  141  H 18  S    0.000207   0.001858  -0.000268   0.000724   0.013894
  142  H 19  S   -0.000049  -0.000105  -0.001754  -0.000006  -0.001743
  143  H 19  S   -0.000144  -0.000646  -0.001415  -0.000319   0.001994
  144  H 20  S    0.000135   0.000274  -0.000707   0.000186   0.000030
  145  H 20  S    0.000279  -0.000502   0.014010   0.000973  -0.002047
  146  H 21  S   -0.000054  -0.000139  -0.000012   0.000023   0.000267
  147  H 21  S   -0.000078  -0.000300   0.001010  -0.000050   0.000126
  148  H 22  S   -0.000014  -0.000016  -0.000706   0.000045  -0.000128
  149  H 22  S    0.000045   0.000179  -0.001141   0.000058  -0.001709
  150  H 23  S   -0.002500   0.000876  -0.000100  -0.003109  -0.000668
  151  H 23  S   -0.000601   0.007098   0.000518  -0.000424   0.001851
  152  H 24  S    0.000051   0.000318  -0.000276   0.000127  -0.000318
  153  H 24  S    0.000037  -0.000239   0.000676   0.000088   0.000764
  154  H 25  S    0.000008   0.000056   0.000165   0.000018  -0.000178
  155  H 25  S    0.000025  -0.000082  -0.000650  -0.000099   0.002821
  156  H 26  S   -0.000120  -0.000281  -0.000007   0.000014  -0.000054
  157  H 26  S    0.000062  -0.000046   0.002983  -0.000247   0.000205
  158  H 27  S    0.000028   0.000062  -0.000142  -0.000003  -0.000655
  159  H 27  S   -0.000035   0.000009  -0.000007   0.000037   0.001118
  160  H 28  S    0.000134  -0.000247  -0.000112  -0.001667  -0.000017
  161  H 28  S   -0.000283  -0.001071  -0.000207   0.003316  -0.000044
  162  H 29  S   -0.001527   0.000804   0.000151  -0.001716   0.000080
  163  H 29  S   -0.002688   0.001372   0.000278   0.000080  -0.000125
  164  H 30  S    0.000550  -0.000763  -0.000039  -0.001354  -0.000071
  165  H 30  S    0.001170  -0.000829  -0.000093   0.002742  -0.000131

                     11         12         13         14         15
                  -10.1795   -10.1755   -10.1697   -10.1568   -10.1177
                     A          A          A          A          A   
    1  O  1  S    0.000095  -0.000076   0.000055   0.000033  -0.000013
    2  O  1  S    0.000868  -0.000216   0.000165  -0.000082  -0.000123
    3  O  1  X    0.000261   0.000023   0.000763  -0.000249  -0.000060
    4  O  1  Y    0.000300   0.000193  -0.000237  -0.000079  -0.000033
    5  O  1  Z    0.000143   0.000742   0.000235  -0.000005   0.000016
    6  O  1  S   -0.002740   0.008089  -0.001931  -0.001219   0.000431
    7  O  1  X   -0.001639  -0.005013  -0.002319  -0.001476   0.000362
    8  O  1  Y   -0.001753   0.003662   0.000663   0.000005   0.000131
    9  O  1  Z   -0.001403  -0.001153  -0.001069  -0.000370  -0.000069
   10  O  2  S   -0.000113  -0.000013  -0.000010   0.000018   0.000004
   11  O  2  S   -0.000664  -0.000181  -0.000118  -0.000123   0.000028
   12  O  2  X   -0.000142   0.000289   0.000007   0.000141   0.000006
   13  O  2  Y   -0.000163   0.000020   0.000036   0.000091  -0.000009
   14  O  2  Z    0.000067   0.000105  -0.000014   0.000191  -0.000022
   15  O  2  S    0.009352   0.000075   0.000560  -0.000736  -0.000123
   16  O  2  X   -0.001555  -0.001051   0.000099  -0.000919  -0.000008
   17  O  2  Y   -0.003443   0.000043  -0.000225   0.001402   0.000112
   18  O  2  Z   -0.000749  -0.000545   0.000046  -0.000283   0.000114
   19  O  3  S    0.000054   0.000076   0.000059   0.000088   0.000004
   20  O  3  S    0.000063   0.000231   0.000491   0.000769   0.000029
   21  O  3  X   -0.000632   0.000070  -0.000067   0.000287   0.000001
   22  O  3  Y    0.000289   0.000172  -0.000117  -0.000175  -0.000004
   23  O  3  Z   -0.000461  -0.000009   0.000015   0.000074   0.000010
   24  O  3  S   -0.002252  -0.002634  -0.001834  -0.002823  -0.000136
   25  O  3  X    0.001610   0.000180   0.000713  -0.001572  -0.000030
   26  O  3  Y   -0.000640   0.001620   0.000915   0.001487   0.000071
   27  O  3  Z    0.000158  -0.001500  -0.000559  -0.001132  -0.000074
   28  O  4  S    0.000083   0.000153   0.000053   0.000133   0.000003
   29  O  4  S    0.000730   0.001214   0.000396   0.000655   0.000036
   30  O  4  X    0.000080  -0.000213  -0.000041  -0.000435   0.000010
   31  O  4  Y    0.000235   0.000312   0.000103  -0.000685   0.000035
   32  O  4  Z   -0.000036  -0.000068  -0.000043   0.000232  -0.000016
   33  O  4  S   -0.002651  -0.005266  -0.001901  -0.005139  -0.000107
   34  O  4  X   -0.000239   0.001488   0.000360   0.001312  -0.000033
   35  O  4  Y   -0.001708  -0.002491  -0.000910   0.000777  -0.000128
   36  O  4  Z    0.000838   0.002021   0.000897   0.001439   0.000046
   37  O  5  S   -0.000012   0.000040  -0.000057  -0.000011   0.000001
   38  O  5  S   -0.000148   0.000049  -0.000317  -0.000078   0.000013
   39  O  5  X    0.000021  -0.000130   0.000197  -0.000006   0.000003
   40  O  5  Y   -0.000051  -0.000195   0.000146  -0.000028  -0.000001
   41  O  5  Z    0.000006   0.000006  -0.000240   0.000003   0.000002
   42  O  5  S    0.000438  -0.001816   0.007777   0.000421  -0.000044
   43  O  5  X   -0.000186  -0.001166   0.001077   0.000160  -0.000023
   44  O  5  Y    0.000191  -0.000365   0.002574   0.000266  -0.000003
   45  O  5  Z   -0.000066  -0.000360   0.000869  -0.000001  -0.000007
   46  O  6  S    0.000029   0.000002  -0.000002   0.000055  -0.000010
   47  O  6  S    0.000192   0.000017  -0.000022   0.000428  -0.000378
   48  O  6  X    0.000055  -0.000030  -0.000005  -0.000146  -0.000047
   49  O  6  Y   -0.000062   0.000001  -0.000000   0.000063  -0.000193
   50  O  6  Z    0.000001  -0.000009  -0.000005  -0.000082  -0.000212
   51  O  6  S   -0.001591  -0.000024   0.000099  -0.002447   0.000353
   52  O  6  X    0.000197   0.000213   0.000061   0.001545  -0.001791
   53  O  6  Y   -0.000148  -0.000011   0.000003  -0.000929   0.000557
   54  O  6  Z   -0.000451  -0.000002   0.000022  -0.000388   0.000054
   55  N  7  S    0.000093  -0.000004  -0.000010  -0.000120   0.000011
   56  N  7  S    0.000396  -0.000028  -0.000067  -0.001260  -0.000427
   57  N  7  X    0.000468   0.000179   0.000170   0.000188  -0.000822
   58  N  7  Y   -0.000358  -0.000002  -0.000035  -0.000140   0.000139
   59  N  7  Z   -0.000231  -0.000129  -0.000088  -0.000602   0.000083
   60  N  7  S   -0.003787  -0.000165   0.000015   0.013140  -0.000254
   61  N  7  X    0.000183  -0.001284  -0.001170  -0.009237   0.002065
   62  N  7  Y    0.000035   0.000157   0.000096   0.002062  -0.000603
   63  N  7  Z    0.001049   0.000952   0.000541   0.002903  -0.000655
   64  C  8  S    0.984676   0.034780   0.013118   0.014886   0.000464
   65  C  8  S    0.116700   0.003289   0.000075  -0.001052  -0.000257
   66  C  8  X   -0.000784   0.000896   0.000527   0.000449   0.000024
   67  C  8  Y   -0.000930  -0.000258   0.000020  -0.000655   0.000002
   68  C  8  Z   -0.000906  -0.000138  -0.000173  -0.000096   0.000031
   69  C  8  S   -0.106722  -0.001121   0.005799   0.022348   0.001960
   70  C  8  X    0.005065   0.001351  -0.003697   0.011970   0.000351
   71  C  8  Y    0.010009   0.000688  -0.001533  -0.012166  -0.000630
   72  C  8  Z    0.010255   0.002027   0.000003  -0.006258  -0.000808
   73  C  9  S   -0.016411   0.000746   0.001070   0.987139   0.001899
   74  C  9  S   -0.004967   0.001034   0.000755   0.118707  -0.000732
   75  C  9  X    0.000049   0.000241   0.000076  -0.000502  -0.000299
   76  C  9  Y    0.000065   0.000689   0.000061  -0.000365   0.000391
   77  C  9  Z    0.000043   0.000266   0.000059   0.000611   0.000248
   78  C  9  S    0.027809  -0.005766  -0.004757  -0.114567   0.002979
   79  C  9  X   -0.008051   0.002700   0.001965   0.008479   0.003137
   80  C  9  Y    0.015993   0.000990   0.001686   0.004102  -0.002777
   81  C  9  Z    0.008241  -0.003234  -0.001800  -0.008628  -0.001185
   82  C 10  S    0.053799   0.048963   0.014198   0.010251   0.000291
   83  C 10  S    0.003295   0.000731  -0.000053  -0.001847  -0.000148
   84  C 10  X    0.000417  -0.000475   0.001099  -0.001586  -0.000122
   85  C 10  Y   -0.000271   0.000112   0.000314   0.000791   0.000080
   86  C 10  Z    0.000361   0.000562   0.000497   0.000374   0.000032
   87  C 10  S    0.020426   0.029702   0.002529   0.008167   0.000177
   88  C 10  X    0.016312  -0.005874  -0.004872   0.006612   0.000191
   89  C 10  Y    0.000985  -0.016923  -0.001551  -0.003602  -0.000367
[...]
            106  C 12  X      0.27618     0.43117
            107  C 12  Y      0.43195     0.52311
            108  C 12  Z      0.23430     0.42546
            109  C 13  S      1.98666     1.97364
            110  C 13  S      0.37703     0.43185
            111  C 13  X      0.56514     0.53382
            112  C 13  Y      0.48433     0.46278
            113  C 13  Z      0.58283     0.54112
            114  C 13  S      1.00392     0.56923
            115  C 13  X      0.34455     0.50653
            116  C 13  Y      0.29960     0.44258
            117  C 13  Z      0.47972     0.56383
            118  C 14  S      1.98475     1.97360
            119  C 14  S      0.42644     0.42735
            120  C 14  X      0.58709     0.55248
            121  C 14  Y      0.57552     0.54362
            122  C 14  Z      0.45034     0.42592
            123  C 14  S      0.58501     0.50850
            124  C 14  X      0.25550     0.46621
            125  C 14  Y      0.09430     0.41153
            126  C 14  Z      0.40022     0.48548
            127  C 15  S      1.98670     1.97435
            128  C 15  S      0.36825     0.42973
            129  C 15  X      0.55225     0.52783
            130  C 15  Y      0.57917     0.53968
            131  C 15  Z      0.56743     0.52708
            132  C 15  S      1.13127     0.58729
            133  C 15  X      0.38262     0.54977
            134  C 15  Y      0.54386     0.59313
            135  C 15  Z      0.52237     0.58937
            136  H 16  S      0.47542     0.48211
            137  H 16  S      0.28180     0.41510
            138  H 17  S      0.47114     0.48337
            139  H 17  S      0.29595     0.42269
            140  H 18  S      0.47753     0.48499
            141  H 18  S      0.32078     0.43330
            142  H 19  S      0.47670     0.48525
            143  H 19  S      0.31173     0.43015
            144  H 20  S      0.47883     0.48478
            145  H 20  S      0.26966     0.41964
            146  H 21  S      0.48156     0.48673
            147  H 21  S      0.34822     0.45279
            148  H 22  S      0.48123     0.48282
            149  H 22  S      0.32725     0.43676
            150  H 23  S      0.43832     0.44224
            151  H 23  S      0.23648     0.35630
            152  H 24  S      0.41278     0.42249
            153  H 24  S      0.24232     0.34902
            154  H 25  S      0.42594     0.43425
            155  H 25  S      0.21572     0.32274
            156  H 26  S      0.42425     0.43292
            157  H 26  S      0.22002     0.32180
            158  H 27  S      0.41802     0.42776
            159  H 27  S      0.23622     0.34427
            160  H 28  S      0.46516     0.46214
            161  H 28  S      0.32219     0.42931
            162  H 29  S      0.46614     0.46283
            163  H 29  S      0.32300     0.43001
            164  H 30  S      0.46732     0.46366
            165  H 30  S      0.30596     0.42261

          ----- MULLIKEN ATOMIC OVERLAP POPULATIONS -----
          (OFF-DIAGONAL ELEMENTS NEED TO BE MULTIPLIED BY 2)

             1           2           3           4           5

    1    8.2787196
    2   -0.0000006   8.1498026
    3    0.0000542  -0.0075035   8.1532187
    4   -0.0352197   0.0000050  -0.0000000   8.1839335
    5   -0.0065388   0.0000000   0.0000023  -0.0000006   8.1361685
    6    0.0000135  -0.0000000  -0.0000000  -0.0002030   0.0000000
    7    0.0006414  -0.0082394   0.0000084   0.0009795   0.0000000
    8   -0.0082772   0.2599602  -0.0528418  -0.0029768  -0.0000144
    9   -0.0393681  -0.0467290  -0.0041828  -0.0571016  -0.0000021
   10   -0.0369604  -0.0332235   0.2219649  -0.0031201   0.0016875
   11    0.2178163   0.0014035  -0.0401234   0.0004226  -0.0333195
   12    0.1885463   0.0018754  -0.0000151   0.2164403   0.0000518
   13   -0.0403997  -0.0000082  -0.0055853   0.0001252   0.2786516
   14    0.0000776  -0.0000007   0.0000002   0.0013872   0.0000000
   15    0.0000001  -0.0000083   0.0000000  -0.0000040   0.0000000
   16   -0.0001369  -0.0266792   0.0013618   0.0187619   0.0000001
   17    0.0041651  -0.0003701   0.0139831   0.0019407  -0.0000000
   18    0.0014854   0.0011377  -0.0297651  -0.0000152  -0.0000060
   19   -0.0365747  -0.0000052   0.0015092   0.0132717   0.0017604
   20   -0.0248397  -0.0000116  -0.0000015  -0.0292430   0.0000037
   21    0.0009214   0.0000009   0.0114869   0.0000000  -0.0334110
   22    0.0017944   0.0000001   0.0000130   0.0000020  -0.0311535
   23   -0.0000133   0.0315424   0.0000007  -0.0000582  -0.0000000
   24   -0.0000007   0.2388691   0.0411198  -0.0000016   0.0000000
   25    0.0000084   0.0001998   0.2458285   0.0000001  -0.0000116
   26    0.0018987  -0.0000000   0.0000001   0.2465288  -0.0000002
   27    0.0354385   0.0000000  -0.0000036   0.0000208   0.2430111
   28   -0.0000000   0.0000001  -0.0000000  -0.0000000  -0.0000000
   29   -0.0000000  -0.0000010  -0.0000000   0.0000023   0.0000000
   30   -0.0000000  -0.0000000   0.0000000   0.0000001  -0.0000000

             6           7           8           9          10

    6    8.0844672
    7   -0.0737366   7.4005762
    8    0.0000828  -0.0433234   5.4166183
    9    0.0003693   0.1960662   0.1448078   5.6812576
   10   -0.0000004   0.0029154   0.1614771  -0.0881143   5.6653672
   11   -0.0000003   0.0001178  -0.0560456  -0.0073929  -0.0067955
   12   -0.0108769  -0.0294387  -0.0464258   0.0823590   0.0084714
   13    0.0000000   0.0000007   0.0019824  -0.0003603  -0.0417270
   14    0.5515353   0.1272580   0.0043872  -0.0558682  -0.0000616
   15   -0.0801230  -0.1288131  -0.0000945   0.0033235   0.0000004
   16   -0.0000060   0.0013448   0.3530650  -0.0609709  -0.0405019
   17    0.0002443  -0.0402836  -0.0482446   0.3525948  -0.0041846
   18   -0.0000000  -0.0000177  -0.0432083   0.0059571   0.3304955
   19    0.0000000   0.0000144   0.0003164   0.0000397  -0.0551919
   20    0.0366491  -0.0043908   0.0034460  -0.0464646  -0.0004256
   21    0.0000000   0.0000001  -0.0000454   0.0000630   0.0002340
   22   -0.0000000  -0.0000000  -0.0000674   0.0000103   0.0007223
   23    0.0014458   0.2980478  -0.0069676  -0.0480763   0.0010116
   24    0.0000001   0.0001421  -0.0710922   0.0007912  -0.0126253
   25    0.0000000  -0.0000002   0.0061411  -0.0000242  -0.0397800
   26    0.0000810  -0.0001446   0.0000404   0.0074942   0.0001265
   27    0.0000000  -0.0000002  -0.0000026   0.0000921   0.0010327
   28    0.0008860   0.0021255  -0.0000045  -0.0001021  -0.0000000
   29    0.0011577   0.0032698  -0.0000028   0.0000430  -0.0000000
   30    0.0041638   0.0039195   0.0000004  -0.0000664  -0.0000000

            11          12          13          14          15

   11    5.6888976
   12   -0.0718897   5.2116591
   13    0.1850604   0.0048960   5.1920528
   14   -0.0000043  -0.0031827   0.0000000   4.6536223
   15   -0.0000000  -0.0000480   0.0000000   0.1912776   5.6164140
   16    0.0021543  -0.0049899  -0.0000245   0.0000296  -0.0000092
   17    0.0000484  -0.0520336  -0.0001287  -0.0000050  -0.0000399
   18   -0.0505251  -0.0002180  -0.0008023   0.0000005  -0.0000000
   19    0.3077489  -0.0071748  -0.0383315   0.0000001  -0.0000000
   20    0.0036887   0.3201458  -0.0000425   0.0014309   0.0004435
   21   -0.0673062  -0.0003482   0.3003776   0.0000000   0.0000000
   22   -0.0470220  -0.0000767   0.3498001  -0.0000000  -0.0000000
   23   -0.0000659   0.0042276   0.0000001  -0.0183161  -0.0010187
   24    0.0011567  -0.0001073  -0.0000049  -0.0000041   0.0000008
   25   -0.0001135  -0.0000183   0.0026291  -0.0000000  -0.0000000
   26    0.0004423  -0.0397869  -0.0000367  -0.0000168   0.0000016
   27   -0.0142587  -0.0002815  -0.0643400   0.0000000   0.0000000
   28    0.0000000   0.0000007   0.0000000  -0.0324649   0.3469467
   29    0.0000000  -0.0000163  -0.0000000  -0.0308530   0.3427879
   30   -0.0000000   0.0000006  -0.0000000  -0.0310647   0.3428664

            16          17          18          19          20

   16    0.5056383
   17    0.0043575   0.5330708
   18   -0.0032085   0.0002481   0.5860012
   19    0.0015687   0.0001746   0.0032929   0.5925385
   20    0.0001201  -0.0020623   0.0000064   0.0001295   0.4946510
   21    0.0000008   0.0001593   0.0007523   0.0060497  -0.0000048
   22   -0.0000030   0.0000017   0.0020699  -0.0018379   0.0000009
   23    0.0004785   0.0007047  -0.0000178  -0.0000013  -0.0001280
   24    0.0054842   0.0031880  -0.0000405  -0.0000249  -0.0000005
   25   -0.0001039  -0.0002995  -0.0052904  -0.0000534  -0.0000000
   26   -0.0005181  -0.0001616  -0.0000026  -0.0004969  -0.0045011
   27   -0.0000000   0.0000037  -0.0000164  -0.0002906  -0.0000899
   28    0.0000005   0.0000111   0.0000000   0.0000000  -0.0000062
   29    0.0000030   0.0000014   0.0000000  -0.0000000  -0.0000103
   30    0.0000000   0.0000005   0.0000000  -0.0000000  -0.0000031

            21          22          23          24          25

   21    0.6532221
   22   -0.0429508   0.5714403
   23   -0.0000000  -0.0000000   0.4114062
   24   -0.0000130  -0.0000003  -0.0008101   0.4507042
   25    0.0023845  -0.0003686   0.0000004  -0.0016376   0.4321686
   26    0.0000002  -0.0000002   0.0000079   0.0000002  -0.0000000
   27   -0.0017987   0.0061022   0.0000000   0.0000000  -0.0000021
   28   -0.0000000   0.0000000   0.0007836   0.0000001   0.0000000
   29    0.0000000   0.0000000   0.0006374   0.0000000   0.0000000
   30   -0.0000000   0.0000000  -0.0000190   0.0000000  -0.0000000

            26          27          28          29          30

   26    0.4332655
   27    0.0000537   0.4495776
   28   -0.0000000   0.0000000   0.5123987
   29   -0.0000002  -0.0000000  -0.0237532   0.5154686
   30    0.0000000   0.0000000  -0.0194730  -0.0195945   0.4925494

          TOTAL MULLIKEN AND LOWDIN ATOMIC POPULATIONS
       ATOM         MULL.POP.    CHARGE          LOW.POP.     CHARGE
    1 O             8.503251   -0.503251         8.274421   -0.274421
    2 O             8.562016   -0.562016         8.335512   -0.335512
    3 O             8.550530   -0.550530         8.323027   -0.323027
    4 O             8.555878   -0.555878         8.321619   -0.321619
    5 O             8.556880   -0.556880         8.335860   -0.335860
    6 O             8.516150   -0.516150         8.288427   -0.288427
    7 N             7.709040   -0.709040         7.238405   -0.238405
    8 C             5.972690    0.027310         5.965172    0.034828
    9 C             6.020445   -0.020445         6.037600   -0.037600
   10 C             6.032794   -0.032794         5.985397    0.014603
   11 C             6.014095   -0.014095         5.989814    0.010186
   12 C             5.771746    0.228254         5.841596    0.158404
   13 C             6.123784   -0.123784         6.025387   -0.025387
   14 C             5.359164    0.640836         5.794702    0.205298
   15 C             6.633904   -0.633904         6.318222   -0.318222
   16 H             0.757217    0.242783         0.897213    0.102787
   17 H             0.767084    0.232916         0.906063    0.093937
   18 H             0.798313    0.201687         0.918297    0.081703
   19 H             0.788432    0.211568         0.915399    0.084601
   20 H             0.748490    0.251510         0.904413    0.095587
   21 H             0.829774    0.170226         0.939512    0.060488
   22 H             0.808477    0.191523         0.919581    0.080419
   23 H             0.674802    0.325198         0.798548    0.201452
   24 H             0.655094    0.344906         0.771515    0.228485
   25 H             0.641657    0.358343         0.756996    0.243004
   26 H             0.644275    0.355725         0.754718    0.245282
   27 H             0.654248    0.345752         0.772029    0.227971
   28 H             0.787349    0.212651         0.891444    0.108556
   29 H             0.789140    0.210860         0.892841    0.107159
   30 H             0.773280    0.226720         0.886268    0.113732

          -------------------------------
          BOND ORDER AND VALENCE ANALYSIS     BOND ORDER THRESHOLD=0.050
          -------------------------------

                   BOND                       BOND                       BOND
  ATOM PAIR DIST  ORDER      ATOM PAIR DIST  ORDER      ATOM PAIR DIST  ORDER
    1  11  1.478  0.861        1  12  1.460  0.847        1  27  2.033  0.069
    2   8  1.458  0.937        2  23  2.225  0.063        2  24  1.003  0.773
    3  10  1.478  0.885        3  24  2.005  0.083        3  25  0.992  0.813
    4  12  1.435  0.936        4  26  0.994  0.819        5  13  1.451  0.975
    5  27  1.000  0.783        6   7  2.302  0.146        6  14  1.247  1.747
    6  20  2.204  0.069        7   9  1.461  0.855        7  14  1.365  1.013
    7  23  1.019  0.805        8   9  1.541  0.866        8  10  1.531  0.884
    8  16  1.089  0.864        9  12  1.530  0.852        9  17  1.096  0.861
   10  11  1.531  0.816       10  18  1.099  0.871       11  13  1.530  0.897
   11  19  1.094  0.853       12  20  1.087  0.835       13  21  1.100  0.859
   13  22  1.094  0.895       14  15  1.530  0.881       15  28  1.097  0.908
   15  29  1.095  0.908       15  30  1.090  0.911

                       TOTAL       BONDED        FREE
      ATOM            VALENCE     VALENCE     VALENCE
    1 O                 1.962       1.962      -0.000
    2 O                 1.904       1.904       0.000
    3 O                 1.914       1.914      -0.000
    4 O                 1.907       1.907      -0.000
    5 O                 1.875       1.875      -0.000
    6 O                 2.071       2.071       0.000
    7 N                 2.862       2.862      -0.000
    8 C                 3.551       3.551      -0.000
    9 C                 3.488       3.488      -0.000
   10 C                 3.505       3.505      -0.000
   11 C                 3.495       3.495      -0.000
   12 C                 3.518       3.518      -0.000
   13 C                 3.637       3.637       0.000
   14 C                 3.636       3.636      -0.000
   15 C                 3.631       3.631       0.000
   16 H                 0.914       0.914       0.000
   17 H                 0.912       0.912      -0.000
   18 H                 0.907       0.907       0.000
   19 H                 0.912       0.912       0.000
   20 H                 0.930       0.930       0.000
   21 H                 0.924       0.924      -0.000
   22 H                 0.913       0.913       0.000
   23 H                 0.889       0.889      -0.000
   24 H                 0.877       0.877      -0.000
   25 H                 0.846       0.846       0.000
   26 H                 0.849       0.849       0.000
   27 H                 0.873       0.873       0.000
   28 H                 0.913       0.913      -0.000
   29 H                 0.915       0.915      -0.000
   30 H                 0.917       0.917       0.000

          ---------------------
          ELECTROSTATIC MOMENTS
          ---------------------

 POINT   1           X           Y           Z (BOHR)    CHARGE
                -0.114648   -0.126047    0.157269       -0.00 (A.U.)
         DX          DY          DZ         /D/  (DEBYE)
    -0.499099    3.008273    1.121077    3.248941
 ...... END OF PROPERTY EVALUATION ......
 CPU     0: STEP CPU TIME=     0.08 TOTAL CPU TIME=       2650.9 (     44.2 MIN)
 TOTAL WALL CLOCK TIME=       2771.8 SECONDS, CPU UTILIZATION IS    95.64%
  $VIB   
          IVIB=   0 IATOM=   0 ICOORD=   0 E=     -815.0099352950
  1.582116948E-05-2.851825299E-05 6.745721554E-06 1.611547279E-05 2.126198842E-05
  1.736820018E-05 3.192827188E-05-1.815379096E-05 2.009220575E-05-1.505387594E-06
  2.047433505E-05-3.276931338E-07-4.739998902E-06-2.530997463E-05 1.142375491E-05
  1.246102713E-05 2.657526338E-05 1.555359781E-05-5.185859779E-05 1.956745306E-05
  3.427943539E-05-4.692045721E-05 2.967460476E-06-2.862432682E-05 3.523268925E-05
  1.803573995E-05 2.244298646E-05-1.776936376E-05 7.830688929E-06 8.694800599E-06
 -8.707989609E-05 3.384843253E-05-4.590136313E-05 3.144308330E-05-3.753967982E-05
 -5.656924614E-06 5.335403984E-05 8.949433453E-06 6.530474886E-05 3.246284655E-05
 -1.256120109E-05-2.135544990E-05 6.699481153E-06-4.556126039E-07-2.289287182E-05
  3.132696326E-06-1.059873684E-05 7.291075659E-06-1.514543550E-06-2.140018867E-06
  1.313933563E-05 1.942232843E-05-6.824908383E-06 4.725105527E-06-3.012922703E-05
  1.326723090E-06-7.248209752E-06-1.290228536E-05 5.921698915E-06-3.067236844E-06
  1.244832890E-05 6.281216795E-06-3.330622599E-05-9.008481797E-07 1.657719281E-05
  5.851217921E-06-2.094257469E-05-5.644477433E-05-4.698324573E-05-2.106578480E-05
  3.281932404E-06-1.418689587E-05-7.434985896E-07 1.342504717E-05-2.005126276E-06
 -1.823942079E-06 8.212696138E-06-1.259813773E-05 1.046825383E-05-9.614941170E-06
 -5.077023692E-06 1.533251136E-06-1.218778118E-05 2.464423254E-05 1.210973271E-05
  1.101418264E-06-2.644073521E-06 5.263732925E-06 4.710952039E-06-5.681613975E-06
 -4.990990481E-01 3.008272786E+00 1.121077019E+00
 ......END OF GEOMETRY SEARCH......
 CPU     0: STEP CPU TIME=     0.01 TOTAL CPU TIME=       2650.9 (     44.2 MIN)
 TOTAL WALL CLOCK TIME=       2771.9 SECONDS, CPU UTILIZATION IS    95.64%
              1216378  WORDS OF DYNAMIC MEMORY USED
 EXECUTION OF GAMESS TERMINATED NORMALLY Thu May 21 21:51:05 2020
 DDI: 263640 bytes (0.3 MB / 0 MWords) used by master data server.
Note: The following floating-point exceptions are signalling: IEEE_UNDERFLOW_FLAGNote: The following floating-point exceptions are signalling:Note: The following floating-point exceptions are signalling:Note: The following floating-point exceptions are signalling: IEEE_UNDERFLOW_FLAG IEEE_DENORMAL
Note: The following floating-point exceptions are signalling: IEEE_UNDERFLOW_FLAGNote: The following floating-point exceptions are signalling: IEEE_UNDERFLOW_FLAG IEEE_UNDERFLOW_FLAG IEEE_DENORMAL
 ----------------------------------------
 CPU timing information for all processes
 ========================================
 0: 2636.186 + 14.752 = 2650.939
 1: 2628.242 + 7.616 = 2635.859
 2: 2631.588 + 9.63 = 2640.651
 3: 2614.375 + 6.852 = 2621.227
 4: 2632.657 + 9.186 = 2641.844
 5: 2617.271 + 6.355 = 2623.626
 6: 2618.588 + 8.472 = 2627.60
 7: 2606.436 + 6.712 = 2613.148
 ----------------------------------------
 IEEE_UNDERFLOW_FLAGNote: The following floating-point exceptions are signalling: IEEE_DENORMAL
 IEEE_DENORMAL
 IEEE_DENORMAL

Note: The following floating-point exceptions are signalling: IEEE_UNDERFLOW_FLAG IEEE_DENORMAL
 IEEE_UNDERFLOW_FLAG IEEE_DENORMAL IEEE_DENORMAL

 ddikick.x: exited gracefully.
unset echo
----- accounting info -----
Files used on the master node pietdev were:
-rwxr-xr-x 1 piet piet     1610 mei 21 21:04 /home/piet/scr/beta-d-acetylgalactosamine_geoopt.F05*
-rw-r--r-- 1 piet piet 57344000 mei 21 21:51 /home/piet/scr/beta-d-acetylgalactosamine_geoopt.F10
-rw-r--r-- 1 piet piet  7654384 mei 21 21:49 /home/piet/scr/beta-d-acetylgalactosamine_geoopt.F22
-rw-r--r-- 1 piet piet  7654384 mei 21 21:49 /home/piet/scr/beta-d-acetylgalactosamine_geoopt.F22.001
-rw-r--r-- 1 piet piet  7654384 mei 21 21:49 /home/piet/scr/beta-d-acetylgalactosamine_geoopt.F22.002
-rw-r--r-- 1 piet piet  7654384 mei 21 21:49 /home/piet/scr/beta-d-acetylgalactosamine_geoopt.F22.003
-rw-r--r-- 1 piet piet  7654384 mei 21 21:49 /home/piet/scr/beta-d-acetylgalactosamine_geoopt.F22.004
-rw-r--r-- 1 piet piet  7654384 mei 21 21:49 /home/piet/scr/beta-d-acetylgalactosamine_geoopt.F22.005
-rw-r--r-- 1 piet piet  7654384 mei 21 21:49 /home/piet/scr/beta-d-acetylgalactosamine_geoopt.F22.006
-rw-r--r-- 1 piet piet  7654384 mei 21 21:49 /home/piet/scr/beta-d-acetylgalactosamine_geoopt.F22.007
ls: No match.
ls: No match.
ls: No match.
do 21 mei 2020 21:51:08 CEST
0.120u 0.024s 46:15.00 0.0%	0+0k 0+8io 0pf+0w
