----- GAMESS execution script 'rungms' -----
This job is running on host pietdev
under operating system Linux at do 21 mei 2020 21:51:16 CEST
Available scratch disk space (Kbyte units) at beginning of the job is
Filesystem     1K-blocks     Used Available Use% Mounted on
/dev/sda2      244568380 30774124 201301200  14% /
GAMESS temporary binary files will be written to /home/piet/scr
GAMESS supplementary output files will be written to /home/piet/gamess/scr
Copying input file beta-d-acetylgalactosamine_charge_chelpg.inp to your run's scratch directory...
cp beta-d-acetylgalactosamine_charge_chelpg.inp /home/piet/scr/beta-d-acetylgalactosamine_charge_chelpg.F05
unset echo
 
Assuming a single but multicore node.
 
/home/piet/gamess/ddikick.x /home/piet/gamess/gamess.03.x beta-d-acetylgalactosamine_charge_chelpg -ddi 1 8 pietdev:cpus=8 -scr /home/piet/scr

 Distributed Data Interface kickoff program.
 Initiating 8 compute processes on 1 nodes to run the following command:
 /home/piet/gamess/gamess.03.x beta-d-acetylgalactosamine_charge_chelpg 

          ******************************************************
          *         GAMESS VERSION = 30 SEP 2019 (R2)          *
          *             FROM IOWA STATE UNIVERSITY             *
          * M.W.SCHMIDT, K.K.BALDRIDGE, J.A.BOATZ, S.T.ELBERT, *
          *   M.S.GORDON, J.H.JENSEN, S.KOSEKI, N.MATSUNAGA,   *
          *          K.A.NGUYEN, S.J.SU, T.L.WINDUS,           *
          *       TOGETHER WITH M.DUPUIS, J.A.MONTGOMERY       *
          *         J.COMPUT.CHEM.  14, 1347-1363(1993)        *
          **************** 64 BIT LINUX VERSION ****************

  SINCE 1993, STUDENTS AND POSTDOCS WORKING AT IOWA STATE UNIVERSITY
  AND ALSO IN THEIR VARIOUS JOBS AFTER LEAVING ISU HAVE MADE IMPORTANT
  CONTRIBUTIONS TO THE CODE:
     IVANA ADAMOVIC, CHRISTINE AIKENS, YURI ALEXEEV, POOJA ARORA,
     ANDREY ASADCHEV, ROB BELL, PRADIPTA BANDYOPADHYAY, JONATHAN BENTZ,
     COLLEEN BERTONI, BRETT BODE, KURT BRORSEN, CALEB CARLIN, GALINA CHABAN,
     WEI CHEN, CHEOL HO CHOI, PAUL DAY, ALBERT DEFUSCO, NUWAN DESILVA,
     TIM DUDLEY, DMITRI FEDOROV, ALEX FINDLATER, GRAHAM FLETCHER, 
     MARK FREITAG, KURT GLAESEMANN, EMILIE B GUIDEZ, ANASTASIA GUNINA, 
     DAN KEMP, SAROM SOK LEANG, GRANT MERRILL,
     NORIYUKI MINEZAWA, JONATHAN MULLIN,
     TAKESHI NAGATA, SEAN NEDD, HEATHER NETZLOFF, BOSILJKA NJEGIC, RYAN OLSON,
     MIKE PAK, BUU PHAM, DAVID POOLE,
     SPENCER PRUITT, LUKE ROSKOP, TOSAPORN SATTASATHUCHANA,
     JIM SHOEMAKER, LYUDMILA SLIPCHENKO,
     TONY SMITH, JIE SONG, TETSUYA TAKETSUGU, SIMON WEBB,
     JORGE LUIS GALVEZ VALLEJO, PENG XU, SOOHAENG YOO,
     FEDERICO ZAHARIEV

  ADDITIONAL CODE HAS BEEN PROVIDED BY COLLABORATORS IN OTHER GROUPS:
     IOWA STATE UNIVERSITY:
          JOE IVANIC, AARON WEST, LAIMUTIS BYTAUTAS, KLAUS RUEDENBERG
     UNIVERSITY OF TOKYO: KIMIHIKO HIRAO, TAKAHITO NAKAJIMA,
          TAKAO TSUNEDA, MUNEAKI KAMIYA, SUSUMU YANAGISAWA,
          KIYOSHI YAGI, MAHITO CHIBA, SEIKEN TOKURA, NAOAKI KAWAKAMI
     UNIVERSITY OF AARHUS: FRANK JENSEN
     UNIVERSITY OF IOWA: VISVALDAS KAIRYS, HUI LI
     NATIONAL INST. OF STANDARDS AND TECHNOLOGY: WALT STEVENS, DAVID GARMER
     UNIVERSITY OF PISA: BENEDETTA MENNUCCI, JACOPO TOMASI
     UNIVERSITY OF MEMPHIS: HENRY KURTZ, PRAKASHAN KORAMBATH
     UNIVERSITY OF ALBERTA: TOBY ZENG, MARIUSZ KLOBUKOWSKI
     UNIVERSITY OF NEW ENGLAND: MARK SPACKMAN
     MIE UNIVERSITY: HIROAKI UMEDA
     NAT. INST. OF ADVANCED INDUSTRIAL SCIENCE AND TECHNOLOGY: KAZUO KITAURA
     MICHIGAN STATE UNIVERSITY:
          KAROL KOWALSKI, MARTA WLOCH, JEFFREY GOUR, JESSE LUTZ,
          WEI LI, JUN SHEN, J. EMILIANO DEUSTUA, PIOTR PIECUCH
     UNIVERSITY OF MINNESOTA:
          ANDREW SAND, PRACHI SHARMA, YINAN SHU
     UNIVERSITY OF SILESIA: MONIKA MUSIAL, STANISLAW KUCHARSKI
     FACULTES UNIVERSITAIRES NOTRE-DAME DE LA PAIX:
          OLIVIER QUINET, BENOIT CHAMPAGNE
     UNIVERSITY OF CALIFORNIA - SANTA BARBARA: BERNARD KIRTMAN
     INSTITUTE FOR MOLECULAR SCIENCE:
          KAZUYA ISHIMURA, MICHIO KATOUDA, AND SHIGERU NAGASE
     UNIVERSITY OF NOTRE DAME: ANNA POMOGAEVA, DAN CHIPMAN
     KYUSHU UNIVERSITY:
          HARUYUKI NAKANO,
          FENG LONG GU, JACEK KORCHOWIEC, MARCIN MAKOWSKI, AND YURIKO AOKI,
          HIROTOSHI MORI AND EISAKU MIYOSHI
     PENNSYLVANIA STATE UNIVERSITY:
          TZVETELIN IORDANOV, CHET SWALINA, JONATHAN SKONE,
          SHARON HAMMES-SCHIFFER
     WASEDA UNIVERSITY:
          MASATO KOBAYASHI, TOMOKO AKAMA, TSUGUKI TOUMA,
          TAKESHI YOSHIKAWA, YASUHIRO IKABATA, JUNJI SEINO,
          YUYA NAKAJIMA, HIROMI NAKAI
     NANJING UNIVERSITY: SHUHUA LI
     UNIVERSITY OF NEBRASKA:
          PEIFENG SU, DEJUN SI, NANDUN THELLAMUREGE, YALI WANG, HUI LI
     UNIVERSITY OF ZURICH: ROBERTO PEVERATI, KIM BALDRIDGE
     N. COPERNICUS UNIVERSITY AND JACKSON STATE UNIVERSITY:
          MARIA BARYSZ
     UNIVERSITY OF COPENHAGEN: Jimmy Kromann, CASPER STEINMANN
     TOKYO INSTITUTE OF TECHNOLOGY: HIROYA NAKATA
     NAGOYA UNIVERSITY: YOSHIO NISHIMOTO, STEPHAN IRLE
     MOSCOW STATE UNIVERSITY: VLADIMIR MIRONOV
     A.N.NESMEYANOV INSTITUTE OF ORGANOELEMENT COMPOUNDS OF RUSSIAN ACADEMY OF SCIENCES:
          IGOR S. GERASIMOV
     JOHANNES KEPLER UNIVERSITY LINZ:
          CHRISTIAN FRIEDL


 PARALLEL VERSION RUNNING ON        8 PROCESSORS IN        1 NODES.

 EXECUTION OF GAMESS BEGUN Thu May 21 21:51:16 2020

            ECHO OF THE FIRST FEW INPUT CARDS -
 INPUT CARD> $BASIS GBASIS=N21 NGAUSS=3 $END                                                
 INPUT CARD> $CONTRL SCFTYP=RHF DFTTYP=B3LYP MAXIT=60 MULT=1 ICHARG=0 $END                  
 INPUT CARD> $SYSTEM MEMDDI=1000 MWORDS=30 $END                                             
 INPUT CARD> $SCF DIRSCF=.TRUE. $END                                                        
 INPUT CARD> $ELPOT  IEPOT=1 WHERE=PDC $END                                                 
 INPUT CARD> $PDC PTSEL=CHELPG CONSTR=CHARGE $END                                           
 INPUT CARD> $DATA                                                                          
 INPUT CARD>                                                                                
 INPUT CARD>C1                                                                              
 INPUT CARD>O 8.0000000 -1.3953435025 -1.0038225532 -0.4257324581                           
 INPUT CARD>O 8.0000000 0.7006152756 2.4485278479 0.7556993405                              
 INPUT CARD>O 8.0000000 -1.3884180315 2.0422366809 -0.8049707412                            
 INPUT CARD>O 8.0000000 0.0287725717 -1.5233557931 1.4329589981                             
 INPUT CARD>O 8.0000000 -4.0122510124 -1.3435943310 -0.4917383354                           
 INPUT CARD>O 8.0000000 2.6279283527 -1.9110937691 -0.6722890904                            
 INPUT CARD>N 7.0000000 2.1069880298 0.1667609319 0.1699681651                              
 INPUT CARD>C 6.0000000 0.0222982507 1.1617462187 0.8490677956                              
 INPUT CARD>C 6.0000000 0.6755731631 0.1613323802 -0.1240812298                             
 INPUT CARD>C 6.0000000 -1.4561173056 1.3237351027 0.4845543510                             
 INPUT CARD>C 6.0000000 -2.1588043661 -0.0334246213 0.3861289298                            
 INPUT CARD>C 6.0000000 -0.0230219628 -1.1900823378 0.0376672978                            
 INPUT CARD>C 6.0000000 -3.5068612705 0.0081464133 -0.3372719095                            
 INPUT CARD>C 6.0000000 2.9762840051 -0.8381173616 -0.1411684532                            
 INPUT CARD>C 6.0000000 4.4293846039 -0.5198191420 0.2181583324                             
 INPUT CARD>H 1.0000000 0.1408377700 0.7851902752 1.8638155732                              
 INPUT CARD>H 1.0000000 0.4697415684 0.4952719972 -1.1478132161                             
 INPUT CARD>H 1.0000000 -1.9593076709 1.9378054322 1.2440912350                             
 INPUT CARD>H 1.0000000 -2.2750458470 -0.4321391539 1.3985140277                            
 INPUT CARD>H 1.0000000 0.4251539133 -1.9448590602 -0.6032554420                            
 INPUT CARD>H 1.0000000 -3.3420582830 0.5066353770 -1.3040538524                            
 INPUT CARD>H 1.0000000 -4.2425592182 0.5695891232 0.2463511706                             
 INPUT CARD>H 1.0000000 2.4284982714 1.0655486973 0.5268237956                              
 INPUT CARD>H 1.0000000 0.2991784502 2.8429465612 -0.0751111904                             
 INPUT CARD>H 1.0000000 -2.2572403953 2.4899160404 -0.9762612009                            
 INPUT CARD>H 1.0000000 -0.2539499037 -2.4698444384 1.5446591625                            
 INPUT CARD>H 1.0000000 -3.2064522475 -1.8488465556 -0.8008422670                           
 INPUT CARD>H 1.0000000 4.8009746507 0.3049558761 -0.4018535111                             
 INPUT CARD>H 1.0000000 4.5145836955 -0.2273895098 1.2702793114                             
 INPUT CARD>H 1.0000000 5.0323185447 -1.4089566285 0.0318054115                             
 INPUT CARD> $END                                                                           
   30000000 WORDS OF MEMORY AVAILABLE

     BASIS OPTIONS
     -------------
     GBASIS=N21          IGAUSS=       3      POLAR=NONE    
     NDFUNC=       0     NFFUNC=       0     DIFFSP=       F
     NPFUNC=       0      DIFFS=       F     BASNAM=        


     RUN TITLE
     ---------
                                                                                 

 THE POINT GROUP OF THE MOLECULE IS C1      
 THE ORDER OF THE PRINCIPAL AXIS IS     0

 ATOM      ATOMIC                      COORDINATES (BOHR)
           CHARGE         X                   Y                   Z
 O           8.0    -2.6368168785       -1.8969495658       -0.8045176899
 O           8.0     1.3239708937        4.6270467058        1.4280646826
 O           8.0    -2.6237296359        3.8592677290       -1.5211741290
 O           8.0     0.0543722765       -2.8787250308        2.7078998580
 O           8.0    -7.5820550074       -2.5390251242       -0.9292507116
 O           8.0     4.9660645020       -3.6114435604       -1.2704421654
 N           7.0     3.9816300357        0.3151324667        0.3211932587
 C           6.0     0.0421375838        2.1953820206        1.6045054787
 C           6.0     1.2766481629        0.3048739915       -0.2344795245
 C           6.0    -2.7516627136        2.5014966244        0.9156749495
 C           6.0    -4.0795487130       -0.0631633755        0.7296778733
 C           6.0    -0.0435052014       -2.2489295213        0.0711808715
 C           6.0    -6.6270068782        0.0153944889       -0.6373514923
 C           6.0     5.6243612313       -1.5838121590       -0.2667696947
 C           6.0     8.3703231956       -0.9823157416        0.4122594702
 H           1.0     0.2661447940        1.4837944684        3.5221007250
 H           1.0     0.8876828493        0.9359283641       -2.1690524635
 H           1.0    -3.7025546236        3.6619212844        2.3509915379
 H           1.0    -4.2992132603       -0.8166245894        2.6428083023
 H           1.0     0.8034243987       -3.6752507085       -1.1399874860
 H           1.0    -6.3155743899        0.9574020382       -2.4643044543
 H           1.0    -8.0172744091        1.0763673684        0.4655362092
 H           1.0     4.5891962946        2.0135950645        0.9955526175
 H           1.0     0.5653652923        5.3723899984       -0.1419395685
 H           1.0    -4.2655658355        4.7052590488       -1.8448661621
 H           1.0    -0.4798957326       -4.6673292209        2.9189825615
 H           1.0    -6.0593161405       -3.4938133834       -1.5133724440
 H           1.0     9.0725265638        0.5762830442       -0.7593930232
 H           1.0     8.5313261331       -0.4297038660        2.4004798264
 H           1.0     9.5097031324       -2.6625419564        0.0601035127

          INTERNUCLEAR DISTANCES (ANGS.)
          ------------------------------

                1 O          2 O          3 O          4 O          5 O     

   1 O       0.0000000    4.2080337    3.0695841    2.3984902 *  2.6396982 *
   2 O       4.2080337    0.0000000    2.6390953 *  4.0848394    6.1763582  
   3 O       3.0695841    2.6390953 *  0.0000000    4.4418699    4.2949349  
   4 O       2.3984902 *  4.0848394    4.4418699    0.0000000    4.4795810  
   5 O       2.6396982 *  6.1763582    4.2949349    4.4795810    0.0000000  
   6 O       4.1316640    4.9759408    5.6371504    3.3671978    6.6668310  
   7 N       3.7405148    2.7436154 *  4.0848230    2.9615232 *  6.3375165  
   8 C       2.8852230 *  1.4576140 *  2.3454695 *  2.7478617 *  4.9347827  
   9 C       2.3952610 *  2.4506946 *  2.8742775 *  2.3834638 *  4.9371724  
  10 C       2.4999680 *  2.4474831 *  1.4777357 *  3.3481780    3.8212057  
  11 C       1.4777224 *  3.8043332    2.5140770 *  2.8462679 *  2.4336105 *
  12 C       1.4603761 *  3.7787174    3.6086329    1.4354765 *  4.0271311  
  13 C       2.3431632 *  4.9852690    2.9738976 *  4.2402739    1.4513724 *
  14 C       4.3840121    4.0969595    5.2714037    3.4110486    7.0155561  
  15 C       5.8801626    4.7962230    6.4387693    4.6742072    8.5113906  
  16 H       3.2867081    2.0755636 *  3.3228315    2.3510808 *  5.2276672  
  17 H       2.4994454 *  2.7371283 *  2.4420069 *  3.3060092    4.8887750  
  18 H       3.4292189    2.7521908 *  2.1296657 *  3.9959694    4.2420826  
  19 H       2.1044176 *  4.1911827    3.4298673    2.5494155 *  2.7242772 *
  20 H       2.0570063 *  4.6070040    4.3848221    2.1168260 *  4.4793435  
  21 H       2.6158421 *  4.9352547    2.5345346 *  4.7931831    2.1289351 *
  22 H       3.3217402    5.3127037    3.3793624    4.9023190    2.0635137 *
  23 H       4.4510029    2.2249933 *  4.1588996    3.6444740    6.9515962  
  24 H       4.2180532    1.0034759 *  2.0054459 *  4.6273093    6.0240457  
  25 H       3.6403513    3.4278726    0.9922749 *  5.2092752    4.2438928  
  26 H       2.7082176 *  5.0718870    5.2121641    0.9941075 *  4.4204277  
  27 H       2.0334424 *  6.0129381    4.2948567    3.9449324    1.0000683 *
  28 H       6.3330743    4.7694629    6.4412134    5.4298410    8.9665347  
  29 H       6.1973013    4.6873960    6.6560721    4.6720975    8.7782418  
  30 H       6.4566488    5.8453282    7.3373556    5.1972869    9.0599453  

                6 O          7 N          8 C          9 C         10 C     

   1 O       4.1316640    3.7405148    2.8852230 *  2.3952610 *  2.4999680 *
   2 O       4.9759408    2.7436154 *  1.4576140 *  2.4506946 *  2.4474831 *
   3 O       5.6371504    4.0848230    2.3454695 *  2.8742775 *  1.4777357 *
   4 O       3.3671978    2.9615232 *  2.7478617 *  2.3834638 *  3.3481780  
   5 O       6.6668310    6.3375165    4.9347827    4.9371724    3.8212057  
   6 O       0.0000000    2.3017941 *  4.3065277    2.8995125 *  5.3368374  
   7 N       2.3017941 *  0.0000000    2.4077175 *  1.4613155 *  3.7594246  
   8 C       4.3065277    2.4077175 *  0.0000000    1.5409786 *  1.5312815 *
   9 C       2.8995125 *  1.4613155 *  1.5409786 *  0.0000000    2.5031423 *
  10 C       5.3368374    3.7594246    1.5312815 *  2.5031423 *  0.0000000  
  11 C       5.2496381    4.2759542    2.5298131 *  2.8865101 *  1.5314500 *
  12 C       2.8375047 *  2.5289266 *  2.4882770 *  1.5298756 *  2.9279256 *
  13 C       6.4367199    5.6389498    3.8978406    4.1906651    2.5713271 *
  14 C       1.2468838 *  1.3646472 *  3.7021688    2.5084781 *  4.9710478  
  15 C       2.4441330 *  2.4222387 *  4.7590040    3.8304302    6.1732319  
  16 H       4.4595285    2.6678307 *  1.0888338 *  2.1510170 *  2.1777643 *
  17 H       3.2671837    2.1272149 *  2.1521913 *  1.0963163 *  2.6570486 *
  18 H       6.2872309    4.5634526    2.1645030 *  3.4598193    1.0987171 *
  19 H       5.5240102    4.5902317    2.8495880 *  3.3729301    2.1422093 *
  20 H       2.2041146 *  2.8080918 *  3.4529019    2.1744793 *  3.9250757  
  21 H       6.4718839    5.6551181    4.0477151    4.2015392    2.7246183 *
  22 H       7.3621523    6.3627710    4.3477496    4.9489312    2.8965040 *
  23 H       3.2152829    1.0190850 *  2.4295871 *  2.0770245 *  3.8934156  
  24 H       5.3273443    3.2388592    1.9383509 *  2.7083437 *  2.3879473 *
  25 H       6.5822610    5.0751730    3.2081393    3.8405609    2.0336564 *
  26 H       3.6786253    3.7967738    3.7079120    3.2514303    4.1182854  
  27 H       5.8361287    5.7652228    4.7128231    4.4236802    3.8446315  
  28 H       3.1154681    2.7574702 *  5.0134461    4.1372361    6.4011585  
  29 H       3.1887145    2.6762952 *  4.7209899    4.1028463    6.2187315  
  30 H       2.5551875 *  3.3255877    5.6900557    4.6337176    7.0549547  

               11 C         12 C         13 C         14 C         15 C     

   1 O       1.4777224 *  1.4603761 *  2.3431632 *  4.3840121    5.8801626  
   2 O       3.8043332    3.7787174    4.9852690    4.0969595    4.7962230  
   3 O       2.5140770 *  3.6086329    2.9738976 *  5.2714037    6.4387693  
   4 O       2.8462679 *  1.4354765 *  4.2402739    3.4110486    4.6742072  
   5 O       2.4336105 *  4.0271311    1.4513724 *  7.0155561    8.5113906  
   6 O       5.2496381    2.8375047 *  6.4367199    1.2468838 *  2.4441330 *
   7 N       4.2759542    2.5289266 *  5.6389498    1.3646472 *  2.4222387 *
   8 C       2.5298131 *  2.4882770 *  3.8978406    3.7021688    4.7590040  
   9 C       2.8865101 *  1.5298756 *  4.1906651    2.5084781 *  3.8304302  
  10 C       1.5314500 *  2.9279256 *  2.5713271 *  4.9710478    6.1732319  
  11 C       0.0000000    2.4537418 *  1.5304556 *  5.2244335    6.6082545  
  12 C       2.4537418 *  0.0000000    3.7031700    3.0251773    4.5061906  
  13 C       1.5304556 *  3.7031700    0.0000000    6.5410849    7.9731580  
  14 C       5.2244335    3.0251773    6.5410849    0.0000000    1.5303368 *
  15 C       6.6082545    4.5061906    7.9731580    1.5303368 *  0.0000000  
  16 H       2.8534264 *  2.6950639 *  4.3306225    3.8333854    4.7752352  
  17 H       3.0889727    2.1186314 *  4.0874979    3.0123107    4.3098795  
  18 H       2.1590846 *  3.8714781    2.9358500 *  5.8296447    6.9215494  
  19 H       1.0942618 *  2.7382464 *  2.1735164 *  5.4874316    6.8081066  
  20 H       3.3629308    1.0868907 *  4.3983771    2.8189832 *  4.3288939  
  21 H       2.1327148 *  3.9617002    1.1001448 *  6.5636965    7.9853656  
  22 H       2.1737520 *  4.5765148    1.0941139 *  7.3650191    8.7401496  
  23 H       4.7192036    3.3670606    6.0904231    2.0905089 *  2.5714221 *
  24 H       3.8115526    4.0474503    4.7529736    4.5520863    5.3341169  
  25 H       2.8693283 *  4.4229143    2.8511472 *  6.2580319    7.4294076  
  26 H       3.3025451    1.9905133 *  4.5015037    3.9923626    5.2436462  
  27 H       2.4087805 *  3.3572752    1.9374122 *  6.2994421    7.8173321  
  28 H       7.0124134    5.0694439    8.3133871    2.1688866 *  1.0966985 *
  29 H       6.7344972    4.7995807    8.1843312    2.1752102 *  1.0953230 *
  30 H       7.3300670    5.0600798    8.6638324    2.1408072 *  1.0903312 *

               16 H         17 H         18 H         19 H         20 H     

   1 O       3.2867081    2.4994454 *  3.4292189    2.1044176 *  2.0570063 *
   2 O       2.0755636 *  2.7371283 *  2.7521908 *  4.1911827    4.6070040  
   3 O       3.3228315    2.4420069 *  2.1296657 *  3.4298673    4.3848221  
   4 O       2.3510808 *  3.3060092    3.9959694    2.5494155 *  2.1168260 *
   5 O       5.2276672    4.8887750    4.2420826    2.7242772 *  4.4793435  
   6 O       4.4595285    3.2671837    6.2872309    5.5240102    2.2041146 *
   7 N       2.6678307 *  2.1272149 *  4.5634526    4.5902317    2.8080918 *
   8 C       1.0888338 *  2.1521913 *  2.1645030 *  2.8495880 *  3.4529019  
   9 C       2.1510170 *  1.0963163 *  3.4598193    3.3729301    2.1744793 *
  10 C       2.1777643 *  2.6570486 *  1.0987171 *  2.1422093 *  3.9250757  
  11 C       2.8534264 *  3.0889727    2.1590846 *  1.0942618 *  3.3629308  
  12 C       2.6950639 *  2.1186314 *  3.8714781    2.7382464 *  1.0868907 *
  13 C       4.3306225    4.0874979    2.9358500 *  2.1735164 *  4.3983771  
  14 C       3.8333854    3.0123107    5.8296447    5.4874316    2.8189832 *
  15 C       4.7752352    4.3098795    6.9215494    6.8081066    4.3288939  
  16 H       0.0000000    3.0433761    2.4745082 *  2.7449754 *  3.6905886  
  17 H       3.0433761    0.0000000    3.7016739    3.8571663    2.5005541 *
  18 H       2.4745082 *  3.7016739    0.0000000    2.3958661 *  4.9166483  
  19 H       2.7449754 *  3.8571663    2.3958661 *  0.0000000    3.6859844  
  20 H       3.6905886    2.5005541 *  4.9166483    3.6859844    0.0000000  
  21 H       4.7163073    3.8150175    3.2331549    3.0534712    4.5489374  
  22 H       4.6772689    4.9147732    2.8426640 *  2.4903911 *  5.3695276  
  23 H       2.6644959 *  2.6393849 *  4.5307996    5.0126081    3.7885383  
  24 H       2.8317609 *  2.5867658 *  2.7677310 *  4.4186410    4.8184945  
  25 H       4.0893649    3.3829670    2.3072830 *  3.7654058    5.1963066  
  26 H       3.2943845    4.0700187    4.7356059    2.8737484 *  2.3130778 *
  27 H       5.0242315    4.3737491    4.4806089    2.7770030 *  3.6382444  
  28 H       5.2039175    4.3991199    7.1467999    7.3385761    4.9244327  
  29 H       4.5284938    4.7676156    6.8264211    6.7939264    4.8149008  
  30 H       5.6654326    5.0827842    7.8455905    7.4979757    4.6815019  

               21 H         22 H         23 H         24 H         25 H     

   1 O       2.6158421 *  3.3217402    4.4510029    4.2180532    3.6403513  
   2 O       4.9352547    5.3127037    2.2249933 *  1.0034759 *  3.4278726  
   3 O       2.5345346 *  3.3793624    4.1588996    2.0054459 *  0.9922749 *
   4 O       4.7931831    4.9023190    3.6444740    4.6273093    5.2092752  
   5 O       2.1289351 *  2.0635137 *  6.9515962    6.0240457    4.2438928  
   6 O       6.4718839    7.3621523    3.2152829    5.3273443    6.5822610  
   7 N       5.6551181    6.3627710    1.0190850 *  3.2388592    5.0751730  
   8 C       4.0477151    4.3477496    2.4295871 *  1.9383509 *  3.2081393  
   9 C       4.2015392    4.9489312    2.0770245 *  2.7083437 *  3.8405609  
  10 C       2.7246183 *  2.8965040 *  3.8934156    2.3879473 *  2.0336564 *
  11 C       2.1327148 *  2.1737520 *  4.7192036    3.8115526    2.8693283 *
  12 C       3.9617002    4.5765148    3.3670606    4.0474503    4.4229143  
  13 C       1.1001448 *  1.0941139 *  6.0904231    4.7529736    2.8511472 *
  14 C       6.5636965    7.3650191    2.0905089 *  4.5520863    6.2580319  
  15 C       7.9853656    8.7401496    2.5714221 *  5.3341169    7.4294076  
  16 H       4.7163073    4.6772689    2.6644959 *  2.8317609 *  4.0893649  
  17 H       3.8150175    4.9147732    2.6393849 *  2.5867658 *  3.3829670  
  18 H       3.2331549    2.8426640 *  4.5307996    2.7677310 *  2.3072830 *
  19 H       3.0534712    2.4903911 *  5.0126081    4.4186410    3.7654058  
  20 H       4.5489374    5.3695276    3.7885383    4.8184945    5.1963066  
  21 H       0.0000000    1.7940515 *  6.0797878    4.4974721    2.2842242 *
  22 H       1.7940515 *  0.0000000    6.6953453    5.0890935    3.0205839  
  23 H       6.0797878    6.6953453    0.0000000    2.8382163 *  5.1229126  
  24 H       4.4974721    5.0890935    2.8382163 *  0.0000000    2.7334921 *
  25 H       2.2842242 *  3.0205839    5.1229126    2.7334921 *  0.0000000  
  26 H       5.1488845    5.1800352    4.5530783    5.5816982    5.9133270  
  27 H       2.4124481 *  2.8317773 *  6.4814400    5.9016146    4.4448437  
  28 H       8.1953417    9.0705956    2.6588695 *  5.1782551    7.4109645  
  29 H       8.3001691    8.8527485    2.5644040 *  5.3857850    7.6346772  
  30 H       8.6939174    9.4859913    3.6260309    6.3633896    8.3279695  

               26 H         27 H         28 H         29 H         30 H     

   1 O       2.7082176 *  2.0334424 *  6.3330743    6.1973013    6.4566488  
   2 O       5.0718870    6.0129381    4.7694629    4.6873960    5.8453282  
   3 O       5.2121641    4.2948567    6.4412134    6.6560721    7.3373556  
   4 O       0.9941075 *  3.9449324    5.4298410    4.6720975    5.1972869  
   5 O       4.4204277    1.0000683 *  8.9665347    8.7782418    9.0599453  
   6 O       3.6786253    5.8361287    3.1154681    3.1887145    2.5551875 *
   7 N       3.7967738    5.7652228    2.7574702 *  2.6762952 *  3.3255877  
   8 C       3.7079120    4.7128231    5.0134461    4.7209899    5.6900557  
   9 C       3.2514303    4.4236802    4.1372361    4.1028463    4.6337176  
  10 C       4.1182854    3.8446315    6.4011585    6.2187315    7.0549547  
  11 C       3.3025451    2.4087805 *  7.0124134    6.7344972    7.3300670  
  12 C       1.9905133 *  3.3572752    5.0694439    4.7995807    5.0600798  
  13 C       4.5015037    1.9374122 *  8.3133871    8.1843312    8.6638324  
  14 C       3.9923626    6.2994421    2.1688866 *  2.1752102 *  2.1408072 *
  15 C       5.2436462    7.8173321    1.0966985 *  1.0953230 *  1.0903312 *
  16 H       3.2943845    5.0242315    5.2039175    4.5284938    5.6654326  
  17 H       4.0700187    4.3737491    4.3991199    4.7676156    5.0827842  
  18 H       4.7356059    4.4806089    7.1467999    6.8264211    7.8455905  
  19 H       2.8737484 *  2.7770030 *  7.3385761    6.7939264    7.4979757  
  20 H       2.3130778 *  3.6382444    4.9244327    4.8149008    4.6815019  
  21 H       5.1488845    2.4124481 *  8.1953417    8.3001691    8.6939174  
  22 H       5.1800352    2.8317773 *  9.0705956    8.8527485    9.4859913  
  23 H       4.5530783    6.4814400    2.6588695 *  2.5644040 *  3.6260309  
  24 H       5.5816982    5.9016146    5.1782551    5.3857850    6.3633896  
  25 H       5.9133270    4.4448437    7.4109645    7.6346772    8.3279695  
  26 H       0.0000000    3.8215554    6.0861064    5.2766278    5.5998967  
  27 H       3.8215554    0.0000000    8.3016229    8.1567802    8.2924152  
  28 H       6.0861064    8.3016229    0.0000000    1.7780437 *  1.7829964 *
  29 H       5.2766278    8.1567802    1.7780437 *  0.0000000    1.7882863 *
  30 H       5.5998967    8.2924152    1.7829964 *  1.7882863 *  0.0000000  

  * ... LESS THAN  3.000


     ATOMIC BASIS SET
     ----------------
 THE CONTRACTED PRIMITIVE FUNCTIONS HAVE BEEN UNNORMALIZED
 THE CONTRACTED BASIS FUNCTIONS ARE NOW NORMALIZED TO UNITY

  SHELL TYPE  PRIMITIVE        EXPONENT          CONTRACTION COEFFICIENT(S)

 O         

      1   S       1           322.0370000    0.059239393389
      1   S       2            48.4308000    0.351499960776
      1   S       3            10.4206000    0.707657921031

      2   L       4             7.4029400   -0.404453583190    0.244586106967
      2   L       5             1.5762000    1.221561761397    0.853955373466

      3   L       6             0.3736840    1.000000000000    1.000000000000

 O         

      4   S       7           322.0370000    0.059239393389
      4   S       8            48.4308000    0.351499960776
      4   S       9            10.4206000    0.707657921031

      5   L      10             7.4029400   -0.404453583190    0.244586106967
      5   L      11             1.5762000    1.221561761397    0.853955373466

      6   L      12             0.3736840    1.000000000000    1.000000000000

 O         

      7   S      13           322.0370000    0.059239393389
      7   S      14            48.4308000    0.351499960776
      7   S      15            10.4206000    0.707657921031

      8   L      16             7.4029400   -0.404453583190    0.244586106967
      8   L      17             1.5762000    1.221561761397    0.853955373466

      9   L      18             0.3736840    1.000000000000    1.000000000000

 O         

     10   S      19           322.0370000    0.059239393389
     10   S      20            48.4308000    0.351499960776
     10   S      21            10.4206000    0.707657921031

     11   L      22             7.4029400   -0.404453583190    0.244586106967
     11   L      23             1.5762000    1.221561761397    0.853955373466

     12   L      24             0.3736840    1.000000000000    1.000000000000

 O         

     13   S      25           322.0370000    0.059239393389
     13   S      26            48.4308000    0.351499960776
     13   S      27            10.4206000    0.707657921031

     14   L      28             7.4029400   -0.404453583190    0.244586106967
     14   L      29             1.5762000    1.221561761397    0.853955373466

     15   L      30             0.3736840    1.000000000000    1.000000000000

 O         

     16   S      31           322.0370000    0.059239393389
     16   S      32            48.4308000    0.351499960776
     16   S      33            10.4206000    0.707657921031

     17   L      34             7.4029400   -0.404453583190    0.244586106967
     17   L      35             1.5762000    1.221561761397    0.853955373466

     18   L      36             0.3736840    1.000000000000    1.000000000000

 N         

     19   S      37           242.7660000    0.059865700508
     19   S      38            36.4851000    0.352955002994
     19   S      39             7.8144900    0.706513005993

     20   L      40             5.4252200   -0.413300077430    0.237972016222
     20   L      41             1.1491500    1.224417266851    0.858953058551

     21   L      42             0.2832050    1.000000000000    1.000000000000

 C         

     22   S      43           172.2560000    0.061766907377
     22   S      44            25.9109000    0.358794042852
     22   S      45             5.5333500    0.700713083689

     23   L      46             3.6649800   -0.395895162119    0.236459946619
     23   L      47             0.7705450    1.215834355681    0.860618805716

     24   L      48             0.1958570    1.000000000000    1.000000000000

 C         

     25   S      49           172.2560000    0.061766907377
     25   S      50            25.9109000    0.358794042852
     25   S      51             5.5333500    0.700713083689

     26   L      52             3.6649800   -0.395895162119    0.236459946619
     26   L      53             0.7705450    1.215834355681    0.860618805716

     27   L      54             0.1958570    1.000000000000    1.000000000000

 C         

     28   S      55           172.2560000    0.061766907377
     28   S      56            25.9109000    0.358794042852
     28   S      57             5.5333500    0.700713083689

     29   L      58             3.6649800   -0.395895162119    0.236459946619
     29   L      59             0.7705450    1.215834355681    0.860618805716

     30   L      60             0.1958570    1.000000000000    1.000000000000

 C         

     31   S      61           172.2560000    0.061766907377
     31   S      62            25.9109000    0.358794042852
     31   S      63             5.5333500    0.700713083689

     32   L      64             3.6649800   -0.395895162119    0.236459946619
     32   L      65             0.7705450    1.215834355681    0.860618805716

     33   L      66             0.1958570    1.000000000000    1.000000000000

 C         

     34   S      67           172.2560000    0.061766907377
     34   S      68            25.9109000    0.358794042852
     34   S      69             5.5333500    0.700713083689

     35   L      70             3.6649800   -0.395895162119    0.236459946619
     35   L      71             0.7705450    1.215834355681    0.860618805716

     36   L      72             0.1958570    1.000000000000    1.000000000000

 C         

     37   S      73           172.2560000    0.061766907377
     37   S      74            25.9109000    0.358794042852
     37   S      75             5.5333500    0.700713083689

     38   L      76             3.6649800   -0.395895162119    0.236459946619
     38   L      77             0.7705450    1.215834355681    0.860618805716

     39   L      78             0.1958570    1.000000000000    1.000000000000

 C         

     40   S      79           172.2560000    0.061766907377
     40   S      80            25.9109000    0.358794042852
     40   S      81             5.5333500    0.700713083689

     41   L      82             3.6649800   -0.395895162119    0.236459946619
     41   L      83             0.7705450    1.215834355681    0.860618805716

     42   L      84             0.1958570    1.000000000000    1.000000000000

 C         

     43   S      85           172.2560000    0.061766907377
     43   S      86            25.9109000    0.358794042852
     43   S      87             5.5333500    0.700713083689

     44   L      88             3.6649800   -0.395895162119    0.236459946619
     44   L      89             0.7705450    1.215834355681    0.860618805716

     45   L      90             0.1958570    1.000000000000    1.000000000000

 H         

     46   S      91             5.4471780    0.156284978695
     46   S      92             0.8245472    0.904690876670

     47   S      93             0.1831916    1.000000000000

 H         

     48   S      94             5.4471780    0.156284978695
     48   S      95             0.8245472    0.904690876670

     49   S      96             0.1831916    1.000000000000

 H         

     50   S      97             5.4471780    0.156284978695
     50   S      98             0.8245472    0.904690876670

     51   S      99             0.1831916    1.000000000000

 H         

     52   S     100             5.4471780    0.156284978695
     52   S     101             0.8245472    0.904690876670

     53   S     102             0.1831916    1.000000000000

 H         

     54   S     103             5.4471780    0.156284978695
     54   S     104             0.8245472    0.904690876670

     55   S     105             0.1831916    1.000000000000

 H         

     56   S     106             5.4471780    0.156284978695
     56   S     107             0.8245472    0.904690876670

     57   S     108             0.1831916    1.000000000000

 H         

     58   S     109             5.4471780    0.156284978695
     58   S     110             0.8245472    0.904690876670

     59   S     111             0.1831916    1.000000000000

 H         

     60   S     112             5.4471780    0.156284978695
     60   S     113             0.8245472    0.904690876670

     61   S     114             0.1831916    1.000000000000

 H         

     62   S     115             5.4471780    0.156284978695
     62   S     116             0.8245472    0.904690876670

     63   S     117             0.1831916    1.000000000000

 H         

     64   S     118             5.4471780    0.156284978695
     64   S     119             0.8245472    0.904690876670

     65   S     120             0.1831916    1.000000000000

 H         

     66   S     121             5.4471780    0.156284978695
     66   S     122             0.8245472    0.904690876670

     67   S     123             0.1831916    1.000000000000

 H         

     68   S     124             5.4471780    0.156284978695
     68   S     125             0.8245472    0.904690876670

     69   S     126             0.1831916    1.000000000000

 H         

     70   S     127             5.4471780    0.156284978695
     70   S     128             0.8245472    0.904690876670

     71   S     129             0.1831916    1.000000000000

 H         

     72   S     130             5.4471780    0.156284978695
     72   S     131             0.8245472    0.904690876670

     73   S     132             0.1831916    1.000000000000

 H         

     74   S     133             5.4471780    0.156284978695
     74   S     134             0.8245472    0.904690876670

     75   S     135             0.1831916    1.000000000000

 TOTAL NUMBER OF BASIS SET SHELLS             =   75
 NUMBER OF CARTESIAN GAUSSIAN BASIS FUNCTIONS =  165
 NUMBER OF ELECTRONS                          =  118
 CHARGE OF MOLECULE                           =    0
 SPIN MULTIPLICITY                            =    1
 NUMBER OF OCCUPIED ORBITALS (ALPHA)          =   59
 NUMBER OF OCCUPIED ORBITALS (BETA )          =   59
 TOTAL NUMBER OF ATOMS                        =   30
 THE NUCLEAR REPULSION ENERGY IS     1149.7626944450

 SELECTED MURRAY-HANDY-LAMING RADIAL GRID

 LEGACY BECKE'S FUZZY CELL METHOD

 SELECTED ORIGINAL BECKE'S PARTITION FUNCTION

     LEBEDEV GRID-BASED DFT OPTIONS
     ------------------------------
     DFTTYP=B3LYP   
     NRAD  =      96     NLEB  =     302
     NRAD0 =      24     NLEB0 =     110
     SWOFF =    5.00E-03 (PURE SCF -> DFT)
     SWITCH=    3.00E-04 (COARSE -> TIGHT GRID)
     THRESH=    0.00E+00 GTHRE=    1.00E+00

 GRIMME'S EMPIRICAL DISPERSION CORRECTION= F

     $CONTRL OPTIONS
     ---------------
 SCFTYP=RHF          RUNTYP=ENERGY       EXETYP=RUN     
 MPLEVL=       0     CITYP =NONE         CCTYP =NONE         VBTYP =NONE    
 DFTTYP=B3LYP        TDDFT =NONE    
 MULT  =       1     ICHARG=       0     NZVAR =       0     COORD =UNIQUE  
 PP    =NONE         RELWFN=NONE         LOCAL =NONE         NUMGRD=       F
 ISPHER=      -1     NOSYM =       0     MAXIT =      60     UNITS =ANGS    
 PLTORB=       F     MOLPLT=       F     AIMPAC=       F     FRIEND=        
 NPRINT=       7     IREST =       0     GEOM  =INPUT   
 NORMF =       0     NORMP =       0     ITOL  =      20     ICUT  =       9
 INTTYP=BEST         GRDTYP=BEST         QMTTOL= 1.0E-06

     $SYSTEM OPTIONS
     ---------------
  REPLICATED MEMORY=    30000000 WORDS (ON EVERY NODE).
 DISTRIBUTED MEMDDI=        1000 MILLION WORDS IN AGGREGATE,
 MEMDDI DISTRIBUTED OVER   8 PROCESSORS IS   125000000 WORDS/PROCESSOR.
 TOTAL MEMORY REQUESTED ON EACH PROCESSOR=   155000000 WORDS.
 TIMLIM=      525600.00 MINUTES, OR     365.0 DAYS.
 PARALL= T  BALTYP=  DLB     KDIAG=    0  COREFL= F
 MXSEQ2=     300 MXSEQ3=     150  mem10=         0

     INPUT FOR POTENTIAL-DERIVED CHARGES 
     -----------------------------------
     VDWSCL=    1.00   RMAX=    3.00   DELR=    0.80
     VDWINC=    0.20 PTDENS=    0.28
     LAYER =       4  NFREQ=      30 MAXPDC=   10000
     CONSTR=CHARGE    UNITS=ANGS      PTSEL=CHELPG  
     CENTER=  0.0000  0.0000  0.0000
     DPOLE =  0.0000  0.0000  0.0000
     QPOLE =  0.0000  0.0000  0.0000  0.0000  0.0000  0.0000


          ----------------
          PROPERTIES INPUT
          ----------------

     MOMENTS            FIELD           POTENTIAL          DENSITY
 IEMOM =       1   IEFLD =       0   IEPOT =       1   IEDEN =       0
 WHERE =COMASS     WHERE =NUCLEI     WHERE =PDC        WHERE =NUCLEI  
 OUTPUT=BOTH       OUTPUT=BOTH       OUTPUT=BOTH       OUTPUT=BOTH    
 IEMINT=       0   IEFINT=       0                     IEDINT=       0
                                                       MORB  =       0
          EXTRAPOLATION IN EFFECT
          DIIS IN EFFECT
 ORBITAL PRINTING OPTION: NPREO=     1   165     2     1

     -------------------------------
     INTEGRAL TRANSFORMATION OPTIONS
     -------------------------------
     NWORD  =            0
     CUTOFF = 1.0E-09     MPTRAN =       0
     DIRTRF =       T     AOINTS =DUP     

          ----------------------
          INTEGRAL INPUT OPTIONS
          ----------------------
 NOPK  =       1 NORDER=       0 SCHWRZ=       T

     ------------------------------------------
     THE POINT GROUP IS C1 , NAXIS= 0, ORDER= 1
     ------------------------------------------

     DIMENSIONS OF THE SYMMETRY SUBSPACES ARE
 A   =  165

 ..... DONE SETTING UP THE RUN .....
 CPU     0: STEP CPU TIME=     0.03 TOTAL CPU TIME=          0.0 (      0.0 MIN)
 TOTAL WALL CLOCK TIME=          0.0 SECONDS, CPU UTILIZATION IS    75.00%

          ********************
          1 ELECTRON INTEGRALS
          ********************
 ...... END OF ONE-ELECTRON INTEGRALS ......
 CPU     0: STEP CPU TIME=     0.01 TOTAL CPU TIME=          0.0 (      0.0 MIN)
 TOTAL WALL CLOCK TIME=          0.1 SECONDS, CPU UTILIZATION IS    66.67%

          -------------
          GUESS OPTIONS
          -------------
          GUESS =HUCKEL            NORB  =       0          NORDER=       0
          MIX   =       F          PRTMO =       F          PUNMO =       F
          TOLZ  = 1.0E-08          TOLE  = 1.0E-05
          SYMDEN=       F          PURIFY=       F

 INITIAL GUESS ORBITALS GENERATED BY HUCKEL   ROUTINE.
 HUCKEL GUESS REQUIRES    252105 WORDS.

 SYMMETRIES FOR INITIAL GUESS ORBITALS FOLLOW.   BOTH SET(S).
    59 ORBITALS ARE OCCUPIED (   15 CORE ORBITALS).
    16=A       17=A       18=A       19=A       20=A       21=A       22=A   
    23=A       24=A       25=A       26=A       27=A       28=A       29=A   
    30=A       31=A       32=A       33=A       34=A       35=A       36=A   
    37=A       38=A       39=A       40=A       41=A       42=A       43=A   
    44=A       45=A       46=A       47=A       48=A       49=A       50=A   
    51=A       52=A       53=A       54=A       55=A       56=A       57=A   
    58=A       59=A       60=A       61=A       62=A       63=A       64=A   
    65=A       66=A       67=A       68=A       69=A   
 ...... END OF INITIAL ORBITAL SELECTION ......
 CPU     0: STEP CPU TIME=     0.05 TOTAL CPU TIME=          0.1 (      0.0 MIN)
 TOTAL WALL CLOCK TIME=          0.1 SECONDS, CPU UTILIZATION IS    64.29%

                    ----------------------
                    AO INTEGRAL TECHNOLOGY
                    ----------------------
     S,P,L SHELL ROTATED AXIS INTEGRALS, REPROGRAMMED BY
        KAZUYA ISHIMURA (IMS) AND JOSE SIERRA (SYNSTAR).
     S,P,D,L SHELL ROTATED AXIS INTEGRALS PROGRAMMED BY
        KAZUYA ISHIMURA (INSTITUTE FOR MOLECULAR SCIENCE).
     S,P,D,F,G SHELL TO TOTAL QUARTET ANGULAR MOMENTUM SUM 5,
        ERIC PROGRAM BY GRAHAM FLETCHER (ELORET AND NASA ADVANCED
        SUPERCOMPUTING DIVISION, AMES RESEARCH CENTER).
     S,P,D,F,G,L SHELL GENERAL RYS QUADRATURE PROGRAMMED BY
        MICHEL DUPUIS (PACIFIC NORTHWEST NATIONAL LABORATORY).

          --------------------
          2 ELECTRON INTEGRALS
          --------------------

 DIRECT SCF METHOD SKIPS INTEGRAL STORAGE ON DISK.
 DIRECT TRANSFORMATION SKIPS AO INTEGRAL STORAGE ON DISK.
  ...... END OF TWO-ELECTRON INTEGRALS .....
 CPU     0: STEP CPU TIME=     0.01 TOTAL CPU TIME=          0.1 (      0.0 MIN)
 TOTAL WALL CLOCK TIME=          0.1 SECONDS, CPU UTILIZATION IS    66.67%

          --------------------------
             R-B3LYP SCF CALCULATION
          --------------------------

     NUCLEAR ENERGY =      1149.7626944450
     MAXIT =   60     NPUNCH=    2
     EXTRAP=T  DAMP=F  SHIFT=F  RSTRCT=F  DIIS=T  DEM=F  SOSCF=F
         DENSITY MATRIX CONVERGENCE THRESHOLD=  2.00E-05
     COARSE -> FINE DFT GRID SWITCH THRESHOLD=  3.00E-04 (SWITCH IN $DFT)
                   HF -> DFT SWITCH THRESHOLD=  5.00E-03 (SWOFF IN $DFT)
     MEMORY REQUIRED FOR RHF ITERS=   1215433 WORDS.

 DIRECT SCF CALCULATION, SCHWRZ=T   FDIFF=T,  DIRTHR=  0.00E+00 NITDIR=10
 SCHWARZ INEQUALITY OVERHEAD:     12026 INTEGRALS, T=        0.00

 DFT CODE IS SWITCHING FROM THE FINE GRID NRAD= 96,  NLEB=  302
                      TO THE COARSE GRID NRAD0= 24, NLEB0=  110

     EXCHANGE FUNCTIONAL   =B88&HFX   
     CORRELATION FUNCTIONAL=LYP88&VWN5
     DFT THRESHOLD         =.460E-08
     GRID CHANGE THRESHOLD =.300E-03
 FOR AN EULER-MACLAURIN QUADRATURE USING  96 RADIAL POINTS:
 SMALLEST GAUSSIAN PRIMITIVE EXPONENT=        0.1831915800 OF TYPE -S-
 ON ATOM NUMBER  16 HAS RADIAL NORMALIZATION=  1.000000
  LARGEST GAUSSIAN PRIMITIVE EXPONENT=      322.0370000000 OF TYPE -S-
 ON ATOM NUMBER   1 HAS RADIAL NORMALIZATION=  1.000000
 DFT IS SWITCHED OFF, PERFORMING PURE SCF UNTIL SWOFF THRESHOLD IS REACHED.

                                                                                   NONZERO     BLOCKS
 ITER EX DEM     TOTAL ENERGY        E CHANGE  DENSITY CHANGE    DIIS ERROR      INTEGRALS    SKIPPED
   1  0  0     -808.5291514053  -808.5291514053   0.894118749   0.646338478       40236860    2595896
          * * *   INITIATING DIIS PROCEDURE   * * *
   2  1  0     -810.5506862445    -2.0215348392   0.177011385   0.146254071       40185440    2620543
   3  2  0     -810.6802733908    -0.1295871463   0.130716367   0.144097602       39702912    2707118
   4  3  0     -810.7656686501    -0.0853952593   0.036203336   0.013915549       38946800    2783540
   5  4  0     -810.7690293181    -0.0033606680   0.005031516   0.003766886       37933664    2851211
   6  5  0     -810.7692995107    -0.0002701926   0.001963124   0.001713644       35922203    2952958
 CONVERGED TO SWOFF, SO DFT CALCULATION IS NOW SWITCHED ON.
          * * *   INITIATING DIIS PROCEDURE   * * *
   7  6  0     -814.9233429206    -4.1540434100   0.101328313   0.067974197       40302458    2572306
   8  7  0     -814.9859620915    -0.0626191708   0.100295177   0.036268074       39836649    2696231
   9  8  0     -814.9822926349     0.0036694565   0.055181366   0.054207676       39176517    2760729
  10  9  0     -815.0009745274    -0.0186818925   0.021599173   0.020404493       38562062    2811817
  11 10  0     -815.0025674745    -0.0015929471   0.005730386   0.004515097       36957532    2903817
  12 11  0     -815.0026612689    -0.0000937944   0.000666802   0.000422050       34683362    3015825
  13 12  0     -815.0026645925    -0.0000033236   0.000144505   0.000116654       32307991    3102615
 DFT CODE IS SWITCHING BACK TO THE FINE GRID
          * * *   INITIATING DIIS PROCEDURE   * * *
  14 13  0     -815.0098769091    -0.0072123167   0.002545862   0.000878376       40325765    2561893
  15 14  0     -815.0099312023    -0.0000542931   0.001152470   0.000482015       35894577    2962005
  16 15  0     -815.0099306959     0.0000005064   0.000491144   0.000481056       33188752    3073768
  17 16  0     -815.0099351411    -0.0000044452   0.000128678   0.000107455       32064251    3119918
  18 17  0     -815.0099352763    -0.0000001351   0.000098088   0.000058796       28724240    3247541
  19 18  0     -815.0099352912    -0.0000000150   0.000032933   0.000032613       26032902    3345927
  20 19  0     -815.0099352955    -0.0000000043   0.000005560   0.000005518       23857039    3418246
  21 20  0     -815.0099352961    -0.0000000005   0.000001445   0.000001866       21077681    3511268

          -----------------
          DENSITY CONVERGED
          -----------------
     TIME TO FORM FOCK OPERATORS=      60.7 SECONDS (       2.9 SEC/ITER)
     FOCK TIME ON FIRST ITERATION=       0.5, LAST ITERATION=       6.1
     TIME TO SOLVE SCF EQUATIONS=       0.5 SECONDS (       0.0 SEC/ITER)

 FINAL R-B3LYP ENERGY IS     -815.0099352961 AFTER  21 ITERATIONS
 DFT EXCHANGE + CORRELATION ENERGY =       -86.3055464336
 TOTAL ELECTRON NUMBER             =       118.0000462154

          ------------
          EIGENVECTORS
          ------------

                      1          2          3          4          5
                  -19.0627   -19.0513   -19.0459   -19.0304   -19.0104
                     A          A          A          A          A   
    1  O  1  S   -0.004313   0.981476  -0.048446  -0.006319  -0.001989
    2  O  1  S   -0.000835   0.106853  -0.003954  -0.000033   0.000015
    3  O  1  X    0.000223   0.001322  -0.000043   0.000005  -0.000582
    4  O  1  Y    0.000013   0.001571  -0.000097   0.000024  -0.000147
    5  O  1  Z   -0.000003   0.002936   0.000487   0.000200  -0.000307
    6  O  1  S    0.002596  -0.057139  -0.001732  -0.002393   0.000475
    7  O  1  X   -0.001789  -0.004239  -0.001630  -0.000438   0.002025
    8  O  1  Y    0.001160  -0.005094   0.000632  -0.000634   0.000862
    9  O  1  Z    0.000451  -0.009025  -0.003320  -0.001275   0.001246
   10  O  2  S    0.002699   0.006621   0.002474   0.982533  -0.000738
   11  O  2  S    0.000524   0.001341   0.000443   0.105603   0.000010
   12  O  2  X   -0.000168  -0.000047   0.000042  -0.002545   0.000008
   13  O  2  Y    0.000242  -0.000179  -0.000112  -0.002224  -0.000001
   14  O  2  Z   -0.000048  -0.000046   0.000030  -0.001976   0.000030
   15  O  2  S   -0.000064  -0.002998  -0.000857  -0.052626  -0.000486
   16  O  2  X    0.000314   0.000551  -0.000185   0.007638   0.000176
   17  O  2  Y   -0.001594   0.001397   0.000736   0.008670   0.000155
   18  O  2  Z    0.000246   0.000312  -0.000068   0.004219  -0.000127
   19  O  3  S    0.982485   0.004123  -0.001088  -0.002720  -0.001020
   20  O  3  S    0.105027   0.000082  -0.000012  -0.000093   0.000158
   21  O  3  X   -0.002269  -0.000110   0.000028   0.000678  -0.000048
   22  O  3  Y   -0.000328  -0.000093   0.000029   0.000060   0.000077
   23  O  3  Z    0.002625  -0.000038   0.000035   0.000097   0.000029
   24  O  3  S   -0.050747   0.002202  -0.000407   0.001167  -0.001113
   25  O  3  X    0.004349   0.000414  -0.000127  -0.002437   0.000480
   26  O  3  Y    0.003134  -0.000487   0.000045  -0.000641   0.000027
   27  O  3  Z   -0.008929   0.001017  -0.000314   0.000372  -0.000293
   28  O  4  S    0.000895   0.048779   0.981324  -0.002733   0.001013
   29  O  4  S    0.000158   0.006571   0.105251  -0.000028  -0.000071
   30  O  4  X    0.000018  -0.000556  -0.001044  -0.000145   0.000033
   31  O  4  Y    0.000037   0.000179  -0.001527  -0.000130  -0.000042
   32  O  4  Z    0.000012  -0.000377  -0.003253  -0.000059   0.000019
   33  O  4  S   -0.000140  -0.007321  -0.051898  -0.001304   0.000687
   34  O  4  X   -0.000039   0.002836   0.002452   0.000615  -0.000166
   35  O  4  Y   -0.000171  -0.001584   0.001311   0.000049   0.000271
   36  O  4  Z    0.000027   0.003278   0.011092   0.000681  -0.000343
   37  O  5  S    0.001080   0.001962  -0.001154   0.000749   0.982464
   38  O  5  S    0.000374   0.000430  -0.000304   0.000162   0.104843
   39  O  5  X    0.000085   0.000086  -0.000021  -0.000052   0.003339
   40  O  5  Y    0.000053  -0.000145   0.000011   0.000049   0.001981
   41  O  5  Z   -0.000092   0.000159   0.000010   0.000038  -0.000461
   42  O  5  S   -0.001132  -0.000212   0.000778  -0.000499  -0.049488
   43  O  5  X   -0.000584  -0.000042   0.000215   0.000130  -0.008274
   44  O  5  Y   -0.000497   0.001020   0.000100  -0.000375  -0.007083
   45  O  5  Z    0.000357  -0.000475   0.000003  -0.000233   0.000478
   46  O  6  S    0.000120  -0.000419  -0.000441  -0.000568   0.000222
   47  O  6  S    0.000056  -0.000111  -0.000200  -0.000185   0.000045
   48  O  6  X    0.000016   0.000177  -0.000085  -0.000004  -0.000006
   49  O  6  Y    0.000006   0.000041  -0.000057  -0.000028   0.000003
   50  O  6  Z    0.000000  -0.000038   0.000064   0.000009   0.000005
   51  O  6  S   -0.000231  -0.000312   0.001054   0.000745  -0.000077
   52  O  6  X   -0.000072  -0.000421   0.000097  -0.000070   0.000011
   53  O  6  Y   -0.000071  -0.000265   0.000437   0.000342  -0.000028
   54  O  6  Z   -0.000018   0.000041   0.000017   0.000025  -0.000027
   55  N  7  S    0.000050  -0.000066  -0.000024   0.000030   0.000018
   56  N  7  S    0.000281  -0.000397  -0.000031   0.000268   0.000098
   57  N  7  X   -0.000117   0.000120  -0.000046   0.000002  -0.000001
   58  N  7  Y    0.000024   0.000189  -0.000138   0.000124  -0.000059
   59  N  7  Z   -0.000045  -0.000020  -0.000146   0.000329  -0.000009
   60  N  7  S   -0.001560   0.001198   0.001705  -0.000094  -0.000579
   61  N  7  X    0.001375  -0.000772  -0.001528  -0.000857   0.000290
   62  N  7  Y   -0.000394  -0.000543   0.000270  -0.000611   0.000328
   63  N  7  Z    0.000228   0.000047   0.000749  -0.001394   0.000019
   64  C  8  S    0.000240   0.000047   0.000016  -0.001086  -0.000048
   65  C  8  S    0.000848   0.000807   0.000420  -0.004676  -0.000300
   66  C  8  X    0.001155  -0.000470  -0.000003   0.000704  -0.000002
   67  C  8  Y   -0.000319  -0.000710  -0.000271   0.000846  -0.000112
   68  C  8  Z    0.000221   0.000295  -0.000194   0.000456  -0.000033
   69  C  8  S   -0.008159   0.001433   0.001794   0.026552   0.002161
   70  C  8  X   -0.000157   0.001925   0.003583   0.004929  -0.001584
   71  C  8  Y   -0.001314   0.003997  -0.000928   0.013247   0.001415
   72  C  8  Z    0.004654  -0.004427  -0.001696  -0.007178   0.000059
   73  C  9  S    0.000082   0.000209   0.000370   0.000293  -0.000045
   74  C  9  S    0.000874   0.000509   0.001686   0.001077  -0.000200
   75  C  9  X   -0.000515   0.000941   0.000226   0.000056  -0.000147
   76  C  9  Y    0.000064   0.000829   0.001181  -0.000333  -0.000016
   77  C  9  Z    0.000025  -0.000017   0.000094  -0.000451  -0.000088
   78  C  9  S   -0.000018  -0.007410  -0.012005  -0.008896   0.001884
   79  C  9  X    0.003191   0.001380   0.001926   0.001086   0.000131
   80  C  9  Y    0.002665  -0.000108   0.000474  -0.005108  -0.000621
   81  C  9  Z    0.001778  -0.000291  -0.006387  -0.000611   0.001070
   82  C 10  S   -0.001079   0.000195  -0.000091   0.000275  -0.000096
   83  C 10  S   -0.005000   0.000839  -0.000389   0.001043  -0.000683
   84  C 10  X   -0.000590   0.000614   0.000017  -0.000604   0.000540
   85  C 10  Y    0.001209   0.000565  -0.000383  -0.000073   0.000152
   86  C 10  Z   -0.000619  -0.000229   0.000029  -0.000444   0.000228
   87  C 10  S    0.022595  -0.003833   0.003857  -0.008202   0.001036
   88  C 10  X    0.003985  -0.002798   0.000857  -0.004620  -0.004000
   89  C 10  Y    0.003112   0.000637  -0.000161  -0.001769  -0.001086
   90  C 10  Z   -0.014606   0.005338   0.000383   0.002148  -0.001872
   91  C 11  S    0.000314  -0.000870   0.000141  -0.000081   0.000252
   92  C 11  S    0.001429  -0.003515   0.001137  -0.000479   0.000943
   93  C 11  X   -0.000390   0.001185   0.000452  -0.000469   0.000520
   94  C 11  Y   -0.000784  -0.001358  -0.000116  -0.000241   0.000311
   95  C 11  Z   -0.000408  -0.000111  -0.000096  -0.000080   0.000131
   96  C 11  S   -0.007779   0.018596  -0.002276   0.000502  -0.008285
   97  C 11  X   -0.001044   0.003283  -0.002992   0.003431   0.003223
   98  C 11  Y   -0.000205  -0.005654  -0.000341   0.000399   0.000031
   99  C 11  Z    0.007157  -0.010684  -0.000802  -0.000658   0.002334
  100  C 12  S   -0.000091  -0.001048  -0.001098  -0.000162   0.000097
  101  C 12  S   -0.000394  -0.004386  -0.004931  -0.001036   0.000390
  102  C 12  X   -0.000107  -0.001393   0.000047   0.000072   0.000228
  103  C 12  Y    0.000262  -0.000382  -0.001395  -0.000573   0.000034
  104  C 12  Z    0.000055  -0.000356   0.001217  -0.000390   0.000135
  105  C 12  S    0.003583   0.022069   0.024796   0.001835  -0.002554
  106  C 12  X    0.000037  -0.010732  -0.000771  -0.001933   0.000497
  107  C 12  Y    0.000884   0.004695   0.003002   0.002967  -0.001085
  108  C 12  Z   -0.001115   0.000786   0.015168   0.002528  -0.000594
  109  C 13  S   -0.000035   0.000242   0.000057  -0.000033  -0.000920
  110  C 13  S    0.000129   0.000946   0.000380  -0.000176  -0.003748
  111  C 13  X    0.000171  -0.000761   0.000081   0.000146  -0.000642
  112  C 13  Y    0.000287   0.000184  -0.000087   0.000100  -0.001584
  113  C 13  Z    0.000420  -0.000378   0.000008  -0.000086  -0.000339
  114  C 13  S    0.002755  -0.007912  -0.001785   0.001740   0.021926
  115  C 13  X    0.002645  -0.004026  -0.000823  -0.000189  -0.000716
  116  C 13  Y   -0.002129   0.001530   0.000653  -0.000764  -0.010779
  117  C 13  Z   -0.001777   0.001310  -0.000563   0.001295   0.000364
  118  C 14  S    0.000002  -0.000007   0.000016  -0.000000   0.000001
  119  C 14  S    0.000030  -0.000171   0.000175  -0.000028   0.000040
  120  C 14  X    0.000015   0.000432  -0.000434  -0.000126  -0.000052
  121  C 14  Y   -0.000032   0.000037   0.000004   0.000050   0.000016
  122  C 14  Z   -0.000010  -0.000015   0.000040  -0.000028   0.000006
  123  C 14  S   -0.000419  -0.000369   0.000413   0.000096   0.000152
  124  C 14  X   -0.000092  -0.001557   0.002000   0.001681   0.000001
  125  C 14  Y   -0.000424  -0.000711   0.001261   0.000395  -0.000010
  126  C 14  Z   -0.000272  -0.000437   0.000424   0.000847   0.000016
  127  C 15  S   -0.000003  -0.000044   0.000032   0.000034   0.000004
  128  C 15  S   -0.000007  -0.000282   0.000165   0.000187   0.000031
  129  C 15  X   -0.000016   0.000024   0.000093  -0.000004  -0.000012
  130  C 15  Y   -0.000008  -0.000048  -0.000008   0.000059   0.000010
  131  C 15  Z   -0.000009   0.000016  -0.000024   0.000035   0.000000
  132  C 15  S    0.000196   0.001484  -0.001617  -0.001231  -0.000081
  133  C 15  X   -0.000145  -0.000846   0.000664   0.000871   0.000072
  134  C 15  Y    0.000048   0.000151   0.000084  -0.000031  -0.000035
  135  C 15  Z    0.000035  -0.000211   0.000393  -0.000045  -0.000003
  136  H 16  S   -0.000370   0.000731  -0.000666  -0.000823  -0.000048
  137  H 16  S    0.000037   0.002154   0.001769   0.000453  -0.000007
  138  H 17  S   -0.000150   0.000268  -0.000196   0.001009   0.000060
  139  H 17  S    0.001269   0.000894   0.000068   0.000650   0.000303
  140  H 18  S   -0.000750  -0.000684  -0.000217   0.000377  -0.000217
  141  H 18  S    0.000454  -0.000673  -0.000262  -0.000523  -0.000069
  142  H 19  S   -0.000651  -0.000938  -0.000190  -0.000072   0.000503
  143  H 19  S   -0.000559   0.000730   0.001095   0.000402  -0.000465
  144  H 20  S   -0.000249  -0.000919  -0.000959   0.000282   0.000039
  145  H 20  S   -0.000491  -0.000245   0.001173   0.001742  -0.000221
  146  H 21  S   -0.000530   0.000774   0.000080   0.000187  -0.001264
  147  H 21  S   -0.000440   0.000768  -0.000147   0.000289  -0.001215
  148  H 22  S    0.000536  -0.000231   0.000101  -0.000159  -0.001416
  149  H 22  S    0.001018   0.000018  -0.000217  -0.000379  -0.001108
  150  H 23  S    0.000237   0.000066  -0.000045  -0.000592  -0.000068
  151  H 23  S   -0.000462  -0.000032  -0.000442   0.002130   0.000001
  152  H 24  S   -0.000666   0.000251  -0.000019   0.003168  -0.000040
  153  H 24  S    0.002940  -0.000655  -0.000316   0.005987   0.000027
  154  H 25  S    0.003020   0.000102   0.000005  -0.000634  -0.000142
  155  H 25  S    0.005362   0.000231  -0.000064  -0.000238   0.000678
  156  H 26  S   -0.000020   0.000576   0.003266   0.000237  -0.000007
  157  H 26  S    0.000030  -0.000753   0.004830   0.000002   0.000079
  158  H 27  S    0.000285  -0.000700   0.000078  -0.000061   0.003109
  159  H 27  S   -0.000426   0.002200  -0.000458  -0.000169   0.006342
  160  H 28  S   -0.000020  -0.000119   0.000081   0.000112   0.000013
  161  H 28  S    0.000039  -0.000089   0.000114  -0.000162   0.000003
  162  H 29  S   -0.000026  -0.000088   0.000045   0.000138   0.000011
  163  H 29  S    0.000005  -0.000025  -0.000083  -0.000030   0.000012
  164  H 30  S    0.000007  -0.000054   0.000060   0.000035   0.000002
  165  H 30  S    0.000011   0.000155   0.000097  -0.000170  -0.000032

                      6          7          8          9         10
                  -18.9887   -14.2625   -10.2206   -10.2167   -10.1958
                     A          A          A          A          A   
    1  O  1  S    0.000378  -0.000022  -0.000120  -0.000029   0.000076
    2  O  1  S   -0.000081  -0.000323  -0.000562  -0.000262   0.000318
    3  O  1  X   -0.000010  -0.000121   0.000381  -0.000158  -0.000128
    4  O  1  Y   -0.000063  -0.000319   0.000024  -0.000064  -0.000023
    5  O  1  Z   -0.000022   0.000082   0.000412   0.000090  -0.000218
    6  O  1  S    0.000361   0.000618   0.008189   0.000981  -0.002837
    7  O  1  X    0.000058  -0.000023   0.005327   0.000972   0.002532
    8  O  1  Y    0.000306   0.001613  -0.001453   0.000278  -0.003112
    9  O  1  Z    0.000153  -0.000238  -0.000715  -0.000321  -0.000155
   10  O  2  S    0.000535  -0.000002  -0.000047  -0.000003   0.000049
   11  O  2  S   -0.000074   0.000231  -0.000527  -0.000034   0.000113
   12  O  2  X   -0.000040   0.000233  -0.000101  -0.000070   0.000205
   13  O  2  Y    0.000025  -0.000144   0.000320   0.000061   0.000265
   14  O  2  Z   -0.000015  -0.000082   0.000065  -0.000077  -0.000026
   15  O  2  S    0.000582   0.000270   0.001426   0.000042  -0.001908
   16  O  2  X    0.000086  -0.000956   0.000566   0.000520   0.001076
   17  O  2  Y   -0.000422   0.000011  -0.001404  -0.000345  -0.000049
   18  O  2  Z   -0.000010   0.000222  -0.000146   0.000370   0.000438
   19  O  3  S   -0.000104   0.000041  -0.000034   0.000003  -0.000301
   20  O  3  S    0.000049   0.000307  -0.000156   0.000030  -0.001728
   21  O  3  X   -0.000037  -0.000103   0.000052   0.000012  -0.000131
   22  O  3  Y   -0.000004  -0.000060  -0.000003  -0.000012   0.000190
   23  O  3  Z   -0.000009   0.000001   0.000045   0.000019   0.000437
   24  O  3  S   -0.000379  -0.001776   0.001235  -0.000071   0.013864
   25  O  3  X    0.000121   0.000239   0.000078  -0.000064   0.000800
   26  O  3  Y    0.000144   0.000880  -0.000694   0.000124  -0.005301
   27  O  3  Z   -0.000098  -0.000575   0.000374  -0.000019   0.004637
   28  O  4  S    0.000404  -0.000016  -0.000209   0.000012  -0.000047
   29  O  4  S   -0.000144   0.000028  -0.001364   0.000156  -0.000227
   30  O  4  X    0.000119   0.000066  -0.000068   0.000021  -0.000104
   31  O  4  Y    0.000057   0.000297  -0.000296   0.000062   0.000159
   32  O  4  Z   -0.000009  -0.000061  -0.000247  -0.000079   0.000052
   33  O  4  S    0.001127   0.000716   0.012560  -0.000384   0.001785
   34  O  4  X   -0.000244  -0.000030   0.000001  -0.000112  -0.000056
   35  O  4  Y   -0.000130  -0.000975   0.003716  -0.000182   0.000133
   36  O  4  Z   -0.000510  -0.000277  -0.004364   0.000246  -0.001020
   37  O  5  S   -0.000216   0.000006   0.000005   0.000006  -0.000036
   38  O  5  S    0.000000   0.000067   0.000019   0.000054  -0.000389
   39  O  5  X    0.000010   0.000032  -0.000033   0.000003  -0.000280
   40  O  5  Y   -0.000001  -0.000012  -0.000002   0.000002  -0.000110
   41  O  5  Z   -0.000006  -0.000012   0.000120   0.000004  -0.000085
   42  O  5  S   -0.000075  -0.000230  -0.000235  -0.000206   0.000717
   43  O  5  X   -0.000074  -0.000215   0.000047  -0.000056   0.001218
   44  O  5  Y   -0.000017   0.000004  -0.000171  -0.000045   0.000454
   45  O  5  Z    0.000026   0.000055  -0.000592  -0.000019   0.000188
   46  O  6  S    0.982807   0.000064   0.000063   0.000444  -0.000012
   47  O  6  S    0.107698   0.000352   0.000565   0.002149  -0.000106
   48  O  6  X    0.001039  -0.000641  -0.000248  -0.000664  -0.000037
   49  O  6  Y    0.004027   0.000156  -0.000062  -0.000400   0.000020
   50  O  6  Z    0.001965  -0.000095  -0.000108  -0.000275   0.000016
   51  O  6  S   -0.064242  -0.001647  -0.002386  -0.006861   0.000459
   52  O  6  X   -0.003935   0.003979   0.001716   0.001165   0.000261
   53  O  6  Y   -0.015321  -0.002614  -0.000326  -0.006431  -0.000075
   54  O  6  Z   -0.007476  -0.000383  -0.000087  -0.002736   0.000002
   55  N  7  S    0.000043   0.985287   0.000094   0.000291  -0.000126
   56  N  7  S    0.000236   0.112878   0.000204   0.000149  -0.001124
   57  N  7  X   -0.001545  -0.000497   0.000621  -0.001485   0.000730
   58  N  7  Y   -0.000542  -0.000996  -0.000176  -0.000427  -0.000243
   59  N  7  Z   -0.000452  -0.000980  -0.000023  -0.000400  -0.000093
   60  N  7  S    0.001450  -0.084331  -0.003706   0.004509   0.004797
   61  N  7  X    0.011106   0.003670  -0.000536   0.008440  -0.005948
   62  N  7  Y    0.004662   0.009100   0.004213   0.006560   0.001872
   63  N  7  Z    0.003375   0.005447   0.000152   0.003853  -0.000013
   64  C  8  S    0.000141   0.000262  -0.006891   0.000247  -0.023495
   65  C  8  S    0.000738   0.001040  -0.003257   0.000046  -0.006456
   66  C  8  X   -0.000037  -0.000300  -0.000294   0.000594  -0.000684
   67  C  8  Y    0.000135   0.000456   0.001257  -0.000221   0.000249
   68  C  8  Z    0.000047   0.000247   0.000540   0.000209   0.000176
   69  C  8  S   -0.004768  -0.008543   0.007433   0.001639   0.033368
   70  C  8  X   -0.001488  -0.002592  -0.005421  -0.003109  -0.017657
   71  C  8  Y    0.001398   0.002128  -0.001472   0.001237   0.000895
   72  C  8  Z    0.001464   0.001802  -0.001543  -0.002344  -0.006033
   73  C  9  S   -0.000163  -0.000796  -0.008720  -0.001685  -0.008512
   74  C  9  S   -0.000311  -0.003537  -0.005511  -0.001406  -0.003349
   75  C  9  X    0.001243   0.000965   0.000252   0.000012   0.001801
   76  C  9  Y   -0.000327  -0.000034  -0.000208   0.000766  -0.000826
   77  C  9  Z   -0.000168  -0.000482  -0.000510   0.000111  -0.000267
   78  C  9  S    0.009401   0.026573   0.033495   0.008237   0.002179
   79  C  9  X    0.001681   0.014491  -0.010848   0.003899  -0.011064
   80  C  9  Y    0.001006  -0.001039  -0.018525  -0.005877  -0.002559
   81  C  9  Z    0.003636   0.007195   0.004882   0.000633  -0.001408
   82  C 10  S   -0.000043  -0.000270   0.006531  -0.000327   0.986155
   83  C 10  S   -0.000230  -0.001607   0.003255   0.000029   0.118442
   84  C 10  X    0.000027  -0.000365   0.000347  -0.000165   0.001163
   85  C 10  Y    0.000043   0.000442   0.000408   0.000180  -0.001007
   86  C 10  Z    0.000112   0.000540  -0.000112   0.000146  -0.000593
   87  C 10  S    0.000944   0.004868  -0.015246  -0.002198  -0.116292
   88  C 10  X    0.000292   0.002166  -0.005694  -0.001310  -0.010810
   89  C 10  Y   -0.000605  -0.003434   0.005894  -0.000972   0.016648
   90  C 10  Z   -0.000938  -0.004074   0.000024  -0.001098   0.003359
   91  C 11  S    0.000027   0.000121  -0.010084  -0.000228  -0.043786
   92  C 11  S    0.000110   0.000517  -0.004981  -0.000069  -0.010466
   93  C 11  X   -0.000080  -0.000311  -0.002082  -0.000100  -0.000304
   94  C 11  Y    0.000014  -0.000061   0.000918   0.000017   0.000100
   95  C 11  Z   -0.000070  -0.000166  -0.000459  -0.000028   0.000884
   96  C 11  S   -0.000959  -0.004169   0.011833  -0.000262   0.039838
   97  C 11  X   -0.000013  -0.000686   0.014970   0.000341   0.015048
   98  C 11  Y   -0.000254  -0.001232  -0.001986  -0.000607   0.015819
   99  C 11  Z    0.000787   0.002457   0.002985   0.000342  -0.005360
  100  C 12  S    0.000184   0.000185   0.986843   0.003823  -0.006329
  101  C 12  S    0.001111   0.000667   0.114690   0.000962   0.001615
  102  C 12  X    0.000026  -0.000238  -0.000863  -0.000503  -0.000337
  103  C 12  Y   -0.000250  -0.000586   0.001854  -0.000149   0.000091
  104  C 12  Z    0.000018  -0.000032   0.000636  -0.000164   0.000432
  105  C 12  S   -0.004560  -0.004738  -0.096157  -0.005312  -0.009882
  106  C 12  X   -0.001601  -0.004526  -0.002825  -0.000928   0.003525
  107  C 12  Y    0.000144  -0.000364  -0.018492  -0.002182  -0.005815
  108  C 12  Z   -0.000683  -0.000711  -0.001847   0.001595  -0.001758
  109  C 13  S   -0.000016  -0.000046  -0.001249  -0.000002  -0.007347
  110  C 13  S   -0.000080  -0.000205  -0.000905  -0.000023  -0.001697
  111  C 13  X    0.000009   0.000085   0.000275   0.000021  -0.000717
  112  C 13  Y    0.000008   0.000009  -0.000063   0.000047  -0.000436
  113  C 13  Z    0.000029   0.000061  -0.000249   0.000007  -0.000550
  114  C 13  S    0.000554   0.001629   0.006979   0.000348  -0.000255
  115  C 13  X    0.000390   0.001047   0.001613   0.000108  -0.002350
  116  C 13  Y   -0.000050   0.000055   0.000363  -0.000170   0.000311
  117  C 13  Z   -0.000108  -0.000260   0.003942   0.000040   0.002788
  118  C 14  S    0.000150  -0.000268  -0.003701   0.985354   0.000340
  119  C 14  S    0.001593  -0.001425  -0.000447   0.105157  -0.000067
  120  C 14  X    0.000053  -0.000344   0.000736   0.000129  -0.000031
  121  C 14  Y   -0.001662   0.000142   0.000534  -0.000173   0.000164
  122  C 14  Z   -0.000753  -0.000123  -0.000159  -0.000106   0.000125
  123  C 14  S    0.015767   0.020865   0.001407  -0.055452   0.002367
  124  C 14  X   -0.013149  -0.017398  -0.006724  -0.019422  -0.000955
  125  C 14  Y   -0.027377   0.012824  -0.000290  -0.013129   0.001830
  126  C 14  Z   -0.014020   0.003133   0.000682  -0.008564   0.000432
  127  C 15  S   -0.000080  -0.000087  -0.000414  -0.004363  -0.000226
  128  C 15  S   -0.000419  -0.000745  -0.000575  -0.003272  -0.000142
  129  C 15  X   -0.000276   0.000300  -0.000179   0.000504   0.000077
  130  C 15  Y   -0.000299   0.000102  -0.000020   0.000311   0.000022
  131  C 15  Z   -0.000151   0.000156   0.000145   0.000161   0.000000
  132  C 15  S    0.008547   0.003993   0.004248   0.024477   0.000108
  133  C 15  X   -0.006033  -0.000490  -0.001497  -0.016247   0.000105
  134  C 15  Y    0.006545  -0.004344  -0.000680  -0.002251  -0.000320
  135  C 15  Z    0.001906  -0.002341  -0.001720  -0.003174   0.000007
  136  H 16  S    0.000233   0.000398  -0.000531   0.000323  -0.001669
  137  H 16  S    0.000139   0.000463  -0.000105   0.001179   0.001318
  138  H 17  S   -0.000004  -0.001099  -0.001871  -0.000359  -0.001208
  139  H 17  S   -0.000044   0.000927   0.002943   0.000608   0.000064
  140  H 18  S    0.000096   0.000295   0.000227   0.000196   0.000358
  141  H 18  S    0.000201   0.001904  -0.000452   0.000620   0.012979
  142  H 19  S   -0.000044  -0.000067  -0.001703  -0.000036  -0.001587
  143  H 19  S   -0.000239  -0.000789  -0.001742  -0.000300   0.002834
  144  H 20  S   -0.000393   0.000571  -0.000839   0.000293   0.000037
  145  H 20  S    0.002206   0.000744   0.013388   0.000114  -0.001834
  146  H 21  S   -0.000056  -0.000134  -0.000019   0.000017   0.000214
  147  H 21  S   -0.000101  -0.000355   0.000888  -0.000045   0.000875
  148  H 22  S    0.000000  -0.000019  -0.000638   0.000004  -0.000222
  149  H 22  S    0.000105   0.000197  -0.000910   0.000027  -0.002050
  150  H 23  S   -0.002245   0.000862  -0.000629  -0.003158  -0.000748
  151  H 23  S   -0.001497   0.007445   0.000648  -0.001036   0.001698
  152  H 24  S    0.000037   0.000276  -0.000272   0.000077  -0.000242
  153  H 24  S    0.000066  -0.000553   0.000871   0.000104   0.001223
  154  H 25  S    0.000046   0.000089   0.000135  -0.000033  -0.000480
  155  H 25  S   -0.000004  -0.000010  -0.000652  -0.000054   0.002813
  156  H 26  S   -0.000088  -0.000355  -0.000264  -0.000016  -0.000074
  157  H 26  S   -0.000065  -0.000175   0.002819  -0.000292  -0.000127
  158  H 27  S    0.000026   0.000047  -0.000048  -0.000002  -0.000584
  159  H 27  S    0.000001   0.000119   0.000041   0.000072   0.001185
  160  H 28  S   -0.000632   0.000282  -0.000248  -0.001822   0.000065
  161  H 28  S   -0.001069  -0.000316  -0.000415   0.002703  -0.000104
  162  H 29  S   -0.000885   0.000402   0.000022  -0.001776   0.000038
  163  H 29  S   -0.001386   0.000300   0.000348   0.002138  -0.000153
  164  H 30  S    0.000742  -0.000987  -0.000272  -0.001226  -0.000079
  165  H 30  S    0.002436  -0.000412  -0.000298   0.001863   0.000019

                     11         12         13         14         15
                  -10.1831   -10.1788   -10.1699   -10.1587   -10.1169
                     A          A          A          A          A   
    1  O  1  S   -0.000158   0.000087   0.000051   0.000014  -0.000018
    2  O  1  S   -0.000619   0.000856   0.000124  -0.000275  -0.000170
    3  O  1  X   -0.000083   0.000326   0.000822  -0.000318  -0.000064
    4  O  1  Y    0.000165   0.000302  -0.000370  -0.000195  -0.000025
    5  O  1  Z    0.000741   0.000185   0.000255  -0.000047   0.000002
    6  O  1  S    0.009194  -0.002175  -0.002155  -0.000808   0.000638
    7  O  1  X   -0.004968  -0.002489  -0.002573  -0.001036   0.000427
    8  O  1  Y    0.004522  -0.001136   0.000948   0.000439   0.000078
    9  O  1  Z   -0.000047  -0.001276  -0.001225  -0.000160   0.000023
   10  O  2  S   -0.000008  -0.000194  -0.000007   0.000025   0.000009
   11  O  2  S   -0.000153  -0.001035  -0.000080  -0.000065   0.000079
   12  O  2  X    0.000278  -0.000164  -0.000003   0.000173   0.000016
   13  O  2  Y    0.000055  -0.000304   0.000022   0.000090  -0.000010
   14  O  2  Z    0.000068   0.000072  -0.000024   0.000198  -0.000017
   15  O  2  S   -0.000349   0.010746   0.000457  -0.001033  -0.000267
   16  O  2  X   -0.000878  -0.002223   0.000106  -0.000815  -0.000010
   17  O  2  Y    0.000036  -0.004231  -0.000189   0.001379   0.000115
   18  O  2  Z   -0.000391  -0.000566   0.000082  -0.000232   0.000089
   19  O  3  S    0.000097   0.000061   0.000054   0.000099   0.000003
   20  O  3  S    0.000468   0.000073   0.000458   0.000857   0.000017
   21  O  3  X    0.000131  -0.000763  -0.000083   0.000278  -0.000009
   22  O  3  Y    0.000099   0.000380  -0.000157  -0.000198  -0.000003
   23  O  3  Z    0.000069  -0.000480  -0.000026   0.000026   0.000010
   24  O  3  S   -0.003223  -0.002758  -0.001548  -0.003075  -0.000101
   25  O  3  X   -0.000048   0.002225   0.000692  -0.001538   0.000014
   26  O  3  Y    0.001991  -0.000537   0.001036   0.001665   0.000075
   27  O  3  Z   -0.001688   0.000054  -0.000354  -0.000931  -0.000056
   28  O  4  S    0.000135   0.000092   0.000047   0.000120   0.000004
   29  O  4  S    0.001025   0.000701   0.000337   0.000575   0.000044
   30  O  4  X   -0.000158   0.000063  -0.000001  -0.000433   0.000031
   31  O  4  Y    0.000182  -0.000036   0.000064  -0.000641   0.000032
   32  O  4  Z   -0.000087   0.000050  -0.000056   0.000325  -0.000025
   33  O  4  S   -0.004636  -0.003035  -0.001691  -0.004702  -0.000145
   34  O  4  X    0.001298   0.000004   0.000217   0.001366  -0.000197
   35  O  4  Y   -0.001759  -0.000957  -0.000646   0.000907  -0.000104
   36  O  4  Z    0.002071   0.000813   0.000936   0.001110   0.000126
   37  O  5  S    0.000041  -0.000010  -0.000108  -0.000009   0.000002
   38  O  5  S    0.000049  -0.000145  -0.000495  -0.000055   0.000022
   39  O  5  X   -0.000103   0.000029   0.000288  -0.000001   0.000004
   40  O  5  Y   -0.000216  -0.000044   0.000341  -0.000041  -0.000003
   41  O  5  Z   -0.000145  -0.000014  -0.000064  -0.000008   0.000004
   42  O  5  S   -0.001659   0.000382   0.008188   0.000305  -0.000081
   43  O  5  X   -0.001055  -0.000251   0.000793   0.000104  -0.000037
   44  O  5  Y   -0.000247   0.000090   0.002811   0.000310  -0.000005
   45  O  5  Z   -0.000030  -0.000020   0.000973   0.000077  -0.000020
   46  O  6  S    0.000002   0.000035  -0.000001   0.000061   0.000032
   47  O  6  S    0.000005   0.000287  -0.000013   0.000560   0.000031
   48  O  6  X    0.000003  -0.000067   0.000006  -0.000292   0.000136
   49  O  6  Y   -0.000023  -0.000019   0.000002   0.000060  -0.000261
   50  O  6  Z   -0.000053  -0.000051  -0.000022   0.000010  -0.000069
   51  O  6  S   -0.000161  -0.001618   0.000010  -0.002415  -0.001116
   52  O  6  X    0.000126   0.000573   0.000016   0.001724  -0.002504
   53  O  6  Y    0.000025  -0.000512  -0.000021  -0.000999   0.000296
   54  O  6  Z    0.000158   0.000106   0.000088  -0.000167  -0.000328
   55  N  7  S   -0.000005   0.000085  -0.000006  -0.000126  -0.000015
   56  N  7  S   -0.000036   0.000257  -0.000051  -0.001266  -0.000599
   57  N  7  X    0.000095   0.000593   0.000111   0.000002  -0.001057
   58  N  7  Y    0.000023  -0.000325   0.000002   0.000086   0.000305
   59  N  7  Z   -0.000093  -0.000379  -0.000108  -0.000215  -0.000013
   60  N  7  S   -0.000116  -0.004175  -0.000164   0.012855   0.000521
   61  N  7  X   -0.000640  -0.000065  -0.000629  -0.007890   0.003374
   62  N  7  Y    0.000059   0.000426  -0.000093   0.000703  -0.001832
   63  N  7  Z    0.000658   0.001417   0.000571   0.001070  -0.000288
   64  C  8  S   -0.027706   0.986305   0.012163   0.016669   0.000402
   65  C  8  S   -0.003751   0.117348   0.000201  -0.000837  -0.000151
   66  C  8  X    0.001023  -0.000662   0.000464   0.000519   0.000005
   67  C  8  Y   -0.000173  -0.000705   0.000019  -0.000848  -0.000005
   68  C  8  Z   -0.000116  -0.001398  -0.000224  -0.000208   0.000099
   69  C  8  S    0.003422  -0.108428   0.005029   0.023188   0.000764
   70  C  8  X    0.000536   0.005980  -0.003473   0.011270  -0.000183
   71  C  8  Y    0.000822   0.007579  -0.001175  -0.011392   0.000189
   72  C  8  Z    0.002002   0.013314   0.000174  -0.008659  -0.000643
   73  C  9  S    0.000857  -0.017773   0.001775   0.987104   0.001618
   74  C  9  S    0.000949  -0.005036   0.000818   0.118596  -0.000747
   75  C  9  X    0.000355  -0.000149  -0.000001  -0.000795  -0.000044
   76  C  9  Y    0.000678   0.000212   0.000058  -0.000241   0.000379
   77  C  9  Z    0.000135   0.000410   0.000015   0.000899   0.000102
   78  C  9  S   -0.005803   0.027753  -0.004269  -0.114326   0.003748
   79  C  9  X    0.002543  -0.006241   0.002125   0.009444   0.002568
   80  C  9  Y    0.000557   0.016443   0.001738   0.003281  -0.001661
   81  C  9  Z   -0.002571   0.007925  -0.001419  -0.010460  -0.000051
   82  C 10  S    0.041453   0.023390   0.008706   0.008313   0.000233
   83  C 10  S   -0.000133  -0.000702  -0.000639  -0.002172  -0.000137
   84  C 10  X   -0.000455   0.000386   0.001132  -0.001582  -0.000081
   85  C 10  Y    0.000179  -0.000270   0.000291   0.000739   0.000103
   86  C 10  Z    0.000773   0.000411   0.000545   0.000590   0.000061
   87  C 10  S    0.029282   0.026834   0.002050   0.008149   0.000049
   88  C 10  X   -0.006875   0.016913  -0.004624   0.006367  -0.000021
   89  C 10  Y   -0.016984  -0.001265  -0.001078  -0.003598  -0.000499
   90  C 10  Z   -0.008151   0.000207  -0.002417  -0.002979  -0.000411
   91  C 11  S    0.985525   0.026292   0.026882  -0.000527   0.000179
   92  C 11  S    0.117244   0.002465   0.000944   0.000694  -0.000029
   93  C 11  X    0.000662  -0.000808   0.000458   0.000111  -0.000113
   94  C 11  Y    0.000140  -0.000662  -0.000047  -0.000287   0.000013
   95  C 11  Z   -0.000461  -0.000931   0.000228   0.000423  -0.000002
   96  C 11  S   -0.109710  -0.004026   0.018773  -0.003368  -0.000312
   97  C 11  X    0.000450   0.003317  -0.015541  -0.004886   0.000368
   98  C 11  Y   -0.009209   0.000470  -0.001115  -0.000114  -0.000303
   99  C 11  Z    0.006126   0.005220  -0.006950  -0.001348   0.000173
  100  C 12  S    0.008511   0.006160   0.001129   0.007441   0.000360
  101  C 12  S   -0.002793  -0.002176  -0.001414  -0.003865  -0.000106
  102  C 12  X    0.001151  -0.000072  -0.000153   0.000648  -0.000360
  103  C 12  Y   -0.001168  -0.001697  -0.000236   0.000304  -0.000064
  104  C 12  Z   -0.000809  -0.000759  -0.000315  -0.000522   0.000035
  105  C 12  S    0.010408   0.006878   0.007266   0.033218  -0.000859
  106  C 12  X   -0.006630  -0.000982  -0.001967   0.005498   0.000688
  107  C 12  Y    0.007230   0.006538   0.003340   0.017210  -0.000530
  108  C 12  Z    0.006238   0.003178   0.001628   0.002774   0.000299
  109  C 13  S   -0.027597  -0.013447   0.985937  -0.001879   0.000062
  110  C 13  S   -0.006305  -0.002839   0.112133   0.000083  -0.000051
  111  C 13  X    0.000232  -0.000092   0.000788   0.000039   0.000009
  112  C 13  Y    0.000231  -0.000266   0.000384  -0.000095   0.000008
  113  C 13  Z    0.000248  -0.000107   0.000285  -0.000060  -0.000003
  114  C 13  S    0.028725   0.007487  -0.089082  -0.002270   0.000390
  115  C 13  X    0.015212   0.003681  -0.008972  -0.001121   0.000156
  116  C 13  Y   -0.000151   0.001254  -0.002948   0.000814  -0.000005
  117  C 13  Z    0.005692   0.001207  -0.004352  -0.000666   0.000123
  118  C 14  S    0.000213  -0.000335  -0.000003   0.001429   0.003759
  119  C 14  S   -0.000010  -0.000157  -0.000005  -0.000225  -0.002149
  120  C 14  X    0.000140   0.000310   0.000017   0.001473  -0.000617
  121  C 14  Y    0.000107   0.000129   0.000053  -0.000237  -0.000176
  122  C 14  Z    0.000014   0.000346   0.000019   0.000189  -0.000182
  123  C 14  S   -0.000029   0.001070   0.000196  -0.000530   0.021725
[...]
    860    9.06101   -5.69459   -3.25055       -11.536559      11.513373      -0.023186
    861    9.06101   -5.69459   -1.73877       -12.255658      12.233467      -0.022191
    862    9.06101   -5.69459   -0.22699       -12.556157      12.541639      -0.014518
    863    9.06101   -5.69459    1.28479       -12.311063      12.301431      -0.009632
    864    9.06101   -5.69459    2.79657       -11.674116      11.666867      -0.007248
    865    9.06101   -5.69459    4.30835       -10.880006      10.875192      -0.004814
    866    9.06101   -4.18281   -4.76233       -11.402530      11.384479      -0.018051
    867    9.06101   -4.18281   -3.25055       -12.606654      12.585562      -0.021092
    868    9.06101   -4.18281    2.79657       -12.925101      12.921090      -0.004011
    869    9.06101   -4.18281    4.30835       -11.765196      11.762540      -0.002656
    870    9.06101   -4.18281    5.82013       -10.704360      10.702985      -0.001375
    871    9.06101   -2.67103   -4.76233       -11.936963      11.923885      -0.013078
    872    9.06101   -2.67103   -3.25055       -13.435829      13.422777      -0.013052
    873    9.06101   -2.67103    4.30835       -12.547614      12.551156       0.003542
    874    9.06101   -2.67103    5.82013       -11.213452      11.215417       0.001965
    875    9.06101   -2.67103    7.33191       -10.127510      10.128278       0.000768
    876    9.06101   -1.15925   -4.76233       -12.139104      12.132894      -0.006210
    877    9.06101   -1.15925   -3.25055       -13.765974      13.763117      -0.002857
    878    9.06101   -1.15925    5.82013       -11.489979      11.496955       0.006976
    879    9.06101   -1.15925    7.33191       -10.320221      10.322926       0.002705
    880    9.06101    0.35253   -6.27412       -10.757238      10.754715      -0.002523
    881    9.06101    0.35253   -4.76233       -11.979131      11.979343       0.000212
    882    9.06101    0.35253    5.82013       -11.453624      11.463035       0.009411
    883    9.06101    0.35253    7.33191       -10.314115      10.318001       0.003886
    884    9.06101    1.86431   -6.27412       -10.471596      10.471877       0.000282
    885    9.06101    1.86431   -4.76233       -11.529205      11.533132       0.003928
    886    9.06101    1.86431   -3.25055       -12.715598      12.730349       0.014751
    887    9.06101    1.86431    4.30835       -12.287113      12.301932       0.014819
    888    9.06101    1.86431    5.82013       -11.134046      11.141750       0.007705
    889    9.06101    1.86431    7.33191       -10.118484      10.122274       0.003790
    890    9.06101    3.37609   -4.76233       -10.915457      10.920126       0.004668
    891    9.06101    3.37609   -3.25055       -11.800885      11.810931       0.010046
    892    9.06101    3.37609   -1.73877       -12.581414      12.598951       0.017537
    893    9.06101    3.37609   -0.22699       -13.019143      13.037591       0.018448
    894    9.06101    3.37609    1.28479       -12.919464      12.933075       0.013611
    895    9.06101    3.37609    2.79657       -12.352133      12.363492       0.011359
    896    9.06101    3.37609    4.30835       -11.529140      11.537680       0.008541
    897    9.06101    3.37609    5.82013       -10.637198      10.642458       0.005260
    898    9.06101    4.88787   -3.25055       -10.907363      10.914168       0.006805
    899    9.06101    4.88787   -1.73877       -11.446667      11.456007       0.009341
    900    9.06101    4.88787   -0.22699       -11.737192      11.747443       0.010251
    901    9.06101    4.88787    1.28479       -11.692671      11.701909       0.009238
    902    9.06101    4.88787    2.79657       -11.328016      11.335272       0.007256
    903   10.57279   -7.20637   -1.73877        -9.885084       9.874237      -0.010847
    904   10.57279   -7.20637   -0.22699       -10.033212      10.024616      -0.008596
    905   10.57279   -7.20637    1.28479        -9.943585       9.937046      -0.006539
    906   10.57279   -7.20637    2.79657        -9.648983       9.643958      -0.005025
    907   10.57279   -5.69459   -3.25055       -10.329836      10.318467      -0.011369
    908   10.57279   -5.69459   -1.73877       -10.838777      10.830997      -0.007780
    909   10.57279   -5.69459   -0.22699       -11.075601      11.073247      -0.002354
    910   10.57279   -5.69459    1.28479       -10.942548      10.940734      -0.001814
    911   10.57279   -5.69459    2.79657       -10.506588      10.503657      -0.002930
    912   10.57279   -5.69459    4.30835        -9.917384       9.914815      -0.002569
    913   10.57279   -4.18281   -4.76233       -10.259466      10.249482      -0.009985
    914   10.57279   -4.18281   -3.25055       -11.094911      11.086508      -0.008403
    915   10.57279   -4.18281    2.79657       -11.416099      11.416321       0.000222
    916   10.57279   -4.18281    4.30835       -10.595130      10.594461      -0.000670
    917   10.57279   -4.18281    5.82013        -9.789260       9.788949      -0.000310
    918   10.57279   -2.67103   -4.76233       -10.671463      10.664408      -0.007056
    919   10.57279   -2.67103   -3.25055       -11.694192      11.689103      -0.005089
    920   10.57279   -2.67103    2.79657       -12.268900      12.271728       0.002828
    921   10.57279   -2.67103    4.30835       -11.164483      11.167074       0.002591
    922   10.57279   -2.67103    5.82013       -10.184428      10.186546       0.002119
    923   10.57279   -1.15925   -4.76233       -10.843861      10.840761      -0.003099
    924   10.57279   -1.15925   -3.25055       -11.956963      11.955917      -0.001046
    925   10.57279   -1.15925    4.30835       -11.473793      11.483407       0.009614
    926   10.57279   -1.15925    5.82013       -10.391291      10.396512       0.005221
    927   10.57279   -1.15925    7.33191        -9.485454       9.488168       0.002714
    928   10.57279    0.35253   -4.76233       -10.743798      10.745010       0.001212
    929   10.57279    0.35253   -3.25055       -11.792137      11.799845       0.007708
    930   10.57279    0.35253    4.30835       -11.382480      11.395330       0.012850
    931   10.57279    0.35253    5.82013       -10.357221      10.364091       0.006870
    932   10.57279    0.35253    7.33191        -9.475526       9.479150       0.003624
    933   10.57279    1.86431   -4.76233       -10.412406      10.416321       0.003915
    934   10.57279    1.86431   -3.25055       -11.275236      11.286362       0.011125
    935   10.57279    1.86431    1.28479       -12.442893      12.453702       0.010809
    936   10.57279    1.86431    2.79657       -11.802544      11.812798       0.010254
    937   10.57279    1.86431    4.30835       -10.958133      10.967497       0.009364
    938   10.57279    1.86431    5.82013       -10.104300      10.110467       0.006167
    939   10.57279    3.37609   -4.76233        -9.938133       9.942516       0.004383
    940   10.57279    3.37609   -3.25055       -10.604827      10.613338       0.008510
    941   10.57279    3.37609   -1.73877       -11.166338      11.179530       0.013192
    942   10.57279    3.37609   -0.22699       -11.467628      11.480686       0.013058
    943   10.57279    3.37609    1.28479       -11.393855      11.403351       0.009496
    944   10.57279    3.37609    2.79657       -10.989264      10.997248       0.007984
    945   10.57279    3.37609    4.30835       -10.385798      10.392431       0.006633
    946   10.57279    3.37609    5.82013        -9.707035       9.711738       0.004703
    947   10.57279    4.88787   -3.25055        -9.915270       9.921261       0.005990
    948   10.57279    4.88787   -1.73877       -10.317837      10.325639       0.007803
    949   10.57279    4.88787   -0.22699       -10.526313      10.534459       0.008146
    950   10.57279    4.88787    1.28479       -10.487232      10.494423       0.007191
    951   12.08457   -7.20637   -1.73877        -8.950524       8.944384      -0.006139
    952   12.08457   -7.20637   -0.22699        -9.064480       9.059766      -0.004713
    953   12.08457   -7.20637    1.28479        -9.008048       9.004386      -0.003662
    954   12.08457   -5.69459   -3.25055        -9.272787       9.266737      -0.006050
    955   12.08457   -5.69459   -1.73877        -9.624923       9.621307      -0.003617
    956   12.08457   -5.69459   -0.22699        -9.789414       9.788401      -0.001013
    957   12.08457   -5.69459    1.28479        -9.714169       9.713582      -0.000587
    958   12.08457   -5.69459    2.79657        -9.426980       9.425777      -0.001203
    959   12.08457   -4.18281   -3.25055        -9.808483       9.804587      -0.003896
    960   12.08457   -4.18281   -1.73877       -10.284185      10.284968       0.000783
    961   12.08457   -4.18281   -0.22699       -10.533414      10.539610       0.006195
    962   12.08457   -4.18281    1.28479       -10.435655      10.439976       0.004321
    963   12.08457   -4.18281    2.79657       -10.042141      10.043147       0.001006
    964   12.08457   -4.18281    4.30835        -9.501315       9.501515       0.000200
    965   12.08457   -2.67103   -4.76233        -9.541477       9.537716      -0.003761
    966   12.08457   -2.67103   -3.25055       -10.213036      10.211149      -0.001887
    967   12.08457   -2.67103   -1.73877       -10.817268      10.820072       0.002805
    968   12.08457   -2.67103    1.28479       -11.057024      11.062968       0.005944
    969   12.08457   -2.67103    2.79657       -10.550218      10.552442       0.002224
    970   12.08457   -2.67103    4.30835        -9.889013       9.890964       0.001950
    971   12.08457   -2.67103    5.82013        -9.212382       9.214024       0.001641
    972   12.08457   -1.15925   -4.76233        -9.674679       9.673251      -0.001428
    973   12.08457   -1.15925   -3.25055       -10.392011      10.392272       0.000261
    974   12.08457   -1.15925   -1.73877       -11.057980      11.060111       0.002131
    975   12.08457   -1.15925   -0.22699       -11.461430      11.465447       0.004017
    976   12.08457   -1.15925    1.28479       -11.350574      11.354074       0.003500
    977   12.08457   -1.15925    2.79657       -10.801688      10.805188       0.003500
    978   12.08457   -1.15925    4.30835       -10.083625      10.087701       0.004076
    979   12.08457   -1.15925    5.82013        -9.361300       9.364559       0.003259
    980   12.08457    0.35253   -4.76233        -9.613831       9.614914       0.001084
    981   12.08457    0.35253   -3.25055       -10.299187      10.302905       0.003718
    982   12.08457    0.35253   -1.73877       -10.920948      10.927278       0.006330
    983   12.08457    0.35253   -0.22699       -11.280659      11.286636       0.005977
    984   12.08457    0.35253    1.28479       -11.183324      11.187847       0.004523
    985   12.08457    0.35253    2.79657       -10.695392      10.700669       0.005278
    986   12.08457    0.35253    4.30835       -10.028508      10.034074       0.005565
    987   12.08457    0.35253    5.82013        -9.336151       9.340419       0.004267
    988   12.08457    1.86431   -4.76233        -9.381511       9.384336       0.002824
    989   12.08457    1.86431   -3.25055        -9.974594       9.980506       0.005911
    990   12.08457    1.86431   -1.73877       -10.478788      10.487820       0.009032
    991   12.08457    1.86431   -0.22699       -10.750897      10.759489       0.008592
    992   12.08457    1.86431    1.28479       -10.678143      10.684460       0.006317
    993   12.08457    1.86431    2.79657       -10.302991      10.308937       0.005946
    994   12.08457    1.86431    4.30835        -9.755669       9.761222       0.005553
    995   12.08457    1.86431    5.82013        -9.150381       9.154662       0.004281
    996   12.08457    3.37609   -3.25055        -9.516221       9.521862       0.005641
    997   12.08457    3.37609   -1.73877        -9.900923       9.908541       0.007617
    998   12.08457    3.37609   -0.22699       -10.098816      10.106509       0.007693
    999   12.08457    3.37609    1.28479       -10.051860      10.058355       0.006496
   1000   12.08457    3.37609    2.79657        -9.778842       9.784453       0.005611
   1001   12.08457    3.37609    4.30835        -9.352044       9.356827       0.004783
   1002   12.08457    4.88787   -1.73877        -9.302629       9.308285       0.005656
   1003   12.08457    4.88787   -0.22699        -9.450912       9.456797       0.005885
   1004   12.08457    4.88787    1.28479        -9.420782       9.426148       0.005366
   1005   13.59635   -5.69459   -1.73877        -8.607925       8.605470      -0.002455
   1006   13.59635   -5.69459   -0.22699        -8.719805       8.718565      -0.001241
   1007   13.59635   -5.69459    1.28479        -8.674645       8.673887      -0.000758
   1008   13.59635   -4.18281   -3.25055        -8.740037       8.737679      -0.002358
   1009   13.59635   -4.18281   -1.73877        -9.041717       9.041163      -0.000554
   1010   13.59635   -4.18281   -0.22699        -9.188035       9.189031       0.000996
   1011   13.59635   -4.18281    1.28479        -9.135186       9.136340       0.001153
   1012   13.59635   -4.18281    2.79657        -8.899947       8.900569       0.000622
   1013   13.59635   -2.67103   -3.25055        -9.013437       9.012468      -0.000970
   1014   13.59635   -2.67103   -1.73877        -9.367094       9.367854       0.000760
   1015   13.59635   -2.67103   -0.22699        -9.547482       9.549616       0.002134
   1016   13.59635   -2.67103    1.28479        -9.490373       9.492535       0.002161
   1017   13.59635   -2.67103    2.79657        -9.216528       9.218214       0.001685
   1018   13.59635   -1.15925   -3.25055        -9.135760       9.136206       0.000446
   1019   13.59635   -1.15925   -1.73877        -9.513360       9.515003       0.001642
   1020   13.59635   -1.15925   -0.22699        -9.710491       9.712848       0.002357
   1021   13.59635   -1.15925    1.28479        -9.654744       9.657242       0.002498
   1022   13.59635   -1.15925    2.79657        -9.367092       9.369621       0.002530
   1023   13.59635   -1.15925    4.30835        -8.938069       8.940546       0.002477
   1024   13.59635    0.35253   -3.25055        -9.084950       9.087002       0.002052
   1025   13.59635    0.35253   -1.73877        -9.447086       9.450202       0.003116
   1026   13.59635    0.35253   -0.22699        -9.634719       9.638129       0.003410
   1027   13.59635    0.35253    1.28479        -9.584960       9.588301       0.003340
   1028   13.59635    0.35253    2.79657        -9.316046       9.319439       0.003393
   1029   13.59635    0.35253    4.30835        -8.906826       8.910100       0.003274
   1030   13.59635    1.86431   -3.25055        -8.880123       8.883354       0.003230
   1031   13.59635    1.86431   -1.73877        -9.197353       9.201691       0.004339
   1032   13.59635    1.86431   -0.22699        -9.358039       9.362582       0.004542
   1033   13.59635    1.86431    1.28479        -9.317493       9.321701       0.004208
   1034   13.59635    1.86431    2.79657        -9.088922       9.092858       0.003936
   1035   13.59635    3.37609   -1.73877        -8.832374       8.836818       0.004444
   1036   13.59635    3.37609   -0.22699        -8.963208       8.967878       0.004669
   1037   15.10813   -2.67103   -0.22699        -8.386483       8.387283       0.000800

 NET CHARGES:
 -------------------------------------
 ATOM                CHARGE    E.S.D.
 -------------------------------------
 O                  -0.5425    0.0813
 O                  -0.6252    0.0533
 O                  -0.5729    0.0488
 O                  -0.6903    0.0401
 O                  -0.6143    0.0327
 O                  -0.5490    0.0217
 N                  -0.7428    0.3926
 C                   0.2503    0.7415
 C                   0.3439    0.8578
 C                   0.0148    0.5482
 C                   0.0934    0.4857
 C                   0.5808    0.3794
 C                   0.2403    0.3589
 C                   0.7290    0.1928
 C                  -0.5241    0.4348
 H                   0.0547    0.0773
 H                  -0.0172    0.0739
 H                   0.0642    0.0494
 H                   0.0536    0.0451
 H                   0.0034    0.0471
 H                  -0.0009    0.0326
 H                   0.0326    0.0300
 H                   0.3516    0.0386
 H                   0.3949    0.0156
 H                   0.4046    0.0152
 H                   0.4343    0.0100
 H                   0.4026    0.0160
 H                   0.1447    0.0273
 H                   0.1404    0.0291
 H                   0.1452    0.0317
 -------------------------------------

 RMS DEVIATION IS            0.870 KCAL/MOLE
 RELATIVE RMS DEVIATION IS   8.179 %

 MULTIPOLE MOMENTS:
 ---------------------------------------------------------
 STATUS  ACTUAL VALUE       QUANTITY        FITTED VALUE 
 ---------------------------------------------------------
 FIXED       0.0000       TOTAL CHARGE        -0.0000
             3.2489 D    DIPOLE MOMENT         3.2320 D
 FREE       -0.4991 D          DX             -0.5178 D
 FREE        3.0083 D          DY              2.9936 D
 FREE        1.1211 D          DZ              1.1028 D
 FREE        0.0000 BU         QXX            -4.0409 BU
 FREE        0.0000 BU         QYY             5.7758 BU
 FREE        0.0000 BU         QZZ            -1.7348 BU
 FREE        0.0000 BU         QXY            -8.2294 BU
 FREE        0.0000 BU         QXZ            -0.3324 BU
 FREE        0.0000 BU         QYZ           -10.9233 BU
 ---------------------------------------------------------
 ...... END OF PROPERTY EVALUATION ......
 CPU     0: STEP CPU TIME=     0.73 TOTAL CPU TIME=         64.0 (      1.1 MIN)
 TOTAL WALL CLOCK TIME=        127.7 SECONDS, CPU UTILIZATION IS    50.08%
              1215928  WORDS OF DYNAMIC MEMORY USED
 EXECUTION OF GAMESS TERMINATED NORMALLY Thu May 21 21:53:24 2020
 DDI: 263640 bytes (0.3 MB / 0 MWords) used by master data server.
Note: The following floating-point exceptions are signalling:Note: The following floating-point exceptions are signalling:Note: The following floating-point exceptions are signalling: IEEE_UNDERFLOW_FLAG IEEE_UNDERFLOW_FLAG IEEE_DENORMALNote: The following floating-point exceptions are signalling: IEEE_UNDERFLOW_FLAGNote: The following floating-point exceptions are signalling: IEEE_UNDERFLOW_FLAG IEEE_UNDERFLOW_FLAGNote: The following floating-point exceptions are signalling: IEEE_UNDERFLOW_FLAG
 ----------------------------------------
 CPU timing information for all processes
 ========================================
 0: 63.430 + 0.544 = 63.975
 1: 62.78 + 0.147 = 62.226
 2: 62.330 + 0.255 = 62.586
 3: 62.877 + 0.188 = 63.66
 4: 62.698 + 0.305 = 63.03
 5: 62.26 + 0.144 = 62.170
 6: 61.562 + 0.231 = 61.794
 7: 63.915 + 0.172 = 64.88
 ----------------------------------------
 IEEE_DENORMAL

 IEEE_DENORMAL
 IEEE_DENORMAL
 IEEE_DENORMAL
 IEEE_DENORMAL
Note: The following floating-point exceptions are signalling: IEEE_UNDERFLOW_FLAGNote: The following floating-point exceptions are signalling: IEEE_UNDERFLOW_FLAG IEEE_DENORMAL IEEE_DENORMAL

 ddikick.x: exited gracefully.
unset echo
----- accounting info -----
Files used on the master node pietdev were:
-rwxr-xr-x 1 piet piet     1816 mei 21 21:51 /home/piet/scr/beta-d-acetylgalactosamine_charge_chelpg.F05*
-rw-r--r-- 1 piet piet 50790400 mei 21 21:53 /home/piet/scr/beta-d-acetylgalactosamine_charge_chelpg.F10
ls: No match.
ls: No match.
ls: No match.
do 21 mei 2020 21:53:27 CEST
0.156u 0.014s 2:10.93 0.1%	0+0k 0+8io 0pf+0w
