----- GAMESS execution script 'rungms' -----
This job is running on host pietdev
under operating system Linux at do 21 mei 2020 21:53:41 CEST
Available scratch disk space (Kbyte units) at beginning of the job is
Filesystem     1K-blocks     Used Available Use% Mounted on
/dev/sda2      244568380 30774136 201301188  14% /
GAMESS temporary binary files will be written to /home/piet/scr
GAMESS supplementary output files will be written to /home/piet/gamess/scr
Copying input file beta-d-acetylgalactosamine_fukui_neu.inp to your run's scratch directory...
cp beta-d-acetylgalactosamine_fukui_neu.inp /home/piet/scr/beta-d-acetylgalactosamine_fukui_neu.F05
unset echo
 
Assuming a single but multicore node.
 
/home/piet/gamess/ddikick.x /home/piet/gamess/gamess.03.x beta-d-acetylgalactosamine_fukui_neu -ddi 1 8 pietdev:cpus=8 -scr /home/piet/scr

 Distributed Data Interface kickoff program.
 Initiating 8 compute processes on 1 nodes to run the following command:
 /home/piet/gamess/gamess.03.x beta-d-acetylgalactosamine_fukui_neu 

          ******************************************************
          *         GAMESS VERSION = 30 SEP 2019 (R2)          *
          *             FROM IOWA STATE UNIVERSITY             *
          * M.W.SCHMIDT, K.K.BALDRIDGE, J.A.BOATZ, S.T.ELBERT, *
          *   M.S.GORDON, J.H.JENSEN, S.KOSEKI, N.MATSUNAGA,   *
          *          K.A.NGUYEN, S.J.SU, T.L.WINDUS,           *
          *       TOGETHER WITH M.DUPUIS, J.A.MONTGOMERY       *
          *         J.COMPUT.CHEM.  14, 1347-1363(1993)        *
          **************** 64 BIT LINUX VERSION ****************

  SINCE 1993, STUDENTS AND POSTDOCS WORKING AT IOWA STATE UNIVERSITY
  AND ALSO IN THEIR VARIOUS JOBS AFTER LEAVING ISU HAVE MADE IMPORTANT
  CONTRIBUTIONS TO THE CODE:
     IVANA ADAMOVIC, CHRISTINE AIKENS, YURI ALEXEEV, POOJA ARORA,
     ANDREY ASADCHEV, ROB BELL, PRADIPTA BANDYOPADHYAY, JONATHAN BENTZ,
     COLLEEN BERTONI, BRETT BODE, KURT BRORSEN, CALEB CARLIN, GALINA CHABAN,
     WEI CHEN, CHEOL HO CHOI, PAUL DAY, ALBERT DEFUSCO, NUWAN DESILVA,
     TIM DUDLEY, DMITRI FEDOROV, ALEX FINDLATER, GRAHAM FLETCHER, 
     MARK FREITAG, KURT GLAESEMANN, EMILIE B GUIDEZ, ANASTASIA GUNINA, 
     DAN KEMP, SAROM SOK LEANG, GRANT MERRILL,
     NORIYUKI MINEZAWA, JONATHAN MULLIN,
     TAKESHI NAGATA, SEAN NEDD, HEATHER NETZLOFF, BOSILJKA NJEGIC, RYAN OLSON,
     MIKE PAK, BUU PHAM, DAVID POOLE,
     SPENCER PRUITT, LUKE ROSKOP, TOSAPORN SATTASATHUCHANA,
     JIM SHOEMAKER, LYUDMILA SLIPCHENKO,
     TONY SMITH, JIE SONG, TETSUYA TAKETSUGU, SIMON WEBB,
     JORGE LUIS GALVEZ VALLEJO, PENG XU, SOOHAENG YOO,
     FEDERICO ZAHARIEV

  ADDITIONAL CODE HAS BEEN PROVIDED BY COLLABORATORS IN OTHER GROUPS:
     IOWA STATE UNIVERSITY:
          JOE IVANIC, AARON WEST, LAIMUTIS BYTAUTAS, KLAUS RUEDENBERG
     UNIVERSITY OF TOKYO: KIMIHIKO HIRAO, TAKAHITO NAKAJIMA,
          TAKAO TSUNEDA, MUNEAKI KAMIYA, SUSUMU YANAGISAWA,
          KIYOSHI YAGI, MAHITO CHIBA, SEIKEN TOKURA, NAOAKI KAWAKAMI
     UNIVERSITY OF AARHUS: FRANK JENSEN
     UNIVERSITY OF IOWA: VISVALDAS KAIRYS, HUI LI
     NATIONAL INST. OF STANDARDS AND TECHNOLOGY: WALT STEVENS, DAVID GARMER
     UNIVERSITY OF PISA: BENEDETTA MENNUCCI, JACOPO TOMASI
     UNIVERSITY OF MEMPHIS: HENRY KURTZ, PRAKASHAN KORAMBATH
     UNIVERSITY OF ALBERTA: TOBY ZENG, MARIUSZ KLOBUKOWSKI
     UNIVERSITY OF NEW ENGLAND: MARK SPACKMAN
     MIE UNIVERSITY: HIROAKI UMEDA
     NAT. INST. OF ADVANCED INDUSTRIAL SCIENCE AND TECHNOLOGY: KAZUO KITAURA
     MICHIGAN STATE UNIVERSITY:
          KAROL KOWALSKI, MARTA WLOCH, JEFFREY GOUR, JESSE LUTZ,
          WEI LI, JUN SHEN, J. EMILIANO DEUSTUA, PIOTR PIECUCH
     UNIVERSITY OF MINNESOTA:
          ANDREW SAND, PRACHI SHARMA, YINAN SHU
     UNIVERSITY OF SILESIA: MONIKA MUSIAL, STANISLAW KUCHARSKI
     FACULTES UNIVERSITAIRES NOTRE-DAME DE LA PAIX:
          OLIVIER QUINET, BENOIT CHAMPAGNE
     UNIVERSITY OF CALIFORNIA - SANTA BARBARA: BERNARD KIRTMAN
     INSTITUTE FOR MOLECULAR SCIENCE:
          KAZUYA ISHIMURA, MICHIO KATOUDA, AND SHIGERU NAGASE
     UNIVERSITY OF NOTRE DAME: ANNA POMOGAEVA, DAN CHIPMAN
     KYUSHU UNIVERSITY:
          HARUYUKI NAKANO,
          FENG LONG GU, JACEK KORCHOWIEC, MARCIN MAKOWSKI, AND YURIKO AOKI,
          HIROTOSHI MORI AND EISAKU MIYOSHI
     PENNSYLVANIA STATE UNIVERSITY:
          TZVETELIN IORDANOV, CHET SWALINA, JONATHAN SKONE,
          SHARON HAMMES-SCHIFFER
     WASEDA UNIVERSITY:
          MASATO KOBAYASHI, TOMOKO AKAMA, TSUGUKI TOUMA,
          TAKESHI YOSHIKAWA, YASUHIRO IKABATA, JUNJI SEINO,
          YUYA NAKAJIMA, HIROMI NAKAI
     NANJING UNIVERSITY: SHUHUA LI
     UNIVERSITY OF NEBRASKA:
          PEIFENG SU, DEJUN SI, NANDUN THELLAMUREGE, YALI WANG, HUI LI
     UNIVERSITY OF ZURICH: ROBERTO PEVERATI, KIM BALDRIDGE
     N. COPERNICUS UNIVERSITY AND JACKSON STATE UNIVERSITY:
          MARIA BARYSZ
     UNIVERSITY OF COPENHAGEN: Jimmy Kromann, CASPER STEINMANN
     TOKYO INSTITUTE OF TECHNOLOGY: HIROYA NAKATA
     NAGOYA UNIVERSITY: YOSHIO NISHIMOTO, STEPHAN IRLE
     MOSCOW STATE UNIVERSITY: VLADIMIR MIRONOV
     A.N.NESMEYANOV INSTITUTE OF ORGANOELEMENT COMPOUNDS OF RUSSIAN ACADEMY OF SCIENCES:
          IGOR S. GERASIMOV
     JOHANNES KEPLER UNIVERSITY LINZ:
          CHRISTIAN FRIEDL


 PARALLEL VERSION RUNNING ON        8 PROCESSORS IN        1 NODES.

 EXECUTION OF GAMESS BEGUN Thu May 21 21:53:41 2020

            ECHO OF THE FIRST FEW INPUT CARDS -
 INPUT CARD> $BASIS GBASIS=N21 NGAUSS=3 $END                                                
 INPUT CARD> $CONTRL SCFTYP=RHF MAXIT=60 MULT=1 ICHARG=0 $END                               
 INPUT CARD> $SYSTEM MEMDDI=1000 MWORDS=30 $END                                             
 INPUT CARD> $SCF DIRSCF=.TRUE. $END                                                        
 INPUT CARD> $DATA                                                                          
 INPUT CARD>                                                                                
 INPUT CARD>C1                                                                              
 INPUT CARD>O 8.0000000 -1.3953435025 -1.0038225532 -0.4257324581                           
 INPUT CARD>O 8.0000000 0.7006152756 2.4485278479 0.7556993405                              
 INPUT CARD>O 8.0000000 -1.3884180315 2.0422366809 -0.8049707412                            
 INPUT CARD>O 8.0000000 0.0287725717 -1.5233557931 1.4329589981                             
 INPUT CARD>O 8.0000000 -4.0122510124 -1.3435943310 -0.4917383354                           
 INPUT CARD>O 8.0000000 2.6279283527 -1.9110937691 -0.6722890904                            
 INPUT CARD>N 7.0000000 2.1069880298 0.1667609319 0.1699681651                              
 INPUT CARD>C 6.0000000 0.0222982507 1.1617462187 0.8490677956                              
 INPUT CARD>C 6.0000000 0.6755731631 0.1613323802 -0.1240812298                             
 INPUT CARD>C 6.0000000 -1.4561173056 1.3237351027 0.4845543510                             
 INPUT CARD>C 6.0000000 -2.1588043661 -0.0334246213 0.3861289298                            
 INPUT CARD>C 6.0000000 -0.0230219628 -1.1900823378 0.0376672978                            
 INPUT CARD>C 6.0000000 -3.5068612705 0.0081464133 -0.3372719095                            
 INPUT CARD>C 6.0000000 2.9762840051 -0.8381173616 -0.1411684532                            
 INPUT CARD>C 6.0000000 4.4293846039 -0.5198191420 0.2181583324                             
 INPUT CARD>H 1.0000000 0.1408377700 0.7851902752 1.8638155732                              
 INPUT CARD>H 1.0000000 0.4697415684 0.4952719972 -1.1478132161                             
 INPUT CARD>H 1.0000000 -1.9593076709 1.9378054322 1.2440912350                             
 INPUT CARD>H 1.0000000 -2.2750458470 -0.4321391539 1.3985140277                            
 INPUT CARD>H 1.0000000 0.4251539133 -1.9448590602 -0.6032554420                            
 INPUT CARD>H 1.0000000 -3.3420582830 0.5066353770 -1.3040538524                            
 INPUT CARD>H 1.0000000 -4.2425592182 0.5695891232 0.2463511706                             
 INPUT CARD>H 1.0000000 2.4284982714 1.0655486973 0.5268237956                              
 INPUT CARD>H 1.0000000 0.2991784502 2.8429465612 -0.0751111904                             
 INPUT CARD>H 1.0000000 -2.2572403953 2.4899160404 -0.9762612009                            
 INPUT CARD>H 1.0000000 -0.2539499037 -2.4698444384 1.5446591625                            
 INPUT CARD>H 1.0000000 -3.2064522475 -1.8488465556 -0.8008422670                           
 INPUT CARD>H 1.0000000 4.8009746507 0.3049558761 -0.4018535111                             
 INPUT CARD>H 1.0000000 4.5145836955 -0.2273895098 1.2702793114                             
 INPUT CARD>H 1.0000000 5.0323185447 -1.4089566285 0.0318054115                             
 INPUT CARD> $END                                                                           
   30000000 WORDS OF MEMORY AVAILABLE

     BASIS OPTIONS
     -------------
     GBASIS=N21          IGAUSS=       3      POLAR=NONE    
     NDFUNC=       0     NFFUNC=       0     DIFFSP=       F
     NPFUNC=       0      DIFFS=       F     BASNAM=        


     RUN TITLE
     ---------
                                                                                 

 THE POINT GROUP OF THE MOLECULE IS C1      
 THE ORDER OF THE PRINCIPAL AXIS IS     0

 ATOM      ATOMIC                      COORDINATES (BOHR)
           CHARGE         X                   Y                   Z
 O           8.0    -2.6368168785       -1.8969495658       -0.8045176899
 O           8.0     1.3239708937        4.6270467058        1.4280646826
 O           8.0    -2.6237296359        3.8592677290       -1.5211741290
 O           8.0     0.0543722765       -2.8787250308        2.7078998580
 O           8.0    -7.5820550074       -2.5390251242       -0.9292507116
 O           8.0     4.9660645020       -3.6114435604       -1.2704421654
 N           7.0     3.9816300357        0.3151324667        0.3211932587
 C           6.0     0.0421375838        2.1953820206        1.6045054787
 C           6.0     1.2766481629        0.3048739915       -0.2344795245
 C           6.0    -2.7516627136        2.5014966244        0.9156749495
 C           6.0    -4.0795487130       -0.0631633755        0.7296778733
 C           6.0    -0.0435052014       -2.2489295213        0.0711808715
 C           6.0    -6.6270068782        0.0153944889       -0.6373514923
 C           6.0     5.6243612313       -1.5838121590       -0.2667696947
 C           6.0     8.3703231956       -0.9823157416        0.4122594702
 H           1.0     0.2661447940        1.4837944684        3.5221007250
 H           1.0     0.8876828493        0.9359283641       -2.1690524635
 H           1.0    -3.7025546236        3.6619212844        2.3509915379
 H           1.0    -4.2992132603       -0.8166245894        2.6428083023
 H           1.0     0.8034243987       -3.6752507085       -1.1399874860
 H           1.0    -6.3155743899        0.9574020382       -2.4643044543
 H           1.0    -8.0172744091        1.0763673684        0.4655362092
 H           1.0     4.5891962946        2.0135950645        0.9955526175
 H           1.0     0.5653652923        5.3723899984       -0.1419395685
 H           1.0    -4.2655658355        4.7052590488       -1.8448661621
 H           1.0    -0.4798957326       -4.6673292209        2.9189825615
 H           1.0    -6.0593161405       -3.4938133834       -1.5133724440
 H           1.0     9.0725265638        0.5762830442       -0.7593930232
 H           1.0     8.5313261331       -0.4297038660        2.4004798264
 H           1.0     9.5097031324       -2.6625419564        0.0601035127

          INTERNUCLEAR DISTANCES (ANGS.)
          ------------------------------

                1 O          2 O          3 O          4 O          5 O     

   1 O       0.0000000    4.2080337    3.0695841    2.3984902 *  2.6396982 *
   2 O       4.2080337    0.0000000    2.6390953 *  4.0848394    6.1763582  
   3 O       3.0695841    2.6390953 *  0.0000000    4.4418699    4.2949349  
   4 O       2.3984902 *  4.0848394    4.4418699    0.0000000    4.4795810  
   5 O       2.6396982 *  6.1763582    4.2949349    4.4795810    0.0000000  
   6 O       4.1316640    4.9759408    5.6371504    3.3671978    6.6668310  
   7 N       3.7405148    2.7436154 *  4.0848230    2.9615232 *  6.3375165  
   8 C       2.8852230 *  1.4576140 *  2.3454695 *  2.7478617 *  4.9347827  
   9 C       2.3952610 *  2.4506946 *  2.8742775 *  2.3834638 *  4.9371724  
  10 C       2.4999680 *  2.4474831 *  1.4777357 *  3.3481780    3.8212057  
  11 C       1.4777224 *  3.8043332    2.5140770 *  2.8462679 *  2.4336105 *
  12 C       1.4603761 *  3.7787174    3.6086329    1.4354765 *  4.0271311  
  13 C       2.3431632 *  4.9852690    2.9738976 *  4.2402739    1.4513724 *
  14 C       4.3840121    4.0969595    5.2714037    3.4110486    7.0155561  
  15 C       5.8801626    4.7962230    6.4387693    4.6742072    8.5113906  
  16 H       3.2867081    2.0755636 *  3.3228315    2.3510808 *  5.2276672  
  17 H       2.4994454 *  2.7371283 *  2.4420069 *  3.3060092    4.8887750  
  18 H       3.4292189    2.7521908 *  2.1296657 *  3.9959694    4.2420826  
  19 H       2.1044176 *  4.1911827    3.4298673    2.5494155 *  2.7242772 *
  20 H       2.0570063 *  4.6070040    4.3848221    2.1168260 *  4.4793435  
  21 H       2.6158421 *  4.9352547    2.5345346 *  4.7931831    2.1289351 *
  22 H       3.3217402    5.3127037    3.3793624    4.9023190    2.0635137 *
  23 H       4.4510029    2.2249933 *  4.1588996    3.6444740    6.9515962  
  24 H       4.2180532    1.0034759 *  2.0054459 *  4.6273093    6.0240457  
  25 H       3.6403513    3.4278726    0.9922749 *  5.2092752    4.2438928  
  26 H       2.7082176 *  5.0718870    5.2121641    0.9941075 *  4.4204277  
  27 H       2.0334424 *  6.0129381    4.2948567    3.9449324    1.0000683 *
  28 H       6.3330743    4.7694629    6.4412134    5.4298410    8.9665347  
  29 H       6.1973013    4.6873960    6.6560721    4.6720975    8.7782418  
  30 H       6.4566488    5.8453282    7.3373556    5.1972869    9.0599453  

                6 O          7 N          8 C          9 C         10 C     

   1 O       4.1316640    3.7405148    2.8852230 *  2.3952610 *  2.4999680 *
   2 O       4.9759408    2.7436154 *  1.4576140 *  2.4506946 *  2.4474831 *
   3 O       5.6371504    4.0848230    2.3454695 *  2.8742775 *  1.4777357 *
   4 O       3.3671978    2.9615232 *  2.7478617 *  2.3834638 *  3.3481780  
   5 O       6.6668310    6.3375165    4.9347827    4.9371724    3.8212057  
   6 O       0.0000000    2.3017941 *  4.3065277    2.8995125 *  5.3368374  
   7 N       2.3017941 *  0.0000000    2.4077175 *  1.4613155 *  3.7594246  
   8 C       4.3065277    2.4077175 *  0.0000000    1.5409786 *  1.5312815 *
   9 C       2.8995125 *  1.4613155 *  1.5409786 *  0.0000000    2.5031423 *
  10 C       5.3368374    3.7594246    1.5312815 *  2.5031423 *  0.0000000  
  11 C       5.2496381    4.2759542    2.5298131 *  2.8865101 *  1.5314500 *
  12 C       2.8375047 *  2.5289266 *  2.4882770 *  1.5298756 *  2.9279256 *
  13 C       6.4367199    5.6389498    3.8978406    4.1906651    2.5713271 *
  14 C       1.2468838 *  1.3646472 *  3.7021688    2.5084781 *  4.9710478  
  15 C       2.4441330 *  2.4222387 *  4.7590040    3.8304302    6.1732319  
  16 H       4.4595285    2.6678307 *  1.0888338 *  2.1510170 *  2.1777643 *
  17 H       3.2671837    2.1272149 *  2.1521913 *  1.0963163 *  2.6570486 *
  18 H       6.2872309    4.5634526    2.1645030 *  3.4598193    1.0987171 *
  19 H       5.5240102    4.5902317    2.8495880 *  3.3729301    2.1422093 *
  20 H       2.2041146 *  2.8080918 *  3.4529019    2.1744793 *  3.9250757  
  21 H       6.4718839    5.6551181    4.0477151    4.2015392    2.7246183 *
  22 H       7.3621523    6.3627710    4.3477496    4.9489312    2.8965040 *
  23 H       3.2152829    1.0190850 *  2.4295871 *  2.0770245 *  3.8934156  
  24 H       5.3273443    3.2388592    1.9383509 *  2.7083437 *  2.3879473 *
  25 H       6.5822610    5.0751730    3.2081393    3.8405609    2.0336564 *
  26 H       3.6786253    3.7967738    3.7079120    3.2514303    4.1182854  
  27 H       5.8361287    5.7652228    4.7128231    4.4236802    3.8446315  
  28 H       3.1154681    2.7574702 *  5.0134461    4.1372361    6.4011585  
  29 H       3.1887145    2.6762952 *  4.7209899    4.1028463    6.2187315  
  30 H       2.5551875 *  3.3255877    5.6900557    4.6337176    7.0549547  

               11 C         12 C         13 C         14 C         15 C     

   1 O       1.4777224 *  1.4603761 *  2.3431632 *  4.3840121    5.8801626  
   2 O       3.8043332    3.7787174    4.9852690    4.0969595    4.7962230  
   3 O       2.5140770 *  3.6086329    2.9738976 *  5.2714037    6.4387693  
   4 O       2.8462679 *  1.4354765 *  4.2402739    3.4110486    4.6742072  
   5 O       2.4336105 *  4.0271311    1.4513724 *  7.0155561    8.5113906  
   6 O       5.2496381    2.8375047 *  6.4367199    1.2468838 *  2.4441330 *
   7 N       4.2759542    2.5289266 *  5.6389498    1.3646472 *  2.4222387 *
   8 C       2.5298131 *  2.4882770 *  3.8978406    3.7021688    4.7590040  
   9 C       2.8865101 *  1.5298756 *  4.1906651    2.5084781 *  3.8304302  
  10 C       1.5314500 *  2.9279256 *  2.5713271 *  4.9710478    6.1732319  
  11 C       0.0000000    2.4537418 *  1.5304556 *  5.2244335    6.6082545  
  12 C       2.4537418 *  0.0000000    3.7031700    3.0251773    4.5061906  
  13 C       1.5304556 *  3.7031700    0.0000000    6.5410849    7.9731580  
  14 C       5.2244335    3.0251773    6.5410849    0.0000000    1.5303368 *
  15 C       6.6082545    4.5061906    7.9731580    1.5303368 *  0.0000000  
  16 H       2.8534264 *  2.6950639 *  4.3306225    3.8333854    4.7752352  
  17 H       3.0889727    2.1186314 *  4.0874979    3.0123107    4.3098795  
  18 H       2.1590846 *  3.8714781    2.9358500 *  5.8296447    6.9215494  
  19 H       1.0942618 *  2.7382464 *  2.1735164 *  5.4874316    6.8081066  
  20 H       3.3629308    1.0868907 *  4.3983771    2.8189832 *  4.3288939  
  21 H       2.1327148 *  3.9617002    1.1001448 *  6.5636965    7.9853656  
  22 H       2.1737520 *  4.5765148    1.0941139 *  7.3650191    8.7401496  
  23 H       4.7192036    3.3670606    6.0904231    2.0905089 *  2.5714221 *
  24 H       3.8115526    4.0474503    4.7529736    4.5520863    5.3341169  
  25 H       2.8693283 *  4.4229143    2.8511472 *  6.2580319    7.4294076  
  26 H       3.3025451    1.9905133 *  4.5015037    3.9923626    5.2436462  
  27 H       2.4087805 *  3.3572752    1.9374122 *  6.2994421    7.8173321  
  28 H       7.0124134    5.0694439    8.3133871    2.1688866 *  1.0966985 *
  29 H       6.7344972    4.7995807    8.1843312    2.1752102 *  1.0953230 *
  30 H       7.3300670    5.0600798    8.6638324    2.1408072 *  1.0903312 *

               16 H         17 H         18 H         19 H         20 H     

   1 O       3.2867081    2.4994454 *  3.4292189    2.1044176 *  2.0570063 *
   2 O       2.0755636 *  2.7371283 *  2.7521908 *  4.1911827    4.6070040  
   3 O       3.3228315    2.4420069 *  2.1296657 *  3.4298673    4.3848221  
   4 O       2.3510808 *  3.3060092    3.9959694    2.5494155 *  2.1168260 *
   5 O       5.2276672    4.8887750    4.2420826    2.7242772 *  4.4793435  
   6 O       4.4595285    3.2671837    6.2872309    5.5240102    2.2041146 *
   7 N       2.6678307 *  2.1272149 *  4.5634526    4.5902317    2.8080918 *
   8 C       1.0888338 *  2.1521913 *  2.1645030 *  2.8495880 *  3.4529019  
   9 C       2.1510170 *  1.0963163 *  3.4598193    3.3729301    2.1744793 *
  10 C       2.1777643 *  2.6570486 *  1.0987171 *  2.1422093 *  3.9250757  
  11 C       2.8534264 *  3.0889727    2.1590846 *  1.0942618 *  3.3629308  
  12 C       2.6950639 *  2.1186314 *  3.8714781    2.7382464 *  1.0868907 *
  13 C       4.3306225    4.0874979    2.9358500 *  2.1735164 *  4.3983771  
  14 C       3.8333854    3.0123107    5.8296447    5.4874316    2.8189832 *
  15 C       4.7752352    4.3098795    6.9215494    6.8081066    4.3288939  
  16 H       0.0000000    3.0433761    2.4745082 *  2.7449754 *  3.6905886  
  17 H       3.0433761    0.0000000    3.7016739    3.8571663    2.5005541 *
  18 H       2.4745082 *  3.7016739    0.0000000    2.3958661 *  4.9166483  
  19 H       2.7449754 *  3.8571663    2.3958661 *  0.0000000    3.6859844  
  20 H       3.6905886    2.5005541 *  4.9166483    3.6859844    0.0000000  
  21 H       4.7163073    3.8150175    3.2331549    3.0534712    4.5489374  
  22 H       4.6772689    4.9147732    2.8426640 *  2.4903911 *  5.3695276  
  23 H       2.6644959 *  2.6393849 *  4.5307996    5.0126081    3.7885383  
  24 H       2.8317609 *  2.5867658 *  2.7677310 *  4.4186410    4.8184945  
  25 H       4.0893649    3.3829670    2.3072830 *  3.7654058    5.1963066  
  26 H       3.2943845    4.0700187    4.7356059    2.8737484 *  2.3130778 *
  27 H       5.0242315    4.3737491    4.4806089    2.7770030 *  3.6382444  
  28 H       5.2039175    4.3991199    7.1467999    7.3385761    4.9244327  
  29 H       4.5284938    4.7676156    6.8264211    6.7939264    4.8149008  
  30 H       5.6654326    5.0827842    7.8455905    7.4979757    4.6815019  

               21 H         22 H         23 H         24 H         25 H     

   1 O       2.6158421 *  3.3217402    4.4510029    4.2180532    3.6403513  
   2 O       4.9352547    5.3127037    2.2249933 *  1.0034759 *  3.4278726  
   3 O       2.5345346 *  3.3793624    4.1588996    2.0054459 *  0.9922749 *
   4 O       4.7931831    4.9023190    3.6444740    4.6273093    5.2092752  
   5 O       2.1289351 *  2.0635137 *  6.9515962    6.0240457    4.2438928  
   6 O       6.4718839    7.3621523    3.2152829    5.3273443    6.5822610  
   7 N       5.6551181    6.3627710    1.0190850 *  3.2388592    5.0751730  
   8 C       4.0477151    4.3477496    2.4295871 *  1.9383509 *  3.2081393  
   9 C       4.2015392    4.9489312    2.0770245 *  2.7083437 *  3.8405609  
  10 C       2.7246183 *  2.8965040 *  3.8934156    2.3879473 *  2.0336564 *
  11 C       2.1327148 *  2.1737520 *  4.7192036    3.8115526    2.8693283 *
  12 C       3.9617002    4.5765148    3.3670606    4.0474503    4.4229143  
  13 C       1.1001448 *  1.0941139 *  6.0904231    4.7529736    2.8511472 *
  14 C       6.5636965    7.3650191    2.0905089 *  4.5520863    6.2580319  
  15 C       7.9853656    8.7401496    2.5714221 *  5.3341169    7.4294076  
  16 H       4.7163073    4.6772689    2.6644959 *  2.8317609 *  4.0893649  
  17 H       3.8150175    4.9147732    2.6393849 *  2.5867658 *  3.3829670  
  18 H       3.2331549    2.8426640 *  4.5307996    2.7677310 *  2.3072830 *
  19 H       3.0534712    2.4903911 *  5.0126081    4.4186410    3.7654058  
  20 H       4.5489374    5.3695276    3.7885383    4.8184945    5.1963066  
  21 H       0.0000000    1.7940515 *  6.0797878    4.4974721    2.2842242 *
  22 H       1.7940515 *  0.0000000    6.6953453    5.0890935    3.0205839  
  23 H       6.0797878    6.6953453    0.0000000    2.8382163 *  5.1229126  
  24 H       4.4974721    5.0890935    2.8382163 *  0.0000000    2.7334921 *
  25 H       2.2842242 *  3.0205839    5.1229126    2.7334921 *  0.0000000  
  26 H       5.1488845    5.1800352    4.5530783    5.5816982    5.9133270  
  27 H       2.4124481 *  2.8317773 *  6.4814400    5.9016146    4.4448437  
  28 H       8.1953417    9.0705956    2.6588695 *  5.1782551    7.4109645  
  29 H       8.3001691    8.8527485    2.5644040 *  5.3857850    7.6346772  
  30 H       8.6939174    9.4859913    3.6260309    6.3633896    8.3279695  

               26 H         27 H         28 H         29 H         30 H     

   1 O       2.7082176 *  2.0334424 *  6.3330743    6.1973013    6.4566488  
   2 O       5.0718870    6.0129381    4.7694629    4.6873960    5.8453282  
   3 O       5.2121641    4.2948567    6.4412134    6.6560721    7.3373556  
   4 O       0.9941075 *  3.9449324    5.4298410    4.6720975    5.1972869  
   5 O       4.4204277    1.0000683 *  8.9665347    8.7782418    9.0599453  
   6 O       3.6786253    5.8361287    3.1154681    3.1887145    2.5551875 *
   7 N       3.7967738    5.7652228    2.7574702 *  2.6762952 *  3.3255877  
   8 C       3.7079120    4.7128231    5.0134461    4.7209899    5.6900557  
   9 C       3.2514303    4.4236802    4.1372361    4.1028463    4.6337176  
  10 C       4.1182854    3.8446315    6.4011585    6.2187315    7.0549547  
  11 C       3.3025451    2.4087805 *  7.0124134    6.7344972    7.3300670  
  12 C       1.9905133 *  3.3572752    5.0694439    4.7995807    5.0600798  
  13 C       4.5015037    1.9374122 *  8.3133871    8.1843312    8.6638324  
  14 C       3.9923626    6.2994421    2.1688866 *  2.1752102 *  2.1408072 *
  15 C       5.2436462    7.8173321    1.0966985 *  1.0953230 *  1.0903312 *
  16 H       3.2943845    5.0242315    5.2039175    4.5284938    5.6654326  
  17 H       4.0700187    4.3737491    4.3991199    4.7676156    5.0827842  
  18 H       4.7356059    4.4806089    7.1467999    6.8264211    7.8455905  
  19 H       2.8737484 *  2.7770030 *  7.3385761    6.7939264    7.4979757  
  20 H       2.3130778 *  3.6382444    4.9244327    4.8149008    4.6815019  
  21 H       5.1488845    2.4124481 *  8.1953417    8.3001691    8.6939174  
  22 H       5.1800352    2.8317773 *  9.0705956    8.8527485    9.4859913  
  23 H       4.5530783    6.4814400    2.6588695 *  2.5644040 *  3.6260309  
  24 H       5.5816982    5.9016146    5.1782551    5.3857850    6.3633896  
  25 H       5.9133270    4.4448437    7.4109645    7.6346772    8.3279695  
  26 H       0.0000000    3.8215554    6.0861064    5.2766278    5.5998967  
  27 H       3.8215554    0.0000000    8.3016229    8.1567802    8.2924152  
  28 H       6.0861064    8.3016229    0.0000000    1.7780437 *  1.7829964 *
  29 H       5.2766278    8.1567802    1.7780437 *  0.0000000    1.7882863 *
  30 H       5.5998967    8.2924152    1.7829964 *  1.7882863 *  0.0000000  

  * ... LESS THAN  3.000


     ATOMIC BASIS SET
     ----------------
 THE CONTRACTED PRIMITIVE FUNCTIONS HAVE BEEN UNNORMALIZED
 THE CONTRACTED BASIS FUNCTIONS ARE NOW NORMALIZED TO UNITY

  SHELL TYPE  PRIMITIVE        EXPONENT          CONTRACTION COEFFICIENT(S)

 O         

      1   S       1           322.0370000    0.059239393389
      1   S       2            48.4308000    0.351499960776
      1   S       3            10.4206000    0.707657921031

      2   L       4             7.4029400   -0.404453583190    0.244586106967
      2   L       5             1.5762000    1.221561761397    0.853955373466

      3   L       6             0.3736840    1.000000000000    1.000000000000

 O         

      4   S       7           322.0370000    0.059239393389
      4   S       8            48.4308000    0.351499960776
      4   S       9            10.4206000    0.707657921031

      5   L      10             7.4029400   -0.404453583190    0.244586106967
      5   L      11             1.5762000    1.221561761397    0.853955373466

      6   L      12             0.3736840    1.000000000000    1.000000000000

 O         

      7   S      13           322.0370000    0.059239393389
      7   S      14            48.4308000    0.351499960776
      7   S      15            10.4206000    0.707657921031

      8   L      16             7.4029400   -0.404453583190    0.244586106967
      8   L      17             1.5762000    1.221561761397    0.853955373466

      9   L      18             0.3736840    1.000000000000    1.000000000000

 O         

     10   S      19           322.0370000    0.059239393389
     10   S      20            48.4308000    0.351499960776
     10   S      21            10.4206000    0.707657921031

     11   L      22             7.4029400   -0.404453583190    0.244586106967
     11   L      23             1.5762000    1.221561761397    0.853955373466

     12   L      24             0.3736840    1.000000000000    1.000000000000

 O         

     13   S      25           322.0370000    0.059239393389
     13   S      26            48.4308000    0.351499960776
     13   S      27            10.4206000    0.707657921031

     14   L      28             7.4029400   -0.404453583190    0.244586106967
     14   L      29             1.5762000    1.221561761397    0.853955373466

     15   L      30             0.3736840    1.000000000000    1.000000000000

 O         

     16   S      31           322.0370000    0.059239393389
     16   S      32            48.4308000    0.351499960776
     16   S      33            10.4206000    0.707657921031

     17   L      34             7.4029400   -0.404453583190    0.244586106967
     17   L      35             1.5762000    1.221561761397    0.853955373466

     18   L      36             0.3736840    1.000000000000    1.000000000000

 N         

     19   S      37           242.7660000    0.059865700508
     19   S      38            36.4851000    0.352955002994
     19   S      39             7.8144900    0.706513005993

     20   L      40             5.4252200   -0.413300077430    0.237972016222
     20   L      41             1.1491500    1.224417266851    0.858953058551

     21   L      42             0.2832050    1.000000000000    1.000000000000

 C         

     22   S      43           172.2560000    0.061766907377
     22   S      44            25.9109000    0.358794042852
     22   S      45             5.5333500    0.700713083689

     23   L      46             3.6649800   -0.395895162119    0.236459946619
     23   L      47             0.7705450    1.215834355681    0.860618805716

     24   L      48             0.1958570    1.000000000000    1.000000000000

 C         

     25   S      49           172.2560000    0.061766907377
     25   S      50            25.9109000    0.358794042852
     25   S      51             5.5333500    0.700713083689

     26   L      52             3.6649800   -0.395895162119    0.236459946619
     26   L      53             0.7705450    1.215834355681    0.860618805716

     27   L      54             0.1958570    1.000000000000    1.000000000000

 C         

     28   S      55           172.2560000    0.061766907377
     28   S      56            25.9109000    0.358794042852
     28   S      57             5.5333500    0.700713083689

     29   L      58             3.6649800   -0.395895162119    0.236459946619
     29   L      59             0.7705450    1.215834355681    0.860618805716

     30   L      60             0.1958570    1.000000000000    1.000000000000

 C         

     31   S      61           172.2560000    0.061766907377
     31   S      62            25.9109000    0.358794042852
     31   S      63             5.5333500    0.700713083689

     32   L      64             3.6649800   -0.395895162119    0.236459946619
     32   L      65             0.7705450    1.215834355681    0.860618805716

     33   L      66             0.1958570    1.000000000000    1.000000000000

 C         

     34   S      67           172.2560000    0.061766907377
     34   S      68            25.9109000    0.358794042852
     34   S      69             5.5333500    0.700713083689

     35   L      70             3.6649800   -0.395895162119    0.236459946619
     35   L      71             0.7705450    1.215834355681    0.860618805716

     36   L      72             0.1958570    1.000000000000    1.000000000000

 C         

     37   S      73           172.2560000    0.061766907377
     37   S      74            25.9109000    0.358794042852
     37   S      75             5.5333500    0.700713083689

     38   L      76             3.6649800   -0.395895162119    0.236459946619
     38   L      77             0.7705450    1.215834355681    0.860618805716

     39   L      78             0.1958570    1.000000000000    1.000000000000

 C         

     40   S      79           172.2560000    0.061766907377
     40   S      80            25.9109000    0.358794042852
     40   S      81             5.5333500    0.700713083689

     41   L      82             3.6649800   -0.395895162119    0.236459946619
     41   L      83             0.7705450    1.215834355681    0.860618805716

     42   L      84             0.1958570    1.000000000000    1.000000000000

 C         

     43   S      85           172.2560000    0.061766907377
     43   S      86            25.9109000    0.358794042852
     43   S      87             5.5333500    0.700713083689

     44   L      88             3.6649800   -0.395895162119    0.236459946619
     44   L      89             0.7705450    1.215834355681    0.860618805716

     45   L      90             0.1958570    1.000000000000    1.000000000000

 H         

     46   S      91             5.4471780    0.156284978695
     46   S      92             0.8245472    0.904690876670

     47   S      93             0.1831916    1.000000000000

 H         

     48   S      94             5.4471780    0.156284978695
     48   S      95             0.8245472    0.904690876670

     49   S      96             0.1831916    1.000000000000

 H         

     50   S      97             5.4471780    0.156284978695
     50   S      98             0.8245472    0.904690876670

     51   S      99             0.1831916    1.000000000000

 H         

     52   S     100             5.4471780    0.156284978695
     52   S     101             0.8245472    0.904690876670

     53   S     102             0.1831916    1.000000000000

 H         

     54   S     103             5.4471780    0.156284978695
     54   S     104             0.8245472    0.904690876670

     55   S     105             0.1831916    1.000000000000

 H         

     56   S     106             5.4471780    0.156284978695
     56   S     107             0.8245472    0.904690876670

     57   S     108             0.1831916    1.000000000000

 H         

     58   S     109             5.4471780    0.156284978695
     58   S     110             0.8245472    0.904690876670

     59   S     111             0.1831916    1.000000000000

 H         

     60   S     112             5.4471780    0.156284978695
     60   S     113             0.8245472    0.904690876670

     61   S     114             0.1831916    1.000000000000

 H         

     62   S     115             5.4471780    0.156284978695
     62   S     116             0.8245472    0.904690876670

     63   S     117             0.1831916    1.000000000000

 H         

     64   S     118             5.4471780    0.156284978695
     64   S     119             0.8245472    0.904690876670

     65   S     120             0.1831916    1.000000000000

 H         

     66   S     121             5.4471780    0.156284978695
     66   S     122             0.8245472    0.904690876670

     67   S     123             0.1831916    1.000000000000

 H         

     68   S     124             5.4471780    0.156284978695
     68   S     125             0.8245472    0.904690876670

     69   S     126             0.1831916    1.000000000000

 H         

     70   S     127             5.4471780    0.156284978695
     70   S     128             0.8245472    0.904690876670

     71   S     129             0.1831916    1.000000000000

 H         

     72   S     130             5.4471780    0.156284978695
     72   S     131             0.8245472    0.904690876670

     73   S     132             0.1831916    1.000000000000

 H         

     74   S     133             5.4471780    0.156284978695
     74   S     134             0.8245472    0.904690876670

     75   S     135             0.1831916    1.000000000000

 TOTAL NUMBER OF BASIS SET SHELLS             =   75
 NUMBER OF CARTESIAN GAUSSIAN BASIS FUNCTIONS =  165
 NUMBER OF ELECTRONS                          =  118
 CHARGE OF MOLECULE                           =    0
 SPIN MULTIPLICITY                            =    1
 NUMBER OF OCCUPIED ORBITALS (ALPHA)          =   59
 NUMBER OF OCCUPIED ORBITALS (BETA )          =   59
 TOTAL NUMBER OF ATOMS                        =   30
 THE NUCLEAR REPULSION ENERGY IS     1149.7626944450

     $CONTRL OPTIONS
     ---------------
 SCFTYP=RHF          RUNTYP=ENERGY       EXETYP=RUN     
 MPLEVL=       0     CITYP =NONE         CCTYP =NONE         VBTYP =NONE    
 DFTTYP=NONE         TDDFT =NONE    
 MULT  =       1     ICHARG=       0     NZVAR =       0     COORD =UNIQUE  
 PP    =NONE         RELWFN=NONE         LOCAL =NONE         NUMGRD=       F
 ISPHER=      -1     NOSYM =       0     MAXIT =      60     UNITS =ANGS    
 PLTORB=       F     MOLPLT=       F     AIMPAC=       F     FRIEND=        
 NPRINT=       7     IREST =       0     GEOM  =INPUT   
 NORMF =       0     NORMP =       0     ITOL  =      20     ICUT  =       9
 INTTYP=BEST         GRDTYP=BEST         QMTTOL= 1.0E-06

     $SYSTEM OPTIONS
     ---------------
  REPLICATED MEMORY=    30000000 WORDS (ON EVERY NODE).
 DISTRIBUTED MEMDDI=        1000 MILLION WORDS IN AGGREGATE,
 MEMDDI DISTRIBUTED OVER   8 PROCESSORS IS   125000000 WORDS/PROCESSOR.
 TOTAL MEMORY REQUESTED ON EACH PROCESSOR=   155000000 WORDS.
 TIMLIM=      525600.00 MINUTES, OR     365.0 DAYS.
 PARALL= T  BALTYP=  DLB     KDIAG=    0  COREFL= F
 MXSEQ2=     300 MXSEQ3=     150  mem10=         0

          ----------------
          PROPERTIES INPUT
          ----------------

     MOMENTS            FIELD           POTENTIAL          DENSITY
 IEMOM =       1   IEFLD =       0   IEPOT =       0   IEDEN =       0
 WHERE =COMASS     WHERE =NUCLEI     WHERE =NUCLEI     WHERE =NUCLEI  
 OUTPUT=BOTH       OUTPUT=BOTH       OUTPUT=BOTH       OUTPUT=BOTH    
 IEMINT=       0   IEFINT=       0                     IEDINT=       0
                                                       MORB  =       0
          EXTRAPOLATION IN EFFECT
          SOSCF IN EFFECT
 ORBITAL PRINTING OPTION: NPREO=     1   165     2     1

     -------------------------------
     INTEGRAL TRANSFORMATION OPTIONS
     -------------------------------
     NWORD  =            0
     CUTOFF = 1.0E-09     MPTRAN =       0
     DIRTRF =       T     AOINTS =DUP     

          ----------------------
          INTEGRAL INPUT OPTIONS
          ----------------------
 NOPK  =       1 NORDER=       0 SCHWRZ=       T

     ------------------------------------------
     THE POINT GROUP IS C1 , NAXIS= 0, ORDER= 1
     ------------------------------------------

     DIMENSIONS OF THE SYMMETRY SUBSPACES ARE
 A   =  165

 ..... DONE SETTING UP THE RUN .....
 CPU     0: STEP CPU TIME=     0.02 TOTAL CPU TIME=          0.0 (      0.0 MIN)
 TOTAL WALL CLOCK TIME=          0.0 SECONDS, CPU UTILIZATION IS    50.00%

          ********************
          1 ELECTRON INTEGRALS
          ********************
 ...... END OF ONE-ELECTRON INTEGRALS ......
 CPU     0: STEP CPU TIME=     0.01 TOTAL CPU TIME=          0.0 (      0.0 MIN)
 TOTAL WALL CLOCK TIME=          0.1 SECONDS, CPU UTILIZATION IS    60.00%

          -------------
          GUESS OPTIONS
          -------------
          GUESS =HUCKEL            NORB  =       0          NORDER=       0
          MIX   =       F          PRTMO =       F          PUNMO =       F
          TOLZ  = 1.0E-08          TOLE  = 1.0E-05
          SYMDEN=       F          PURIFY=       F

 INITIAL GUESS ORBITALS GENERATED BY HUCKEL   ROUTINE.
 HUCKEL GUESS REQUIRES    252105 WORDS.

 SYMMETRIES FOR INITIAL GUESS ORBITALS FOLLOW.   BOTH SET(S).
    59 ORBITALS ARE OCCUPIED (   15 CORE ORBITALS).
    16=A       17=A       18=A       19=A       20=A       21=A       22=A   
    23=A       24=A       25=A       26=A       27=A       28=A       29=A   
    30=A       31=A       32=A       33=A       34=A       35=A       36=A   
    37=A       38=A       39=A       40=A       41=A       42=A       43=A   
    44=A       45=A       46=A       47=A       48=A       49=A       50=A   
    51=A       52=A       53=A       54=A       55=A       56=A       57=A   
    58=A       59=A       60=A       61=A       62=A       63=A       64=A   
    65=A       66=A       67=A       68=A       69=A   
 ...... END OF INITIAL ORBITAL SELECTION ......
 CPU     0: STEP CPU TIME=     0.06 TOTAL CPU TIME=          0.1 (      0.0 MIN)
 TOTAL WALL CLOCK TIME=          0.2 SECONDS, CPU UTILIZATION IS    52.94%

                    ----------------------
                    AO INTEGRAL TECHNOLOGY
                    ----------------------
     S,P,L SHELL ROTATED AXIS INTEGRALS, REPROGRAMMED BY
        KAZUYA ISHIMURA (IMS) AND JOSE SIERRA (SYNSTAR).
     S,P,D,L SHELL ROTATED AXIS INTEGRALS PROGRAMMED BY
        KAZUYA ISHIMURA (INSTITUTE FOR MOLECULAR SCIENCE).
     S,P,D,F,G SHELL TO TOTAL QUARTET ANGULAR MOMENTUM SUM 5,
        ERIC PROGRAM BY GRAHAM FLETCHER (ELORET AND NASA ADVANCED
        SUPERCOMPUTING DIVISION, AMES RESEARCH CENTER).
     S,P,D,F,G,L SHELL GENERAL RYS QUADRATURE PROGRAMMED BY
        MICHEL DUPUIS (PACIFIC NORTHWEST NATIONAL LABORATORY).

          --------------------
          2 ELECTRON INTEGRALS
          --------------------

 DIRECT SCF METHOD SKIPS INTEGRAL STORAGE ON DISK.
 DIRECT TRANSFORMATION SKIPS AO INTEGRAL STORAGE ON DISK.
  ...... END OF TWO-ELECTRON INTEGRALS .....
 CPU     0: STEP CPU TIME=     0.02 TOTAL CPU TIME=          0.1 (      0.0 MIN)
 TOTAL WALL CLOCK TIME=          0.2 SECONDS, CPU UTILIZATION IS    57.89%

          --------------------------
                 RHF SCF CALCULATION
          --------------------------

     NUCLEAR ENERGY =      1149.7626944450
     MAXIT =   60     NPUNCH=    2
     EXTRAP=T  DAMP=F  SHIFT=F  RSTRCT=F  DIIS=F  DEM=F  SOSCF=T
     DENSITY MATRIX CONV=  2.00E-05
     SOSCF WILL OPTIMIZE    6254 ORBITAL ROTATIONS, SOGTOL=   0.250
     MEMORY REQUIRED FOR RHF ITERS=    267957 WORDS.

 DIRECT SCF CALCULATION, SCHWRZ=T   FDIFF=T,  DIRTHR=  0.00E+00 NITDIR=10
 SCHWARZ INEQUALITY OVERHEAD:     12026 INTEGRALS, T=        0.00

                                                                                   NONZERO     BLOCKS
 ITER EX DEM     TOTAL ENERGY        E CHANGE  DENSITY CHANGE     ORB. GRAD      INTEGRALS    SKIPPED
   1  0  0     -808.5291514053  -808.5291514053   0.894118749   0.000000000       40236860    2595896
          ---------------START SECOND ORDER SCF---------------
   2  1  0     -810.5506862445    -2.0215348392   0.243961791   0.103342588       40185440    2620543
   3  2  0     -810.6481467006    -0.0974604561   0.151740934   0.086590573       39727886    2704509
   4  3  0     -810.7664407353    -0.1182940347   0.041291951   0.013584158       39040918    2775132
   5  4  0     -810.7691134349    -0.0026726997   0.003233594   0.001618916       38069221    2846533
   6  5  0     -810.7693251731    -0.0002117381   0.002185708   0.000955493       35998134    2948020
   7  6  0     -810.7693515062    -0.0000263331   0.000484280   0.000315235       34407699    3022840
   8  7  0     -810.7693543359    -0.0000028297   0.000163081   0.000091812       31622124    3134137
   9  8  0     -810.7693545675    -0.0000002316   0.000094302   0.000025212       29497431    3216934
  10  9  0     -810.7693545889    -0.0000000213   0.000024396   0.000011867       26832261    3314640
  11 10  0     -810.7693545928    -0.0000000039   0.000006721   0.000003983       24626292    3393552
  12 11  0     -810.7693545924     0.0000000004   0.000002830   0.000001221       21992290    3477259

          -----------------
          DENSITY CONVERGED
          -----------------
     TIME TO FORM FOCK OPERATORS=       5.2 SECONDS (       0.4 SEC/ITER)
     FOCK TIME ON FIRST ITERATION=       0.4, LAST ITERATION=       0.3
     TIME TO SOLVE SCF EQUATIONS=       0.2 SECONDS (       0.0 SEC/ITER)

 FINAL RHF ENERGY IS     -810.7693545924 AFTER  12 ITERATIONS

          ------------
          EIGENVECTORS
          ------------

                      1          2          3          4          5
                  -20.4910   -20.4797   -20.4742   -20.4581   -20.4396
                     A          A          A          A          A   
    1  O  1  S   -0.003742   0.982791  -0.041712  -0.005476  -0.001677
    2  O  1  S   -0.000709   0.099601  -0.003021   0.000044   0.000038
    3  O  1  X    0.000201   0.001342  -0.000040   0.000005  -0.000523
    4  O  1  Y    0.000012   0.001591  -0.000087   0.000021  -0.000132
    5  O  1  Z   -0.000003   0.002946   0.000438   0.000181  -0.000276
    6  O  1  S    0.002310  -0.051266  -0.001993  -0.002238   0.000418
    7  O  1  X   -0.001616  -0.003924  -0.001516  -0.000403   0.001840
    8  O  1  Y    0.001041  -0.004720   0.000564  -0.000580   0.000793
    9  O  1  Z    0.000404  -0.008338  -0.003073  -0.001163   0.001128
   10  O  2  S    0.002211   0.005730   0.002207   0.983549  -0.000692
   11  O  2  S    0.000424   0.001149   0.000390   0.098456   0.000011
   12  O  2  X   -0.000148  -0.000042   0.000037  -0.002551   0.000008
   13  O  2  Y    0.000219  -0.000161  -0.000103  -0.002190  -0.000001
   14  O  2  Z   -0.000039  -0.000040   0.000028  -0.001972   0.000027
   15  O  2  S   -0.000000  -0.002688  -0.000797  -0.047196  -0.000440
   16  O  2  X    0.000274   0.000497  -0.000164   0.007067   0.000157
   17  O  2  Y   -0.001460   0.001267   0.000682   0.007946   0.000138
   18  O  2  Z    0.000214   0.000273  -0.000065   0.003945  -0.000117
   19  O  3  S    0.983501   0.003582  -0.000920  -0.002225  -0.000931
   20  O  3  S    0.097929   0.000032   0.000000  -0.000043   0.000153
   21  O  3  X   -0.002302  -0.000100   0.000024   0.000611  -0.000044
   22  O  3  Y   -0.000333  -0.000085   0.000025   0.000052   0.000069
   23  O  3  Z    0.002595  -0.000034   0.000031   0.000088   0.000026
   24  O  3  S   -0.045479   0.002016  -0.000359   0.001035  -0.001029
   25  O  3  X    0.004100   0.000374  -0.000110  -0.002216   0.000434
   26  O  3  Y    0.002845  -0.000437   0.000038  -0.000587   0.000033
   27  O  3  Z   -0.008208   0.000922  -0.000279   0.000331  -0.000273
   28  O  4  S    0.000779   0.042023   0.982644  -0.002388   0.000916
   29  O  4  S    0.000134   0.005433   0.098187   0.000003  -0.000071
   30  O  4  X    0.000015  -0.000493  -0.001053  -0.000131   0.000030
   31  O  4  Y    0.000034   0.000166  -0.001544  -0.000116  -0.000038
   32  O  4  Z    0.000011  -0.000329  -0.003233  -0.000053   0.000017
   33  O  4  S   -0.000117  -0.006378  -0.046587  -0.001198   0.000627
   34  O  4  X   -0.000034   0.002568   0.002301   0.000561  -0.000149
   35  O  4  Y   -0.000155  -0.001465   0.001290   0.000040   0.000245
   36  O  4  Z    0.000022   0.002946   0.010233   0.000619  -0.000311
   37  O  5  S    0.000988   0.001659  -0.001027   0.000704   0.983482
   38  O  5  S    0.000334   0.000356  -0.000264   0.000144   0.097760
   39  O  5  X    0.000077   0.000073  -0.000018  -0.000047   0.003333
   40  O  5  Y    0.000049  -0.000130   0.000009   0.000045   0.001964
   41  O  5  Z   -0.000083   0.000146   0.000011   0.000034  -0.000456
   42  O  5  S   -0.001024  -0.000148   0.000697  -0.000450  -0.044339
   43  O  5  X   -0.000528  -0.000025   0.000192   0.000121  -0.007681
   44  O  5  Y   -0.000450   0.000926   0.000097  -0.000339  -0.006499
   45  O  5  Z    0.000319  -0.000438  -0.000001  -0.000211   0.000463
   46  O  6  S    0.000106  -0.000365  -0.000385  -0.000493   0.000183
   47  O  6  S    0.000050  -0.000097  -0.000178  -0.000161   0.000038
   48  O  6  X    0.000015   0.000159  -0.000075  -0.000003  -0.000005
   49  O  6  Y    0.000006   0.000037  -0.000051  -0.000025   0.000003
   50  O  6  Z    0.000000  -0.000035   0.000057   0.000008   0.000005
   51  O  6  S   -0.000211  -0.000285   0.000952   0.000667  -0.000070
   52  O  6  X   -0.000065  -0.000382   0.000084  -0.000064   0.000010
   53  O  6  Y   -0.000066  -0.000240   0.000392   0.000306  -0.000025
   54  O  6  Z   -0.000016   0.000039   0.000015   0.000022  -0.000025
   55  N  7  S    0.000045  -0.000060  -0.000024   0.000028   0.000017
   56  N  7  S    0.000256  -0.000365  -0.000038   0.000246   0.000090
   57  N  7  X   -0.000106   0.000109  -0.000038   0.000003  -0.000001
   58  N  7  Y    0.000022   0.000170  -0.000123   0.000108  -0.000053
   59  N  7  Z   -0.000041  -0.000019  -0.000134   0.000295  -0.000008
   60  N  7  S   -0.001420   0.001111   0.001587  -0.000118  -0.000531
   61  N  7  X    0.001249  -0.000718  -0.001417  -0.000765   0.000268
   62  N  7  Y   -0.000363  -0.000488   0.000242  -0.000546   0.000296
   63  N  7  Z    0.000211   0.000046   0.000688  -0.001255   0.000016
   64  C  8  S    0.000221   0.000043   0.000014  -0.000994  -0.000042
   65  C  8  S    0.000787   0.000741   0.000378  -0.004205  -0.000267
   66  C  8  X    0.001043  -0.000427  -0.000007   0.000689   0.000000
   67  C  8  Y   -0.000284  -0.000646  -0.000255   0.000851  -0.000102
   68  C  8  Z    0.000189   0.000266  -0.000178   0.000417  -0.000030
   69  C  8  S   -0.007438   0.001278   0.001693   0.024179   0.001922
   70  C  8  X   -0.000149   0.001758   0.003281   0.004401  -0.001426
   71  C  8  Y   -0.001239   0.003642  -0.000816   0.012046   0.001290
   72  C  8  Z    0.004291  -0.003988  -0.001548  -0.006613   0.000070
   73  C  9  S    0.000072   0.000190   0.000339   0.000267  -0.000041
   74  C  9  S    0.000779   0.000448   0.001546   0.000970  -0.000183
   75  C  9  X   -0.000465   0.000862   0.000212   0.000051  -0.000134
   76  C  9  Y    0.000056   0.000758   0.001073  -0.000315  -0.000014
   77  C  9  Z    0.000027  -0.000007   0.000095  -0.000418  -0.000079
   78  C  9  S    0.000047  -0.006700  -0.010957  -0.008108   0.001723
   79  C  9  X    0.002879   0.001211   0.001720   0.001044   0.000121
   80  C  9  Y    0.002453  -0.000096   0.000432  -0.004627  -0.000558
   81  C  9  Z    0.001592  -0.000295  -0.005860  -0.000525   0.000977
   82  C 10  S   -0.000986   0.000178  -0.000081   0.000253  -0.000090
   83  C 10  S   -0.004497   0.000758  -0.000348   0.000949  -0.000635
   84  C 10  X   -0.000523   0.000559   0.000020  -0.000563   0.000484
   85  C 10  Y    0.001130   0.000525  -0.000343  -0.000075   0.000137
   86  C 10  Z   -0.000640  -0.000200   0.000023  -0.000408   0.000207
   87  C 10  S    0.020567  -0.003500   0.003479  -0.007543   0.001033
   88  C 10  X    0.003557  -0.002529   0.000750  -0.004217  -0.003617
   89  C 10  Y    0.002898   0.000581  -0.000145  -0.001551  -0.001023
   90  C 10  Z   -0.013246   0.004821   0.000379   0.001965  -0.001726
   91  C 11  S    0.000284  -0.000798   0.000123  -0.000076   0.000232
   92  C 11  S    0.001286  -0.003154   0.001006  -0.000449   0.000859
   93  C 11  X   -0.000360   0.001119   0.000407  -0.000422   0.000488
   94  C 11  Y   -0.000719  -0.001287  -0.000107  -0.000217   0.000292
   95  C 11  Z   -0.000362  -0.000151  -0.000088  -0.000069   0.000118
   96  C 11  S   -0.007038   0.016955  -0.001970   0.000535  -0.007603
   97  C 11  X   -0.000901   0.003022  -0.002665   0.003124   0.002902
   98  C 11  Y   -0.000193  -0.005139  -0.000358   0.000383  -0.000029
   99  C 11  Z    0.006459  -0.009672  -0.000782  -0.000622   0.002176
  100  C 12  S   -0.000082  -0.000954  -0.001011  -0.000148   0.000088
  101  C 12  S   -0.000356  -0.003914  -0.004463  -0.000949   0.000352
  102  C 12  X   -0.000098  -0.001357   0.000034   0.000066   0.000207
  103  C 12  Y    0.000237  -0.000334  -0.001282  -0.000517   0.000030
  104  C 12  Z    0.000053  -0.000359   0.001198  -0.000351   0.000122
  105  C 12  S    0.003249   0.019964   0.022733   0.001719  -0.002310
  106  C 12  X    0.000042  -0.009748  -0.000776  -0.001767   0.000444
  107  C 12  Y    0.000797   0.004301   0.002670   0.002710  -0.000980
  108  C 12  Z   -0.001022   0.000730   0.013779   0.002275  -0.000540
  109  C 13  S   -0.000032   0.000222   0.000052  -0.000029  -0.000844
  110  C 13  S    0.000118   0.000871   0.000347  -0.000156  -0.003357
  111  C 13  X    0.000154  -0.000683   0.000070   0.000131  -0.000622
  112  C 13  Y    0.000259   0.000162  -0.000078   0.000091  -0.001525
  113  C 13  Z    0.000379  -0.000347   0.000005  -0.000079  -0.000314
  114  C 13  S    0.002493  -0.007200  -0.001640   0.001549   0.019971
  115  C 13  X    0.002392  -0.003685  -0.000760  -0.000187  -0.000568
  116  C 13  Y   -0.001936   0.001417   0.000603  -0.000695  -0.009800
  117  C 13  Z   -0.001584   0.001219  -0.000493   0.001175   0.000289
  118  C 14  S    0.000002  -0.000006   0.000014  -0.000000   0.000001
  119  C 14  S    0.000026  -0.000156   0.000158  -0.000024   0.000036
  120  C 14  X    0.000015   0.000391  -0.000389  -0.000115  -0.000047
  121  C 14  Y   -0.000029   0.000034   0.000004   0.000046   0.000014
  122  C 14  Z   -0.000009  -0.000013   0.000036  -0.000025   0.000006
  123  C 14  S   -0.000380  -0.000329   0.000378   0.000093   0.000135
  124  C 14  X   -0.000090  -0.001418   0.001798   0.001516  -0.000002
  125  C 14  Y   -0.000386  -0.000643   0.001142   0.000356  -0.000011
  126  C 14  Z   -0.000249  -0.000398   0.000380   0.000763   0.000014
  127  C 15  S   -0.000003  -0.000040   0.000029   0.000031   0.000004
  128  C 15  S   -0.000007  -0.000257   0.000147   0.000170   0.000027
  129  C 15  X   -0.000015   0.000022   0.000085  -0.000004  -0.000011
  130  C 15  Y   -0.000007  -0.000043  -0.000008   0.000053   0.000009
  131  C 15  Z   -0.000008   0.000014  -0.000022   0.000031   0.000000
  132  C 15  S    0.000183   0.001350  -0.001453  -0.001113  -0.000071
  133  C 15  X   -0.000134  -0.000769   0.000594   0.000788   0.000064
  134  C 15  Y    0.000042   0.000137   0.000078  -0.000029  -0.000033
  135  C 15  Z    0.000032  -0.000191   0.000355  -0.000041  -0.000004
  136  H 16  S   -0.000338   0.000668  -0.000593  -0.000741  -0.000042
  137  H 16  S    0.000001   0.001935   0.001575   0.000450  -0.000009
  138  H 17  S   -0.000137   0.000233  -0.000179   0.000917   0.000054
  139  H 17  S    0.001111   0.000792   0.000041   0.000607   0.000275
  140  H 18  S   -0.000706  -0.000616  -0.000202   0.000338  -0.000197
  141  H 18  S    0.000373  -0.000597  -0.000242  -0.000486  -0.000053
  142  H 19  S   -0.000587  -0.000867  -0.000183  -0.000068   0.000448
  143  H 19  S   -0.000491   0.000642   0.001001   0.000370  -0.000446
  144  H 20  S   -0.000227  -0.000822  -0.000899   0.000253   0.000035
  145  H 20  S   -0.000451  -0.000200   0.001024   0.001574  -0.000198
  146  H 21  S   -0.000482   0.000705   0.000076   0.000172  -0.001169
  147  H 21  S   -0.000374   0.000714  -0.000128   0.000266  -0.001122
  148  H 22  S    0.000484  -0.000211   0.000088  -0.000143  -0.001280
  149  H 22  S    0.000917  -0.000007  -0.000198  -0.000345  -0.000979
  150  H 23  S    0.000216   0.000058  -0.000042  -0.000539  -0.000061
  151  H 23  S   -0.000416  -0.000030  -0.000399   0.001931   0.000001
  152  H 24  S   -0.000607   0.000224  -0.000017   0.003023  -0.000037
  153  H 24  S    0.002660  -0.000602  -0.000293   0.005437   0.000026
  154  H 25  S    0.002884   0.000092   0.000006  -0.000574  -0.000128
  155  H 25  S    0.004876   0.000202  -0.000057  -0.000214   0.000611
  156  H 26  S   -0.000018   0.000508   0.003110   0.000214  -0.000006
  157  H 26  S    0.000026  -0.000717   0.004382   0.000005   0.000071
  158  H 27  S    0.000256  -0.000635   0.000066  -0.000057   0.002968
  159  H 27  S   -0.000386   0.001971  -0.000399  -0.000150   0.005758
  160  H 28  S   -0.000019  -0.000108   0.000072   0.000101   0.000012
  161  H 28  S    0.000036  -0.000081   0.000102  -0.000146   0.000002
  162  H 29  S   -0.000024  -0.000080   0.000040   0.000124   0.000010
  163  H 29  S    0.000004  -0.000023  -0.000076  -0.000027   0.000011
  164  H 30  S    0.000006  -0.000049   0.000054   0.000032   0.000002
  165  H 30  S    0.000009   0.000141   0.000091  -0.000154  -0.000029

                      6          7          8          9         10
                  -20.4157   -15.5034   -11.3047   -11.2901   -11.2619
                     A          A          A          A          A   
    1  O  1  S    0.000330  -0.000021  -0.000025  -0.000189   0.000075
    2  O  1  S   -0.000078  -0.000293  -0.000229  -0.000462   0.000303
    3  O  1  X   -0.000008  -0.000106  -0.000139   0.000539  -0.000113
    4  O  1  Y   -0.000058  -0.000284  -0.000055  -0.000000  -0.000023
    5  O  1  Z   -0.000020   0.000073   0.000077   0.000436  -0.000181
    6  O  1  S    0.000332   0.000568   0.000825   0.007563  -0.002502
    7  O  1  X    0.000052  -0.000017   0.000827   0.004928   0.002170
    8  O  1  Y    0.000282   0.001450   0.000243  -0.001294  -0.002781
    9  O  1  Z    0.000141  -0.000214  -0.000279  -0.000529  -0.000186
   10  O  2  S    0.000463  -0.000001  -0.000003  -0.000044   0.000048
   11  O  2  S   -0.000074   0.000202  -0.000026  -0.000484   0.000112
   12  O  2  X   -0.000036   0.000206  -0.000060  -0.000091   0.000186
   13  O  2  Y    0.000023  -0.000125   0.000051   0.000286   0.000230
   14  O  2  Z   -0.000014  -0.000073  -0.000066   0.000058  -0.000025
   15  O  2  S    0.000535   0.000263   0.000022   0.001320  -0.001668
   16  O  2  X    0.000078  -0.000859   0.000450   0.000502   0.000988
   17  O  2  Y   -0.000385  -0.000003  -0.000287  -0.001285  -0.000040
   18  O  2  Z   -0.000008   0.000202   0.000320  -0.000137   0.000395
   19  O  3  S   -0.000092   0.000037   0.000003  -0.000031  -0.000341
   20  O  3  S    0.000046   0.000278   0.000026  -0.000137  -0.001485
   21  O  3  X   -0.000033  -0.000092   0.000011   0.000046  -0.000142
   22  O  3  Y   -0.000004  -0.000054  -0.000010  -0.000003   0.000069
   23  O  3  Z   -0.000008   0.000001   0.000017   0.000039   0.000569
   24  O  3  S   -0.000347  -0.001603  -0.000064   0.001080   0.012450
   25  O  3  X    0.000110   0.000216  -0.000058   0.000071   0.000703
   26  O  3  Y    0.000131   0.000792   0.000110  -0.000610  -0.004765
   27  O  3  Z   -0.000089  -0.000518  -0.000017   0.000330   0.004243
   28  O  4  S    0.000348  -0.000014   0.000013  -0.000276  -0.000038
   29  O  4  S   -0.000136   0.000026   0.000147  -0.001188  -0.000178
   30  O  4  X    0.000108   0.000057   0.000016  -0.000060  -0.000095
   31  O  4  Y    0.000051   0.000266   0.000055  -0.000224   0.000143
   32  O  4  Z   -0.000008  -0.000054  -0.000068  -0.000444   0.000046
   33  O  4  S    0.001031   0.000641  -0.000411   0.011483   0.001479
   34  O  4  X   -0.000224  -0.000026  -0.000095  -0.000047  -0.000022
   35  O  4  Y   -0.000115  -0.000876  -0.000175   0.003361   0.000080
   36  O  4  Z   -0.000465  -0.000250   0.000242  -0.004108  -0.000866
   37  O  5  S   -0.000177   0.000006   0.000005   0.000005  -0.000032
   38  O  5  S    0.000004   0.000061   0.000046   0.000023  -0.000355
   39  O  5  X    0.000010   0.000029   0.000003  -0.000027  -0.000252
   40  O  5  Y   -0.000001  -0.000011   0.000002  -0.000002  -0.000100
   41  O  5  Z   -0.000006  -0.000011   0.000003   0.000105  -0.000076
   42  O  5  S   -0.000071  -0.000208  -0.000176  -0.000232   0.000644
   43  O  5  X   -0.000067  -0.000194  -0.000048   0.000030   0.001090
   44  O  5  Y   -0.000016   0.000003  -0.000037  -0.000155   0.000411
   45  O  5  Z    0.000024   0.000050  -0.000014  -0.000522   0.000169
   46  O  6  S    0.983807   0.000064   0.000207   0.000061  -0.000010
   47  O  6  S    0.100369   0.000327   0.001925   0.000521  -0.000093
   48  O  6  X    0.001062  -0.000569  -0.000476  -0.000219  -0.000035
   49  O  6  Y    0.004041   0.000134  -0.000047  -0.000055   0.000017
   50  O  6  Z    0.001975  -0.000087  -0.000090  -0.000095   0.000012
   51  O  6  S   -0.057899  -0.001531  -0.005413  -0.002189   0.000392
   52  O  6  X   -0.003640   0.003590   0.001108   0.001536   0.000246
   53  O  6  Y   -0.014135  -0.002380  -0.005306  -0.000329  -0.000070
   54  O  6  Z   -0.006898  -0.000350  -0.002236  -0.000098   0.000007
   55  N  7  S    0.000042   0.986259   0.000075   0.000091  -0.000115
   56  N  7  S    0.000223   0.103970   0.000171   0.000204  -0.001012
   57  N  7  X   -0.001404  -0.000407  -0.001124   0.000541   0.000661
   58  N  7  Y   -0.000484  -0.001007  -0.000580  -0.000168  -0.000224
   59  N  7  Z   -0.000406  -0.000982  -0.000415  -0.000023  -0.000090
   60  N  7  S    0.001248  -0.075290   0.004611  -0.003363   0.004261
   61  N  7  X    0.010098   0.003259   0.007574  -0.000354  -0.005356
   62  N  7  Y    0.004273   0.008273   0.005479   0.003848   0.001706
   63  N  7  Z    0.003082   0.004968   0.003294   0.000147   0.000028
   64  C  8  S    0.000127   0.000239   0.000145  -0.005331  -0.007229
   65  C  8  S    0.000669   0.000953   0.000031  -0.002750  -0.004040
   66  C  8  X   -0.000032  -0.000265   0.000513  -0.000265  -0.000866
   67  C  8  Y    0.000123   0.000412  -0.000199   0.001128   0.000248
   68  C  8  Z    0.000044   0.000221   0.000177   0.000490   0.000078
   69  C  8  S   -0.004329  -0.007745   0.001454   0.006349   0.028788
   70  C  8  X   -0.001362  -0.002384  -0.002631  -0.004857  -0.015689
   71  C  8  Y    0.001267   0.001920   0.001059  -0.001273   0.000911
   72  C  8  Z    0.001326   0.001638  -0.002042  -0.001325  -0.005334
   73  C  9  S   -0.000149  -0.000711  -0.001152  -0.003835  -0.006732
   74  C  9  S   -0.000287  -0.003125  -0.001158  -0.004403  -0.002824
   75  C  9  X    0.001127   0.000999  -0.000017   0.000106   0.001605
   76  C  9  Y   -0.000294  -0.000035   0.000676  -0.000450  -0.000724
   77  C  9  Z   -0.000152  -0.000405   0.000102  -0.000419  -0.000242
   78  C  9  S    0.008567   0.023968   0.006900   0.030119   0.001862
   79  C  9  X    0.001537   0.013002   0.003443  -0.009700  -0.009834
   80  C  9  Y    0.000900  -0.000938  -0.005012  -0.016564  -0.002179
   81  C  9  Z    0.003311   0.006463   0.000496   0.004473  -0.001244
   82  C 10  S   -0.000039  -0.000241  -0.000148   0.004902   0.988221
   83  C 10  S   -0.000209  -0.001442   0.000028   0.002735   0.107161
   84  C 10  X    0.000023  -0.000324  -0.000146   0.000305   0.001033
   85  C 10  Y    0.000040   0.000394   0.000154   0.000371  -0.000928
   86  C 10  Z    0.000102   0.000485   0.000125  -0.000099  -0.000615
   87  C 10  S    0.000850   0.004365  -0.001840  -0.013388  -0.102704
   88  C 10  X    0.000263   0.001938  -0.001104  -0.005039  -0.009611
   89  C 10  Y   -0.000549  -0.003081  -0.000866   0.005194   0.014625
   90  C 10  Z   -0.000858  -0.003674  -0.000940  -0.000001   0.002998
   91  C 11  S    0.000025   0.000109  -0.000095  -0.008563  -0.023434
   92  C 11  S    0.000099   0.000468  -0.000032  -0.004322  -0.007206
   93  C 11  X   -0.000074  -0.000277  -0.000077  -0.001866  -0.000134
   94  C 11  Y    0.000014  -0.000054   0.000010   0.000826   0.000319
   95  C 11  Z   -0.000064  -0.000150  -0.000021  -0.000404   0.000781
   96  C 11  S   -0.000872  -0.003747  -0.000273   0.010367   0.034052
   97  C 11  X   -0.000004  -0.000623   0.000231   0.013330   0.013447
   98  C 11  Y   -0.000231  -0.001106  -0.000517  -0.001785   0.014016
   99  C 11  Z    0.000721   0.002216   0.000272   0.002709  -0.004743
  100  C 12  S    0.000167   0.000170  -0.000872   0.988125  -0.004415
  101  C 12  S    0.001008   0.000605   0.000345   0.103735   0.001530
  102  C 12  X    0.000020  -0.000217  -0.000436  -0.000950  -0.000282
  103  C 12  Y   -0.000222  -0.000531  -0.000137   0.001760   0.000040
  104  C 12  Z    0.000021  -0.000031  -0.000149   0.000713   0.000358
  105  C 12  S   -0.004143  -0.004308  -0.004155  -0.085631  -0.008637
  106  C 12  X   -0.001450  -0.004076  -0.000765  -0.002359   0.003005
  107  C 12  Y    0.000108  -0.000341  -0.001795  -0.016653  -0.004941
  108  C 12  Z   -0.000639  -0.000624   0.001420  -0.001835  -0.001398
  109  C 13  S   -0.000015  -0.000041  -0.000001  -0.001004  -0.006191
  110  C 13  S   -0.000073  -0.000184  -0.000017  -0.000803  -0.001453
  111  C 13  X    0.000008   0.000076   0.000016   0.000240  -0.000649
  112  C 13  Y    0.000008   0.000008   0.000041  -0.000052  -0.000383
  113  C 13  Z    0.000027   0.000056   0.000007  -0.000216  -0.000499
  114  C 13  S    0.000511   0.001462   0.000268   0.006283   0.000001
  115  C 13  X    0.000357   0.000942   0.000083   0.001500  -0.001921
  116  C 13  Y   -0.000046   0.000047  -0.000146   0.000299   0.000264
  117  C 13  Z   -0.000097  -0.000239   0.000020   0.003491   0.002579
  118  C 14  S    0.000126  -0.000231   0.986766   0.000976   0.000138
  119  C 14  S    0.001549  -0.001198   0.095078   0.000051  -0.000079
  120  C 14  X    0.000002  -0.000425   0.000154   0.000647  -0.000023
  121  C 14  Y   -0.001643   0.000245  -0.000039   0.000472   0.000152
  122  C 14  Z   -0.000750  -0.000078  -0.000033  -0.000141   0.000116
  123  C 14  S    0.014525   0.018932  -0.049671   0.001051   0.002149
  124  C 14  X   -0.011992  -0.015644  -0.017022  -0.006084  -0.000917
  125  C 14  Y   -0.024931   0.011562  -0.011618  -0.000333   0.001648
  126  C 14  Z   -0.012769   0.002816  -0.007568   0.000561   0.000370
  127  C 15  S   -0.000070  -0.000073  -0.001579  -0.000355  -0.000194
  128  C 15  S   -0.000386  -0.000658  -0.002571  -0.000514  -0.000131
  129  C 15  X   -0.000239   0.000280   0.000179  -0.000161   0.000067
  130  C 15  Y   -0.000263   0.000093   0.000223  -0.000014   0.000019
  131  C 15  Z   -0.000132   0.000141   0.000077   0.000129  -0.000001
  132  C 15  S    0.007746   0.003503   0.021853   0.003877   0.000138
  133  C 15  X   -0.005477  -0.000398  -0.014465  -0.001389   0.000077
  134  C 15  Y    0.005954  -0.003920  -0.002050  -0.000624  -0.000295
  135  C 15  Z    0.001733  -0.002096  -0.002830  -0.001542   0.000006
  136  H 16  S    0.000212   0.000359   0.000278  -0.000468  -0.001509
  137  H 16  S    0.000128   0.000426   0.001016  -0.000072   0.001342
  138  H 17  S   -0.000003  -0.001006  -0.000308  -0.001697  -0.001086
  139  H 17  S   -0.000038   0.000825   0.000530   0.002627   0.000085
  140  H 18  S    0.000087   0.000266   0.000166   0.000207   0.000658
  141  H 18  S    0.000185   0.001707   0.000542  -0.000413   0.011597
  142  H 19  S   -0.000040  -0.000060  -0.000024  -0.001518  -0.001438
  143  H 19  S   -0.000219  -0.000713  -0.000248  -0.001548   0.002747
  144  H 20  S   -0.000355   0.000514   0.000253  -0.000304   0.000039
  145  H 20  S    0.001971   0.000680   0.000048   0.011786  -0.001478
  146  H 21  S   -0.000051  -0.000121   0.000015  -0.000026   0.000165
  147  H 21  S   -0.000091  -0.000320  -0.000042   0.000778   0.000825
  148  H 22  S    0.000000  -0.000016   0.000006  -0.000568  -0.000223
  149  H 22  S    0.000095   0.000179   0.000026  -0.000782  -0.001780
  150  H 23  S   -0.002039   0.000948  -0.002791  -0.000585  -0.000681
  151  H 23  S   -0.001361   0.006663  -0.000908   0.000562   0.001526
  152  H 24  S    0.000033   0.000248   0.000067  -0.000247  -0.000208
  153  H 24  S    0.000060  -0.000491   0.000083   0.000790   0.001106
  154  H 25  S    0.000042   0.000081  -0.000030   0.000121  -0.000450
  155  H 25  S   -0.000004  -0.000011  -0.000043  -0.000580   0.002478
  156  H 26  S   -0.000080  -0.000318  -0.000011  -0.000278  -0.000061
  157  H 26  S   -0.000059  -0.000159  -0.000264   0.002506  -0.000119
  158  H 27  S    0.000024   0.000042  -0.000002  -0.000040  -0.000528
  159  H 27  S    0.000001   0.000106   0.000064   0.000045   0.001071
  160  H 28  S   -0.000572   0.000257  -0.001639  -0.000226   0.000057
  161  H 28  S   -0.000973  -0.000270   0.002395  -0.000355  -0.000093
  162  H 29  S   -0.000801   0.000365  -0.001599   0.000013   0.000033
  163  H 29  S   -0.001259   0.000279   0.001881   0.000321  -0.000141
  164  H 30  S    0.000671  -0.000881  -0.001118  -0.000247  -0.000074
  165  H 30  S    0.002222  -0.000376   0.001599  -0.000266   0.000016

                     11         12         13         14         15
                  -11.2498   -11.2417   -11.2327   -11.2191   -11.1799
                     A          A          A          A          A   
    1  O  1  S   -0.000216   0.000077   0.000054   0.000018  -0.000016
    2  O  1  S   -0.000488   0.000751   0.000136  -0.000230  -0.000151
    3  O  1  X   -0.000151   0.000288   0.000726  -0.000287  -0.000056
    4  O  1  Y    0.000286   0.000256  -0.000329  -0.000177  -0.000022
    5  O  1  Z    0.000789   0.000150   0.000215  -0.000043   0.000002
    6  O  1  S    0.008336  -0.001973  -0.002179  -0.000836   0.000566
    7  O  1  X   -0.004620  -0.002204  -0.002121  -0.000983   0.000379
    8  O  1  Y    0.004206  -0.000972   0.000704   0.000373   0.000065
    9  O  1  Z    0.000027  -0.001096  -0.001106  -0.000141   0.000021
   10  O  2  S   -0.000011  -0.000254  -0.000007   0.000032   0.000008
   11  O  2  S   -0.000161  -0.000892  -0.000066  -0.000015   0.000072
   12  O  2  X    0.000241  -0.000254  -0.000009   0.000153   0.000015
   13  O  2  Y    0.000041  -0.000465   0.000017   0.000082  -0.000009
   14  O  2  Z    0.000063   0.000079  -0.000024   0.000178  -0.000015
   15  O  2  S   -0.000098   0.009838   0.000395  -0.001174  -0.000242
   16  O  2  X   -0.000847  -0.002106   0.000115  -0.000689  -0.000011
   17  O  2  Y   -0.000036  -0.003930  -0.000158   0.001373   0.000106
   18  O  2  Z   -0.000372  -0.000523   0.000089  -0.000168   0.000079
   19  O  3  S    0.000099   0.000065   0.000046   0.000088   0.000002
   20  O  3  S    0.000483   0.000112   0.000392   0.000758   0.000014
   21  O  3  X    0.000112  -0.000680  -0.000070   0.000255  -0.000008
   22  O  3  Y    0.000090   0.000329  -0.000139  -0.000176  -0.000003
   23  O  3  Z    0.000050  -0.000433  -0.000024   0.000030   0.000009
   24  O  3  S   -0.003308  -0.002771  -0.001280  -0.002682  -0.000085
   25  O  3  X   -0.000012   0.001946   0.000597  -0.001399   0.000012
   26  O  3  Y    0.001945  -0.000362   0.000869   0.001474   0.000064
   27  O  3  Z   -0.001638  -0.000073  -0.000268  -0.000822  -0.000048
   28  O  4  S    0.000124   0.000083   0.000039   0.000114   0.000004
   29  O  4  S    0.000934   0.000609   0.000283   0.000532   0.000040
   30  O  4  X   -0.000133   0.000059   0.000003  -0.000388   0.000027
   31  O  4  Y    0.000154  -0.000047   0.000054  -0.000571   0.000028
   32  O  4  Z   -0.000079   0.000048  -0.000049   0.000289  -0.000022
   33  O  4  S   -0.004234  -0.002672  -0.001427  -0.004331  -0.000133
   34  O  4  X    0.001151  -0.000015   0.000163   0.001211  -0.000175
   35  O  4  Y   -0.001581  -0.000813  -0.000544   0.000763  -0.000090
   36  O  4  Z    0.001885   0.000703   0.000798   0.001069   0.000113
   37  O  5  S    0.000042  -0.000008  -0.000178  -0.000008   0.000002
   38  O  5  S    0.000067  -0.000127  -0.000404  -0.000050   0.000019
   39  O  5  X   -0.000080   0.000034   0.000334  -0.000003   0.000004
   40  O  5  Y   -0.000182  -0.000038   0.000511  -0.000035  -0.000002
   41  O  5  Z   -0.000133  -0.000010  -0.000034  -0.000007   0.000004
   42  O  5  S   -0.001430   0.000377   0.007528   0.000277  -0.000072
   43  O  5  X   -0.001015  -0.000237   0.000820   0.000105  -0.000032
   44  O  5  Y   -0.000231   0.000090   0.002683   0.000272  -0.000005
   45  O  5  Z   -0.000036  -0.000013   0.000885   0.000069  -0.000018
   46  O  6  S    0.000003   0.000033  -0.000001   0.000052   0.000031
   47  O  6  S    0.000010   0.000272  -0.000014   0.000477   0.000017
   48  O  6  X    0.000004  -0.000061   0.000005  -0.000252   0.000111
   49  O  6  Y   -0.000021  -0.000015   0.000002   0.000049  -0.000233
   50  O  6  Z   -0.000048  -0.000044  -0.000019   0.000010  -0.000064
   51  O  6  S   -0.000174  -0.001511   0.000025  -0.002038  -0.000973
   52  O  6  X    0.000111   0.000514   0.000010   0.001495  -0.002284
   53  O  6  Y    0.000017  -0.000478  -0.000014  -0.000847   0.000286
   54  O  6  Z    0.000142   0.000083   0.000076  -0.000140  -0.000290
   55  N  7  S   -0.000000   0.000084  -0.000006  -0.000238  -0.000008
   56  N  7  S    0.000001   0.000260  -0.000049  -0.001078  -0.000537
   57  N  7  X    0.000073   0.000502   0.000094  -0.000234  -0.000932
   58  N  7  Y    0.000022  -0.000277   0.000004   0.000078   0.000282
   59  N  7  Z   -0.000085  -0.000337  -0.000092  -0.000232  -0.000006
   60  N  7  S   -0.000288  -0.003780  -0.000107   0.011849   0.000396
   61  N  7  X   -0.000418   0.000140  -0.000559  -0.007214   0.002864
   62  N  7  Y    0.000001   0.000298  -0.000092   0.000529  -0.001650
   63  N  7  Z    0.000606   0.001249   0.000490   0.000875  -0.000283
   64  C  8  S   -0.012094   0.988197   0.009790   0.003456   0.000340
   65  C  8  S   -0.001623   0.106336  -0.000048  -0.002087  -0.000144
   66  C  8  X    0.000931  -0.000651   0.000387   0.000589   0.000005
   67  C  8  Y   -0.000170  -0.000558   0.000027  -0.000916  -0.000004
   68  C  8  Z   -0.000129  -0.001383  -0.000192  -0.000339   0.000087
   69  C  8  S    0.000783  -0.096910   0.004673   0.022398   0.000709
   70  C  8  X    0.000908   0.005746  -0.003051   0.010050  -0.000153
   71  C  8  Y    0.000816   0.006507  -0.001141  -0.010282   0.000157
   72  C  8  Z    0.002156   0.012066   0.000053  -0.007994  -0.000575
   73  C  9  S    0.000662  -0.004439   0.001662   0.988420   0.001466
   74  C  9  S    0.000849  -0.003014   0.000729   0.107473  -0.000674
   75  C  9  X    0.000269  -0.000279  -0.000008  -0.000687  -0.000043
   76  C  9  Y    0.000617   0.000357   0.000039  -0.000271   0.000335
   77  C  9  Z    0.000126   0.000543   0.000015   0.000909   0.000092
   78  C  9  S   -0.004862   0.023984  -0.003841  -0.102379   0.003265
   79  C  9  X    0.002485  -0.005287   0.001856   0.008513   0.002245
   80  C  9  Y    0.000855   0.014839   0.001490   0.002843  -0.001475
   81  C  9  Z   -0.002123   0.007129  -0.001288  -0.009641  -0.000073
   82  C 10  S    0.021804   0.006322   0.006306   0.006220   0.000187
   83  C 10  S   -0.002249  -0.002374  -0.000675  -0.002089  -0.000122
   84  C 10  X   -0.000544   0.000579   0.001008  -0.001416  -0.000071
   85  C 10  Y   -0.000056  -0.000244   0.000258   0.000649   0.000090
   86  C 10  Z    0.000678   0.000433   0.000459   0.000504   0.000053
   87  C 10  S    0.029157   0.025894   0.001171   0.006991   0.000036
   88  C 10  X   -0.005678   0.015512  -0.003898   0.005382  -0.000024
   89  C 10  Y   -0.015598  -0.001259  -0.000556  -0.003159  -0.000433
   90  C 10  Z   -0.007443   0.000146  -0.001892  -0.002551  -0.000353
   91  C 11  S    0.988011   0.011878   0.005645  -0.000483   0.000144
   92  C 11  S    0.106311   0.000805  -0.001349   0.000655  -0.000030
   93  C 11  X    0.000696  -0.000713   0.000168   0.000134  -0.000099
   94  C 11  Y    0.000160  -0.000595  -0.000040  -0.000253   0.000012
   95  C 11  Z   -0.000512  -0.000830   0.000086   0.000397  -0.000002
   96  C 11  S   -0.098085  -0.002886   0.019319  -0.002998  -0.000265
   97  C 11  X   -0.000205   0.002501  -0.013969  -0.004509   0.000326
   98  C 11  Y   -0.008584   0.000218  -0.000782  -0.000077  -0.000265
   99  C 11  Z    0.005651   0.004656  -0.006439  -0.001372   0.000147
  100  C 12  S    0.007412   0.004780   0.000709   0.002461   0.000282
  101  C 12  S   -0.002724  -0.002092  -0.001228  -0.003875  -0.000105
  102  C 12  X    0.001039  -0.000073  -0.000157   0.000705  -0.000318
  103  C 12  Y   -0.001069  -0.001487  -0.000182   0.000527  -0.000054
  104  C 12  Z   -0.000736  -0.000662  -0.000263  -0.000474   0.000032
  105  C 12  S    0.009809   0.006512   0.006276   0.030373  -0.000739
  106  C 12  X   -0.005986  -0.000777  -0.001600   0.004957   0.000625
  107  C 12  Y    0.006690   0.005899   0.002840   0.015435  -0.000471
  108  C 12  Z    0.005606   0.002696   0.001358   0.002497   0.000267
  109  C 13  S   -0.006484  -0.010235   0.987580  -0.001577   0.000053
  110  C 13  S   -0.003436  -0.002164   0.101635   0.000141  -0.000045
  111  C 13  X    0.000475  -0.000068   0.000774   0.000036   0.000008
  112  C 13  Y    0.000198  -0.000234   0.000269  -0.000079   0.000007
  113  C 13  Z    0.000371  -0.000082   0.000298  -0.000053  -0.000002
  114  C 13  S    0.024377   0.006043  -0.079777  -0.002244   0.000342
  115  C 13  X    0.013559   0.003100  -0.008404  -0.001105   0.000135
  116  C 13  Y   -0.000204   0.001138  -0.002526   0.000696  -0.000005
  117  C 13  Z    0.004954   0.000899  -0.004059  -0.000625   0.000109
  118  C 14  S    0.000108  -0.000189  -0.000002   0.000981   0.000894
  119  C 14  S   -0.000018  -0.000129  -0.000003  -0.000253  -0.002084
  120  C 14  X    0.000128   0.000297   0.000010   0.001301  -0.000321
  121  C 14  Y    0.000091   0.000102   0.000044  -0.000222  -0.000107
  122  C 14  Z    0.000015   0.000304   0.000015   0.000162  -0.000104
  123  C 14  S   -0.000066   0.000842   0.000169  -0.000495   0.019750
  124  C 14  X   -0.000836  -0.004043  -0.000146  -0.007272   0.015773
  125  C 14  Y    0.000005  -0.000007   0.000183   0.000209   0.000242
  126  C 14  Z   -0.000179  -0.001683  -0.000104  -0.001637   0.002501
  127  C 15  S   -0.000165  -0.000418  -0.000075  -0.001763   0.987546
  128  C 15  S   -0.000142  -0.000398  -0.000041  -0.001132   0.102111
  129  C 15  X    0.000005  -0.000105   0.000011  -0.000124  -0.000224
  130  C 15  Y   -0.000020   0.000049  -0.000003  -0.000001   0.000151
  131  C 15  Z    0.000004  -0.000088  -0.000003  -0.000054  -0.000039
  132  C 15  S    0.000709   0.002927   0.000120   0.006113  -0.083581
  133  C 15  X   -0.000359  -0.001194  -0.000050  -0.002729   0.006116
  134  C 15  Y   -0.000032  -0.000771  -0.000029  -0.000937   0.001960
  135  C 15  Z   -0.000091   0.000158   0.000046  -0.000503   0.002020
  136  H 16  S   -0.000078   0.000804  -0.000561  -0.001682   0.000065
  137  H 16  S   -0.001545   0.013622  -0.000063   0.000736   0.000078
  138  H 17  S    0.000123  -0.001721   0.000226   0.001386  -0.000178
  139  H 17  S   -0.000371  -0.000952  -0.000469   0.014466  -0.000148
  140  H 18  S   -0.001198  -0.001117  -0.000093  -0.000154   0.000024
  141  H 18  S    0.003410   0.001109  -0.000893   0.003480   0.000291
  142  H 19  S    0.000967  -0.000328  -0.001277   0.000561  -0.000022
  143  H 19  S    0.014352  -0.002044   0.001294   0.000364  -0.000056
  144  H 20  S    0.000321  -0.000089  -0.000102  -0.001291  -0.000083
  145  H 20  S    0.003797   0.003321   0.000739   0.001771   0.000097
  146  H 21  S   -0.001942  -0.000496   0.000288   0.000134  -0.000009
  147  H 21  S    0.000698  -0.000436   0.015140  -0.000287  -0.000008
  148  H 22  S   -0.001181  -0.000425   0.000251   0.000062  -0.000023
  149  H 22  S    0.001231   0.000034   0.014615  -0.000206  -0.000003
  150  H 23  S   -0.000033  -0.000337  -0.000049  -0.000858  -0.000401
  151  H 23  S   -0.000026   0.000922   0.000213   0.000619   0.001125
  152  H 24  S   -0.000458  -0.000277   0.000031  -0.000552   0.000040
  153  H 24  S    0.000898   0.002576   0.000114  -0.000150  -0.000077
  154  H 25  S    0.000122   0.001011   0.000182  -0.000248   0.000001
  155  H 25  S   -0.001340   0.000800  -0.000714  -0.000259  -0.000001
  156  H 26  S    0.000224   0.000109   0.000041   0.000780  -0.000034
  157  H 26  S   -0.000901  -0.000003  -0.000282   0.001088  -0.000067
  158  H 27  S   -0.000081   0.000099  -0.000127  -0.000120  -0.000004
  159  H 27  S    0.000530  -0.000184   0.002529   0.000360   0.000049
  160  H 28  S   -0.000047  -0.000014  -0.000000  -0.000253   0.000343
  161  H 28  S   -0.000017   0.000128   0.000004  -0.000022   0.014186
  162  H 29  S   -0.000027  -0.000112   0.000000  -0.000268   0.000275
  163  H 29  S   -0.000037  -0.000336  -0.000067  -0.000287   0.013999
  164  H 30  S   -0.000037  -0.000184  -0.000012  -0.000347   0.000415
  165  H 30  S    0.000039  -0.000182   0.000015  -0.000120   0.014472

                     16         17         18         19         20
[...]
             48  O  6  X      0.80792     0.80913
             49  O  6  Y      0.64285     0.63546
             50  O  6  Z      0.61642     0.61267
             51  O  6  S      1.56368     1.05784
             52  O  6  X      0.95660     0.99967
             53  O  6  Y      0.81066     0.84662
             54  O  6  Z      0.84527     0.85888
             55  N  7  S      1.98815     1.97750
             56  N  7  S      0.35001     0.46443
             57  N  7  X      0.55481     0.54987
             58  N  7  Y      0.59865     0.58889
             59  N  7  Z      0.71433     0.72759
             60  N  7  S      1.33646     0.72089
             61  N  7  X      0.65173     0.66884
             62  N  7  Y      0.74718     0.70182
             63  N  7  Z      0.97364     0.93084
             64  C  8  S      1.99008     1.97564
             65  C  8  S      0.35092     0.42331
             66  C  8  X      0.51522     0.50508
             67  C  8  Y      0.45379     0.44668
             68  C  8  Z      0.58102     0.55788
             69  C  8  S      1.00462     0.54968
             70  C  8  X      0.25952     0.47603
             71  C  8  Y      0.23164     0.42772
             72  C  8  Z      0.52942     0.56435
             73  C  9  S      1.99036     1.97570
             74  C  9  S      0.34776     0.41917
             75  C  9  X      0.46437     0.45725
             76  C  9  Y      0.55910     0.55037
             77  C  9  Z      0.56932     0.54622
             78  C  9  S      1.02201     0.54387
             79  C  9  X      0.21572     0.43914
             80  C  9  Y      0.31691     0.51216
             81  C  9  Z      0.51347     0.56311
             82  C 10  S      1.99043     1.97571
             83  C 10  S      0.35195     0.42622
             84  C 10  X      0.57656     0.56751
             85  C 10  Y      0.52902     0.51263
             86  C 10  Z      0.43769     0.42038
             87  C 10  S      1.03054     0.55800
             88  C 10  X      0.41409     0.53345
             89  C 10  Y      0.38873     0.51371
             90  C 10  Z      0.29015     0.44503
             91  C 11  S      1.99022     1.97574
             92  C 11  S      0.35185     0.42799
             93  C 11  X      0.51780     0.51252
             94  C 11  Y      0.49219     0.47865
             95  C 11  Z      0.53829     0.51223
             96  C 11  S      1.03075     0.55904
             97  C 11  X      0.32208     0.48230
             98  C 11  Y      0.30253     0.47891
             99  C 11  Z      0.45071     0.52642
            100  C 12  S      1.98931     1.97520
            101  C 12  S      0.37234     0.42821
            102  C 12  X      0.43217     0.42100
            103  C 12  Y      0.58897     0.57418
            104  C 12  Z      0.45513     0.43673
            105  C 12  S      0.89014     0.55431
            106  C 12  X      0.25124     0.42113
            107  C 12  Y      0.44127     0.52875
            108  C 12  Z      0.22296     0.42231
            109  C 13  S      1.98840     1.97570
            110  C 13  S      0.36134     0.42076
            111  C 13  X      0.54203     0.51751
            112  C 13  Y      0.45554     0.44186
            113  C 13  Z      0.55964     0.52518
            114  C 13  S      1.01069     0.56917
            115  C 13  X      0.33868     0.50981
            116  C 13  Y      0.30593     0.44845
            117  C 13  Z      0.50182     0.57379
            118  C 14  S      1.98703     1.97616
            119  C 14  S      0.42589     0.42743
            120  C 14  X      0.57067     0.54498
            121  C 14  Y      0.55489     0.52950
            122  C 14  Z      0.37351     0.35597
            123  C 14  S      0.57457     0.50706
            124  C 14  X      0.24527     0.46850
            125  C 14  Y      0.07288     0.40709
            126  C 14  Z      0.35615     0.45462
            127  C 15  S      1.98846     1.97647
            128  C 15  S      0.35259     0.41983
            129  C 15  X      0.52757     0.50898
            130  C 15  Y      0.56039     0.52831
            131  C 15  Z      0.54862     0.51554
            132  C 15  S      1.15516     0.58938
            133  C 15  X      0.37311     0.55330
            134  C 15  Y      0.59692     0.61254
            135  C 15  Z      0.57256     0.61040
            136  H 16  S      0.47170     0.48302
            137  H 16  S      0.24948     0.40761
            138  H 17  S      0.46721     0.48517
            139  H 17  S      0.26639     0.41669
            140  H 18  S      0.47344     0.48588
            141  H 18  S      0.29332     0.42756
            142  H 19  S      0.47330     0.48636
            143  H 19  S      0.27924     0.42115
            144  H 20  S      0.47741     0.48642
            145  H 20  S      0.22343     0.40486
            146  H 21  S      0.47914     0.48647
            147  H 21  S      0.32578     0.44499
            148  H 22  S      0.47933     0.48378
            149  H 22  S      0.31517     0.43635
            150  H 23  S      0.42054     0.43423
            151  H 23  S      0.19440     0.33890
            152  H 24  S      0.39407     0.41155
            153  H 24  S      0.20769     0.33056
            154  H 25  S      0.40934     0.42602
            155  H 25  S      0.19830     0.31468
            156  H 26  S      0.40667     0.42359
            157  H 26  S      0.20110     0.31259
            158  H 27  S      0.39925     0.41653
            159  H 27  S      0.20276     0.32670
            160  H 28  S      0.45860     0.45813
            161  H 28  S      0.30781     0.42790
            162  H 29  S      0.45985     0.45919
            163  H 29  S      0.30725     0.42808
            164  H 30  S      0.46171     0.46100
            165  H 30  S      0.28523     0.41938

          ----- MULLIKEN ATOMIC OVERLAP POPULATIONS -----
          (OFF-DIAGONAL ELEMENTS NEED TO BE MULTIPLIED BY 2)

             1           2           3           4           5

    1    8.4562436
    2   -0.0000008   8.2796549
    3    0.0002026  -0.0057390   8.2911786
    4   -0.0333920   0.0000042  -0.0000001   8.3145397
    5   -0.0050031   0.0000000   0.0000017  -0.0000004   8.2588027
    6    0.0000123  -0.0000000  -0.0000000  -0.0001589   0.0000000
    7    0.0006394  -0.0056820   0.0000057   0.0014893   0.0000000
    8   -0.0036308   0.2381744  -0.0562965  -0.0009982  -0.0000129
    9   -0.0445093  -0.0483132  -0.0013069  -0.0610270  -0.0000014
   10   -0.0393084  -0.0366410   0.2032519  -0.0024765   0.0015981
   11    0.2040045   0.0014221  -0.0392767   0.0019274  -0.0376342
   12    0.1881968   0.0016815   0.0000436   0.2041395   0.0000406
   13   -0.0420740  -0.0000079  -0.0032954   0.0000897   0.2502424
   14    0.0000516   0.0000151   0.0000002   0.0012617   0.0000000
   15    0.0000001  -0.0000073   0.0000000  -0.0000018   0.0000000
   16   -0.0000450  -0.0230415   0.0011459   0.0128349   0.0000001
   17    0.0033109   0.0002241   0.0095785   0.0016475   0.0000001
   18    0.0012647   0.0006860  -0.0272570  -0.0000125  -0.0000053
   19   -0.0314507  -0.0000049   0.0012529   0.0088360   0.0011877
   20   -0.0219071  -0.0000086  -0.0000009  -0.0267679   0.0000024
   21    0.0013419   0.0000006   0.0082663  -0.0000001  -0.0305852
   22    0.0015682   0.0000001  -0.0000068   0.0000012  -0.0280459
   23   -0.0000114   0.0224959  -0.0000041  -0.0000499  -0.0000000
   24   -0.0000029   0.2597921   0.0290117  -0.0000015   0.0000000
   25   -0.0000043   0.0000971   0.2626240   0.0000000  -0.0000059
   26    0.0013885   0.0000000   0.0000001   0.2634310  -0.0000003
   27    0.0250127   0.0000000  -0.0000040   0.0000103   0.2615983
   28   -0.0000000  -0.0000002  -0.0000000  -0.0000000  -0.0000000
   29   -0.0000000  -0.0000009  -0.0000000   0.0000016   0.0000000
   30   -0.0000000  -0.0000000   0.0000000   0.0000000  -0.0000000

             6           7           8           9          10

    6    8.2315645
    7   -0.0739779   7.6056709
    8    0.0000629  -0.0483375   5.3161045
    9    0.0019396   0.1628822   0.1906553   5.5697770
   10   -0.0000003   0.0027286   0.1913073  -0.1124103   5.5771538
   11   -0.0000003   0.0000274  -0.0644447  -0.0008177   0.0461424
   12   -0.0096130  -0.0325245  -0.0696834   0.1340615   0.0167553
   13    0.0000000   0.0000008   0.0022552  -0.0004017  -0.0560329
   14    0.5460268   0.1307122   0.0035892  -0.0522048  -0.0000624
   15   -0.0753075  -0.1206201  -0.0000530   0.0023983   0.0000002
   16   -0.0000029   0.0020864   0.3737987  -0.0543201  -0.0403012
   17    0.0001192  -0.0371610  -0.0463333   0.3814115  -0.0029242
   18   -0.0000000  -0.0000181  -0.0414911   0.0047533   0.3658253
   19    0.0000000   0.0000085   0.0002940   0.0006351  -0.0550338
   20    0.0267791  -0.0022961   0.0027886  -0.0434726  -0.0003856
   21    0.0000000   0.0000001  -0.0000939   0.0000676   0.0002475
   22   -0.0000000  -0.0000000  -0.0000612   0.0000080   0.0018155
   23    0.0010888   0.3204218  -0.0090287  -0.0389695   0.0008045
   24    0.0000000   0.0001557  -0.0678105   0.0018012  -0.0119139
   25    0.0000000   0.0000002   0.0056095  -0.0001421  -0.0418091
   26    0.0000473  -0.0001368  -0.0001204   0.0065674   0.0000929
   27    0.0000000  -0.0000001  -0.0000111   0.0000596   0.0007419
   28    0.0007879   0.0023671  -0.0000025  -0.0000866  -0.0000000
   29    0.0009874   0.0031512  -0.0000022   0.0000244  -0.0000000
   30    0.0035246   0.0033725   0.0000003  -0.0000516  -0.0000000

            11          12          13          14          15

   11    5.5938500
   12   -0.0857865   5.0433524
   13    0.2042625   0.0040672   5.0832742
   14   -0.0000034  -0.0045701   0.0000000   4.4581946
   15   -0.0000000  -0.0000807  -0.0000000   0.2157771   5.5758682
   16    0.0025542  -0.0034558  -0.0000290  -0.0000287  -0.0000036
   17    0.0006605  -0.0524567  -0.0000807  -0.0001037  -0.0000349
   18   -0.0497738  -0.0003053  -0.0002546   0.0000004  -0.0000000
   19    0.3495934  -0.0062999  -0.0365614   0.0000002   0.0000000
   20    0.0028195   0.3552103  -0.0000214  -0.0006782   0.0002857
   21   -0.0687743  -0.0002924   0.3480768   0.0000000   0.0000000
   22   -0.0533610  -0.0000731   0.3705018  -0.0000000  -0.0000000
   23   -0.0000490   0.0030499   0.0000001  -0.0204959  -0.0021963
   24    0.0008336  -0.0001009  -0.0000090  -0.0000079   0.0000007
   25    0.0004496  -0.0000033   0.0016720  -0.0000000  -0.0000000
   26    0.0002182  -0.0414779  -0.0000242  -0.0000093   0.0000006
   27   -0.0124075  -0.0003306  -0.0615855   0.0000000   0.0000000
   28    0.0000000   0.0000002   0.0000000  -0.0379426   0.3602710
   29    0.0000000  -0.0000121  -0.0000000  -0.0375251   0.3589446
   30    0.0000000   0.0000003  -0.0000000  -0.0411427   0.3601217

            16          17          18          19          20

   16    0.4439590
   17    0.0030555   0.4713648
   18   -0.0021203   0.0001292   0.5148789
   19    0.0007053   0.0000931   0.0027255   0.5140153
   20    0.0000486  -0.0015131   0.0000049   0.0000255   0.4135594
   21   -0.0000003   0.0000857   0.0005931   0.0042752  -0.0000034
   22   -0.0000013   0.0000014   0.0011951  -0.0012339   0.0000005
   23    0.0003683   0.0006717  -0.0000098  -0.0000005  -0.0000911
   24    0.0043366   0.0021409   0.0000938  -0.0000151  -0.0000005
   25   -0.0000809  -0.0001837  -0.0041279  -0.0000645  -0.0000001
   26   -0.0002896  -0.0001182  -0.0000017  -0.0002992  -0.0034575
   27    0.0000001   0.0000026  -0.0000102  -0.0001376  -0.0000680
   28    0.0000002   0.0000074   0.0000000  -0.0000000  -0.0000039
   29    0.0000016   0.0000012   0.0000000  -0.0000000  -0.0000062
   30   -0.0000000   0.0000005   0.0000000  -0.0000000  -0.0000021

            21          22          23          24          25

   21    0.5766604
   22   -0.0343468   0.5317527
   23   -0.0000000  -0.0000000   0.3364962
   24   -0.0000053  -0.0000000  -0.0005468   0.3852006
   25    0.0004293  -0.0002442   0.0000005  -0.0011896   0.3846158
   26    0.0000000  -0.0000001   0.0000051   0.0000001  -0.0000000
   27   -0.0010231   0.0050293   0.0000000   0.0000000  -0.0000010
   28   -0.0000000   0.0000000   0.0004746   0.0000000   0.0000000
   29    0.0000000   0.0000000   0.0004646   0.0000000   0.0000000
   30    0.0000000   0.0000000   0.0000537   0.0000000  -0.0000000

            26          27          28          29          30

   26    0.3819277
   27    0.0000281   0.3851008
   28   -0.0000000  -0.0000000   0.4786068
   29   -0.0000001  -0.0000000  -0.0209470   0.4793515
   30    0.0000000   0.0000000  -0.0171207  -0.0173380   0.4555296

          TOTAL MULLIKEN AND LOWDIN ATOMIC POPULATIONS
       ATOM         MULL.POP.    CHARGE          LOW.POP.     CHARGE
    1 O             8.661898   -0.661898         8.365818   -0.365818
    2 O             8.684801   -0.684801         8.407001   -0.407001
    3 O             8.673376   -0.673376         8.397169   -0.397169
    4 O             8.685327   -0.685327         8.397048   -0.397048
    5 O             8.672179   -0.672179         8.401696   -0.401696
    6 O             8.653880   -0.653880         8.385366   -0.385366
    7 N             7.914966   -0.914966         7.330664   -0.330664
    8 C             5.916228    0.083772         5.926378    0.073622
    9 C             5.999008    0.000992         6.006975   -0.006975
   10 C             6.009165   -0.009165         5.952645    0.047355
   11 C             5.996436    0.003564         5.953805    0.046195
   12 C             5.643533    0.356467         5.761822    0.238178
   13 C             6.064065   -0.064065         5.982231    0.017769
   14 C             5.160854    0.839146         5.671306    0.328694
   15 C             6.675363   -0.675363         6.314743   -0.314743
   16 H             0.721175    0.278825         0.890628    0.109372
   17 H             0.733597    0.266403         0.901856    0.098144
   18 H             0.766762    0.233238         0.913441    0.086559
   19 H             0.752546    0.247454         0.907511    0.092489
   20 H             0.700840    0.299160         0.891280    0.108720
   21 H             0.804920    0.195080         0.931456    0.068544
   22 H             0.794499    0.205501         0.920127    0.079873
   23 H             0.614943    0.385057         0.773135    0.226865
   24 H             0.601763    0.398237         0.742106    0.257894
   25 H             0.607641    0.392359         0.740700    0.259300
   26 H             0.607772    0.392228         0.736186    0.263814
   27 H             0.602005    0.397995         0.743227    0.256773
   28 H             0.766412    0.233588         0.886030    0.113970
   29 H             0.767097    0.232903         0.887267    0.112733
   30 H             0.746948    0.253052         0.880382    0.119618

          -------------------------------
          BOND ORDER AND VALENCE ANALYSIS     BOND ORDER THRESHOLD=0.050
          -------------------------------

                   BOND                       BOND                       BOND
  ATOM PAIR DIST  ORDER      ATOM PAIR DIST  ORDER      ATOM PAIR DIST  ORDER
    1  11  1.478  0.819        1  12  1.460  0.795        2   8  1.458  0.879
    2  24  1.003  0.767        3  10  1.478  0.834        3  24  2.005  0.054
    3  25  0.992  0.802        4  12  1.435  0.861        4  26  0.994  0.805
    5  13  1.451  0.909        5  27  1.000  0.773        6   7  2.302  0.090
    6  14  1.247  1.703        7   9  1.461  0.814        7  14  1.365  0.950
    7  23  1.019  0.798        8   9  1.541  0.878        8  10  1.531  0.884
    8  16  1.089  0.873        9  12  1.530  0.858        9  17  1.096  0.875
   10  11  1.531  0.818       10  18  1.099  0.889       11  13  1.530  0.892
   11  19  1.094  0.870       12  20  1.087  0.847       13  21  1.100  0.884
   13  22  1.094  0.906       14  15  1.530  0.875       15  28  1.097  0.910
   15  29  1.095  0.910       15  30  1.090  0.908

                       TOTAL       BONDED        FREE
      ATOM            VALENCE     VALENCE     VALENCE
    1 O                 1.765       1.765      -0.000
    2 O                 1.759       1.759       0.000
    3 O                 1.765       1.765      -0.000
    4 O                 1.756       1.756      -0.000
    5 O                 1.747       1.747      -0.000
    6 O                 1.902       1.902       0.000
    7 N                 2.657       2.657      -0.000
    8 C                 3.454       3.454      -0.000
    9 C                 3.407       3.407      -0.000
   10 C                 3.415       3.415      -0.000
   11 C                 3.401       3.401      -0.000
   12 C                 3.362       3.362      -0.000
   13 C                 3.573       3.573       0.000
   14 C                 3.494       3.494      -0.000
   15 C                 3.598       3.598       0.000
   16 H                 0.894       0.894       0.000
   17 H                 0.893       0.893      -0.000
   18 H                 0.898       0.898       0.000
   19 H                 0.895       0.895       0.000
   20 H                 0.900       0.900       0.000
   21 H                 0.917       0.917      -0.000
   22 H                 0.911       0.911       0.000
   23 H                 0.841       0.841      -0.000
   24 H                 0.832       0.832      -0.000
   25 H                 0.821       0.821       0.000
   26 H                 0.824       0.824       0.000
   27 H                 0.829       0.829       0.000
   28 H                 0.906       0.906      -0.000
   29 H                 0.908       0.908      -0.000
   30 H                 0.904       0.904       0.000

          ---------------------
          ELECTROSTATIC MOMENTS
          ---------------------

 POINT   1           X           Y           Z (BOHR)    CHARGE
                -0.114648   -0.126047    0.157269       -0.00 (A.U.)
         DX          DY          DZ         /D/  (DEBYE)
    -0.108474    3.329938    1.369108    3.602043
 ...... END OF PROPERTY EVALUATION ......
 CPU     0: STEP CPU TIME=     0.06 TOTAL CPU TIME=          5.6 (      0.1 MIN)
 TOTAL WALL CLOCK TIME=         18.9 SECONDS, CPU UTILIZATION IS    29.70%
               580000  WORDS OF DYNAMIC MEMORY USED
 EXECUTION OF GAMESS TERMINATED NORMALLY Thu May 21 21:54:00 2020
 DDI: 263640 bytes (0.3 MB / 0 MWords) used by master data server.
Note: The following floating-point exceptions are signalling: IEEE_DENORMALNote: The following floating-point exceptions are signalling: IEEE_DENORMALNote: The following floating-point exceptions are signalling: IEEE_DENORMALNote: The following floating-point exceptions are signalling: IEEE_DENORMAL



Note: The following floating-point exceptions are signalling: IEEE_DENORMAL
Note: The following floating-point exceptions are signalling: IEEE_DENORMAL
Note: The following floating-point exceptions are signalling: IEEE_DENORMAL

 ----------------------------------------
 CPU timing information for all processes
 ========================================
 0: 5.387 + 0.249 = 5.637
 1: 5.343 + 0.60 = 5.403
 2: 5.347 + 0.104 = 5.452
 3: 5.601 + 0.52 = 5.654
 4: 5.369 + 0.123 = 5.492
 5: 5.311 + 0.48 = 5.359
 6: 5.343 + 0.71 = 5.414
 7: 5.531 + 0.83 = 5.614
 ----------------------------------------
Note: The following floating-point exceptions are signalling: IEEE_DENORMAL
 ddikick.x: exited gracefully.
unset echo
----- accounting info -----
Files used on the master node pietdev were:
-rwxr-xr-x 1 piet piet     1733 mei 21 21:53 /home/piet/scr/beta-d-acetylgalactosamine_fukui_neu.F05*
-rw-r--r-- 1 piet piet 49152000 mei 21 21:54 /home/piet/scr/beta-d-acetylgalactosamine_fukui_neu.F10
ls: No match.
ls: No match.
ls: No match.
do 21 mei 2020 21:54:03 CEST
0.128u 0.038s 0:22.30 0.6%	0+0k 0+8io 0pf+0w
