----- GAMESS execution script 'rungms' -----
This job is running on host pietdev
under operating system Linux at vr 22 mei 2020 16:22:38 CEST
Available scratch disk space (Kbyte units) at beginning of the job is
Filesystem     1K-blocks     Used Available Use% Mounted on
/dev/sda2      244568380 31372840 200702484  14% /
GAMESS temporary binary files will be written to /home/piet/scr
GAMESS supplementary output files will be written to /home/piet/gamess/scr
Copying input file d-glucose_charge_geodisk.inp to your run's scratch directory...
cp d-glucose_charge_geodisk.inp /home/piet/scr/d-glucose_charge_geodisk.F05
unset echo
 
Assuming a single but multicore node.
 
/home/piet/gamess/ddikick.x /home/piet/gamess/gamess.03.x d-glucose_charge_geodisk -ddi 1 8 pietdev:cpus=8 -scr /home/piet/scr

 Distributed Data Interface kickoff program.
 Initiating 8 compute processes on 1 nodes to run the following command:
 /home/piet/gamess/gamess.03.x d-glucose_charge_geodisk 

          ******************************************************
          *         GAMESS VERSION = 30 SEP 2019 (R2)          *
          *             FROM IOWA STATE UNIVERSITY             *
          * M.W.SCHMIDT, K.K.BALDRIDGE, J.A.BOATZ, S.T.ELBERT, *
          *   M.S.GORDON, J.H.JENSEN, S.KOSEKI, N.MATSUNAGA,   *
          *          K.A.NGUYEN, S.J.SU, T.L.WINDUS,           *
          *       TOGETHER WITH M.DUPUIS, J.A.MONTGOMERY       *
          *         J.COMPUT.CHEM.  14, 1347-1363(1993)        *
          **************** 64 BIT LINUX VERSION ****************

  SINCE 1993, STUDENTS AND POSTDOCS WORKING AT IOWA STATE UNIVERSITY
  AND ALSO IN THEIR VARIOUS JOBS AFTER LEAVING ISU HAVE MADE IMPORTANT
  CONTRIBUTIONS TO THE CODE:
     IVANA ADAMOVIC, CHRISTINE AIKENS, YURI ALEXEEV, POOJA ARORA,
     ANDREY ASADCHEV, ROB BELL, PRADIPTA BANDYOPADHYAY, JONATHAN BENTZ,
     COLLEEN BERTONI, BRETT BODE, KURT BRORSEN, CALEB CARLIN, GALINA CHABAN,
     WEI CHEN, CHEOL HO CHOI, PAUL DAY, ALBERT DEFUSCO, NUWAN DESILVA,
     TIM DUDLEY, DMITRI FEDOROV, ALEX FINDLATER, GRAHAM FLETCHER, 
     MARK FREITAG, KURT GLAESEMANN, EMILIE B GUIDEZ, ANASTASIA GUNINA, 
     DAN KEMP, SAROM SOK LEANG, GRANT MERRILL,
     NORIYUKI MINEZAWA, JONATHAN MULLIN,
     TAKESHI NAGATA, SEAN NEDD, HEATHER NETZLOFF, BOSILJKA NJEGIC, RYAN OLSON,
     MIKE PAK, BUU PHAM, DAVID POOLE,
     SPENCER PRUITT, LUKE ROSKOP, TOSAPORN SATTASATHUCHANA,
     JIM SHOEMAKER, LYUDMILA SLIPCHENKO,
     TONY SMITH, JIE SONG, TETSUYA TAKETSUGU, SIMON WEBB,
     JORGE LUIS GALVEZ VALLEJO, PENG XU, SOOHAENG YOO,
     FEDERICO ZAHARIEV

  ADDITIONAL CODE HAS BEEN PROVIDED BY COLLABORATORS IN OTHER GROUPS:
     IOWA STATE UNIVERSITY:
          JOE IVANIC, AARON WEST, LAIMUTIS BYTAUTAS, KLAUS RUEDENBERG
     UNIVERSITY OF TOKYO: KIMIHIKO HIRAO, TAKAHITO NAKAJIMA,
          TAKAO TSUNEDA, MUNEAKI KAMIYA, SUSUMU YANAGISAWA,
          KIYOSHI YAGI, MAHITO CHIBA, SEIKEN TOKURA, NAOAKI KAWAKAMI
     UNIVERSITY OF AARHUS: FRANK JENSEN
     UNIVERSITY OF IOWA: VISVALDAS KAIRYS, HUI LI
     NATIONAL INST. OF STANDARDS AND TECHNOLOGY: WALT STEVENS, DAVID GARMER
     UNIVERSITY OF PISA: BENEDETTA MENNUCCI, JACOPO TOMASI
     UNIVERSITY OF MEMPHIS: HENRY KURTZ, PRAKASHAN KORAMBATH
     UNIVERSITY OF ALBERTA: TOBY ZENG, MARIUSZ KLOBUKOWSKI
     UNIVERSITY OF NEW ENGLAND: MARK SPACKMAN
     MIE UNIVERSITY: HIROAKI UMEDA
     NAT. INST. OF ADVANCED INDUSTRIAL SCIENCE AND TECHNOLOGY: KAZUO KITAURA
     MICHIGAN STATE UNIVERSITY:
          KAROL KOWALSKI, MARTA WLOCH, JEFFREY GOUR, JESSE LUTZ,
          WEI LI, JUN SHEN, J. EMILIANO DEUSTUA, PIOTR PIECUCH
     UNIVERSITY OF MINNESOTA:
          ANDREW SAND, PRACHI SHARMA, YINAN SHU
     UNIVERSITY OF SILESIA: MONIKA MUSIAL, STANISLAW KUCHARSKI
     FACULTES UNIVERSITAIRES NOTRE-DAME DE LA PAIX:
          OLIVIER QUINET, BENOIT CHAMPAGNE
     UNIVERSITY OF CALIFORNIA - SANTA BARBARA: BERNARD KIRTMAN
     INSTITUTE FOR MOLECULAR SCIENCE:
          KAZUYA ISHIMURA, MICHIO KATOUDA, AND SHIGERU NAGASE
     UNIVERSITY OF NOTRE DAME: ANNA POMOGAEVA, DAN CHIPMAN
     KYUSHU UNIVERSITY:
          HARUYUKI NAKANO,
          FENG LONG GU, JACEK KORCHOWIEC, MARCIN MAKOWSKI, AND YURIKO AOKI,
          HIROTOSHI MORI AND EISAKU MIYOSHI
     PENNSYLVANIA STATE UNIVERSITY:
          TZVETELIN IORDANOV, CHET SWALINA, JONATHAN SKONE,
          SHARON HAMMES-SCHIFFER
     WASEDA UNIVERSITY:
          MASATO KOBAYASHI, TOMOKO AKAMA, TSUGUKI TOUMA,
          TAKESHI YOSHIKAWA, YASUHIRO IKABATA, JUNJI SEINO,
          YUYA NAKAJIMA, HIROMI NAKAI
     NANJING UNIVERSITY: SHUHUA LI
     UNIVERSITY OF NEBRASKA:
          PEIFENG SU, DEJUN SI, NANDUN THELLAMUREGE, YALI WANG, HUI LI
     UNIVERSITY OF ZURICH: ROBERTO PEVERATI, KIM BALDRIDGE
     N. COPERNICUS UNIVERSITY AND JACKSON STATE UNIVERSITY:
          MARIA BARYSZ
     UNIVERSITY OF COPENHAGEN: Jimmy Kromann, CASPER STEINMANN
     TOKYO INSTITUTE OF TECHNOLOGY: HIROYA NAKATA
     NAGOYA UNIVERSITY: YOSHIO NISHIMOTO, STEPHAN IRLE
     MOSCOW STATE UNIVERSITY: VLADIMIR MIRONOV
     A.N.NESMEYANOV INSTITUTE OF ORGANOELEMENT COMPOUNDS OF RUSSIAN ACADEMY OF SCIENCES:
          IGOR S. GERASIMOV
     JOHANNES KEPLER UNIVERSITY LINZ:
          CHRISTIAN FRIEDL


 PARALLEL VERSION RUNNING ON        8 PROCESSORS IN        1 NODES.

 EXECUTION OF GAMESS BEGUN Fri May 22 16:22:38 2020

            ECHO OF THE FIRST FEW INPUT CARDS -
 INPUT CARD> $BASIS GBASIS=N21 NGAUSS=3 $END                                                
 INPUT CARD> $CONTRL SCFTYP=RHF DFTTYP=B3LYP MAXIT=60 MULT=1 ICHARG=0 $END                  
 INPUT CARD> $SYSTEM MEMDDI=1000 MWORDS=30 $END                                             
 INPUT CARD> $SCF DIRSCF=.TRUE. $END                                                        
 INPUT CARD> $ELPOT  IEPOT=1 WHERE=PDC $END                                                 
 INPUT CARD> $PDC PTSEL=GEODESIC CONSTR=CHARGE $END                                         
 INPUT CARD> $DATA                                                                          
 INPUT CARD>                                                                                
 INPUT CARD>C1                                                                              
 INPUT CARD>O 8.0000000 -3.6322681587 -1.1505051891 0.9673452413                            
 INPUT CARD>C 6.0000000 -2.5606205824 -0.5753323311 1.1969610883                            
 INPUT CARD>C 6.0000000 -1.9840375526 0.3934634534 0.1984511696                             
 INPUT CARD>H 1.0000000 -1.7523240240 1.3688200625 0.6425220326                             
 INPUT CARD>O 8.0000000 -2.9343119424 0.5535393095 -0.8955785371                            
 INPUT CARD>C 6.0000000 -0.6517681826 -0.1458171848 -0.4069671079                           
 INPUT CARD>H 1.0000000 -0.6244502984 -1.2378179781 -0.4826124181                           
 INPUT CARD>O 8.0000000 -0.5329071399 0.5021898078 -1.7145181248                            
 INPUT CARD>C 6.0000000 0.5477311751 0.3746825548 0.3904642593                              
 INPUT CARD>H 1.0000000 0.4457942134 0.1423690647 1.4551790977                              
 INPUT CARD>O 8.0000000 0.5778656115 1.8231249621 0.2284457007                              
 INPUT CARD>C 6.0000000 1.8371653509 -0.2533384196 -0.1186285928                            
 INPUT CARD>H 1.0000000 1.9071816237 -0.1016771506 -1.2040587646                            
 INPUT CARD>O 8.0000000 1.7675741545 -1.6663877223 0.2288751433                             
 INPUT CARD>C 6.0000000 3.0614839158 0.3559716081 0.5571669927                              
 INPUT CARD>O 8.0000000 4.1487702701 -0.5444266731 0.1434271503                             
 INPUT CARD>H 1.0000000 -1.9683689914 -0.7564342376 2.1048700386                            
 INPUT CARD>H 1.0000000 -3.6359408739 -0.1474698987 -0.7218162812                           
 INPUT CARD>H 1.0000000 -1.4975698240 0.6089085349 -1.9957530896                            
 INPUT CARD>H 1.0000000 0.3002716602 1.9095032068 -0.7381730019                             
 INPUT CARD>H 1.0000000 2.7247763948 -1.9557642142 0.1781731580                             
 INPUT CARD>H 1.0000000 3.1991575586 1.3896449791 0.2280693742                              
 INPUT CARD>H 1.0000000 2.9173918746 0.3336190105 1.6466972828                              
 INPUT CARD>H 1.0000000 4.9629037670 -0.3284654549 0.6683579888                             
 INPUT CARD> $END                                                                           
   30000000 WORDS OF MEMORY AVAILABLE

     BASIS OPTIONS
     -------------
     GBASIS=N21          IGAUSS=       3      POLAR=NONE    
     NDFUNC=       0     NFFUNC=       0     DIFFSP=       F
     NPFUNC=       0      DIFFS=       F     BASNAM=        


     RUN TITLE
     ---------
                                                                                 

 THE POINT GROUP OF THE MOLECULE IS C1      
 THE ORDER OF THE PRINCIPAL AXIS IS     0

 ATOM      ATOMIC                      COORDINATES (BOHR)
           CHARGE         X                   Y                   Z
 O           8.0    -6.8639915339       -2.1741395549        1.8280174416
 C           6.0    -4.8388712593       -1.0872204577        2.2619284749
 C           6.0    -3.7492873238        0.7435381131        0.3750183325
 H           1.0    -3.3114122471        2.5866948446        1.2141905827
 O           8.0    -5.5450455336        1.0460376184       -1.6923980356
 C           6.0    -1.2316632726       -0.2755545236       -0.7690563199
 H           1.0    -1.1800399569       -2.3391368013       -0.9120052285
 O           8.0    -1.0070484713        0.9490011306       -3.2399694569
 C           6.0     1.0350618359        0.7080473610        0.7378704581
 H           1.0     0.8424289102        0.2690385214        2.7498897577
 O           8.0     1.0920076635        3.4452066197        0.4316997774
 C           6.0     3.4717391073       -0.4787401952       -0.2241755347
 H           1.0     3.6040506776       -0.1921419538       -2.2753411382
 O           8.0     3.3402308150       -3.1490161845        0.4325113062
 C           6.0     5.7853657167        0.6726887987        1.0528929456
 O           8.0     7.8400389965       -1.0288172326        0.2710380133
 H           1.0    -3.7196780365       -1.4294534368        3.9776276127
 H           1.0    -6.8709319592       -0.2786777000       -1.3640349849
 H           1.0    -2.8299966148        1.1506702825       -3.7714264785
 H           1.0     0.5674311597        3.6084378335       -1.3949447051
 H           1.0     5.1490807640       -3.6958584614        0.3366984470
 H           1.0     6.0455311773        2.6260482307        0.4309886234
 H           1.0     5.5130712418        0.6304485141        3.1118066492
 H           1.0     9.3785282231       -0.6207097062        1.2630134605

          INTERNUCLEAR DISTANCES (ANGS.)
          ------------------------------

                1 O          2 C          3 C          4 H          5 O     

   1 O       0.0000000    1.2377301 *  2.3857287 *  3.1601740    2.6194266 *
   2 C       1.2377301 *  0.0000000    1.5059998 *  2.1772631 *  2.4068067 *
   3 C       2.3857287 *  1.5059998 *  0.0000000    1.0964536 *  1.4579255 *
   4 H       3.1601740    2.1772631 *  1.0964536 *  0.0000000    2.1041700 *
   5 O       2.6194266 *  2.4068067 *  1.4579255 *  2.1041700 *  0.0000000  
   6 C       3.4324208    2.5299776 *  1.5595822 *  2.1463403 *  2.4367697 *
   7 H       3.3402049    2.6473779 *  2.2301131 *  3.0549286    2.9521116 *
   8 O       4.4192568    3.7080166    2.4035500 *  2.7917134 *  2.5377241 *
   9 C       4.4868011    3.3488529    2.5391090 *  2.5183519 *  3.7162508  
  10 H       4.3058215    3.1016611    2.7470886 *  2.6450553 *  4.1376612  
  11 O       5.2070793    4.0670278    2.9339699 *  2.4099037 *  3.9000858  
  12 C       5.6479156    4.6016277    3.8885066    4.0118802    4.9011936  
  13 H       6.0415676    5.0941635    4.1657874    4.3547910    4.8953579  
  14 O       5.4744653    4.5673693    4.2800120    4.6661840    5.3197937  
  15 C       6.8734297    5.7345203    5.0583959    4.9199486    6.1724445  
  16 O       7.8479762    6.7916724    6.2043531    6.2235458    7.2425904  
  17 H       2.0537320 *  1.0990262 *  2.2264193 *  2.5887918 *  3.4134686  
  18 H       1.9645254 *  2.2407781 *  1.9667958 *  2.7764306 *  1.0069212 *
  19 H       4.0536928    3.5673418    2.2577865 *  2.7573286 *  1.8104358 *
  20 H       5.2666226    4.2548626    2.8971900 *  2.5321544 *  3.5108326  
  21 H       6.4562567    5.5568824    5.2623389    5.5957938    6.2828996  
  22 H       7.3257948    6.1623803    5.2781404    4.9688404    6.2913516  
  23 H       6.7499771    5.5710929    5.1112629    4.8873567    6.3838835  
  24 H       8.6395673    7.5461105    7.0001420    6.9264515    8.0987558  

                6 C          7 H          8 O          9 C         10 H     

   1 O       3.4324208    3.3402049    4.4192568    4.4868011    4.3058215  
   2 C       2.5299776 *  2.6473779 *  3.7080166    3.3488529    3.1016611  
   3 C       1.5595822 *  2.2301131 *  2.4035500 *  2.5391090 *  2.7470886 *
   4 H       2.1463403 *  3.0549286    2.7917134 *  2.5183519 *  2.6450553 *
   5 O       2.4367697 *  2.9521116 *  2.5377241 *  3.7162508    4.1376612  
   6 C       0.0000000    1.0949585 *  1.4641484 *  1.5315402 *  2.1806611 *
   7 H       1.0949585 *  0.0000000    2.1339163 *  2.1763341 *  2.6087115 *
   8 O       1.4641484 *  2.1339163 *  0.0000000    2.3695966 *  3.3368110  
   9 C       1.5315402 *  2.1763341 *  2.3695966 *  0.0000000    1.0945220 *
  10 H       2.1806611 *  2.6087115 *  3.3368110    1.0945220 *  0.0000000  
  11 O       2.4067575 *  3.3646008    2.5988063 *  1.4577872 *  2.0850079 *
  12 C       2.5078856 *  2.6760485 *  2.9554915 *  1.5219154 *  2.1376082 *
  13 H       2.6805834 *  2.8671346 *  2.5650063 *  2.1488434 *  3.0441350  
  14 O       2.9273960 *  2.5321271 *  3.7110268    2.3832952 *  2.5539234 *
  15 C       3.8690551    4.1481824    4.2545952    2.5193437 *  2.7737852 *
  16 O       4.8484011    4.8637796    5.1444601    3.7246841    3.9880338  
  17 H       2.9009682 *  2.9551503 *  4.2699428    3.2479797    2.6567141 *
  18 H       3.0007365    3.2117212    3.3220977    4.3603811    4.6350703  
  19 H       1.9517254 *  2.5421116 *  1.0104732 *  3.1515316    3.9878886  
  20 H       2.2891962 *  3.2902967    1.9047225 *  1.9211280 *  2.8204137 *
  21 H       3.8754807    3.4884673    4.4984798    3.1961814    3.3506219  
  22 H       4.1941083    4.6934643    4.2999453    2.8436917 *  3.2622853  
  23 H       4.1456363    4.4213143    4.8198287    2.6823683 *  2.4863730 *
  24 H       5.7196351    5.7766929    6.0474808    4.4794409    4.6092354  

               11 O         12 C         13 H         14 O         15 C     

   1 O       5.2070793    5.6479156    6.0415676    5.4744653    6.8734297  
   2 C       4.0670278    4.6016277    5.0941635    4.5673693    5.7345203  
   3 C       2.9339699 *  3.8885066    4.1657874    4.2800120    5.0583959  
   4 H       2.4099037 *  4.0118802    4.3547910    4.6661840    4.9199486  
   5 O       3.9000858    4.9011936    4.8953579    5.3197937    6.1724445  
   6 C       2.4067575 *  2.5078856 *  2.6805834 *  2.9273960 *  3.8690551  
   7 H       3.3646008    2.6760485 *  2.8671346 *  2.5321271 *  4.1481824  
   8 O       2.5988063 *  2.9554915 *  2.5650063 *  3.7110268    4.2545952  
   9 C       1.4577872 *  1.5219154 *  2.1488434 *  2.3832952 *  2.5193437 *
  10 H       2.0850079 *  2.1376082 *  3.0441350    2.5539234 *  2.7737852 *
  11 O       0.0000000    2.4531605 *  2.7429935 *  3.6867473    2.9032665 *
  12 C       2.4531605 *  0.0000000    1.0982086 *  1.4568151 *  1.5254227 *
  13 H       2.7429935 *  1.0982086 *  0.0000000    2.1262900 *  2.1549414 *
  14 O       3.6867473    1.4568151 *  2.1262900 *  0.0000000    2.4232035 *
  15 C       2.9032665 *  1.5254227 *  2.1549414 *  2.4232035 *  0.0000000  
  16 O       4.2853108    2.3445517 *  2.6526336 *  2.6336653 *  1.4710844 *
  17 H       4.0814709    4.4361180    5.1378604    4.2783926    5.3788709  
  18 H       4.7478845    5.5072620    5.5642485    5.6928815    6.8370133  
  19 H       3.2754868    3.9226936    3.5670778    4.5592882    5.2312856  
  20 H       1.0093916 *  2.7246580 *  2.6161146 *  3.9843638    3.4228145  
  21 H       4.3464648    1.9427296 *  2.4528891 *  1.0012720 *  2.3666708 *
  22 H       2.6568923 *  2.1620862 *  2.4380801 *  3.3747248    1.0934989 *
  23 H       3.1150359    2.1512284 *  3.0556206    2.7078271 *  1.0992445 *
  24 H       4.9042251    3.2241639    3.5909351    3.4918924    2.0239108 *

               16 O         17 H         18 H         19 H         20 H     

   1 O       7.8479762    2.0537320 *  1.9645254 *  4.0536928    5.2666226  
   2 C       6.7916724    1.0990262 *  2.2407781 *  3.5673418    4.2548626  
   3 C       6.2043531    2.2264193 *  1.9667958 *  2.2577865 *  2.8971900 *
   4 H       6.2235458    2.5887918 *  2.7764306 *  2.7573286 *  2.5321544 *
   5 O       7.2425904    3.4134686    1.0069212 *  1.8104358 *  3.5108326  
   6 C       4.8484011    2.9009682 *  3.0007365    1.9517254 *  2.2891962 *
   7 H       4.8637796    2.9551503 *  3.2117212    2.5421116 *  3.2902967  
   8 O       5.1444601    4.2699428    3.3220977    1.0104732 *  1.9047225 *
   9 C       3.7246841    3.2479797    4.3603811    3.1515316    1.9211280 *
  10 H       3.9880338    2.6567141 *  4.6350703    3.9878886    2.8204137 *
  11 O       4.2853108    4.0814709    4.7478845    3.2754868    1.0093916 *
  12 C       2.3445517 *  4.4361180    5.5072620    3.9226936    2.7246580 *
  13 H       2.6526336 *  5.1378604    5.5642485    3.5670778    2.6161146 *
  14 O       2.6336653 *  4.2783926    5.6928815    4.5592882    3.9843638  
  15 C       1.4710844 *  5.3788709    6.8370133    5.2312856    3.4228145  
  16 O       0.0000000    6.4274099    7.8427003    6.1471482    4.6486484  
  17 H       6.4274099    0.0000000    3.3379319    4.3475192    4.5096393  
  18 H       7.8427003    3.3379319    0.0000000    2.6014715 *  4.4413033  
  19 H       6.1471482    4.3475192    2.6014715 *  0.0000000    2.5505466 *
  20 H       4.6486484    4.5096393    4.4413033    2.5505466 *  0.0000000  
  21 H       2.0052031 *  5.2130765    6.6737271    5.3973798    4.6538377  
  22 H       2.1562842 *  5.9018105    7.0699063    5.2549200    3.0995833  
  23 H       2.1323879 *  5.0268079    6.9848030    5.7301934    3.8756078  
  24 H       0.9924742 *  7.0914925    8.7123747    7.0508068    5.3597548  

               21 H         22 H         23 H         24 H     

   1 O       6.4562567    7.3257948    6.7499771    8.6395673  
   2 C       5.5568824    6.1623803    5.5710929    7.5461105  
   3 C       5.2623389    5.2781404    5.1112629    7.0001420  
   4 H       5.5957938    4.9688404    4.8873567    6.9264515  
   5 O       6.2828996    6.2913516    6.3838835    8.0987558  
   6 C       3.8754807    4.1941083    4.1456363    5.7196351  
   7 H       3.4884673    4.6934643    4.4213143    5.7766929  
   8 O       4.4984798    4.2999453    4.8198287    6.0474808  
   9 C       3.1961814    2.8436917 *  2.6823683 *  4.4794409  
  10 H       3.3506219    3.2622853    2.4863730 *  4.6092354  
  11 O       4.3464648    2.6568923 *  3.1150359    4.9042251  
  12 C       1.9427296 *  2.1620862 *  2.1512284 *  3.2241639  
  13 H       2.4528891 *  2.4380801 *  3.0556206    3.5909351  
  14 O       1.0012720 *  3.3747248    2.7078271 *  3.4918924  
  15 C       2.3666708 *  1.0934989 *  1.0992445 *  2.0239108 *
  16 O       2.0052031 *  2.1562842 *  2.1323879 *  0.9924742 *
  17 H       5.2130765    5.9018105    5.0268079    7.0914925  
  18 H       6.6737271    7.0699063    6.9848030    8.7123747  
  19 H       5.3973798    5.2549200    5.7301934    7.0508068  
  20 H       4.6538377    3.0995833    3.8756078    5.3597548  
  21 H       0.0000000    3.3792440    2.7267085 *  2.8102663 *
  22 H       3.3792440    0.0000000    1.7908344 *  2.5013113 *
  23 H       2.7267085 *  1.7908344 *  0.0000000    2.3621225 *
  24 H       2.8102663 *  2.5013113 *  2.3621225 *  0.0000000  

  * ... LESS THAN  3.000


     ATOMIC BASIS SET
     ----------------
 THE CONTRACTED PRIMITIVE FUNCTIONS HAVE BEEN UNNORMALIZED
 THE CONTRACTED BASIS FUNCTIONS ARE NOW NORMALIZED TO UNITY

  SHELL TYPE  PRIMITIVE        EXPONENT          CONTRACTION COEFFICIENT(S)

 O         

      1   S       1           322.0370000    0.059239393389
      1   S       2            48.4308000    0.351499960776
      1   S       3            10.4206000    0.707657921031

      2   L       4             7.4029400   -0.404453583190    0.244586106967
      2   L       5             1.5762000    1.221561761397    0.853955373466

      3   L       6             0.3736840    1.000000000000    1.000000000000

 C         

      4   S       7           172.2560000    0.061766907377
      4   S       8            25.9109000    0.358794042852
      4   S       9             5.5333500    0.700713083689

      5   L      10             3.6649800   -0.395895162119    0.236459946619
      5   L      11             0.7705450    1.215834355681    0.860618805716

      6   L      12             0.1958570    1.000000000000    1.000000000000

 C         

      7   S      13           172.2560000    0.061766907377
      7   S      14            25.9109000    0.358794042852
      7   S      15             5.5333500    0.700713083689

      8   L      16             3.6649800   -0.395895162119    0.236459946619
      8   L      17             0.7705450    1.215834355681    0.860618805716

      9   L      18             0.1958570    1.000000000000    1.000000000000

 H         

     10   S      19             5.4471780    0.156284978695
     10   S      20             0.8245472    0.904690876670

     11   S      21             0.1831916    1.000000000000

 O         

     12   S      22           322.0370000    0.059239393389
     12   S      23            48.4308000    0.351499960776
     12   S      24            10.4206000    0.707657921031

     13   L      25             7.4029400   -0.404453583190    0.244586106967
     13   L      26             1.5762000    1.221561761397    0.853955373466

     14   L      27             0.3736840    1.000000000000    1.000000000000

 C         

     15   S      28           172.2560000    0.061766907377
     15   S      29            25.9109000    0.358794042852
     15   S      30             5.5333500    0.700713083689

     16   L      31             3.6649800   -0.395895162119    0.236459946619
     16   L      32             0.7705450    1.215834355681    0.860618805716

     17   L      33             0.1958570    1.000000000000    1.000000000000

 H         

     18   S      34             5.4471780    0.156284978695
     18   S      35             0.8245472    0.904690876670

     19   S      36             0.1831916    1.000000000000

 O         

     20   S      37           322.0370000    0.059239393389
     20   S      38            48.4308000    0.351499960776
     20   S      39            10.4206000    0.707657921031

     21   L      40             7.4029400   -0.404453583190    0.244586106967
     21   L      41             1.5762000    1.221561761397    0.853955373466

     22   L      42             0.3736840    1.000000000000    1.000000000000

 C         

     23   S      43           172.2560000    0.061766907377
     23   S      44            25.9109000    0.358794042852
     23   S      45             5.5333500    0.700713083689

     24   L      46             3.6649800   -0.395895162119    0.236459946619
     24   L      47             0.7705450    1.215834355681    0.860618805716

     25   L      48             0.1958570    1.000000000000    1.000000000000

 H         

     26   S      49             5.4471780    0.156284978695
     26   S      50             0.8245472    0.904690876670

     27   S      51             0.1831916    1.000000000000

 O         

     28   S      52           322.0370000    0.059239393389
     28   S      53            48.4308000    0.351499960776
     28   S      54            10.4206000    0.707657921031

     29   L      55             7.4029400   -0.404453583190    0.244586106967
     29   L      56             1.5762000    1.221561761397    0.853955373466

     30   L      57             0.3736840    1.000000000000    1.000000000000

 C         

     31   S      58           172.2560000    0.061766907377
     31   S      59            25.9109000    0.358794042852
     31   S      60             5.5333500    0.700713083689

     32   L      61             3.6649800   -0.395895162119    0.236459946619
     32   L      62             0.7705450    1.215834355681    0.860618805716

     33   L      63             0.1958570    1.000000000000    1.000000000000

 H         

     34   S      64             5.4471780    0.156284978695
     34   S      65             0.8245472    0.904690876670

     35   S      66             0.1831916    1.000000000000

 O         

     36   S      67           322.0370000    0.059239393389
     36   S      68            48.4308000    0.351499960776
     36   S      69            10.4206000    0.707657921031

     37   L      70             7.4029400   -0.404453583190    0.244586106967
     37   L      71             1.5762000    1.221561761397    0.853955373466

     38   L      72             0.3736840    1.000000000000    1.000000000000

 C         

     39   S      73           172.2560000    0.061766907377
     39   S      74            25.9109000    0.358794042852
     39   S      75             5.5333500    0.700713083689

     40   L      76             3.6649800   -0.395895162119    0.236459946619
     40   L      77             0.7705450    1.215834355681    0.860618805716

     41   L      78             0.1958570    1.000000000000    1.000000000000

 O         

     42   S      79           322.0370000    0.059239393389
     42   S      80            48.4308000    0.351499960776
     42   S      81            10.4206000    0.707657921031

     43   L      82             7.4029400   -0.404453583190    0.244586106967
     43   L      83             1.5762000    1.221561761397    0.853955373466

     44   L      84             0.3736840    1.000000000000    1.000000000000

 H         

     45   S      85             5.4471780    0.156284978695
     45   S      86             0.8245472    0.904690876670

     46   S      87             0.1831916    1.000000000000

 H         

     47   S      88             5.4471780    0.156284978695
     47   S      89             0.8245472    0.904690876670

     48   S      90             0.1831916    1.000000000000

 H         

     49   S      91             5.4471780    0.156284978695
     49   S      92             0.8245472    0.904690876670

     50   S      93             0.1831916    1.000000000000

 H         

     51   S      94             5.4471780    0.156284978695
     51   S      95             0.8245472    0.904690876670

     52   S      96             0.1831916    1.000000000000

 H         

     53   S      97             5.4471780    0.156284978695
     53   S      98             0.8245472    0.904690876670

     54   S      99             0.1831916    1.000000000000

 H         

     55   S     100             5.4471780    0.156284978695
     55   S     101             0.8245472    0.904690876670

     56   S     102             0.1831916    1.000000000000

 H         

     57   S     103             5.4471780    0.156284978695
     57   S     104             0.8245472    0.904690876670

     58   S     105             0.1831916    1.000000000000

 H         

     59   S     106             5.4471780    0.156284978695
     59   S     107             0.8245472    0.904690876670

     60   S     108             0.1831916    1.000000000000

 TOTAL NUMBER OF BASIS SET SHELLS             =   60
 NUMBER OF CARTESIAN GAUSSIAN BASIS FUNCTIONS =  132
 NUMBER OF ELECTRONS                          =   96
 CHARGE OF MOLECULE                           =    0
 SPIN MULTIPLICITY                            =    1
 NUMBER OF OCCUPIED ORBITALS (ALPHA)          =   48
 NUMBER OF OCCUPIED ORBITALS (BETA )          =   48
 TOTAL NUMBER OF ATOMS                        =   24
 THE NUCLEAR REPULSION ENERGY IS      784.0216010816

 SELECTED MURRAY-HANDY-LAMING RADIAL GRID

 LEGACY BECKE'S FUZZY CELL METHOD

 SELECTED ORIGINAL BECKE'S PARTITION FUNCTION

     LEBEDEV GRID-BASED DFT OPTIONS
     ------------------------------
     DFTTYP=B3LYP   
     NRAD  =      96     NLEB  =     302
     NRAD0 =      24     NLEB0 =     110
     SWOFF =    5.00E-03 (PURE SCF -> DFT)
     SWITCH=    3.00E-04 (COARSE -> TIGHT GRID)
     THRESH=    0.00E+00 GTHRE=    1.00E+00

 GRIMME'S EMPIRICAL DISPERSION CORRECTION= F

     $CONTRL OPTIONS
     ---------------
 SCFTYP=RHF          RUNTYP=ENERGY       EXETYP=RUN     
 MPLEVL=       0     CITYP =NONE         CCTYP =NONE         VBTYP =NONE    
 DFTTYP=B3LYP        TDDFT =NONE    
 MULT  =       1     ICHARG=       0     NZVAR =       0     COORD =UNIQUE  
 PP    =NONE         RELWFN=NONE         LOCAL =NONE         NUMGRD=       F
 ISPHER=      -1     NOSYM =       0     MAXIT =      60     UNITS =ANGS    
 PLTORB=       F     MOLPLT=       F     AIMPAC=       F     FRIEND=        
 NPRINT=       7     IREST =       0     GEOM  =INPUT   
 NORMF =       0     NORMP =       0     ITOL  =      20     ICUT  =       9
 INTTYP=BEST         GRDTYP=BEST         QMTTOL= 1.0E-06

     $SYSTEM OPTIONS
     ---------------
  REPLICATED MEMORY=    30000000 WORDS (ON EVERY NODE).
 DISTRIBUTED MEMDDI=        1000 MILLION WORDS IN AGGREGATE,
 MEMDDI DISTRIBUTED OVER   8 PROCESSORS IS   125000000 WORDS/PROCESSOR.
 TOTAL MEMORY REQUESTED ON EACH PROCESSOR=   155000000 WORDS.
 TIMLIM=      525600.00 MINUTES, OR     365.0 DAYS.
 PARALL= T  BALTYP=  DLB     KDIAG=    0  COREFL= F
 MXSEQ2=     300 MXSEQ3=     150  mem10=         0

     INPUT FOR POTENTIAL-DERIVED CHARGES 
     -----------------------------------
     VDWSCL=    1.40   RMAX=    3.00   DELR=    0.80
     VDWINC=    0.20 PTDENS=    0.28
     LAYER =       4  NFREQ=      30 MAXPDC=   10000
     CONSTR=CHARGE    UNITS=ANGS      PTSEL=GEODESIC
     CENTER=  0.0000  0.0000  0.0000
     DPOLE =  0.0000  0.0000  0.0000
     QPOLE =  0.0000  0.0000  0.0000  0.0000  0.0000  0.0000


          ----------------
          PROPERTIES INPUT
          ----------------

     MOMENTS            FIELD           POTENTIAL          DENSITY
 IEMOM =       1   IEFLD =       0   IEPOT =       1   IEDEN =       0
 WHERE =COMASS     WHERE =NUCLEI     WHERE =PDC        WHERE =NUCLEI  
 OUTPUT=BOTH       OUTPUT=BOTH       OUTPUT=BOTH       OUTPUT=BOTH    
 IEMINT=       0   IEFINT=       0                     IEDINT=       0
                                                       MORB  =       0
          EXTRAPOLATION IN EFFECT
          DIIS IN EFFECT
 ORBITAL PRINTING OPTION: NPREO=     1   132     2     1

     -------------------------------
     INTEGRAL TRANSFORMATION OPTIONS
     -------------------------------
     NWORD  =            0
     CUTOFF = 1.0E-09     MPTRAN =       0
     DIRTRF =       T     AOINTS =DUP     

          ----------------------
          INTEGRAL INPUT OPTIONS
          ----------------------
 NOPK  =       1 NORDER=       0 SCHWRZ=       T

     ------------------------------------------
     THE POINT GROUP IS C1 , NAXIS= 0, ORDER= 1
     ------------------------------------------

     DIMENSIONS OF THE SYMMETRY SUBSPACES ARE
 A   =  132

 ..... DONE SETTING UP THE RUN .....
 CPU     0: STEP CPU TIME=     0.02 TOTAL CPU TIME=          0.0 (      0.0 MIN)
 TOTAL WALL CLOCK TIME=          0.0 SECONDS, CPU UTILIZATION IS    66.67%

          ********************
          1 ELECTRON INTEGRALS
          ********************
 ...... END OF ONE-ELECTRON INTEGRALS ......
 CPU     0: STEP CPU TIME=     0.01 TOTAL CPU TIME=          0.0 (      0.0 MIN)
 TOTAL WALL CLOCK TIME=          0.0 SECONDS, CPU UTILIZATION IS    60.00%

          -------------
          GUESS OPTIONS
          -------------
          GUESS =HUCKEL            NORB  =       0          NORDER=       0
          MIX   =       F          PRTMO =       F          PUNMO =       F
          TOLZ  = 1.0E-08          TOLE  = 1.0E-05
          SYMDEN=       F          PURIFY=       F

 INITIAL GUESS ORBITALS GENERATED BY HUCKEL   ROUTINE.
 HUCKEL GUESS REQUIRES    164928 WORDS.

 SYMMETRIES FOR INITIAL GUESS ORBITALS FOLLOW.   BOTH SET(S).
    48 ORBITALS ARE OCCUPIED (   12 CORE ORBITALS).
    13=A       14=A       15=A       16=A       17=A       18=A       19=A   
    20=A       21=A       22=A       23=A       24=A       25=A       26=A   
    27=A       28=A       29=A       30=A       31=A       32=A       33=A   
    34=A       35=A       36=A       37=A       38=A       39=A       40=A   
    41=A       42=A       43=A       44=A       45=A       46=A       47=A   
    48=A       49=A       50=A       51=A       52=A       53=A       54=A   
    55=A       56=A       57=A       58=A   
 ...... END OF INITIAL ORBITAL SELECTION ......
 CPU     0: STEP CPU TIME=     0.04 TOTAL CPU TIME=          0.1 (      0.0 MIN)
 TOTAL WALL CLOCK TIME=          0.1 SECONDS, CPU UTILIZATION IS    70.00%

                    ----------------------
                    AO INTEGRAL TECHNOLOGY
                    ----------------------
     S,P,L SHELL ROTATED AXIS INTEGRALS, REPROGRAMMED BY
        KAZUYA ISHIMURA (IMS) AND JOSE SIERRA (SYNSTAR).
     S,P,D,L SHELL ROTATED AXIS INTEGRALS PROGRAMMED BY
        KAZUYA ISHIMURA (INSTITUTE FOR MOLECULAR SCIENCE).
     S,P,D,F,G SHELL TO TOTAL QUARTET ANGULAR MOMENTUM SUM 5,
        ERIC PROGRAM BY GRAHAM FLETCHER (ELORET AND NASA ADVANCED
        SUPERCOMPUTING DIVISION, AMES RESEARCH CENTER).
     S,P,D,F,G,L SHELL GENERAL RYS QUADRATURE PROGRAMMED BY
        MICHEL DUPUIS (PACIFIC NORTHWEST NATIONAL LABORATORY).

          --------------------
          2 ELECTRON INTEGRALS
          --------------------

 DIRECT SCF METHOD SKIPS INTEGRAL STORAGE ON DISK.
 DIRECT TRANSFORMATION SKIPS AO INTEGRAL STORAGE ON DISK.
  ...... END OF TWO-ELECTRON INTEGRALS .....
 CPU     0: STEP CPU TIME=     0.01 TOTAL CPU TIME=          0.1 (      0.0 MIN)
 TOTAL WALL CLOCK TIME=          0.1 SECONDS, CPU UTILIZATION IS    72.73%

          --------------------------
             R-B3LYP SCF CALCULATION
          --------------------------

     NUCLEAR ENERGY =       784.0216010816
     MAXIT =   60     NPUNCH=    2
     EXTRAP=T  DAMP=F  SHIFT=F  RSTRCT=F  DIIS=T  DEM=F  SOSCF=F
         DENSITY MATRIX CONVERGENCE THRESHOLD=  2.00E-05
     COARSE -> FINE DFT GRID SWITCH THRESHOLD=  3.00E-04 (SWITCH IN $DFT)
                   HF -> DFT SWITCH THRESHOLD=  5.00E-03 (SWOFF IN $DFT)
     MEMORY REQUIRED FOR RHF ITERS=    955663 WORDS.

 DIRECT SCF CALCULATION, SCHWRZ=T   FDIFF=T,  DIRTHR=  0.00E+00 NITDIR=10
 SCHWARZ INEQUALITY OVERHEAD:      7804 INTEGRALS, T=        0.01

 DFT CODE IS SWITCHING FROM THE FINE GRID NRAD= 96,  NLEB=  302
                      TO THE COARSE GRID NRAD0= 24, NLEB0=  110

     EXCHANGE FUNCTIONAL   =B88&HFX   
     CORRELATION FUNCTIONAL=LYP88&VWN5
     DFT THRESHOLD         =.575E-08
     GRID CHANGE THRESHOLD =.300E-03
 FOR AN EULER-MACLAURIN QUADRATURE USING  96 RADIAL POINTS:
 SMALLEST GAUSSIAN PRIMITIVE EXPONENT=        0.1831915800 OF TYPE -S-
 ON ATOM NUMBER   4 HAS RADIAL NORMALIZATION=  1.000000
  LARGEST GAUSSIAN PRIMITIVE EXPONENT=      322.0370000000 OF TYPE -S-
 ON ATOM NUMBER   1 HAS RADIAL NORMALIZATION=  1.000000
 DFT IS SWITCHED OFF, PERFORMING PURE SCF UNTIL SWOFF THRESHOLD IS REACHED.

                                                                                   NONZERO     BLOCKS
 ITER EX DEM     TOTAL ENERGY        E CHANGE  DENSITY CHANGE    DIIS ERROR      INTEGRALS    SKIPPED
   1  0  0     -677.6143588351  -677.6143588351   0.834209534   0.642802918       18198402     944248
          * * *   INITIATING DIIS PROCEDURE   * * *
   2  1  0     -679.3708741348    -1.7565152997   0.132633565   0.189551757       18169059     957122
   3  2  0     -679.4692194302    -0.0983452954   0.121175351   0.148620551       17961560     997180
   4  3  0     -679.5161820409    -0.0469626108   0.026799348   0.025874913       17662536    1031746
   5  4  0     -679.5192603873    -0.0030783463   0.004351315   0.005535431       17280841    1057858
 CONVERGED TO SWOFF, SO DFT CALCULATION IS NOW SWITCHED ON.
          * * *   INITIATING DIIS PROCEDURE   * * *
   6  5  0     -682.9351582670    -3.4158978797   0.139731187   0.063048312       18216412     935742
   7  6  0     -682.9856696922    -0.0505114253   0.132196244   0.063164695       18042136     986604
   8  7  0     -682.9785432259     0.0071264663   0.077432393   0.109138310       17786263    1017218
   9  8  0     -682.9979045066    -0.0193612807   0.012040005   0.027504961       17513551    1043818
  10  9  0     -682.9990952209    -0.0011907144   0.002875758   0.005045473       16827013    1085267
  11 10  0     -682.9991538415    -0.0000586206   0.000602157   0.000566192       15882770    1136180
  12 11  0     -682.9991560598    -0.0000022183   0.000168544   0.000151504       14899674    1175092
 DFT CODE IS SWITCHING BACK TO THE FINE GRID
          * * *   INITIATING DIIS PROCEDURE   * * *
  13 12  0     -683.0005746417    -0.0014185819   0.002086485   0.000874175       18223862     931482
  14 13  0     -683.0006147947    -0.0000401531   0.001601012   0.000444453       16407767    1110083
  15 14  0     -683.0006148097    -0.0000000149   0.000614617   0.000662364       15365843    1157203
  16 15  0     -683.0006179315    -0.0000031218   0.000311240   0.000340616       14795163    1182974
  17 16  0     -683.0006181020    -0.0000001706   0.000067186   0.000162280       13468661    1240461
  18 17  0     -683.0006181381    -0.0000000361   0.000010620   0.000015150       12478006    1282676
  19 18  0     -683.0006181396    -0.0000000015   0.000003969   0.000005407       11337489    1323635

          -----------------
          DENSITY CONVERGED
          -----------------
     TIME TO FORM FOCK OPERATORS=      25.0 SECONDS (       1.3 SEC/ITER)
     FOCK TIME ON FIRST ITERATION=       0.2, LAST ITERATION=       2.8
     TIME TO SOLVE SCF EQUATIONS=       0.4 SECONDS (       0.0 SEC/ITER)

 FINAL R-B3LYP ENERGY IS     -683.0006181396 AFTER  19 ITERATIONS
 DFT EXCHANGE + CORRELATION ENERGY =       -71.0976568600
 TOTAL ELECTRON NUMBER             =        96.0001021325

          ------------
          EIGENVECTORS
          ------------

                      1          2          3          4          5
                  -19.0790   -19.0544   -19.0407   -19.0353   -19.0188
                     A          A          A          A          A   
    1  O  1  S    0.982646   0.005161  -0.000194   0.000986   0.000530
    2  O  1  S    0.106370  -0.000184   0.000019  -0.000080  -0.000087
    3  O  1  X    0.003850  -0.000131  -0.000009   0.000052  -0.000029
    4  O  1  Y    0.002293   0.000059  -0.000000  -0.000073   0.000036
    5  O  1  Z    0.000434  -0.000272  -0.000002  -0.000077  -0.000011
    6  O  1  S   -0.058703   0.004982  -0.000215   0.000802   0.000554
    7  O  1  X   -0.013587   0.001951  -0.000019  -0.000181   0.000214
    8  O  1  Y   -0.008199   0.000773  -0.000038   0.000370  -0.000140
    9  O  1  Z   -0.001352   0.000753   0.000028   0.000390   0.000087
   10  C  2  S   -0.000021   0.000212   0.000008  -0.000128  -0.000024
   11  C  2  S    0.000084   0.000416   0.000084  -0.000917  -0.000084
   12  C  2  X   -0.001797  -0.000337   0.000029  -0.000426   0.000107
   13  C  2  Y   -0.001358  -0.000497   0.000006   0.000064   0.000008
   14  C  2  Z    0.000280   0.000387   0.000011   0.000063  -0.000145
   15  C  2  S    0.022665  -0.008575  -0.000159   0.001780   0.001802
   16  C  2  X   -0.020224   0.005713  -0.000361   0.002645   0.000814
   17  C  2  Y   -0.006759  -0.000271  -0.000055  -0.000160   0.001428
   18  C  2  Z   -0.011569   0.008317  -0.000371  -0.000702  -0.000254
   19  C  3  S    0.000245  -0.001119   0.000025   0.000325   0.000091
   20  C  3  S    0.000891  -0.004909   0.000073   0.001222   0.000862
   21  C  3  X   -0.000457  -0.000406  -0.000211  -0.000683   0.000288
   22  C  3  Y   -0.000056   0.000886  -0.000007   0.000201  -0.000168
   23  C  3  Z   -0.000909  -0.000874  -0.000043   0.000427   0.000324
   24  C  3  S   -0.005179   0.027026  -0.001358  -0.009960  -0.001676
   25  C  3  X    0.010585  -0.011697   0.000156  -0.003165   0.000000
   26  C  3  Y    0.004934  -0.005724   0.000303  -0.000616   0.001235
   27  C  3  Z    0.006328  -0.012060   0.000809   0.003480  -0.003306
   28  H  4  S   -0.000979  -0.000550  -0.000080   0.000896  -0.000331
   29  H  4  S   -0.002073   0.000728   0.000119   0.000336   0.000904
   30  O  5  S   -0.005379   0.982572   0.002046  -0.004437  -0.000443
   31  O  5  S   -0.001344   0.105946   0.000084  -0.000214   0.000051
   32  O  5  X   -0.000443   0.000809  -0.000015   0.000160  -0.000015
   33  O  5  Y   -0.000175  -0.002242   0.000006  -0.000105   0.000077
   34  O  5  Z   -0.000097   0.002713  -0.000016  -0.000423   0.000053
   35  O  5  S    0.004834  -0.053938   0.000489   0.000531  -0.000744
   36  O  5  X    0.002964  -0.004780   0.000200  -0.000223  -0.000221
   37  O  5  Y    0.000301   0.005554  -0.000070   0.000274  -0.000277
   38  O  5  Z    0.001870  -0.009198   0.000205   0.001986  -0.000327
   39  C  6  S   -0.000010   0.000321  -0.000045  -0.001144   0.000204
   40  C  6  S   -0.000028   0.001344  -0.000296  -0.005233   0.000605
   41  C  6  X   -0.000036   0.000281   0.000230  -0.000201  -0.000933
   42  C  6  Y    0.000401  -0.000369  -0.000087  -0.000162  -0.000319
   43  C  6  Z    0.000028  -0.000115  -0.000071  -0.001555  -0.000826
   44  C  6  S   -0.000454  -0.008693   0.002473   0.026045  -0.006474
   45  C  6  X   -0.001429   0.005642  -0.000642   0.000445  -0.000940
   46  C  6  Y   -0.003908  -0.000279   0.001121   0.012548  -0.005460
   47  C  6  Z   -0.001323   0.001451   0.001104  -0.009490   0.002482
   48  H  7  S   -0.000084   0.000776   0.000066  -0.000793  -0.000444
   49  H  7  S   -0.002747   0.000723   0.000170   0.001161  -0.000518
   50  O  8  S   -0.001048   0.004466   0.000445   0.982534  -0.004456
   51  O  8  S   -0.000295   0.000765   0.000063   0.105620  -0.000345
   52  O  8  X    0.000040  -0.000172  -0.000011  -0.002608   0.000553
   53  O  8  Y   -0.000075   0.000233   0.000039  -0.000931   0.000406
   54  O  8  Z   -0.000127  -0.000179   0.000023   0.002455   0.000228
   55  O  8  S    0.000607  -0.000675  -0.000092  -0.052547   0.001759
   56  O  8  X   -0.000062   0.000782   0.000115   0.006087  -0.002178
   57  O  8  Y    0.000398  -0.001155  -0.000163   0.003443  -0.001848
   58  O  8  Z    0.000649   0.001294  -0.000133  -0.009208   0.000060
   59  C  9  S    0.000023  -0.000064  -0.000177   0.000216  -0.001049
   60  C  9  S    0.000299  -0.000486  -0.001081   0.000662  -0.004679
   61  C  9  X   -0.000420   0.000876  -0.000556   0.000849   0.000198
   62  C  9  Y    0.000227  -0.000173  -0.000194   0.000508   0.001377
   63  C  9  Z    0.000094  -0.000275  -0.000164   0.000519   0.000488
   64  C  9  S    0.001394  -0.001176   0.004071  -0.006927   0.023390
   65  C  9  X    0.001707  -0.005245   0.005209   0.002359  -0.000185
   66  C  9  Y   -0.001634   0.002327   0.000432  -0.004690   0.014183
   67  C  9  Z   -0.002102   0.002001   0.001032   0.004660  -0.007423
   68  H 10  S   -0.000098  -0.000506  -0.000540  -0.000487  -0.000832
   69  H 10  S    0.001491  -0.000421  -0.000272  -0.000247   0.000690
   70  O 11  S   -0.000575   0.000491   0.001099   0.004437   0.982534
   71  O 11  S   -0.000226   0.000170   0.000278   0.000615   0.105434
   72  O 11  X   -0.000007  -0.000044  -0.000025  -0.000259  -0.000786
   73  O 11  Y    0.000035  -0.000043  -0.000044   0.000148  -0.003273
   74  O 11  Z   -0.000031   0.000137   0.000069  -0.000327  -0.002041
   75  O 11  S    0.000748  -0.000737  -0.000977   0.000743  -0.052187
   76  O 11  X   -0.000205   0.000521  -0.000312   0.000912   0.001829
   77  O 11  Y   -0.000329   0.000471   0.000600  -0.001740   0.011202
   78  O 11  Z    0.000254  -0.000656  -0.000361   0.001477   0.004271
   79  C 12  S    0.000080  -0.000120   0.000361   0.000101   0.000157
   80  C 12  S    0.000473  -0.000676   0.001612   0.000791   0.000331
   81  C 12  X    0.000016  -0.000262  -0.000655  -0.000382   0.000498
   82  C 12  Y   -0.000016  -0.000057   0.000003  -0.000141  -0.000185
   83  C 12  Z    0.000080  -0.000144   0.000141   0.000113  -0.000577
   84  C 12  S   -0.002937   0.005299  -0.011948  -0.001478  -0.004583
   85  C 12  X    0.001160  -0.000645  -0.002736   0.001558   0.001833
   86  C 12  Y   -0.000362   0.001495  -0.001301   0.002854  -0.005414
   87  C 12  Z   -0.000804   0.001958  -0.004216  -0.001476   0.003284
   88  H 13  S    0.000089  -0.000081   0.000532  -0.000333   0.001078
   89  H 13  S   -0.000092   0.000260  -0.001062  -0.000165   0.001133
   90  O 14  S   -0.000263   0.000290   0.003073  -0.003630   0.000400
   91  O 14  S   -0.000121   0.000103   0.000608  -0.000841   0.000165
   92  O 14  X    0.000025  -0.000019   0.000231   0.000030   0.000368
   93  O 14  Y    0.000014  -0.000001  -0.000130  -0.000096  -0.000138
   94  O 14  Z    0.000021   0.000031   0.000059   0.000060  -0.000094
   95  O 14  S    0.000438  -0.000344  -0.000336   0.002090  -0.001454
   96  O 14  X   -0.000111   0.000019  -0.000894  -0.000155  -0.001479
   97  O 14  Y    0.000162  -0.000201   0.001272   0.000979  -0.000087
   98  O 14  Z   -0.000062  -0.000164  -0.000110  -0.000337   0.000335
   99  C 15  S   -0.000025   0.000049  -0.000931   0.000009   0.000050
  100  C 15  S   -0.000131   0.000194  -0.003803   0.000069   0.000411
  101  C 15  X   -0.000019   0.000152   0.001346  -0.000048  -0.000079
  102  C 15  Y   -0.000001  -0.000002  -0.000763   0.000029  -0.000144
  103  C 15  Z   -0.000053   0.000046  -0.000291  -0.000125   0.000241
  104  C 15  S    0.000701  -0.001955   0.022001  -0.000507  -0.000845
  105  C 15  X   -0.000347   0.000533   0.004240   0.000399   0.000186
  106  C 15  Y   -0.000167   0.000703  -0.008846  -0.000538   0.001112
  107  C 15  Z    0.000253   0.000282  -0.003984   0.001334  -0.002162
  108  O 16  S    0.000216  -0.002081   0.982424  -0.000425  -0.001065
  109  O 16  S    0.000057  -0.000350   0.104537  -0.000033  -0.000030
  110  O 16  X   -0.000029   0.000046  -0.000463   0.000009  -0.000081
  111  O 16  Y   -0.000011  -0.000011   0.002446  -0.000021   0.000027
  112  O 16  Z   -0.000005   0.000006   0.002444   0.000041  -0.000139
  113  O 16  S   -0.000098   0.000574  -0.048346  -0.000031  -0.000102
  114  O 16  X    0.000142  -0.000323   0.003679  -0.000024   0.000309
  115  O 16  Y    0.000040   0.000101  -0.006668   0.000083  -0.000118
  116  O 16  Z    0.000006   0.000010  -0.005650  -0.000212   0.000594
  117  H 17  S    0.000598  -0.000908   0.000043  -0.000429  -0.000184
  118  H 17  S    0.005026  -0.002656   0.000328  -0.000474   0.000059
  119  H 18  S   -0.000869   0.003198  -0.000048   0.000079  -0.000039
  120  H 18  S    0.002981   0.006322   0.000107  -0.000219  -0.000086
  121  H 19  S   -0.000041  -0.000628   0.000011   0.003306  -0.000382
  122  H 19  S    0.000232   0.003949   0.000071   0.006581  -0.000608
  123  H 20  S    0.000110   0.000008  -0.000100  -0.000540   0.003158
  124  H 20  S   -0.000009  -0.000443  -0.000028   0.003610   0.006448
  125  H 21  S   -0.000009   0.000002  -0.000603  -0.000101   0.000461
  126  H 21  S   -0.000016   0.000094   0.002734   0.000331  -0.000151
  127  H 22  S   -0.000024   0.000053  -0.001147   0.000226  -0.000569
  128  H 22  S    0.000065  -0.000116  -0.000321   0.000197   0.000254
  129  H 23  S   -0.000047   0.000067  -0.001319  -0.000032   0.000514
  130  H 23  S   -0.000324   0.000192  -0.001749  -0.000805   0.000751
  131  H 24  S   -0.000034   0.000009   0.003041   0.000052  -0.000177
  132  H 24  S    0.000005   0.000026   0.005614  -0.000075   0.000007

                      6          7          8          9         10
                  -19.0085   -10.2426   -10.1953   -10.1842   -10.1721
                     A          A          A          A          A   
    1  O  1  S    0.000244   0.000317   0.000045   0.000008   0.000034
    2  O  1  S   -0.000049   0.001008   0.000058   0.000035   0.000315
    3  O  1  X   -0.000028  -0.000823  -0.000294   0.000084   0.000001
    4  O  1  Y    0.000013  -0.000426  -0.000044  -0.000055   0.000022
    5  O  1  Z    0.000024  -0.000002  -0.000251  -0.000157   0.000069
    6  O  1  S    0.000247  -0.001589  -0.002128  -0.000243  -0.001391
    7  O  1  X    0.000161  -0.003887  -0.000542  -0.000547  -0.000214
    8  O  1  Y   -0.000027  -0.001950  -0.001452  -0.000154  -0.000165
    9  O  1  Z   -0.000097  -0.001868   0.002260   0.000635  -0.000413
   10  C  2  S    0.000019   0.985311   0.008192   0.004325  -0.000606
   11  C  2  S    0.000171   0.105504  -0.002348  -0.001739   0.000447
   12  C  2  X    0.000114  -0.000470   0.000318  -0.000885   0.000168
   13  C  2  Y   -0.000002  -0.000417  -0.000160  -0.000414   0.000079
   14  C  2  Z   -0.000132  -0.000679   0.000186   0.000530  -0.000056
   15  C  2  S    0.000105  -0.059500   0.029571   0.007524  -0.001444
   16  C  2  X    0.000041  -0.011855   0.005738   0.001622  -0.002227
   17  C  2  Y    0.000317  -0.008170   0.011039   0.003151  -0.001470
   18  C  2  Z    0.000295   0.002263  -0.015935  -0.003103   0.001297
   19  C  3  S    0.000010  -0.008699   0.986599   0.031280   0.007700
   20  C  3  S    0.000150  -0.002354   0.117126   0.000280  -0.000185
   21  C  3  X    0.000099   0.000095   0.000531   0.000696  -0.001010
   22  C  3  Y   -0.000123   0.000390  -0.001162  -0.000607   0.000368
   23  C  3  Z    0.000045  -0.000730   0.000125   0.000048  -0.000015
   24  C  3  S   -0.000168   0.013028  -0.110977   0.023533   0.000546
   25  C  3  X   -0.000391  -0.004400  -0.005462   0.016894   0.000499
   26  C  3  Y    0.001048  -0.004791   0.014114   0.001900  -0.003155
   27  C  3  Z   -0.000631   0.011568  -0.002212  -0.009664   0.001147
   28  H  4  S    0.000039  -0.001607   0.000503  -0.001936  -0.000474
   29  H  4  S   -0.000689   0.001383   0.015434  -0.002442   0.002525
   30  O  5  S   -0.000293  -0.000037  -0.000216   0.000056  -0.000035
   31  O  5  S    0.000042  -0.000524  -0.001201   0.000210  -0.000339
   32  O  5  X   -0.000007  -0.000307   0.000108  -0.000024  -0.000129
   33  O  5  Y    0.000046   0.000157  -0.000019   0.000312   0.000087
   34  O  5  Z    0.000003  -0.000413   0.000294  -0.000225  -0.000066
   35  O  5  S   -0.000371   0.001033   0.011637  -0.002004   0.001133
   36  O  5  X   -0.000092   0.001687   0.003894  -0.001909   0.000693
   37  O  5  Y   -0.000191  -0.000155  -0.001275  -0.001009  -0.000156
   38  O  5  Z   -0.000098   0.000975   0.003476   0.000456   0.000412
   39  C  6  S    0.000167  -0.004503  -0.032707   0.986060   0.034648
   40  C  6  S    0.001145  -0.002670  -0.007248   0.117356   0.000566
   41  C  6  X    0.000290   0.001293  -0.000125  -0.000019   0.000750
   42  C  6  Y    0.000145   0.000399   0.000032   0.001563  -0.000152
   43  C  6  Z   -0.000264  -0.001145   0.000495   0.000668   0.000026
   44  C  6  S   -0.003798   0.006110   0.030783  -0.110183   0.024583
   45  C  6  X   -0.001961  -0.004971  -0.018242  -0.003146   0.013099
   46  C  6  Y   -0.002281  -0.000698   0.002631  -0.015853   0.006232
   47  C  6  Z    0.002130   0.005769   0.004635  -0.009294   0.007584
   48  H  7  S   -0.000360  -0.001548  -0.001649  -0.000223  -0.001430
   49  H  7  S    0.000357   0.001576  -0.002143   0.013091   0.001708
   50  O  8  S    0.003510  -0.000062   0.000054  -0.000277   0.000032
   51  O  8  S   -0.000096  -0.000602   0.000099  -0.001624  -0.000130
   52  O  8  X   -0.000010  -0.000073   0.000023  -0.000219  -0.000545
   53  O  8  Y    0.000115   0.000024  -0.000111  -0.000167   0.000066
   54  O  8  Z   -0.000055  -0.000253  -0.000434   0.000199  -0.000673
   55  O  8  S    0.001964   0.002279  -0.002384   0.014060  -0.001512
   56  O  8  X    0.000032   0.000448   0.001277   0.000577   0.001554
   57  O  8  Y   -0.000741  -0.000437   0.000789  -0.001783  -0.000095
   58  O  8  Z    0.000930   0.001409  -0.000081   0.006345   0.000884
   59  C  9  S    0.000141   0.001018  -0.006885  -0.036492   0.984837
   60  C  9  S    0.000250   0.000888  -0.001922  -0.008286   0.116630
   61  C  9  X   -0.000482  -0.000470   0.001429  -0.000240  -0.000034
   62  C  9  Y    0.000255  -0.000078   0.000060  -0.000194  -0.000446
   63  C  9  Z    0.000603   0.000222  -0.000100   0.000118  -0.000966
   64  C  9  S   -0.004903  -0.002496   0.000479   0.035606  -0.108479
   65  C  9  X   -0.003991   0.003909  -0.005692  -0.017260  -0.002397
   66  C  9  Y    0.004916   0.001020   0.002302  -0.002623   0.007432
   67  C  9  Z   -0.004144  -0.002235   0.000892  -0.011285   0.010880
   68  H 10  S    0.000927   0.000694  -0.000304  -0.001397   0.000361
   69  H 10  S    0.001988   0.001002  -0.000821   0.000575   0.016284
   70  O 11  S   -0.000336   0.000000   0.000072   0.000067  -0.000220
   71  O 11  S    0.000070   0.000011   0.000725   0.000098  -0.001278
   72  O 11  X   -0.000279   0.000098  -0.000407   0.000339  -0.000202
   73  O 11  Y    0.000135   0.000030  -0.000132   0.000523  -0.000259
   74  O 11  Z   -0.000021  -0.000046   0.000144   0.000224  -0.000059
   75  O 11  S   -0.001357  -0.000186  -0.002028  -0.003576   0.011827
   76  O 11  X    0.001168  -0.000605   0.001865  -0.000120   0.000818
   77  O 11  Y    0.000059  -0.000120   0.000977   0.000657  -0.005465
   78  O 11  Z    0.000245   0.000299  -0.000663  -0.000303   0.000466
   79  C 12  S   -0.001081   0.000023  -0.003292  -0.004722  -0.037644
   80  C 12  S   -0.004940   0.000048  -0.001662  -0.001159  -0.007987
   81  C 12  X    0.000108   0.000303   0.000561   0.001281  -0.000197
   82  C 12  Y   -0.001514   0.000067   0.000125   0.000157  -0.000250
   83  C 12  Z   -0.000371   0.000081   0.000135   0.000065   0.000033
   84  C 12  S    0.024481  -0.001920   0.005544  -0.002326   0.032809
   85  C 12  X   -0.001249  -0.001119  -0.005598  -0.003384  -0.015922
   86  C 12  Y   -0.012297  -0.001732  -0.000419  -0.003482   0.008854
   87  C 12  Z    0.008835  -0.000589   0.000229   0.000501   0.003009
   88  H 13  S   -0.000985  -0.000036  -0.000609  -0.000071  -0.002014
   89  H 13  S    0.000911   0.000214   0.000441   0.001057  -0.000947
   90  O 14  S    0.982520   0.000015   0.000033   0.000070   0.000021
   91  O 14  S    0.105334   0.000143   0.000226   0.000703  -0.000194
   92  O 14  X    0.002662  -0.000068   0.000028  -0.000345   0.000441
   93  O 14  Y    0.002631   0.000016   0.000039   0.000165  -0.000597
   94  O 14  Z   -0.000973  -0.000061  -0.000011  -0.000049  -0.000120
   95  O 14  S   -0.051837  -0.000564  -0.001257  -0.002299  -0.001065
   96  O 14  X   -0.005906   0.000300   0.000179   0.001570  -0.000905
   97  O 14  Y   -0.009716  -0.000223  -0.000677  -0.001172   0.000784
   98  O 14  Z    0.002697   0.000291   0.000218   0.000373   0.000427
   99  C 15  S    0.000175  -0.000000  -0.001392  -0.007111  -0.043393
  100  C 15  S    0.000402  -0.000096  -0.000520  -0.002091  -0.005987
  101  C 15  X    0.000909  -0.000141   0.000043   0.000343   0.001027
  102  C 15  Y    0.000498  -0.000000   0.000006  -0.000194  -0.000187
  103  C 15  Z    0.000475  -0.000000   0.000036   0.000003  -0.000020
  104  C 15  S   -0.005751   0.001511   0.002158   0.005841   0.003700
  105  C 15  X    0.001104  -0.000190  -0.000661  -0.003797  -0.001005
  106  C 15  Y    0.004073  -0.000417  -0.000399   0.000908   0.001092
  107  C 15  Z   -0.001902  -0.000700  -0.000959  -0.001432   0.001539
  108  O 16  S   -0.003045   0.000011   0.000002  -0.000014  -0.000048
  109  O 16  S   -0.000026   0.000088  -0.000014  -0.000151  -0.000524
  110  O 16  X   -0.000385  -0.000007   0.000081   0.000036   0.000399
  111  O 16  Y   -0.000297   0.000025   0.000022  -0.000034  -0.000063
  112  O 16  Z   -0.000351  -0.000003   0.000038  -0.000032   0.000188
  113  O 16  S    0.000338  -0.000393  -0.000132   0.000545   0.001371
  114  O 16  X    0.001119   0.000146  -0.000234  -0.000133  -0.001803
  115  O 16  Y    0.001307  -0.000175  -0.000151   0.000176   0.000267
  116  O 16  Z    0.001450  -0.000008  -0.000148   0.000227  -0.000736
  117  H 17  S    0.000017  -0.001703  -0.001106  -0.000418   0.000666
  118  H 17  S   -0.000163   0.015046   0.003560   0.000124  -0.001414
  119  H 18  S   -0.000002  -0.000486  -0.000826  -0.000452  -0.000215
  120  H 18  S   -0.000051   0.002448   0.003343   0.000106   0.000323
  121  H 19  S   -0.000094   0.000001  -0.000084  -0.000454   0.000723
  122  H 19  S    0.000318   0.001025   0.001494   0.003162   0.001326
  123  H 20  S   -0.000204  -0.000040   0.000376  -0.000561  -0.000175
  124  H 20  S    0.000611   0.000289  -0.001200   0.001948   0.003562
  125  H 21  S    0.003265  -0.000009   0.000103  -0.000218   0.000619
  126  H 21  S    0.006348  -0.000213   0.000025  -0.000562   0.001440
  127  H 22  S   -0.000456  -0.000049  -0.000069  -0.000567  -0.000152
  128  H 22  S   -0.000228  -0.000067  -0.000244  -0.000912  -0.001198
  129  H 23  S    0.000766   0.000020  -0.000118  -0.000586  -0.000204
  130  H 23  S    0.001014   0.000080   0.000400   0.000616  -0.002141
  131  H 24  S   -0.000601   0.000027   0.000111  -0.000137   0.000356
  132  H 24  S   -0.000309  -0.000027   0.000102   0.000481   0.000456

                     11         12         13         14         15
                  -10.1679   -10.1608    -1.0930    -1.0440    -1.0227
                     A          A          A          A          A   
    1  O  1  S   -0.000005   0.000029  -0.193766   0.068993  -0.022549
    2  O  1  S   -0.000044   0.000250   0.184500  -0.065596   0.021451
    3  O  1  X   -0.000010   0.000008   0.119810  -0.040912   0.013279
    4  O  1  Y    0.000011  -0.000009   0.068477  -0.020263   0.005915
    5  O  1  Z   -0.000008   0.000013   0.017824  -0.011287   0.004615
    6  O  1  S    0.000241  -0.001273   0.594840  -0.224546   0.075255
    7  O  1  X    0.000108  -0.000271   0.114513  -0.041728   0.014122
    8  O  1  Y   -0.000018  -0.000155   0.068519  -0.021311   0.006385
    9  O  1  Z    0.000029  -0.000075   0.011768  -0.012457   0.005102
   10  C  2  S    0.000001   0.000026  -0.117261   0.028019  -0.008162
   11  C  2  S    0.000059   0.000068   0.128018  -0.029390   0.009287
   12  C  2  X   -0.000017  -0.000025  -0.124281   0.052734  -0.016613
   13  C  2  Y   -0.000050  -0.000069  -0.058596   0.035510  -0.013233
   14  C  2  Z    0.000046   0.000178  -0.041193  -0.004058   0.003180
   15  C  2  S   -0.000633  -0.000573   0.134814  -0.035813   0.008404
   16  C  2  X    0.000011  -0.001997   0.041539  -0.032371   0.012396
   17  C  2  Y    0.000225  -0.000482   0.017907  -0.007678   0.001606
   18  C  2  Z    0.000164  -0.000774   0.016618  -0.017132   0.009764
   19  C  3  S    0.001650   0.003471  -0.042236  -0.057621   0.020920
   20  C  3  S   -0.000219  -0.000906   0.038896   0.059641  -0.022334
   21  C  3  X   -0.000061  -0.000558  -0.026944  -0.016682   0.020478
   22  C  3  Y    0.000109   0.000043  -0.015707   0.002019  -0.000982
   23  C  3  Z    0.000039  -0.000217  -0.005391  -0.048906   0.019394
   24  C  3  S    0.001777   0.004489   0.075307   0.104326  -0.038141
   25  C  3  X    0.000410   0.004756  -0.018680   0.019368  -0.007299
   26  C  3  Y   -0.001086  -0.001246  -0.018353   0.007008  -0.003238
   27  C  3  Z   -0.000972   0.000979  -0.020309   0.011367  -0.005631
   28  H  4  S   -0.000052  -0.000885   0.012726   0.015447  -0.003627
   29  H  4  S    0.000622   0.001162   0.000501  -0.007431   0.005361
   30  O  5  S    0.000006  -0.000034  -0.065491  -0.130989   0.067688
   31  O  5  S    0.000024  -0.000312   0.062740   0.120044  -0.062568
   32  O  5  X   -0.000038   0.000005   0.003349   0.012493  -0.001280
   33  O  5  Y    0.000022   0.000004  -0.023607  -0.038296   0.020731
   34  O  5  Z    0.000005  -0.000064   0.027205   0.041542  -0.022286
   35  O  5  S   -0.000301   0.001359   0.183146   0.409105  -0.212847
   36  O  5  X    0.000007   0.000084  -0.000708   0.021045  -0.005585
   37  O  5  Y    0.000005  -0.000013  -0.023733  -0.041463   0.022736
   38  O  5  Z   -0.000118   0.000538   0.025259   0.044672  -0.026096
   39  C  6  S    0.007853   0.006375  -0.012499  -0.064363  -0.006871
   40  C  6  S   -0.000517  -0.000182   0.015612   0.064853   0.008536
   41  C  6  X   -0.000402  -0.001132  -0.009269  -0.004515   0.012618
   42  C  6  Y    0.000149   0.000149   0.002919   0.034266   0.003301
   43  C  6  Z   -0.000038  -0.000067  -0.001140  -0.035728   0.000637
   44  C  6  S    0.005965  -0.000838   0.011045   0.109796   0.000051
   45  C  6  X    0.005857   0.004203   0.012872  -0.012069   0.000600
   46  C  6  Y    0.000153   0.000183   0.014171   0.000873   0.007735
   47  C  6  Z    0.001322  -0.001133  -0.005898  -0.000566  -0.004394
   48  H  7  S   -0.000785  -0.000498   0.005799   0.016601   0.003439
   49  H  7  S    0.000325   0.000905   0.006590  -0.008494   0.006467
   50  O  8  S    0.000012   0.000050  -0.016439  -0.129595  -0.009209
   51  O  8  S    0.000048   0.000524   0.016063   0.120130   0.008498
   52  O  8  X   -0.000008   0.000353  -0.007256  -0.047715   0.001120
   53  O  8  Y   -0.000053  -0.000071  -0.001892  -0.013838  -0.000759
   54  O  8  Z   -0.000046   0.000093   0.006038   0.039664   0.004838
   55  O  8  S   -0.000507  -0.001479   0.044260   0.391922   0.027624
   56  O  8  X   -0.000201  -0.001603  -0.008898  -0.049011   0.001569
   57  O  8  Y    0.000355   0.000443  -0.001740  -0.012068   0.000744
   58  O  8  Z   -0.000163  -0.000666   0.002990   0.046328   0.003109
   59  C  9  S    0.040747   0.038907  -0.003901  -0.039042  -0.031913
   60  C  9  S    0.003678   0.000792   0.003656   0.039971   0.032504
   61  C  9  X   -0.001323  -0.000151  -0.002005  -0.011878   0.011727
   62  C  9  Y   -0.000291  -0.000023   0.000988   0.020141   0.011835
   63  C  9  Z   -0.000475   0.000253  -0.002145  -0.016301  -0.007613
   64  C  9  S   -0.006017   0.026442   0.003836   0.074286   0.059054
   65  C  9  X    0.003575   0.018748  -0.000243   0.016007  -0.014281
   66  C  9  Y    0.003221  -0.007217  -0.001323  -0.008485  -0.016399
   67  C  9  Z    0.004017  -0.004086   0.007593  -0.016521  -0.001960
   68  H 10  S   -0.000054  -0.002076   0.001164   0.011835   0.009425
   69  H 10  S   -0.001767   0.001843  -0.005543   0.000405  -0.002833
   70  O 11  S    0.000037   0.000001  -0.004665  -0.066484  -0.051666
   71  O 11  S    0.000327  -0.000312   0.004211   0.061525   0.047520
   72  O 11  X    0.000018  -0.000047  -0.000915  -0.008852  -0.004348
   73  O 11  Y   -0.000073   0.000329  -0.002230  -0.027915  -0.021331
   74  O 11  Z    0.000020   0.000272  -0.001542  -0.022066  -0.015343
   75  O 11  S   -0.000937  -0.000168   0.014407   0.200586   0.160945
   76  O 11  X   -0.000519  -0.001020  -0.000911  -0.013172  -0.004443
   77  O 11  Y    0.000502   0.000140  -0.002372  -0.030394  -0.024413
   78  O 11  Z   -0.000409  -0.000774  -0.001971  -0.020576  -0.014546
   79  C 12  S   -0.059762   0.984663  -0.000968  -0.015586  -0.056011
   80  C 12  S   -0.009949   0.116509   0.001094   0.018512   0.055061
   81  C 12  X   -0.000238  -0.000103  -0.001128  -0.006059   0.011481
   82  C 12  Y   -0.000067   0.000544  -0.000001  -0.000381  -0.027532
   83  C 12  Z   -0.000425   0.000839   0.000044   0.003458   0.017277
   84  C 12  S    0.031485  -0.108446   0.003431   0.004722   0.107728
   85  C 12  X    0.012819   0.002774   0.001786   0.008492   0.017285
   86  C 12  Y    0.006515  -0.008617   0.002835  -0.001126   0.009882
   87  C 12  Z    0.008010  -0.010861  -0.000051  -0.005471  -0.003088
   88  H 13  S   -0.001490   0.000410   0.000377   0.005432   0.014619
   89  H 13  S    0.000727   0.015585  -0.000454   0.002617  -0.007726
   90  O 14  S    0.000027  -0.000240  -0.000788  -0.017616  -0.097509
   91  O 14  S   -0.000165  -0.001502   0.000589   0.016212   0.091246
   92  O 14  X   -0.000160   0.000255   0.000105   0.005012   0.037596
   93  O 14  Y   -0.000530   0.000175   0.000336   0.007049   0.031905
   94  O 14  Z   -0.000108  -0.000300  -0.000084  -0.002035  -0.010245
   95  O 14  S   -0.001794   0.012547   0.003111   0.053975   0.292584
   96  O 14  X   -0.000444  -0.000942   0.000201   0.006510   0.038920
   97  O 14  Y    0.000166   0.005736   0.000763   0.007070   0.035208
   98  O 14  Z    0.000131   0.000236  -0.000306  -0.002237  -0.011071
   99  C 15  S    0.983823   0.057160  -0.000154  -0.007614  -0.066229
  100  C 15  S    0.112206   0.002807   0.000640   0.007890   0.070422
  101  C 15  X   -0.000541  -0.000462  -0.000164  -0.000854   0.032399
  102  C 15  Y   -0.000129   0.000294  -0.000041  -0.003745  -0.043612
  103  C 15  Z    0.000096  -0.000249  -0.000084  -0.002564  -0.018809
  104  C 15  S   -0.091516   0.024535  -0.002483   0.013782   0.106626
  105  C 15  X    0.011327  -0.013733   0.001243  -0.001586   0.001772
  106  C 15  Y    0.002848  -0.008291   0.000002  -0.001795  -0.000067
  107  C 15  Z    0.002813  -0.004608   0.000989   0.002779   0.011842
  108  O 16  S   -0.000142   0.000070  -0.000210  -0.012280  -0.165819
  109  O 16  S   -0.000585   0.000349   0.000168   0.011592   0.155431
  110  O 16  X   -0.000360   0.000453  -0.000037  -0.001031  -0.000948
  111  O 16  Y    0.000327  -0.000102   0.000057   0.003616   0.048926
  112  O 16  Z    0.000224   0.000221   0.000067   0.003704   0.052033
  113  O 16  S    0.008676  -0.002392   0.000736   0.036589   0.505277
  114  O 16  X   -0.002862  -0.000157  -0.000127  -0.000633  -0.010641
  115  O 16  Y    0.001575   0.000064   0.000103   0.003633   0.051424
  116  O 16  Z    0.000350  -0.000946   0.000003   0.003896   0.053471
  117  H 17  S   -0.000108   0.000305   0.022522  -0.003269   0.001133
  118  H 17  S    0.000369   0.000623  -0.025528   0.014557  -0.006032
  119  H 18  S   -0.000029  -0.000166   0.039263   0.055228  -0.031126
  120  H 18  S    0.000039   0.000236   0.005359   0.005806  -0.004503
  121  H 19  S   -0.000016  -0.000295   0.010885   0.065967  -0.001150
  122  H 19  S    0.000298  -0.000208  -0.000409   0.011441  -0.003946
  123  H 20  S    0.000321  -0.000786   0.002795   0.038218   0.024802
  124  H 20  S   -0.000679   0.000328   0.000177   0.004965   0.002411
  125  H 21  S   -0.000541  -0.000280   0.000218   0.007764   0.051968
  126  H 21  S    0.001808   0.002852   0.000177  -0.000120   0.011306
  127  H 22  S   -0.000188  -0.001501   0.000234   0.002548   0.018868
  128  H 22  S    0.016251   0.003133   0.000412   0.001316  -0.005024
  129  H 23  S    0.000256  -0.002002   0.000131   0.002150   0.019345
  130  H 23  S    0.016650   0.000202   0.000018  -0.001880  -0.006746
  131  H 24  S   -0.000537   0.000477   0.000116   0.005593   0.081821
  132  H 24  S    0.002225   0.001334  -0.000139   0.000813   0.017584

                     16         17         18         19         20
                   -1.0133    -0.9863    -0.9811    -0.7904    -0.7554
                     A          A          A          A          A   
    1  O  1  S    0.038355  -0.013763  -0.005689   0.036178  -0.026758
    2  O  1  S   -0.036644   0.013059   0.005151  -0.036515   0.026279
    3  O  1  X   -0.022505   0.007865   0.003200   0.001978  -0.004488
    4  O  1  Y   -0.009558   0.002884   0.001110   0.001527  -0.003960
    5  O  1  Z   -0.008574   0.003849   0.001668  -0.005357   0.002902
    6  O  1  S   -0.128511   0.047877   0.021407  -0.120072   0.094491
    7  O  1  X   -0.024432   0.009708   0.004578   0.000489  -0.001884
    8  O  1  Y   -0.010031   0.002656   0.001231   0.000860  -0.001369
    9  O  1  Z   -0.009508   0.003553   0.001271  -0.004097   0.002560
   10  C  2  S    0.013085  -0.003269  -0.001133  -0.060249   0.046923
   11  C  2  S   -0.016191   0.005457   0.002341   0.073068  -0.056032
   12  C  2  X    0.027435  -0.009531  -0.003886   0.079275  -0.054144
   13  C  2  Y    0.023635  -0.010283  -0.004619   0.058766  -0.044522
   14  C  2  Z   -0.006430   0.002836   0.001084  -0.030224   0.019581
   15  C  2  S   -0.011521   0.002917  -0.001150   0.106777  -0.096657
   16  C  2  X   -0.020484   0.007801   0.004751   0.034282  -0.020019
   17  C  2  Y   -0.002288   0.002294   0.001208   0.006777  -0.011021
   18  C  2  Z   -0.018424   0.011706   0.008201   0.015314  -0.009049
   19  C  3  S   -0.035452   0.013172   0.005882  -0.122047   0.079847
   20  C  3  S    0.037752  -0.015529  -0.007329   0.118842  -0.072610
   21  C  3  X   -0.046178   0.025924   0.011737   0.055374  -0.012112
   22  C  3  Y    0.002072  -0.003178  -0.002142  -0.037770   0.019383
   23  C  3  Z   -0.032787   0.007305   0.002474   0.045786  -0.036247
   24  C  3  S    0.073291  -0.018860  -0.003742   0.328252  -0.243633
   25  C  3  X    0.014381  -0.005298  -0.005745   0.004634  -0.018032
   26  C  3  Y    0.002310   0.004569  -0.001789  -0.037555   0.031895
   27  C  3  Z    0.010311  -0.015740  -0.010475   0.034079  -0.011667
   28  H  4  S    0.005298  -0.005329  -0.003255   0.066584  -0.043930
   29  H  4  S   -0.010852  -0.003673  -0.002370  -0.003911  -0.013237
   30  O  5  S   -0.132184   0.060070   0.025940   0.053682  -0.034589
   31  O  5  S    0.123077  -0.056349  -0.024084  -0.048838   0.031900
   32  O  5  X   -0.001717   0.006772   0.003455   0.044346  -0.036631
   33  O  5  Y   -0.041428   0.019892   0.008536   0.019480  -0.015778
   34  O  5  Z    0.044439  -0.022125  -0.009748   0.020499  -0.016927
   35  O  5  S    0.415621  -0.193343  -0.085582  -0.199085   0.130343
   36  O  5  X    0.004586   0.005156   0.002691   0.024601  -0.022437
   37  O  5  Y   -0.044576   0.020560   0.009324   0.023808  -0.017770
   38  O  5  Z    0.053060  -0.029973  -0.014619   0.002148  -0.004859
   39  C  6  S    0.035168  -0.033093  -0.018388  -0.112274   0.009833
   40  C  6  S   -0.035486   0.036567   0.019799   0.110965  -0.007261
   41  C  6  X   -0.021739  -0.007303  -0.002989  -0.013531   0.066103
   42  C  6  Y   -0.022023   0.017301   0.002882   0.000851  -0.006455
   43  C  6  Z    0.021749  -0.054915  -0.028685   0.075639  -0.011183
   44  C  6  S   -0.073003   0.066365   0.035987   0.277628  -0.031271
   45  C  6  X   -0.000657  -0.000474   0.009450   0.006285  -0.021950
   46  C  6  Y   -0.017096  -0.019554  -0.006083   0.014424  -0.025794
   47  C  6  Z   -0.007947   0.012006   0.005571   0.029829  -0.006366
   48  H  7  S   -0.010133   0.007753   0.006078   0.060561  -0.002172
   49  H  7  S   -0.000082  -0.013766   0.005117  -0.000353  -0.014939
   50  O  8  S    0.083138  -0.136041  -0.069223   0.057823  -0.006622
   51  O  8  S   -0.076934   0.126505   0.064976  -0.052660   0.005939
   52  O  8  X    0.021893  -0.052269  -0.027303   0.034214   0.008604
   53  O  8  Y    0.007516  -0.015686  -0.009702  -0.015038  -0.004357
   54  O  8  Z   -0.026494   0.029103   0.013863   0.036516  -0.001847
   55  O  8  S   -0.256560   0.431187   0.217989  -0.210652   0.026546
   56  O  8  X    0.021971  -0.057532  -0.031505   0.027394   0.010844
   57  O  8  Y    0.006338  -0.021391  -0.012866  -0.008226  -0.005356
   58  O  8  Z   -0.027215   0.038693   0.017140   0.007749   0.003009
   59  C  9  S    0.051372   0.044602   0.023608  -0.080004  -0.077477
   60  C  9  S   -0.050990  -0.046434  -0.025560   0.082321   0.076692
   61  C  9  X    0.007477  -0.014526   0.007096  -0.031230   0.070957
   62  C  9  Y   -0.042523  -0.038573  -0.056687  -0.055087  -0.045301
   63  C  9  Z    0.018033   0.002991   0.000936  -0.010944  -0.008787
   64  C  9  S   -0.089454  -0.087409  -0.058509   0.182157   0.203768
   65  C  9  X   -0.000349  -0.002403   0.000436   0.000189  -0.011200
   66  C  9  Y   -0.003722   0.028252  -0.004467  -0.019717  -0.006799
   67  C  9  Z    0.001778  -0.019657   0.005482   0.003100  -0.027374
   68  H 10  S   -0.013254  -0.012057  -0.005908   0.047492   0.043024
   69  H 10  S    0.005204   0.010772   0.001864  -0.000959   0.005575
   70  O 11  S    0.117471   0.111993   0.111939   0.054870   0.043087
   71  O 11  S   -0.110247  -0.102929  -0.104696  -0.051397  -0.038221
   72  O 11  X    0.014073   0.009392   0.012387   0.003093   0.024306
   73  O 11  Y    0.045411   0.040561   0.037897  -0.018618  -0.025470
   74  O 11  Z    0.036912   0.030731   0.033001   0.032133   0.028999
   75  O 11  S   -0.354974  -0.356682  -0.346530  -0.191058  -0.164352
   76  O 11  X    0.015047   0.011206   0.011038   0.002234   0.024452
   77  O 11  Y    0.048654   0.049508   0.043650   0.000090  -0.004616
   78  O 11  Z    0.039081   0.032357   0.034376   0.027516   0.025947
   79  C 12  S   -0.000883   0.042672  -0.048511  -0.041462  -0.122919
   80  C 12  S    0.000425  -0.045438   0.051662   0.042303   0.118727
   81  C 12  X    0.019226   0.012278   0.000330  -0.029124  -0.000272
   82  C 12  Y   -0.014156   0.030681  -0.069024   0.026632   0.077168
   83  C 12  Z    0.002057  -0.014290   0.013217   0.007959   0.025266
   84  C 12  S    0.007352  -0.074788   0.093249   0.100343   0.324103
   85  C 12  X    0.007994  -0.005126  -0.010820   0.010985  -0.008402
   86  C 12  Y   -0.007765  -0.021854   0.003269   0.006265   0.027602
   87  C 12  Z    0.001375   0.013858   0.003087   0.008642   0.025938
   88  H 13  S   -0.000604  -0.011140   0.013481   0.021551   0.061886
   89  H 13  S   -0.003737   0.016767  -0.003135  -0.007094   0.001797
   90  O 14  S   -0.018254   0.100648  -0.161315   0.030728   0.066169
   91  O 14  S    0.017395  -0.092753   0.150485  -0.028159  -0.060010
   92  O 14  X    0.010549  -0.034115   0.057929  -0.027014  -0.047211
   93  O 14  Y    0.004041  -0.029069   0.043254   0.017016   0.049051
   94  O 14  Z   -0.001851   0.010297  -0.017328   0.001526   0.002179
   95  O 14  S    0.052417  -0.317588   0.498999  -0.109539  -0.244772
   96  O 14  X    0.007369  -0.037967   0.059566  -0.025461  -0.037918
   97  O 14  Y    0.006268  -0.035531   0.051192   0.004131   0.015248
   98  O 14  Z   -0.000913   0.013234  -0.019323   0.001245   0.002769
   99  C 15  S   -0.028700  -0.012507   0.016229  -0.019860  -0.103579
  100  C 15  S    0.030701   0.014403  -0.018066   0.024096   0.106596
  101  C 15  X    0.025565   0.032535  -0.034536  -0.018200  -0.068100
  102  C 15  Y   -0.021763  -0.009375   0.005536   0.000764   0.001487
  103  C 15  Z   -0.007558  -0.002266   0.003056  -0.003153  -0.016476
  104  C 15  S    0.051031   0.028170  -0.029616   0.031800   0.258215
  105  C 15  X    0.003071   0.003717   0.004641   0.008178  -0.014537
  106  C 15  Y    0.001840   0.010612  -0.016049   0.008172   0.016444
  107  C 15  Z    0.000545  -0.009167   0.000649   0.000735  -0.004501
  108  O 16  S   -0.091107  -0.076678   0.084368   0.007432   0.039362
  109  O 16  S    0.085863   0.072931  -0.079779  -0.006423  -0.036258
  110  O 16  X    0.002350   0.009615  -0.012425  -0.008990  -0.061401
  111  O 16  Y    0.027006   0.023981  -0.027160   0.002766   0.013394
  112  O 16  Z    0.028954   0.025237  -0.027961  -0.002862  -0.016116
  113  O 16  S    0.277883   0.237052  -0.265135  -0.027970  -0.146940
  114  O 16  X   -0.002762   0.005599  -0.008204  -0.002681  -0.038246
  115  O 16  Y    0.028622   0.027496  -0.034764   0.000895   0.004259
  116  O 16  Z    0.030198   0.027966  -0.031860  -0.001802  -0.014564
  117  H 17  S   -0.001990   0.000334  -0.000074   0.040470  -0.032831
  118  H 17  S    0.009656  -0.005978  -0.003831   0.000369   0.000255
  119  H 18  S    0.063104  -0.031409  -0.013572  -0.044475   0.033546
  120  H 18  S    0.009134  -0.005046  -0.002549  -0.032664   0.025274
  121  H 19  S   -0.028215   0.063080   0.032894  -0.047984   0.000576
  122  H 19  S    0.002279   0.008297   0.004099  -0.037236   0.007781
  123  H 20  S   -0.060552  -0.045793  -0.050202  -0.040405  -0.035661
  124  H 20  S   -0.008010  -0.003830  -0.007240  -0.029544  -0.022569
  125  H 21  S    0.013724  -0.044872   0.076437  -0.027700  -0.058882
  126  H 21  S    0.005289  -0.005331   0.010374  -0.016367  -0.042697
  127  H 22  S    0.007088   0.002309  -0.004606   0.011268   0.057367
  128  H 22  S   -0.006621  -0.008445   0.000630  -0.005294  -0.008097
  129  H 23  S    0.008446   0.003981  -0.004674   0.012414   0.056492
  130  H 23  S   -0.002064   0.002115   0.000526   0.001535   0.003426
  131  H 24  S    0.046192   0.041991  -0.046421  -0.007724  -0.048569
  132  H 24  S    0.010502   0.010979  -0.013152  -0.006572  -0.030247

                     21         22         23         24         25
                   -0.6999    -0.6295    -0.5929    -0.5816    -0.5419
                     A          A          A          A          A   
    1  O  1  S    0.038904  -0.055504  -0.044622   0.002329   0.000822
    2  O  1  S   -0.038127   0.054497   0.043824  -0.001676  -0.001113
    3  O  1  X    0.014090  -0.037760  -0.045746   0.002105   0.035014
    4  O  1  Y    0.012553  -0.022695   0.002195   0.007391  -0.073515
    5  O  1  Z   -0.000238  -0.019220  -0.025568  -0.018196   0.167846
    6  O  1  S   -0.142014   0.210666   0.173968  -0.011849   0.007389
    7  O  1  X    0.008708  -0.027592  -0.034877   0.000203   0.035099
    8  O  1  Y    0.007095  -0.016404   0.001713   0.005616  -0.059938
    9  O  1  Z    0.000099  -0.017682  -0.020887  -0.016722   0.145607
   10  C  2  S   -0.071033   0.101876   0.078472   0.002229  -0.019607
   11  C  2  S    0.081448  -0.112056  -0.084874  -0.001316   0.022261
   12  C  2  X    0.065226  -0.076568  -0.081307  -0.004694   0.019394
   13  C  2  Y    0.060785  -0.043297   0.034855   0.012363  -0.148983
   14  C  2  Z   -0.014121  -0.049245  -0.086732  -0.041331   0.277318
   15  C  2  S    0.183156  -0.320728  -0.273824  -0.013480   0.087046
   16  C  2  X    0.035369  -0.065634  -0.075493  -0.008082   0.057679
   17  C  2  Y    0.030496  -0.047317   0.003631   0.000134  -0.087270
   18  C  2  Z    0.006994  -0.015445  -0.032345  -0.020156   0.213716
   19  C  3  S   -0.070539  -0.020068  -0.090138  -0.010057   0.021063
   20  C  3  S    0.062311   0.021968   0.080055   0.010779  -0.023233
   21  C  3  X   -0.042820   0.094001  -0.014822  -0.018883   0.089872
   22  C  3  Y   -0.016444   0.033570   0.128479  -0.032233   0.138924
   23  C  3  Z    0.063517  -0.112495  -0.052723  -0.013865  -0.115523
   24  C  3  S    0.244978   0.050361   0.369034   0.026291  -0.049423
   25  C  3  X    0.008145   0.018722   0.018887  -0.026648   0.049385
   26  C  3  Y   -0.019104  -0.001927   0.061885  -0.033707   0.110133
   27  C  3  Z    0.007663  -0.030733  -0.019512  -0.011773  -0.074653
   28  H  4  S    0.040876   0.015941   0.104108  -0.014366   0.033072
   29  H  4  S    0.007010   0.015677   0.034546  -0.003739   0.018735
   30  O  5  S    0.029449   0.005453   0.023305   0.009464  -0.047296
   31  O  5  S   -0.027006  -0.004479  -0.021156  -0.007528   0.042995
   32  O  5  X    0.039608   0.056241   0.161977   0.007332   0.119066
   33  O  5  Y    0.018224   0.015683   0.090141  -0.011083   0.106582
   34  O  5  Z    0.024814   0.003202   0.065166   0.022513  -0.047666
   35  O  5  S   -0.116732  -0.025710  -0.105823  -0.041829   0.189713
[...]
   1630   -0.11470   -4.21665    4.29525       -12.983620      12.984573       0.000953
   1631    0.28534   -6.20391    3.48741       -11.652173      11.642020      -0.010152
   1632    1.20496   -7.67159    2.15998       -10.745950      10.732072      -0.013878
   1633    1.61276   -5.28428    4.95508       -11.428923      11.420901      -0.008022
   1634    2.27260   -7.01175    3.88745       -10.611328      10.600221      -0.011107
   1635    3.34023   -8.09194    2.32054       -10.112014      10.102409      -0.009606
   1636    9.48708    1.81658    5.19154        -9.626391       9.649891       0.023500
   1637    9.92401    4.37441    2.19679        -9.544209       9.560283       0.016074
   1638    9.05847    3.94579    4.32599        -9.581526       9.596782       0.015256
   1639    6.92926    4.81133    4.75461       -10.118705      10.125114       0.006409
   1640    4.64147    4.81133    4.75461       -11.242018      11.238875      -0.003143
   1641    7.84004   -3.81058    4.77203       -10.465291      10.475136       0.009845
   1642   10.62180   -5.52981    0.27104        -9.017156       9.019727       0.002571
   1643    9.97531   -5.55139    1.99851        -9.277970       9.284468       0.006498
   1644    8.90767   -4.89155    3.72597        -9.798822       9.807953       0.009131
   1645   12.34103   -1.02882   -2.51073        -8.647714       8.649674       0.001960
   1646   11.70277   -4.48375   -0.79660        -8.683579       8.686125       0.002546
   1647   12.36261   -2.75628   -1.86423        -8.554674       8.557282       0.002608
   1648    7.84004   -3.81058   -4.22995       -10.443040      10.429833      -0.013207
   1649    9.56751   -3.16408   -4.25153        -9.543062       9.530647      -0.012415
   1650   11.29497   -2.09645   -3.59170        -8.919482       8.912702      -0.006780
   1651    8.90767   -4.89155   -3.18390        -9.773750       9.764296      -0.009455
   1652   10.89493   -4.08371   -2.78386        -8.962072       8.955839      -0.006232
   1653    9.97531   -5.55139   -1.45643        -9.262291       9.258724      -0.003567
   1654    7.84004    1.75295   -4.22995       -11.067759      11.059324      -0.008434
   1655    9.56751    1.10645   -4.25153        -9.892093       9.883337      -0.008756
   1656   11.29497    0.03882   -3.59170        -9.056512       9.051944      -0.004568
   1657    7.84004    0.03882   -4.91137       -10.815542      10.802763      -0.012779
   1658    9.72807   -1.02882   -4.67189        -9.616573       9.604340      -0.012233
   1659    7.84004   -2.09645   -4.91137       -10.578697      10.563894      -0.014804
   1660   10.89493    2.02608   -2.78386        -9.385791       9.386282       0.000491
   1661    8.90767    2.83392   -3.18390       -10.504037      10.501055      -0.002982
   1662   -3.71968   -3.81382    7.83562        -9.669185       9.679996       0.010811
   1663   -2.23899   -3.25968    7.85412       -10.021918      10.034655       0.012736
   1664   -0.75830   -2.34457    7.28854       -10.919867      10.934156       0.014290
   1665   -3.71968   -2.34457    8.41969        -9.610944       9.623717       0.012773
   1666   -2.10137   -1.42945    8.21442       -10.153696      10.168643       0.014948
   1667   -0.75830   -0.51434    7.28854       -11.280185      11.297102       0.016917
   1668   -3.71968   -0.51434    8.41969        -9.826557       9.841046       0.014489
   1669   -2.23899    0.40078    7.85412       -10.568390      10.584559       0.016169
   1670   -3.71968    0.95492    7.83562       -10.283441      10.299049       0.015608
   1671   -1.33531   -5.28745    3.97763       -12.135614      12.139743       0.004129
   1672   -0.40876   -4.39083    4.89274       -12.229380      12.234215       0.004835
   1673   -1.88945   -5.30594    5.45831       -10.958108      10.965713       0.007605
   1674   -1.10120   -4.04793    6.59611       -10.852780      10.863445       0.010664
   1675   -2.80456   -4.74037    6.93900       -10.084894      10.094764       0.009870
   1676   -2.80456    1.88146    6.93900       -11.176853      11.193438       0.016585
   1677   -5.20036    0.40078    7.85412        -9.953950       9.967985       0.014035
   1678   -5.20036   -3.25968    7.85412        -9.549292       9.558486       0.009193
   1679   -4.63479   -4.74037    6.93900        -9.807487       9.814797       0.007310
   1680   -3.71968   -5.66624    5.59594       -10.396463      10.402851       0.006388
   1681   -5.33799   -1.42945    8.21442        -9.583327       9.595022       0.011695
   1682   -5.95582   -3.58959   -4.32541       -11.547770      11.556846       0.009076
   1683   -5.04070   -4.15517   -2.84472       -12.773579      12.784594       0.011014
   1684  -10.74742    1.20201   -3.19426        -9.425107       9.428095       0.002988
   1685  -10.72892   -0.27868   -3.74841        -9.281947       9.288059       0.006112
   1686   -9.83231   -1.19379   -4.67495        -9.461323       9.468621       0.007298
   1687   -8.35162   -2.10891   -5.24052        -9.994663      10.002574       0.007911
   1688  -10.74742    1.20201    0.46619       -10.146011      10.146798       0.000787
   1689  -11.31299   -0.27868   -0.44892        -9.695722       9.696685       0.000963
   1690  -11.10772    1.33963   -1.36403        -9.576715       9.579205       0.002490
   1691  -11.31299   -0.27868   -2.27915        -9.298939       9.303925       0.004986
   1692  -10.18185   -3.24005   -2.27915        -9.730934       9.733762       0.002828
   1693  -11.10772   -1.89699   -1.36403        -9.581867       9.583118       0.001251
   1694  -10.74742   -1.75936   -3.19426        -9.318147       9.324752       0.006604
   1695   -7.78605   -3.58959   -4.32541       -10.353278      10.361821       0.008543
   1696   -8.70116   -4.15517   -2.84472       -10.228822      10.233484       0.004662
   1697   -9.48941   -2.89716   -3.98252        -9.641792       9.649641       0.007849
   1698   -6.87093   -4.51547   -2.98235       -11.196466      11.203494       0.007028
   1699   -2.83000    3.53504   -7.62942       -10.360676      10.359798      -0.000878
   1700   -2.83000    2.06578   -8.21349       -10.259899      10.258713      -0.001186
   1701   -2.83000    0.23556   -8.21349       -10.433359      10.431205      -0.002154
   1702   -3.74511    5.59273   -3.77143       -11.944886      11.941023      -0.003863
   1703   -4.66023    5.02716   -5.25211       -10.973531      10.969336      -0.004195
   1704   -3.74511    4.46159   -6.73280       -10.464973      10.464638      -0.000335
   1705   -5.44848    3.76915   -6.38991       -10.471839      10.469244      -0.002595
   1706   -4.31068    2.98090   -7.64791       -10.130577      10.131658       0.001082
   1707   -5.79137    2.06578   -7.08234       -10.307654      10.307934       0.000280
   1708   -5.79137    0.23556   -7.08234       -10.498231      10.500952       0.002721
   1709   -4.44831    1.15067   -8.00822       -10.134027      10.136027       0.002000
   1710   -4.31068   -0.67956   -7.64791       -10.482903      10.484931       0.002028
   1711   -3.74511   -2.16025   -6.73280       -11.198978      11.199722       0.000744
   1712   -5.44848   -1.46781   -6.38991       -11.078446      11.083174       0.004728
   1713    0.56743    5.99281   -5.25294       -11.041390      11.039793      -0.001597
   1714    2.04812    5.43867   -5.27143       -11.193313      11.190533      -0.002780
   1715    3.52880    4.52355   -4.70586       -11.841338      11.838116      -0.003222
   1716    2.39766    7.48493   -2.87563       -10.719789      10.716493      -0.003297
   1717    3.18591    6.22692   -4.01343       -11.060238      11.058708      -0.001530
   1718    1.48255    6.91935   -4.35632       -10.685828      10.685504      -0.000324
   1719   -1.26280    7.48493   -2.87563       -10.968523      10.967697      -0.000826
   1720    0.56743    7.84523   -3.01326       -10.587937      10.586381      -0.001556
   1721   -0.34768    6.91935   -4.35632       -10.850504      10.850746       0.000242
   1722   -2.74348    6.56981   -2.31006       -11.932042      11.930391      -0.001651
   1723   -2.05105    6.22692   -4.01343       -11.618331      11.618295      -0.000037
   1724    6.62977   -5.52609    4.21319       -10.406922      10.410664       0.003742
   1725    7.53345   -7.55385    0.33670        -9.444433       9.447434       0.003001
   1726    8.46000   -6.65723    1.25181        -9.601678       9.606226       0.004549
   1727    6.97931   -7.57235    1.81739        -9.541035       9.544414       0.003379
   1728    7.76756   -6.31434    2.95518        -9.832966       9.838687       0.005721
   1729    6.06420   -7.00677    3.29807        -9.958217       9.959542       0.001325
   1730    8.46000   -6.65723   -0.57842        -9.615589       9.616792       0.001203
   1731    6.62977   -5.52609   -3.53979       -10.513316      10.506125      -0.007191
   1732    6.06420   -7.00677   -2.62467       -10.036367      10.032073      -0.004293
   1733    7.76756   -6.31434   -2.28178        -9.882022       9.879234      -0.002788
   1734    6.97931   -7.57235   -1.14399        -9.571111       9.571390       0.000279
   1735    5.14908   -7.93265   -1.28161        -9.964513       9.959718      -0.004795
   1736    6.06420   -8.13792    0.33670        -9.595435       9.595475       0.000041
   1737    5.14908   -7.93265    1.95501        -9.920318       9.917891      -0.002427
   1738    9.35645    5.58742    1.34610        -9.340166       9.349553       0.009387
   1739    8.42990    6.48404    0.43099        -9.374076       9.378928       0.004852
   1740    8.66401    5.24453    3.04947        -9.631611       9.641671       0.010060
   1741    7.87576    6.50254    1.91168        -9.534116       9.538421       0.004305
   1742    6.96065    5.93696    3.39236       -10.025207      10.028211       0.003003
   1743    9.35645    5.58742   -0.48413        -9.356615       9.363326       0.006711
   1744   10.28232    4.24436    0.43099        -9.562347       9.575972       0.013625
   1745    9.92202    4.10673   -1.39924        -9.709082       9.715746       0.006665
   1746    6.04553    5.01042   -3.42700       -10.986467      10.985276      -0.001192
   1747    7.52622    4.45628   -3.44550       -10.414552      10.414185      -0.000367
   1748    9.00690    3.54116   -2.87993       -10.206808      10.206934       0.000126
   1749    6.04553    3.54116   -4.01107       -11.643085      11.640652      -0.002433
   1750    7.87576    6.50254   -1.04970        -9.581519       9.584104       0.002585
   1751    8.66401    5.24453   -2.18749        -9.689697       9.692728       0.003031
   1752    6.96065    5.93696   -2.53038       -10.151551      10.151874       0.000324
   1753    6.96065    7.06811    0.43099        -9.763248       9.763416       0.000168
   1754    5.13042    7.06811    0.43099       -10.746409      10.737421      -0.008988
   1755    6.04553    6.86284    2.04930       -10.208969      10.205497      -0.003471
   1756    5.13042    5.93696    3.39236       -10.995538      10.988499      -0.007039
   1757    6.04553    6.86284   -1.18732       -10.301588      10.299130      -0.002458
   1758    5.13042    5.93696   -2.53038       -11.237006      11.233870      -0.003137
   1759    4.56484    4.45628   -3.44550       -12.413440      12.411553      -0.001887
   1760    5.51307   -1.75392    6.96980       -10.397731      10.406620       0.008889
   1761    6.99376   -1.19978    6.98829        -9.862629       9.874948       0.012319
   1762    8.47444   -0.28467    6.42272        -9.634573       9.652525       0.017952
   1763    5.51307   -0.28467    7.55387       -10.011564      10.022000       0.010436
   1764    7.13138    0.63045    7.34860        -9.525803       9.538686       0.012884
   1765    8.47444    1.54556    6.42272        -9.451640       9.468291       0.016651
   1766    5.51307    1.54556    7.55387        -9.864650       9.874691       0.010042
   1767    6.99376    2.46068    6.98829        -9.542246       9.553614       0.011368
   1768    5.51307    3.01482    6.96980        -9.977350       9.985414       0.008065
   1769    8.13155   -1.98803    5.73029       -10.218609      10.234967       0.016358
   1770    6.42819   -2.68047    6.07318       -10.616693      10.625364       0.008671
   1771    8.13155    3.24893    5.73029        -9.626225       9.639787       0.013562
   1772    6.42819    3.94136    6.07318        -9.935518       9.943224       0.007706
   1773    4.59796    3.94136    6.07318       -10.675432      10.678638       0.003206
   1774    4.03238    2.46068    6.98829       -10.631156      10.638415       0.007259
   1775    2.89459    3.24893    5.73029       -11.958772      11.959602       0.000830
   1776    4.03238   -1.19978    6.98829       -10.959904      10.968399       0.008495
   1777    4.59796   -2.68047    6.07318       -11.369845      11.373781       0.003936
   1778    3.89476    0.63045    7.34860       -10.678342      10.688034       0.009692
   1779    9.37853   -3.00508    5.12101        -9.563980       9.581400       0.017420
   1780   10.85921   -2.45094    5.13950        -8.713542       8.734783       0.021241
   1781   12.33990   -1.53582    4.57393        -8.115867       8.139617       0.023750
   1782   13.23652   -0.62071    3.64738        -7.859637       7.883966       0.024330
   1783    9.37853   -1.53582    5.70507        -9.523774       9.544954       0.021180
   1784   10.99684   -0.62071    5.49980        -8.649880       8.674253       0.024373
   1785   12.33990    0.29440    4.57393        -8.151472       8.176972       0.025500
   1786    9.37853    0.29440    5.70507        -9.604166       9.628039       0.023874
   1787   10.85921    1.20952    5.13950        -8.816040       8.841411       0.025370
   1788   11.76290   -4.47870    1.26301        -8.663031       8.674023       0.010991
   1789   12.68944   -3.58208    2.17813        -8.158171       8.175244       0.017074
   1790   13.25502   -2.10140    3.09324        -7.875513       7.897390       0.021877
   1791   11.20876   -4.49720    2.74370        -8.777054       8.790881       0.013828
   1792   11.99701   -3.23919    3.88149        -8.297144       8.317032       0.019888
   1793   10.29364   -3.93163    4.22439        -9.102229       9.118275       0.016046
   1794   13.25502    0.85998    3.09324        -7.920806       7.945385       0.024579
   1795   12.68944    2.34066    2.17813        -8.255291       8.278368       0.023077
   1796   11.76290    3.23728    1.26301        -8.809803       8.830076       0.020273
   1797   11.99701    1.99777    3.88149        -8.404590       8.429785       0.025195
   1798   11.20876    3.25578    2.74370        -8.960717       8.983563       0.022846
   1799   10.29364    2.69021    4.22439        -9.313416       9.337532       0.024115
   1800   12.68944    2.34066    0.34790        -8.413872       8.432472       0.018600
   1801   13.61532    0.99760    1.26301        -7.927372       7.948780       0.021409
   1802   13.82059   -0.62071    2.17813        -7.759567       7.781941       0.022373
   1803   13.25502    0.85998   -0.56722        -8.216573       8.232129       0.015556
   1804   13.82059   -0.62071    0.34790        -7.898157       7.916163       0.018006
   1805   13.23652   -0.62071   -1.12136        -8.252826       8.264787       0.011960
   1806   12.68944   -3.58208    0.34790        -8.328623       8.340473       0.011850
   1807   13.25502   -2.10140   -0.56722        -8.181897       8.194113       0.012216
   1808   13.61532   -2.23902    1.26301        -7.885577       7.903886       0.018310
   1809   11.20876    3.25578   -0.21767        -9.287893       9.302852       0.014959
   1810   11.99701    1.99777   -1.35547        -8.913365       8.924163       0.010798

 NET CHARGES:
 -------------------------------------
 ATOM                CHARGE    E.S.D.
 -------------------------------------
 O                  -0.3829    0.0074
 C                   0.3260    0.0757
 C                   0.2145    0.2096
 H                   0.0556    0.0194
 O                  -0.6236    0.0200
 C                   0.1634    0.2062
 H                   0.0833    0.0241
 O                  -0.6024    0.0208
 C                  -0.1981    0.2736
 H                   0.1463    0.0291
 O                  -0.5564    0.0190
 C                   0.3476    0.2170
 H                   0.0445    0.0245
 O                  -0.6671    0.0222
 C                   0.1264    0.1529
 O                  -0.6568    0.0182
 H                   0.0220    0.0087
 H                   0.4039    0.0053
 H                   0.4200    0.0095
 H                   0.4099    0.0053
 H                   0.4222    0.0068
 H                   0.0367    0.0151
 H                   0.0398    0.0148
 H                   0.4249    0.0039
 -------------------------------------

 RMS DEVIATION IS            0.926 KCAL/MOLE
 RELATIVE RMS DEVIATION IS   9.574 %

 MULTIPOLE MOMENTS:
 ---------------------------------------------------------
 STATUS  ACTUAL VALUE       QUANTITY        FITTED VALUE 
 ---------------------------------------------------------
 FIXED       0.0000       TOTAL CHARGE        -0.0000
             2.4361 D    DIPOLE MOMENT         2.4225 D
 FREE        1.6535 D          DX              1.6414 D
 FREE        0.2296 D          DY              0.2588 D
 FREE        1.7743 D          DZ              1.7628 D
 FREE        0.0000 BU         QXX            11.5821 BU
 FREE        0.0000 BU         QYY           -11.7750 BU
 FREE        0.0000 BU         QZZ             0.1929 BU
 FREE        0.0000 BU         QXY             0.0070 BU
 FREE        0.0000 BU         QXZ             9.9905 BU
 FREE        0.0000 BU         QYZ            -0.0634 BU
 ---------------------------------------------------------
 ...... END OF PROPERTY EVALUATION ......
 CPU     0: STEP CPU TIME=     0.79 TOTAL CPU TIME=         27.1 (      0.5 MIN)
 TOTAL WALL CLOCK TIME=         52.1 SECONDS, CPU UTILIZATION IS    51.99%
               956059  WORDS OF DYNAMIC MEMORY USED
 EXECUTION OF GAMESS TERMINATED NORMALLY Fri May 22 16:23:31 2020
 DDI: 263640 bytes (0.3 MB / 0 MWords) used by master data server.
Note: The following floating-point exceptions are signalling: IEEE_UNDERFLOW_FLAGNote: The following floating-point exceptions are signalling: IEEE_UNDERFLOW_FLAGNote: The following floating-point exceptions are signalling: IEEE_UNDERFLOW_FLAG IEEE_DENORMALNote: The following floating-point exceptions are signalling: IEEE_UNDERFLOW_FLAGNote: The following floating-point exceptions are signalling: IEEE_UNDERFLOW_FLAG IEEE_DENORMAL
Note: The following floating-point exceptions are signalling:
 ----------------------------------------
 CPU timing information for all processes
 ========================================
 0: 26.759 + 0.338 = 27.98
 1: 26.229 + 0.111 = 26.341
 2: 25.740 + 0.116 = 25.857
 3: 25.668 + 0.72 = 25.740
 4: 25.657 + 0.103 = 25.761
 5: 25.610 + 0.108 = 25.718
 6: 24.681 + 0.52 = 24.734
 7: 24.865 + 0.84 = 24.949
 ----------------------------------------
 IEEE_DENORMAL

 IEEE_DENORMAL
 IEEE_DENORMAL
 IEEE_UNDERFLOW_FLAG IEEE_DENORMALNote: The following floating-point exceptions are signalling: IEEE_UNDERFLOW_FLAGNote: The following floating-point exceptions are signalling: IEEE_UNDERFLOW_FLAG
 IEEE_DENORMAL
 IEEE_DENORMAL
 ddikick.x: exited gracefully.
unset echo
----- accounting info -----
Files used on the master node pietdev were:
-rwxr-xr-x 1 piet piet     1502 mei 22 16:22 /home/piet/scr/d-glucose_charge_geodisk.F05*
-rw-r--r-- 1 piet piet 50790400 mei 22 16:23 /home/piet/scr/d-glucose_charge_geodisk.F10
ls: No match.
ls: No match.
ls: No match.
vr 22 mei 2020 16:23:34 CEST
0.143u 0.026s 0:55.29 0.2%	0+0k 0+8io 0pf+0w
