----- GAMESS execution script 'rungms' -----
This job is running on host pietdev
under operating system Linux at vr 22 mei 2020 15:51:13 CEST
Available scratch disk space (Kbyte units) at beginning of the job is
Filesystem     1K-blocks     Used Available Use% Mounted on
/dev/sda2      244568380 31372720 200702604  14% /
GAMESS temporary binary files will be written to /home/piet/scr
GAMESS supplementary output files will be written to /home/piet/gamess/scr
Copying input file d-glucose_geoopt.inp to your run's scratch directory...
cp d-glucose_geoopt.inp /home/piet/scr/d-glucose_geoopt.F05
unset echo
 
Assuming a single but multicore node.
 
/home/piet/gamess/ddikick.x /home/piet/gamess/gamess.03.x d-glucose_geoopt -ddi 1 8 pietdev:cpus=8 -scr /home/piet/scr

 Distributed Data Interface kickoff program.
 Initiating 8 compute processes on 1 nodes to run the following command:
 /home/piet/gamess/gamess.03.x d-glucose_geoopt 

          ******************************************************
          *         GAMESS VERSION = 30 SEP 2019 (R2)          *
          *             FROM IOWA STATE UNIVERSITY             *
          * M.W.SCHMIDT, K.K.BALDRIDGE, J.A.BOATZ, S.T.ELBERT, *
          *   M.S.GORDON, J.H.JENSEN, S.KOSEKI, N.MATSUNAGA,   *
          *          K.A.NGUYEN, S.J.SU, T.L.WINDUS,           *
          *       TOGETHER WITH M.DUPUIS, J.A.MONTGOMERY       *
          *         J.COMPUT.CHEM.  14, 1347-1363(1993)        *
          **************** 64 BIT LINUX VERSION ****************

  SINCE 1993, STUDENTS AND POSTDOCS WORKING AT IOWA STATE UNIVERSITY
  AND ALSO IN THEIR VARIOUS JOBS AFTER LEAVING ISU HAVE MADE IMPORTANT
  CONTRIBUTIONS TO THE CODE:
     IVANA ADAMOVIC, CHRISTINE AIKENS, YURI ALEXEEV, POOJA ARORA,
     ANDREY ASADCHEV, ROB BELL, PRADIPTA BANDYOPADHYAY, JONATHAN BENTZ,
     COLLEEN BERTONI, BRETT BODE, KURT BRORSEN, CALEB CARLIN, GALINA CHABAN,
     WEI CHEN, CHEOL HO CHOI, PAUL DAY, ALBERT DEFUSCO, NUWAN DESILVA,
     TIM DUDLEY, DMITRI FEDOROV, ALEX FINDLATER, GRAHAM FLETCHER, 
     MARK FREITAG, KURT GLAESEMANN, EMILIE B GUIDEZ, ANASTASIA GUNINA, 
     DAN KEMP, SAROM SOK LEANG, GRANT MERRILL,
     NORIYUKI MINEZAWA, JONATHAN MULLIN,
     TAKESHI NAGATA, SEAN NEDD, HEATHER NETZLOFF, BOSILJKA NJEGIC, RYAN OLSON,
     MIKE PAK, BUU PHAM, DAVID POOLE,
     SPENCER PRUITT, LUKE ROSKOP, TOSAPORN SATTASATHUCHANA,
     JIM SHOEMAKER, LYUDMILA SLIPCHENKO,
     TONY SMITH, JIE SONG, TETSUYA TAKETSUGU, SIMON WEBB,
     JORGE LUIS GALVEZ VALLEJO, PENG XU, SOOHAENG YOO,
     FEDERICO ZAHARIEV

  ADDITIONAL CODE HAS BEEN PROVIDED BY COLLABORATORS IN OTHER GROUPS:
     IOWA STATE UNIVERSITY:
          JOE IVANIC, AARON WEST, LAIMUTIS BYTAUTAS, KLAUS RUEDENBERG
     UNIVERSITY OF TOKYO: KIMIHIKO HIRAO, TAKAHITO NAKAJIMA,
          TAKAO TSUNEDA, MUNEAKI KAMIYA, SUSUMU YANAGISAWA,
          KIYOSHI YAGI, MAHITO CHIBA, SEIKEN TOKURA, NAOAKI KAWAKAMI
     UNIVERSITY OF AARHUS: FRANK JENSEN
     UNIVERSITY OF IOWA: VISVALDAS KAIRYS, HUI LI
     NATIONAL INST. OF STANDARDS AND TECHNOLOGY: WALT STEVENS, DAVID GARMER
     UNIVERSITY OF PISA: BENEDETTA MENNUCCI, JACOPO TOMASI
     UNIVERSITY OF MEMPHIS: HENRY KURTZ, PRAKASHAN KORAMBATH
     UNIVERSITY OF ALBERTA: TOBY ZENG, MARIUSZ KLOBUKOWSKI
     UNIVERSITY OF NEW ENGLAND: MARK SPACKMAN
     MIE UNIVERSITY: HIROAKI UMEDA
     NAT. INST. OF ADVANCED INDUSTRIAL SCIENCE AND TECHNOLOGY: KAZUO KITAURA
     MICHIGAN STATE UNIVERSITY:
          KAROL KOWALSKI, MARTA WLOCH, JEFFREY GOUR, JESSE LUTZ,
          WEI LI, JUN SHEN, J. EMILIANO DEUSTUA, PIOTR PIECUCH
     UNIVERSITY OF MINNESOTA:
          ANDREW SAND, PRACHI SHARMA, YINAN SHU
     UNIVERSITY OF SILESIA: MONIKA MUSIAL, STANISLAW KUCHARSKI
     FACULTES UNIVERSITAIRES NOTRE-DAME DE LA PAIX:
          OLIVIER QUINET, BENOIT CHAMPAGNE
     UNIVERSITY OF CALIFORNIA - SANTA BARBARA: BERNARD KIRTMAN
     INSTITUTE FOR MOLECULAR SCIENCE:
          KAZUYA ISHIMURA, MICHIO KATOUDA, AND SHIGERU NAGASE
     UNIVERSITY OF NOTRE DAME: ANNA POMOGAEVA, DAN CHIPMAN
     KYUSHU UNIVERSITY:
          HARUYUKI NAKANO,
          FENG LONG GU, JACEK KORCHOWIEC, MARCIN MAKOWSKI, AND YURIKO AOKI,
          HIROTOSHI MORI AND EISAKU MIYOSHI
     PENNSYLVANIA STATE UNIVERSITY:
          TZVETELIN IORDANOV, CHET SWALINA, JONATHAN SKONE,
          SHARON HAMMES-SCHIFFER
     WASEDA UNIVERSITY:
          MASATO KOBAYASHI, TOMOKO AKAMA, TSUGUKI TOUMA,
          TAKESHI YOSHIKAWA, YASUHIRO IKABATA, JUNJI SEINO,
          YUYA NAKAJIMA, HIROMI NAKAI
     NANJING UNIVERSITY: SHUHUA LI
     UNIVERSITY OF NEBRASKA:
          PEIFENG SU, DEJUN SI, NANDUN THELLAMUREGE, YALI WANG, HUI LI
     UNIVERSITY OF ZURICH: ROBERTO PEVERATI, KIM BALDRIDGE
     N. COPERNICUS UNIVERSITY AND JACKSON STATE UNIVERSITY:
          MARIA BARYSZ
     UNIVERSITY OF COPENHAGEN: Jimmy Kromann, CASPER STEINMANN
     TOKYO INSTITUTE OF TECHNOLOGY: HIROYA NAKATA
     NAGOYA UNIVERSITY: YOSHIO NISHIMOTO, STEPHAN IRLE
     MOSCOW STATE UNIVERSITY: VLADIMIR MIRONOV
     A.N.NESMEYANOV INSTITUTE OF ORGANOELEMENT COMPOUNDS OF RUSSIAN ACADEMY OF SCIENCES:
          IGOR S. GERASIMOV
     JOHANNES KEPLER UNIVERSITY LINZ:
          CHRISTIAN FRIEDL


 PARALLEL VERSION RUNNING ON        8 PROCESSORS IN        1 NODES.

 EXECUTION OF GAMESS BEGUN Fri May 22 15:51:13 2020

            ECHO OF THE FIRST FEW INPUT CARDS -
 INPUT CARD> $BASIS GBASIS=N21 NGAUSS=3 $END                                                
 INPUT CARD> $CONTRL SCFTYP=RHF RUNTYP=OPTIMIZE DFTTYP=B3LYP MAXIT=60 MULT=1 ICHARG=0 $END  
 INPUT CARD> $SYSTEM MEMDDI=1000 MWORDS=30 $END                                             
 INPUT CARD> $STATPT NSTEP=999 $END                                                         
 INPUT CARD> $SCF DIRSCF=.TRUE. $END                                                        
 INPUT CARD> $DATA                                                                          
 INPUT CARD>                                                                                
 INPUT CARD>C1                                                                              
 INPUT CARD>O 8.0000000 -4.08531240 -0.87292110 0.24832070                                  
 INPUT CARD>C 6.0000000 -2.94231490 -0.94134470 0.65457420                                  
 INPUT CARD>C 6.0000000 -1.96678920 0.21229310 0.48325230                                   
 INPUT CARD>H 1.0000000 -1.73438700 0.57887880 1.49766250                                   
 INPUT CARD>O 8.0000000 -2.56655690 1.23322720 -0.28744550                                  
 INPUT CARD>C 6.0000000 -0.64288440 -0.26544220 -0.18353240                                 
 INPUT CARD>H 1.0000000 -0.46991780 -1.31371790 0.08667630                                  
 INPUT CARD>O 8.0000000 -0.77278560 -0.19457100 -1.59860390                                 
 INPUT CARD>C 6.0000000 0.60616670 0.52286580 0.27279260                                    
 INPUT CARD>H 1.0000000 0.55529350 0.66960630 1.35929380                                    
 INPUT CARD>O 8.0000000 0.65333960 1.81767740 -0.30624550                                   
 INPUT CARD>C 6.0000000 1.89339450 -0.26495570 -0.02978810                                  
 INPUT CARD>H 1.0000000 1.95478190 -0.46051170 -1.11216580                                  
 INPUT CARD>O 8.0000000 1.80193290 -1.49996230 0.68241140                                   
 INPUT CARD>C 6.0000000 3.14459580 0.49538100 0.39760600                                    
 INPUT CARD>O 8.0000000 4.24432320 -0.39931270 0.16824820                                   
 INPUT CARD>H 1.0000000 -2.56577720 -1.83968260 1.18102590                                  
 INPUT CARD>H 1.0000000 -3.50866650 0.99613660 -0.37905940                                  
 INPUT CARD>H 1.0000000 -1.48029240 0.45201040 -1.77361820                                  
 INPUT CARD>H 1.0000000 0.44283610 1.71563570 -1.24764470                                   
 INPUT CARD>H 1.0000000 2.68178180 -1.90551940 0.65225690                                   
 INPUT CARD>H 1.0000000 3.25061790 1.41467120 -0.18851120                                   
 INPUT CARD>H 1.0000000 3.07353100 0.75291400 1.46444780                                    
 INPUT CARD>H 1.0000000 5.05658940 -0.01095610 0.51494590                                   
 INPUT CARD> $END                                                                           
   30000000 WORDS OF MEMORY AVAILABLE

     BASIS OPTIONS
     -------------
     GBASIS=N21          IGAUSS=       3      POLAR=NONE    
     NDFUNC=       0     NFFUNC=       0     DIFFSP=       F
     NPFUNC=       0      DIFFS=       F     BASNAM=        


     RUN TITLE
     ---------
                                                                                 

 THE POINT GROUP OF THE MOLECULE IS C1      
 THE ORDER OF THE PRINCIPAL AXIS IS     0

 ATOM      ATOMIC                      COORDINATES (BOHR)
           CHARGE         X                   Y                   Z
 O           8.0    -7.7201210102       -1.6495816879        0.4692580801
 C           6.0    -5.5601689306       -1.7788835430        1.2369658766
 C           6.0    -3.7166926636        0.4011757881        0.9132144299
 H           1.0    -3.2775161867        1.0939223121        2.8301717471
 O           8.0    -4.8500892729        2.3304614886       -0.5431932314
 C           6.0    -1.2148753578       -0.5016130236       -0.3468259459
 H           1.0    -0.8880158788       -2.4825668562        0.1637944566
 O           8.0    -1.4603530313       -0.3676858752       -3.0209233339
 C           6.0     1.1454889659        0.9880730904        0.5155032655
 H           1.0     1.0493525578        1.2653724267        2.5686928188
 O           8.0     1.2346328209        3.4349122201       -0.5787200800
 C           6.0     3.5779967917       -0.5006936719       -0.0562913467
 H           1.0     3.6940021568       -0.8702409271       -2.1016886149
 O           8.0     3.4051594293       -2.8345177389        1.2895705569
 C           6.0     5.9424244041        0.9361343495        0.7513663911
 O           8.0     8.0206078513       -0.7545915864        0.3179429959
 H           1.0    -4.8486158535       -3.4764960184        2.2318153354
 H           1.0    -6.6304182673        1.8824252203       -0.7163183991
 H           1.0    -2.7973470177        0.8541757996       -3.3516524048
 H           1.0     0.8368388865        3.2420813678       -2.3577066130
 H           1.0     5.0678327609       -3.6009095303        1.2325868146
 H           1.0     6.1427771218        2.6733409307       -0.3562345136
 H           1.0     5.8081314048        1.4228011523        2.7674050653
 H           1.0     9.5555683984       -0.0207040269        0.9731066495

          INTERNUCLEAR DISTANCES (ANGS.)
          ------------------------------

                1 O          2 C          3 C          4 H          5 O     

   1 O       0.0000000    1.2149761 *  2.3918661 *  3.0323964    2.6513250 *
   2 C       1.2149761 *  0.0000000    1.5204873 *  2.1168295 *  2.3994495 *
   3 C       2.3918661 *  1.5204873 *  0.0000000    1.1033693 *  1.4127996 *
   4 H       3.0323964    2.1168295 *  1.1033693 *  0.0000000    2.0754010 *
   5 O       2.6513250 *  2.3994495 *  1.4127996 *  2.0754010 *  0.0000000  
   6 C       3.5221923    2.5390249 *  1.5574199 *  2.1750108 *  2.4407630 *
   7 H       3.6457522    2.5639651 *  2.1740759 *  2.6780005 *  3.3200590  
   8 O       3.8528072    3.2157954    2.4341956 *  3.3331318    2.6410906 *
   9 C       4.8947723    3.8576406    2.6001636 *  2.6422784 *  3.2991901  
  10 H       5.0148654    3.9147232    2.7087793 *  2.2956511 *  3.5742648  
  11 O       5.4773796    4.6329374    3.1726394    3.2388184    3.2725631  
  12 C       6.0159706    4.9305111    3.9232633    4.0256628    4.7119111  
  13 H       6.2051385    5.2282050    4.2868106    4.6369714    4.8981037  
  14 O       5.9364360    4.7771033    4.1442429    4.1823167    5.2435341  
  15 C       7.3597629    6.2594485    5.1199346    5.0021565    5.7992222  
  16 O       8.3434732    7.2234395    6.2490965    6.2023525    7.0186132  
  17 H       2.0281898 *  1.1072231 *  2.2486171 *  2.5769959 *  3.4057574  
  18 H       2.0541429 *  2.2678153 *  1.9327125 *  2.6161531 *  0.9757948 *
  19 H       3.5538443    3.1583329    2.3211221 *  3.2835860    1.9997449 *
  20 H       5.4261098    4.7050217    3.3260092    3.6836433    3.1954885  
  21 H       6.8573309    5.7061460    5.1110571    5.1370704    6.1870696  
  22 H       7.6967379    6.6793728    5.3961390    5.3284148    5.8208447  
  23 H       7.4411924    6.3021274    5.1633171    4.8111815    5.9254048  
  24 H       9.1863182    8.0540418    7.0269973    6.8870166    7.7655768  

                6 C          7 H          8 O          9 C         10 H     

   1 O       3.5221923    3.6457522    3.8528072    4.8947723    5.0148654  
   2 C       2.5390249 *  2.5639651 *  3.2157954    3.8576406    3.9147232  
   3 C       1.5574199 *  2.1740759 *  2.4341956 *  2.6001636 *  2.7087793 *
   4 H       2.1750108 *  2.6780005 *  3.3331318    2.6422784 *  2.2956511 *
   5 O       2.4407630 *  3.3200590    2.6410906 *  3.2991901    3.5742648  
   6 C       0.0000000    1.0962719 *  1.4227875 *  1.5458948 *  2.1657005 *
   7 H       1.0962719 *  0.0000000    2.0455777 *  2.1367351 *  2.5698616 *
   8 O       1.4227875 *  2.0455777 *  0.0000000    2.4327659 *  3.3555559  
   9 C       1.5458948 *  2.1367351 *  2.4327659 *  0.0000000    1.0975453 *
  10 H       2.1657005 *  2.5698616 *  3.3555559    1.0975453 *  0.0000000  
  11 O       2.4565509 *  3.3498853    2.7844509 *  1.4191714 *  2.0252658 *
  12 C       2.5409345 *  2.5881868 *  3.0942937    1.5392119 *  2.1432380 *
  13 H       2.7655528 *  2.8362567 *  2.7833381 *  2.1688486 *  3.0567707  
  14 O       2.8724606 *  2.3560333 *  3.6791647    2.3852626 *  2.5921627 *
  15 C       3.9066072    4.0539147    4.4504792    2.5416444 *  2.7676135 *
  16 O       4.9016802    4.8027970    5.3230692    3.7546672    4.0212085  
  17 H       2.8350959 *  2.4221615 *  3.6942594    4.0580477    4.0086647  
  18 H       3.1372789    3.8452999    3.2233705    4.1929403    4.4321851  
  19 H       1.9350357 *  2.7566917 *  0.9743015 *  2.9233763 *  3.7424718  
  20 H       2.4971571 *  3.4337320    2.2912438 *  1.9393572 *  2.8112190 *
  21 H       3.8002371    3.2562741    4.4640514    3.2170213    3.4136675  
  22 H       4.2405384    4.6219283    4.5569505    2.8286464 *  3.1961845  
  23 H       4.1910180    4.3272683    5.0074110    2.7497001 *  2.5218084 *
  24 H       5.7477506    5.6941097    6.2034200    4.4888602    4.6300922  

               11 O         12 C         13 H         14 O         15 C     

   1 O       5.4773796    6.0159706    6.2051385    5.9364360    7.3597629  
   2 C       4.6329374    4.9305111    5.2282050    4.7771033    6.2594485  
   3 C       3.1726394    3.9232633    4.2868106    4.1442429    5.1199346  
   4 H       3.2388184    4.0256628    4.6369714    4.1823167    5.0021565  
   5 O       3.2725631    4.7119111    4.8981037    5.2435341    5.7992222  
   6 C       2.4565509 *  2.5409345 *  2.7655528 *  2.8724606 *  3.9066072  
   7 H       3.3498853    2.5881868 *  2.8362567 *  2.3560333 *  4.0539147  
   8 O       2.7844509 *  3.0942937    2.7833381 *  3.6791647    4.4504792  
   9 C       1.4191714 *  1.5392119 *  2.1688486 *  2.3852626 *  2.5416444 *
  10 H       2.0252658 *  2.1432380 *  3.0567707    2.5921627 *  2.7676135 *
  11 O       0.0000000    2.4395749 *  2.7447049 *  3.6473884    2.9069283 *
  12 C       2.4395749 *  0.0000000    1.1016134 *  1.4285778 *  1.5252155 *
  13 H       2.7447049 *  1.1016134 *  0.0000000    2.0795018 *  2.1468113 *
  14 O       3.6473884    1.4285778 *  2.0795018 *  0.0000000    2.4218284 *
  15 C       2.9069283 *  1.5252155 *  2.1468113 *  2.4218284 *  0.0000000  
  16 O       4.2468050    2.3630776 *  2.6239674 *  2.7278313 *  1.4361345 *
  17 H       5.0942096    4.8816030    5.2532176    4.4091856    6.2188929  
  18 H       4.2429384    5.5582918    5.7016259    5.9631951    6.7171322  
  19 H       2.9275612 *  3.8648088    3.6152388    4.5404055    5.1093724  
  20 H       0.9700292 *  2.7404446 *  2.6532908 *  3.9890263    3.3904833  
  21 H       4.3468953    1.9437565 *  2.3936925 *  0.9692884 *  2.4583260 *
  22 H       2.6309941 *  2.1652702 *  2.4593982 *  3.3693149    1.0953851 *
  23 H       3.1822009    2.1590558 *  3.0598920    2.7025903 *  1.0997840 *
  24 H       4.8380641    3.2197908    3.5314023    3.5830117    1.9813797 *

               16 O         17 H         18 H         19 H         20 H     

   1 O       8.3434732    2.0281898 *  2.0541429 *  3.5538443    5.4261098  
   2 C       7.2234395    1.1072231 *  2.2678153 *  3.1583329    4.7050217  
   3 C       6.2490965    2.2486171 *  1.9327125 *  2.3211221 *  3.3260092  
   4 H       6.2023525    2.5769959 *  2.6161531 *  3.2835860    3.6836433  
   5 O       7.0186132    3.4057574    0.9757948 *  1.9997449 *  3.1954885  
   6 C       4.9016802    2.8350959 *  3.1372789    1.9350357 *  2.4971571 *
   7 H       4.8027970    2.4221615 *  3.8452999    2.7566917 *  3.4337320  
   8 O       5.3230692    3.6942594    3.2233705    0.9743015 *  2.2912438 *
   9 C       3.7546672    4.0580477    4.1929403    2.9233763 *  1.9393572 *
  10 H       4.0212085    4.0086647    4.4321851    3.7424718    2.8112190 *
  11 O       4.2468050    5.0942096    4.2429384    2.9275612 *  0.9700292 *
  12 C       2.3630776 *  4.8816030    5.5582918    3.8648088    2.7404446 *
  13 H       2.6239674 *  5.2532176    5.7016259    3.6152388    2.6532908 *
  14 O       2.7278313 *  4.4091856    5.9631951    4.5404055    3.9890263  
  15 C       1.4361345 *  6.2188929    6.7171322    5.1093724    3.3904833  
  16 O       0.0000000    7.0340494    7.8965609    6.1046556    4.5748294  
  17 H       7.0340494    0.0000000    3.3711685    3.8935916    5.2526644  
  18 H       7.8965609    3.3711685    0.0000000    2.5209461 *  4.1093177  
  19 H       6.1046556    3.8935916    2.5209461 *  0.0000000    2.3604703 *
  20 H       4.5748294    5.2526644    4.1093177    2.3604703 *  0.0000000  
  21 H       2.2236139 *  5.2745433    6.9141067    5.3633645    4.6621098  
  22 H       2.0988723 *  6.8041827    6.7749100    5.0814164    3.0159546  
  23 H       2.0924899 *  6.2131861    6.8398099    5.5957950    3.8990812  
  24 H       0.9647780 *  7.8669165    8.6704723    6.9413750    5.2320708  

               21 H         22 H         23 H         24 H     

   1 O       6.8573309    7.6967379    7.4411924    9.1863182  
   2 C       5.7061460    6.6793728    6.3021274    8.0540418  
   3 C       5.1110571    5.3961390    5.1633171    7.0269973  
   4 H       5.1370704    5.3284148    4.8111815    6.8870166  
   5 O       6.1870696    5.8208447    5.9254048    7.7655768  
   6 C       3.8002371    4.2405384    4.1910180    5.7477506  
   7 H       3.2562741    4.6219283    4.3272683    5.6941097  
   8 O       4.4640514    4.5569505    5.0074110    6.2034200  
   9 C       3.2170213    2.8286464 *  2.7497001 *  4.4888602  
  10 H       3.4136675    3.1961845    2.5218084 *  4.6300922  
  11 O       4.3468953    2.6309941 *  3.1822009    4.8380641  
  12 C       1.9437565 *  2.1652702 *  2.1590558 *  3.2197908  
  13 H       2.3936925 *  2.4593982 *  3.0598920    3.5314023  
  14 O       0.9692884 *  3.3693149    2.7025903 *  3.5830117  
  15 C       2.4583260 *  1.0953851 *  1.0997840 *  1.9813797 *
  16 O       2.2236139 *  2.0988723 *  2.0924899 *  0.9647780 *
  17 H       5.2745433    6.8041827    6.2131861    7.8669165  
  18 H       6.9141067    6.7749100    6.8398099    8.6704723  
  19 H       5.3633645    5.0814164    5.5957950    6.9413750  
  20 H       4.6621098    3.0159546    3.8990812    5.2320708  
  21 H       0.0000000    3.4719060    2.8072032 *  3.0410419  
  22 H       3.4719060    0.0000000    1.7892892 *  2.4059921 *
  23 H       2.8072032 *  1.7892892 *  0.0000000    2.3275678 *
  24 H       3.0410419    2.4059921 *  2.3275678 *  0.0000000  

  * ... LESS THAN  3.000


     ATOMIC BASIS SET
     ----------------
 THE CONTRACTED PRIMITIVE FUNCTIONS HAVE BEEN UNNORMALIZED
 THE CONTRACTED BASIS FUNCTIONS ARE NOW NORMALIZED TO UNITY

  SHELL TYPE  PRIMITIVE        EXPONENT          CONTRACTION COEFFICIENT(S)

 O         

      1   S       1           322.0370000    0.059239393389
      1   S       2            48.4308000    0.351499960776
      1   S       3            10.4206000    0.707657921031

      2   L       4             7.4029400   -0.404453583190    0.244586106967
      2   L       5             1.5762000    1.221561761397    0.853955373466

      3   L       6             0.3736840    1.000000000000    1.000000000000

 C         

      4   S       7           172.2560000    0.061766907377
      4   S       8            25.9109000    0.358794042852
      4   S       9             5.5333500    0.700713083689

      5   L      10             3.6649800   -0.395895162119    0.236459946619
      5   L      11             0.7705450    1.215834355681    0.860618805716

      6   L      12             0.1958570    1.000000000000    1.000000000000

 C         

      7   S      13           172.2560000    0.061766907377
      7   S      14            25.9109000    0.358794042852
      7   S      15             5.5333500    0.700713083689

      8   L      16             3.6649800   -0.395895162119    0.236459946619
      8   L      17             0.7705450    1.215834355681    0.860618805716

      9   L      18             0.1958570    1.000000000000    1.000000000000

 H         

     10   S      19             5.4471780    0.156284978695
     10   S      20             0.8245472    0.904690876670

     11   S      21             0.1831916    1.000000000000

 O         

     12   S      22           322.0370000    0.059239393389
     12   S      23            48.4308000    0.351499960776
     12   S      24            10.4206000    0.707657921031

     13   L      25             7.4029400   -0.404453583190    0.244586106967
     13   L      26             1.5762000    1.221561761397    0.853955373466

     14   L      27             0.3736840    1.000000000000    1.000000000000

 C         

     15   S      28           172.2560000    0.061766907377
     15   S      29            25.9109000    0.358794042852
     15   S      30             5.5333500    0.700713083689

     16   L      31             3.6649800   -0.395895162119    0.236459946619
     16   L      32             0.7705450    1.215834355681    0.860618805716

     17   L      33             0.1958570    1.000000000000    1.000000000000

 H         

     18   S      34             5.4471780    0.156284978695
     18   S      35             0.8245472    0.904690876670

     19   S      36             0.1831916    1.000000000000

 O         

     20   S      37           322.0370000    0.059239393389
     20   S      38            48.4308000    0.351499960776
     20   S      39            10.4206000    0.707657921031

     21   L      40             7.4029400   -0.404453583190    0.244586106967
     21   L      41             1.5762000    1.221561761397    0.853955373466

     22   L      42             0.3736840    1.000000000000    1.000000000000

 C         

     23   S      43           172.2560000    0.061766907377
     23   S      44            25.9109000    0.358794042852
     23   S      45             5.5333500    0.700713083689

     24   L      46             3.6649800   -0.395895162119    0.236459946619
     24   L      47             0.7705450    1.215834355681    0.860618805716

     25   L      48             0.1958570    1.000000000000    1.000000000000

 H         

     26   S      49             5.4471780    0.156284978695
     26   S      50             0.8245472    0.904690876670

     27   S      51             0.1831916    1.000000000000

 O         

     28   S      52           322.0370000    0.059239393389
     28   S      53            48.4308000    0.351499960776
     28   S      54            10.4206000    0.707657921031

     29   L      55             7.4029400   -0.404453583190    0.244586106967
     29   L      56             1.5762000    1.221561761397    0.853955373466

     30   L      57             0.3736840    1.000000000000    1.000000000000

 C         

     31   S      58           172.2560000    0.061766907377
     31   S      59            25.9109000    0.358794042852
     31   S      60             5.5333500    0.700713083689

     32   L      61             3.6649800   -0.395895162119    0.236459946619
     32   L      62             0.7705450    1.215834355681    0.860618805716

     33   L      63             0.1958570    1.000000000000    1.000000000000

 H         

     34   S      64             5.4471780    0.156284978695
     34   S      65             0.8245472    0.904690876670

     35   S      66             0.1831916    1.000000000000

 O         

     36   S      67           322.0370000    0.059239393389
     36   S      68            48.4308000    0.351499960776
     36   S      69            10.4206000    0.707657921031

     37   L      70             7.4029400   -0.404453583190    0.244586106967
     37   L      71             1.5762000    1.221561761397    0.853955373466

     38   L      72             0.3736840    1.000000000000    1.000000000000

 C         

     39   S      73           172.2560000    0.061766907377
     39   S      74            25.9109000    0.358794042852
     39   S      75             5.5333500    0.700713083689

     40   L      76             3.6649800   -0.395895162119    0.236459946619
     40   L      77             0.7705450    1.215834355681    0.860618805716

     41   L      78             0.1958570    1.000000000000    1.000000000000

 O         

     42   S      79           322.0370000    0.059239393389
     42   S      80            48.4308000    0.351499960776
     42   S      81            10.4206000    0.707657921031

     43   L      82             7.4029400   -0.404453583190    0.244586106967
     43   L      83             1.5762000    1.221561761397    0.853955373466

     44   L      84             0.3736840    1.000000000000    1.000000000000

 H         

     45   S      85             5.4471780    0.156284978695
     45   S      86             0.8245472    0.904690876670

     46   S      87             0.1831916    1.000000000000

 H         

     47   S      88             5.4471780    0.156284978695
     47   S      89             0.8245472    0.904690876670

     48   S      90             0.1831916    1.000000000000

 H         

     49   S      91             5.4471780    0.156284978695
     49   S      92             0.8245472    0.904690876670

     50   S      93             0.1831916    1.000000000000

 H         

     51   S      94             5.4471780    0.156284978695
     51   S      95             0.8245472    0.904690876670

     52   S      96             0.1831916    1.000000000000

 H         

     53   S      97             5.4471780    0.156284978695
     53   S      98             0.8245472    0.904690876670

     54   S      99             0.1831916    1.000000000000

 H         

     55   S     100             5.4471780    0.156284978695
     55   S     101             0.8245472    0.904690876670

     56   S     102             0.1831916    1.000000000000

 H         

     57   S     103             5.4471780    0.156284978695
     57   S     104             0.8245472    0.904690876670

     58   S     105             0.1831916    1.000000000000

 H         

     59   S     106             5.4471780    0.156284978695
     59   S     107             0.8245472    0.904690876670

     60   S     108             0.1831916    1.000000000000

 TOTAL NUMBER OF BASIS SET SHELLS             =   60
 NUMBER OF CARTESIAN GAUSSIAN BASIS FUNCTIONS =  132
 NUMBER OF ELECTRONS                          =   96
 CHARGE OF MOLECULE                           =    0
 SPIN MULTIPLICITY                            =    1
 NUMBER OF OCCUPIED ORBITALS (ALPHA)          =   48
 NUMBER OF OCCUPIED ORBITALS (BETA )          =   48
 TOTAL NUMBER OF ATOMS                        =   24
 THE NUCLEAR REPULSION ENERGY IS      781.3726556032

 SELECTED MURRAY-HANDY-LAMING RADIAL GRID

 LEGACY BECKE'S FUZZY CELL METHOD

 SELECTED ORIGINAL BECKE'S PARTITION FUNCTION

     LEBEDEV GRID-BASED DFT OPTIONS
     ------------------------------
     DFTTYP=B3LYP   
     NRAD  =      96     NLEB  =     302
     NRAD0 =      24     NLEB0 =     110
     SWOFF =    5.00E-03 (PURE SCF -> DFT)
     SWITCH=    3.00E-04 (COARSE -> TIGHT GRID)
     THRESH=    0.00E+00 GTHRE=    1.00E+00

 GRIMME'S EMPIRICAL DISPERSION CORRECTION= F

     $CONTRL OPTIONS
     ---------------
 SCFTYP=RHF          RUNTYP=OPTIMIZE     EXETYP=RUN     
 MPLEVL=       0     CITYP =NONE         CCTYP =NONE         VBTYP =NONE    
 DFTTYP=B3LYP        TDDFT =NONE    
 MULT  =       1     ICHARG=       0     NZVAR =       0     COORD =UNIQUE  
 PP    =NONE         RELWFN=NONE         LOCAL =NONE         NUMGRD=       F
 ISPHER=      -1     NOSYM =       0     MAXIT =      60     UNITS =ANGS    
 PLTORB=       F     MOLPLT=       F     AIMPAC=       F     FRIEND=        
 NPRINT=       7     IREST =       0     GEOM  =INPUT   
 NORMF =       0     NORMP =       0     ITOL  =      20     ICUT  =       9
 INTTYP=BEST         GRDTYP=BEST         QMTTOL= 1.0E-06

     $SYSTEM OPTIONS
     ---------------
  REPLICATED MEMORY=    30000000 WORDS (ON EVERY NODE).
 DISTRIBUTED MEMDDI=        1000 MILLION WORDS IN AGGREGATE,
 MEMDDI DISTRIBUTED OVER   8 PROCESSORS IS   125000000 WORDS/PROCESSOR.
 TOTAL MEMORY REQUESTED ON EACH PROCESSOR=   155000000 WORDS.
 TIMLIM=      525600.00 MINUTES, OR     365.0 DAYS.
 PARALL= T  BALTYP=  DLB     KDIAG=    0  COREFL= F
 MXSEQ2=     300 MXSEQ3=     150  mem10=         0

          ----------------
          PROPERTIES INPUT
          ----------------

     MOMENTS            FIELD           POTENTIAL          DENSITY
 IEMOM =       1   IEFLD =       0   IEPOT =       0   IEDEN =       0
 WHERE =COMASS     WHERE =NUCLEI     WHERE =NUCLEI     WHERE =NUCLEI  
 OUTPUT=BOTH       OUTPUT=BOTH       OUTPUT=BOTH       OUTPUT=BOTH    
 IEMINT=       0   IEFINT=       0                     IEDINT=       0
                                                       MORB  =       0
          EXTRAPOLATION IN EFFECT
          DIIS IN EFFECT
 ORBITAL PRINTING OPTION: NPREO=     1   132     2     1

     -------------------------------
     INTEGRAL TRANSFORMATION OPTIONS
     -------------------------------
     NWORD  =            0
     CUTOFF = 1.0E-09     MPTRAN =       0
     DIRTRF =       T     AOINTS =DUP     

          ----------------------
          INTEGRAL INPUT OPTIONS
          ----------------------
 NOPK  =       1 NORDER=       0 SCHWRZ=       T

     ------------------------------------------
     THE POINT GROUP IS C1 , NAXIS= 0, ORDER= 1
     ------------------------------------------

     DIMENSIONS OF THE SYMMETRY SUBSPACES ARE
 A   =  132

 ..... DONE SETTING UP THE RUN .....
 CPU     0: STEP CPU TIME=     0.01 TOTAL CPU TIME=          0.0 (      0.0 MIN)
 TOTAL WALL CLOCK TIME=          0.0 SECONDS, CPU UTILIZATION IS    50.00%


          -----------------------------
          STATIONARY POINT LOCATION RUN
          -----------------------------

 OBTAINING INITIAL HESSIAN, HESS=GUESS   
 CARTESIAN COORDINATE OPTIMIZATION USING BADGER'S RULE FORCE CONSTANT GUESS

          PARAMETERS CONTROLLING GEOMETRY SEARCH ARE
          METHOD =QA                  UPHESS =BFGS    
          NNEG   =         0          NFRZ   =         0
          NSTEP  =       999          IFOLOW =         1
          HESS   =GUESS               RESTAR =         F
          IHREP  =         0          HSSEND =         F
          NPRT   =         0          NPUN   =         0
          OPTTOL = 1.000E-04          RMIN   = 1.500E-03
          RMAX   = 1.000E-01          RLIM   = 7.000E-02
          DXMAX  = 3.000E-01          PURIFY =         F
          MOVIE  =         F          TRUPD  =         T
          TRMAX  = 5.000E-01          TRMIN  = 5.000E-02
          ITBMAT =         5          STPT   =         F
          STSTEP = 1.000E-02          PROJCT=          T

 BEGINNING GEOMETRY SEARCH POINT NSERCH=   0 ...

 COORDINATES OF ALL ATOMS ARE (ANGS)
   ATOM   CHARGE       X              Y              Z
 ------------------------------------------------------------
 O           8.0  -4.0853124000  -0.8729211000   0.2483207000
 C           6.0  -2.9423149000  -0.9413447000   0.6545742000
 C           6.0  -1.9667892000   0.2122931000   0.4832523000
 H           1.0  -1.7343870000   0.5788788000   1.4976625000
 O           8.0  -2.5665569000   1.2332272000  -0.2874455000
 C           6.0  -0.6428844000  -0.2654422000  -0.1835324000
 H           1.0  -0.4699178000  -1.3137179000   0.0866763000
 O           8.0  -0.7727856000  -0.1945710000  -1.5986039000
 C           6.0   0.6061667000   0.5228658000   0.2727926000
 H           1.0   0.5552935000   0.6696063000   1.3592938000
 O           8.0   0.6533396000   1.8176774000  -0.3062455000
 C           6.0   1.8933945000  -0.2649557000  -0.0297881000
 H           1.0   1.9547819000  -0.4605117000  -1.1121658000
 O           8.0   1.8019329000  -1.4999623000   0.6824114000
 C           6.0   3.1445958000   0.4953810000   0.3976060000
 O           8.0   4.2443232000  -0.3993127000   0.1682482000
 H           1.0  -2.5657772000  -1.8396826000   1.1810259000
 H           1.0  -3.5086665000   0.9961366000  -0.3790594000
 H           1.0  -1.4802924000   0.4520104000  -1.7736182000
 H           1.0   0.4428361000   1.7156357000  -1.2476447000
 H           1.0   2.6817818000  -1.9055194000   0.6522569000
 H           1.0   3.2506179000   1.4146712000  -0.1885112000
 H           1.0   3.0735310000   0.7529140000   1.4644478000
 H           1.0   5.0565894000  -0.0109561000   0.5149459000

          ********************
          1 ELECTRON INTEGRALS
          ********************
 ...... END OF ONE-ELECTRON INTEGRALS ......
 CPU     0: STEP CPU TIME=     0.03 TOTAL CPU TIME=          0.0 (      0.0 MIN)
 TOTAL WALL CLOCK TIME=          0.0 SECONDS, CPU UTILIZATION IS   100.00%

          -------------
          GUESS OPTIONS
          -------------
          GUESS =HUCKEL            NORB  =       0          NORDER=       0
          MIX   =       F          PRTMO =       F          PUNMO =       F
          TOLZ  = 1.0E-08          TOLE  = 1.0E-05
          SYMDEN=       F          PURIFY=       F

 INITIAL GUESS ORBITALS GENERATED BY HUCKEL   ROUTINE.
 HUCKEL GUESS REQUIRES    164928 WORDS.

 SYMMETRIES FOR INITIAL GUESS ORBITALS FOLLOW.   BOTH SET(S).
    48 ORBITALS ARE OCCUPIED (   12 CORE ORBITALS).
    13=A       14=A       15=A       16=A       17=A       18=A       19=A   
    20=A       21=A       22=A       23=A       24=A       25=A       26=A   
    27=A       28=A       29=A       30=A       31=A       32=A       33=A   
    34=A       35=A       36=A       37=A       38=A       39=A       40=A   
    41=A       42=A       43=A       44=A       45=A       46=A       47=A   
    48=A       49=A       50=A       51=A       52=A       53=A       54=A   
    55=A       56=A       57=A       58=A   
 ...... END OF INITIAL ORBITAL SELECTION ......
 CPU     0: STEP CPU TIME=     0.02 TOTAL CPU TIME=          0.1 (      0.0 MIN)
 TOTAL WALL CLOCK TIME=          0.1 SECONDS, CPU UTILIZATION IS    85.71%

                    ----------------------
                    AO INTEGRAL TECHNOLOGY
                    ----------------------
     S,P,L SHELL ROTATED AXIS INTEGRALS, REPROGRAMMED BY
        KAZUYA ISHIMURA (IMS) AND JOSE SIERRA (SYNSTAR).
     S,P,D,L SHELL ROTATED AXIS INTEGRALS PROGRAMMED BY
        KAZUYA ISHIMURA (INSTITUTE FOR MOLECULAR SCIENCE).
     S,P,D,F,G SHELL TO TOTAL QUARTET ANGULAR MOMENTUM SUM 5,
        ERIC PROGRAM BY GRAHAM FLETCHER (ELORET AND NASA ADVANCED
        SUPERCOMPUTING DIVISION, AMES RESEARCH CENTER).
     S,P,D,F,G,L SHELL GENERAL RYS QUADRATURE PROGRAMMED BY
        MICHEL DUPUIS (PACIFIC NORTHWEST NATIONAL LABORATORY).

          --------------------
          2 ELECTRON INTEGRALS
          --------------------

 DIRECT SCF METHOD SKIPS INTEGRAL STORAGE ON DISK.
 DIRECT TRANSFORMATION SKIPS AO INTEGRAL STORAGE ON DISK.
  ...... END OF TWO-ELECTRON INTEGRALS .....
 CPU     0: STEP CPU TIME=     0.01 TOTAL CPU TIME=          0.1 (      0.0 MIN)
 TOTAL WALL CLOCK TIME=          0.1 SECONDS, CPU UTILIZATION IS    87.50%

          --------------------------
             R-B3LYP SCF CALCULATION
          --------------------------

     NUCLEAR ENERGY =       781.3726556032
     MAXIT =   60     NPUNCH=    2
     EXTRAP=T  DAMP=F  SHIFT=F  RSTRCT=F  DIIS=T  DEM=F  SOSCF=F
         DENSITY MATRIX CONVERGENCE THRESHOLD=  2.00E-05
     COARSE -> FINE DFT GRID SWITCH THRESHOLD=  3.00E-04 (SWITCH IN $DFT)
                   HF -> DFT SWITCH THRESHOLD=  5.00E-03 (SWOFF IN $DFT)
     MEMORY REQUIRED FOR RHF ITERS=    955735 WORDS.

 DIRECT SCF CALCULATION, SCHWRZ=T   FDIFF=T,  DIRTHR=  0.00E+00 NITDIR=10
 SCHWARZ INEQUALITY OVERHEAD:      7752 INTEGRALS, T=        0.00

 DFT CODE IS SWITCHING FROM THE FINE GRID NRAD= 96,  NLEB=  302
                      TO THE COARSE GRID NRAD0= 24, NLEB0=  110

     EXCHANGE FUNCTIONAL   =B88&HFX   
     CORRELATION FUNCTIONAL=LYP88&VWN5
     DFT THRESHOLD         =.575E-08
     GRID CHANGE THRESHOLD =.300E-03
 FOR AN EULER-MACLAURIN QUADRATURE USING  96 RADIAL POINTS:
 SMALLEST GAUSSIAN PRIMITIVE EXPONENT=        0.1831915800 OF TYPE -S-
 ON ATOM NUMBER   4 HAS RADIAL NORMALIZATION=  1.000000
  LARGEST GAUSSIAN PRIMITIVE EXPONENT=      322.0370000000 OF TYPE -S-
 ON ATOM NUMBER   1 HAS RADIAL NORMALIZATION=  1.000000
 DFT IS SWITCHED OFF, PERFORMING PURE SCF UNTIL SWOFF THRESHOLD IS REACHED.

                                                                                   NONZERO     BLOCKS
 ITER EX DEM     TOTAL ENERGY        E CHANGE  DENSITY CHANGE    DIIS ERROR      INTEGRALS    SKIPPED
   1  0  0     -677.6296985769  -677.6296985769   0.819020888   0.565827180       17772820     962454
          * * *   INITIATING DIIS PROCEDURE   * * *
   2  1  0     -679.3865910865    -1.7568925095   0.137765511   0.178517032       17744321     975259
   3  2  0     -679.4801044591    -0.0935133727   0.118675887   0.133313727       17531935    1015715
   4  3  0     -679.5142669534    -0.0341624943   0.026155699   0.030121316       17201963    1051311
   5  4  0     -679.5174467819    -0.0031798285   0.004227811   0.004326321       16894452    1071608
 CONVERGED TO SWOFF, SO DFT CALCULATION IS NOW SWITCHED ON.
          * * *   INITIATING DIIS PROCEDURE   * * *
   6  5  0     -682.9129161512    -3.3954693694   0.131110463   0.068049577       17792388     953189
   7  6  0     -682.9610559895    -0.0481398383   0.129940489   0.063246778       17620562    1004879
   8  7  0     -682.9561994383     0.0048565512   0.078986768   0.105973644       17372709    1034158
   9  8  0     -682.9727021175    -0.0165026792   0.012666794   0.028512753       17081873    1060741
  10  9  0     -682.9738250704    -0.0011229528   0.002757417   0.004525384       16402577    1100630
  11 10  0     -682.9738664351    -0.0000413647   0.000507297   0.000586610       15458585    1153201
  12 11  0     -682.9738684843    -0.0000020493   0.000126561   0.000140421       14580039    1187762
 DFT CODE IS SWITCHING BACK TO THE FINE GRID
          * * *   INITIATING DIIS PROCEDURE   * * *
  13 12  0     -682.9812743579    -0.0074058736   0.002435174   0.001048036       17799634     949150
  14 13  0     -682.9813218634    -0.0000475055   0.002437258   0.000721932       16065470    1123365
  15 14  0     -682.9813228638    -0.0000010005   0.000980624   0.000799431       15278431    1161277
  16 15  0     -682.9813275421    -0.0000046783   0.000135180   0.000111996       14558969    1192989
  17 16  0     -682.9813275798    -0.0000000377   0.000080734   0.000107977       13091942    1253882
  18 17  0     -682.9813275939    -0.0000000140   0.000021273   0.000043750       11886356    1306683
  19 18  0     -682.9813275964    -0.0000000026   0.000006297   0.000009764       11136783    1332667
  20 19  0     -682.9813275966    -0.0000000002   0.000000831   0.000000859        9994256    1380538

          -----------------
          DENSITY CONVERGED
          -----------------
     TIME TO FORM FOCK OPERATORS=      23.1 SECONDS (       1.2 SEC/ITER)
     FOCK TIME ON FIRST ITERATION=       0.1, LAST ITERATION=       2.4
     TIME TO SOLVE SCF EQUATIONS=       0.4 SECONDS (       0.0 SEC/ITER)

 FINAL R-B3LYP ENERGY IS     -682.9813275966 AFTER  20 ITERATIONS
 DFT EXCHANGE + CORRELATION ENERGY =       -71.1962386431
 TOTAL ELECTRON NUMBER             =        96.0004489857

          ------------
          EIGENVECTORS
          ------------

                      1          2          3          4          5
                  -19.0750   -19.0518   -19.0287   -19.0275   -19.0190
                     A          A          A          A          A   
    1  O  1  S    0.982657   0.005882  -0.000173  -0.000347   0.000272
    2  O  1  S    0.106625  -0.000132   0.000020   0.000088  -0.000065
    3  O  1  X    0.004354  -0.000073   0.000009  -0.000073  -0.000001
    4  O  1  Y    0.000108   0.000241   0.000011  -0.000058  -0.000002
    5  O  1  Z    0.001402  -0.000067  -0.000009   0.000024   0.000052
    6  O  1  S   -0.059699   0.004915  -0.000171  -0.001079   0.000605
    7  O  1  X   -0.015461   0.001883  -0.000102  -0.000008   0.000254
    8  O  1  Y   -0.000578  -0.000434  -0.000074   0.000107   0.000120
    9  O  1  Z   -0.004874   0.000528   0.000040  -0.000113  -0.000200
   10  C  2  S    0.000104   0.000194  -0.000018   0.000092   0.000045
   11  C  2  S    0.000385   0.000312  -0.000081   0.000868   0.000266
   12  C  2  X   -0.002137  -0.000507   0.000020   0.000396   0.000078
   13  C  2  Y   -0.000590  -0.000425   0.000016  -0.000055   0.000062
   14  C  2  Z   -0.000546   0.000078   0.000021  -0.000080  -0.000083
   15  C  2  S    0.023448  -0.007595   0.000792  -0.002139  -0.001430
   16  C  2  X   -0.020053   0.004205   0.000201  -0.002546  -0.000056
   17  C  2  Y    0.008230  -0.006627   0.000427   0.001096  -0.001406
   18  C  2  Z   -0.010234   0.005259  -0.000286  -0.001412   0.001299
   19  C  3  S    0.000273  -0.001009   0.000047   0.000194  -0.000001
   20  C  3  S    0.001024  -0.004359   0.000224   0.000556   0.000191
   21  C  3  X   -0.000294  -0.000536  -0.000191  -0.000943   0.000507
   22  C  3  Y    0.000456   0.001550  -0.000049   0.000488   0.000070
   23  C  3  Z   -0.000523  -0.000431   0.000020   0.000215   0.000244
   24  C  3  S   -0.005943   0.025335  -0.002032  -0.004677   0.000596
   25  C  3  X    0.009181  -0.010141  -0.000007   0.001229  -0.002772
   26  C  3  Y   -0.003744   0.007844   0.000593  -0.003190  -0.000036
   27  C  3  Z    0.006620  -0.012484   0.000362   0.006197  -0.002696
   28  H  4  S   -0.000357  -0.000892  -0.000010  -0.000522   0.000525
   29  H  4  S   -0.001534   0.000739   0.000171  -0.000337   0.000929
   30  O  5  S   -0.006113   0.982602   0.000044   0.000928  -0.001027
   31  O  5  S   -0.001476   0.106298  -0.000017  -0.000175   0.000086
   32  O  5  X   -0.000408  -0.000919   0.000036   0.000324  -0.000099
   33  O  5  Y   -0.000002  -0.003425   0.000006   0.000016   0.000005
   34  O  5  Z   -0.000197   0.001567   0.000007  -0.000428   0.000054
   35  O  5  S    0.005214  -0.055359   0.000182   0.002915  -0.001173
   36  O  5  X    0.002205   0.000148  -0.000104  -0.000597   0.000318
   37  O  5  Y   -0.001611   0.010917  -0.000133  -0.001028   0.000475
   38  O  5  Z    0.001733  -0.005751   0.000010   0.002116  -0.000348
   39  C  6  S    0.000008   0.000227  -0.000056  -0.000929   0.000175
   40  C  6  S    0.000122   0.000795  -0.000341  -0.004060   0.000495
   41  C  6  X    0.000388   0.000271   0.000261  -0.000098  -0.000683
   42  C  6  Y    0.000011  -0.000202  -0.000099  -0.000348  -0.000453
   43  C  6  Z   -0.000038  -0.000557  -0.000064  -0.001611  -0.000663
   44  C  6  S   -0.002480  -0.004672   0.003066   0.020816  -0.003983
   45  C  6  X   -0.002133   0.004450  -0.000425  -0.003410  -0.000229
   46  C  6  Y    0.000309  -0.002383   0.001496   0.004316  -0.003467
   47  C  6  Z   -0.002644   0.006556   0.001075  -0.015593   0.005498
   48  H  7  S   -0.000109  -0.000419   0.000077  -0.001062  -0.000545
   49  H  7  S    0.001893  -0.000297   0.000034   0.000514  -0.000197
   50  O  8  S    0.000392  -0.001032  -0.003022   0.982543   0.000405
   51  O  8  S    0.000167  -0.000396  -0.000333   0.105896  -0.000166
   52  O  8  X    0.000071  -0.000343  -0.000016  -0.001531   0.000353
   53  O  8  Y   -0.000135   0.000177   0.000054   0.001649   0.000308
   54  O  8  Z   -0.000021  -0.000220  -0.000015   0.003190  -0.000008
   55  O  8  S   -0.000900   0.002575   0.000169  -0.053772   0.002688
   56  O  8  X   -0.000155   0.001279   0.000148   0.003033  -0.000960
   57  O  8  Y    0.000421  -0.000784  -0.000269  -0.003403  -0.000908
   58  O  8  Z   -0.000279   0.002281  -0.000006  -0.011073   0.001284
   59  C  9  S   -0.000031   0.000040  -0.000163   0.000091  -0.000934
   60  C  9  S   -0.000082   0.000418  -0.001013  -0.000010  -0.004010
   61  C  9  X   -0.000469  -0.000154  -0.000684   0.000706   0.000185
   62  C  9  Y   -0.000059  -0.000021  -0.000231   0.000659   0.001526
   63  C  9  Z    0.000107   0.000213  -0.000122   0.000272  -0.000268
   64  C  9  S    0.002431  -0.001972   0.003125  -0.001567   0.022330
   65  C  9  X    0.001363   0.000802   0.005306   0.001021   0.000490
   66  C  9  Y   -0.001239   0.001642   0.001519  -0.004531   0.012869
   67  C  9  Z   -0.000567  -0.002535   0.000708   0.004412  -0.010076
   68  H 10  S    0.000183   0.000275  -0.000576  -0.000680  -0.001081
   69  H 10  S   -0.000337   0.001541  -0.000249   0.000096   0.000002
   70  O 11  S   -0.000297   0.001075   0.003051  -0.000474   0.982554
   71  O 11  S   -0.000091   0.000280   0.000519  -0.000239   0.105764
   72  O 11  X    0.000062   0.000020  -0.000009  -0.000248  -0.000661
   73  O 11  Y   -0.000012  -0.000004  -0.000026  -0.000013  -0.003707
   74  O 11  Z   -0.000062   0.000059   0.000108  -0.000231  -0.001023
   75  O 11  S    0.000170  -0.000895  -0.001333   0.002147  -0.053489
   76  O 11  X   -0.000292  -0.000169  -0.000406   0.000712   0.001569
   77  O 11  Y    0.000081   0.000325   0.000546  -0.001000   0.011908
   78  O 11  Z    0.000256  -0.000228  -0.000712   0.001206   0.000315
   79  C 12  S    0.000048   0.000008   0.000352   0.000131   0.000121
   80  C 12  S    0.000243   0.000129   0.001590   0.000899   0.000128
   81  C 12  X    0.000125  -0.000204  -0.000510  -0.000424   0.000513
   82  C 12  Y    0.000022  -0.000045   0.000023  -0.000116  -0.000344
   83  C 12  Z   -0.000018  -0.000066   0.000067   0.000104  -0.000443
   84  C 12  S   -0.002088   0.000167  -0.011304  -0.002668  -0.003250
   85  C 12  X    0.000347   0.000883  -0.003754   0.002665   0.001007
   86  C 12  Y   -0.000856  -0.000001  -0.002367   0.002261  -0.004168
   87  C 12  Z   -0.000242   0.001205  -0.002405  -0.002280   0.004253
   88  H 13  S    0.000109   0.000147   0.000616  -0.000107   0.001001
   89  H 13  S   -0.000080   0.000471  -0.000558  -0.000278   0.000638
   90  O 14  S    0.000097   0.000602   0.004910  -0.007195   0.001500
   91  O 14  S    0.000028   0.000154   0.000722  -0.001285   0.000317
   92  O 14  X   -0.000018  -0.000062   0.000211   0.000064   0.000346
   93  O 14  Y   -0.000016   0.000019  -0.000023  -0.000086  -0.000180
   94  O 14  Z   -0.000018  -0.000004   0.000056   0.000087  -0.000063
   95  O 14  S   -0.000022  -0.000309  -0.000142   0.002569  -0.001675
   96  O 14  X    0.000075   0.000085  -0.000532  -0.000326  -0.001426
   97  O 14  Y    0.000087  -0.000164   0.000816   0.000985   0.000078
   98  O 14  Z    0.000059  -0.000002  -0.000327  -0.000657   0.000418
   99  C 15  S   -0.000016   0.000029  -0.000923   0.000004   0.000063
  100  C 15  S   -0.000058   0.000181  -0.003713   0.000042   0.000510
  101  C 15  X   -0.000044  -0.000018   0.001549   0.000012  -0.000140
  102  C 15  Y   -0.000014  -0.000002  -0.000833  -0.000010  -0.000034
  103  C 15  Z    0.000015   0.000007  -0.000152  -0.000133   0.000305
  104  C 15  S    0.000611  -0.000923   0.023402  -0.000737  -0.000913
  105  C 15  X   -0.000253   0.000488   0.005388   0.000231   0.000360
  106  C 15  Y   -0.000157   0.000405  -0.009407  -0.000000   0.000142
  107  C 15  Z   -0.000219  -0.000115  -0.002524   0.001574  -0.002573
  108  O 16  S    0.000184  -0.000059   0.982443   0.003056  -0.003016
  109  O 16  S    0.000056  -0.000019   0.104987   0.000305  -0.000206
  110  O 16  X   -0.000020  -0.000010  -0.000512  -0.000013  -0.000073
  111  O 16  Y   -0.000002   0.000003   0.003248  -0.000019   0.000003
  112  O 16  Z   -0.000011  -0.000013   0.001638   0.000044  -0.000132
  113  O 16  S   -0.000132   0.000084  -0.050021  -0.000019  -0.000190
  114  O 16  X    0.000118  -0.000012   0.004024   0.000011   0.000332
  115  O 16  Y   -0.000005  -0.000004  -0.008624   0.000119  -0.000061
  116  O 16  Z    0.000047   0.000059  -0.003769  -0.000216   0.000575
  117  H 17  S    0.000435  -0.000911  -0.000000   0.000407  -0.000021
  118  H 17  S    0.004370  -0.002395   0.000100   0.001612  -0.000840
  119  H 18  S   -0.000818   0.003479  -0.000059  -0.000157   0.000191
  120  H 18  S    0.002438   0.006366  -0.000022  -0.000192  -0.000174
  121  H 19  S    0.000068  -0.000651   0.000059   0.003176   0.000268
  122  H 19  S   -0.000144   0.003127   0.000004   0.006598  -0.000334
  123  H 20  S    0.000046   0.000039  -0.000178  -0.000255   0.002992
  124  H 20  S   -0.000045  -0.000321  -0.000032   0.001319   0.005983
  125  H 21  S   -0.000003  -0.000022  -0.000427  -0.000086   0.000539
  126  H 21  S   -0.000074  -0.000128   0.001631   0.000327  -0.000158
  127  H 22  S   -0.000053   0.000029  -0.001393   0.000175  -0.000535
  128  H 22  S   -0.000004  -0.000144  -0.000795   0.000325   0.000320
  129  H 23  S   -0.000020   0.000111  -0.001419  -0.000089   0.000559
  130  H 23  S    0.000080   0.000004  -0.001520  -0.000789   0.000951
  131  H 24  S   -0.000021  -0.000014   0.003128  -0.000002  -0.000115
  132  H 24  S   -0.000001  -0.000038   0.005833  -0.000013  -0.000092

                      6          7          8          9         10
                  -19.0123   -10.2367   -10.1957   -10.1770   -10.1668
                     A          A          A          A          A   
    1  O  1  S   -0.000101   0.000322   0.000041   0.000024   0.000005
    2  O  1  S    0.000006   0.000970   0.000058   0.000182   0.000055
    3  O  1  X    0.000008  -0.001137  -0.000201   0.000013   0.000089
    4  O  1  Y   -0.000003  -0.000069   0.000251  -0.000024   0.000034
    5  O  1  Z    0.000030  -0.000267  -0.000167  -0.000068  -0.000081
    6  O  1  S    0.000029  -0.002383  -0.001919  -0.001040  -0.000040
    7  O  1  X    0.000032  -0.004593  -0.001320  -0.000381  -0.000467
    8  O  1  Y    0.000061   0.001203  -0.002482   0.000073  -0.000202
    9  O  1  Z   -0.000126  -0.002300   0.000780  -0.000022   0.000356
   10  C  2  S    0.000020   0.985282   0.008364   0.003129   0.001380
   11  C  2  S    0.000143   0.105598  -0.002023  -0.000917  -0.000867
   12  C  2  X    0.000082  -0.000879   0.000330  -0.000809  -0.000310
   13  C  2  Y    0.000041   0.000330  -0.000203  -0.000408  -0.000047
   14  C  2  Z   -0.000032  -0.000698   0.000072   0.000146   0.000197
   15  C  2  S   -0.000388  -0.057929   0.028854   0.002333   0.003735
   16  C  2  X   -0.000235  -0.014016   0.010759  -0.000842   0.002171
   17  C  2  Y   -0.000618  -0.003597   0.016051   0.001151   0.000901
   18  C  2  Z    0.000485  -0.002802  -0.004705   0.000157  -0.000747
   19  C  3  S    0.000018  -0.008796   0.986792   0.022019   0.005103
   20  C  3  S    0.000164  -0.002036   0.116528  -0.001215  -0.000126
   21  C  3  X    0.000111   0.000368  -0.000198   0.000378  -0.000789
   22  C  3  Y    0.000023   0.000541  -0.001024   0.000054  -0.000204
   23  C  3  Z    0.000103  -0.000028  -0.000060  -0.000151   0.000174
   24  C  3  S   -0.000812   0.011906  -0.109610   0.024894  -0.000361
   25  C  3  X   -0.001602  -0.007364  -0.001220   0.014814   0.000860
   26  C  3  Y    0.000146  -0.009150   0.014112  -0.003422   0.001941
   27  C  3  Z   -0.000957   0.005469   0.002661  -0.005477  -0.001636
   28  H  4  S    0.000222  -0.001531   0.000870  -0.001673   0.000131
   29  H  4  S    0.000453   0.001910   0.016680  -0.000294  -0.000637
   30  O  5  S   -0.000570  -0.000044  -0.000137   0.000040   0.000034
   31  O  5  S    0.000050  -0.000591  -0.000923  -0.000011   0.000351
   32  O  5  X   -0.000021  -0.000226  -0.000072  -0.000431   0.000225
   33  O  5  Y   -0.000011   0.000423  -0.000094   0.000223  -0.000038
   34  O  5  Z    0.000013  -0.000171   0.000137  -0.000131   0.000041
   35  O  5  S   -0.000499   0.001317   0.010822  -0.001303  -0.001196
   36  O  5  X    0.000081   0.001615   0.002263   0.000076  -0.001039
   37  O  5  Y    0.000220  -0.001145  -0.003485   0.000232   0.000300
   38  O  5  Z   -0.000104   0.000564   0.001583   0.000391  -0.000317
   39  C  6  S    0.000127  -0.003281  -0.023434   0.985837   0.041966
   40  C  6  S    0.000914  -0.002005  -0.006656   0.116207   0.001147
   41  C  6  X    0.000318   0.001825  -0.000018   0.000062   0.000370
   42  C  6  Y    0.000009   0.000579  -0.000070   0.000442  -0.000144
   43  C  6  Z   -0.000353  -0.000166   0.000089   0.000587   0.000106
   44  C  6  S   -0.002417   0.002342   0.031450  -0.107559   0.024250
   45  C  6  X   -0.001300  -0.009525  -0.016378  -0.003401   0.014345
   46  C  6  Y   -0.000190  -0.002131   0.002949  -0.007810   0.006916
   47  C  6  Z    0.003651  -0.002074   0.008092  -0.008822   0.004121
   48  H  7  S   -0.000575  -0.000899  -0.001565   0.000695  -0.001568
   49  H  7  S    0.001333   0.000831  -0.001849   0.018281   0.000308
   50  O  8  S    0.007078   0.000086   0.000040  -0.000149   0.000004
   51  O  8  S    0.000236   0.000796  -0.000044  -0.000961  -0.000383
   52  O  8  X   -0.000047  -0.000213   0.000085  -0.000172  -0.000207
   53  O  8  Y    0.000112  -0.000130   0.000000   0.000022  -0.000165
   54  O  8  Z   -0.000083   0.000200  -0.000564   0.000147  -0.000349
   55  O  8  S    0.002037  -0.002893  -0.002098   0.010678  -0.000313
   56  O  8  X    0.000364   0.001349   0.000932   0.001391  -0.000417
   57  O  8  Y   -0.000421   0.000643  -0.000305   0.000107   0.000112
   58  O  8  Z    0.001116  -0.001515   0.000248   0.004468  -0.000137
   59  C  9  S    0.000179  -0.001570  -0.004310  -0.044015   0.983267
   60  C  9  S    0.000511  -0.001373  -0.001052  -0.009178   0.115852
   61  C  9  X   -0.000473   0.000018   0.000738  -0.000078   0.000236
   62  C  9  Y    0.000353  -0.000125   0.000075   0.000071  -0.000764
   63  C  9  Z    0.000491   0.000127  -0.000044   0.000194  -0.000204
   64  C  9  S   -0.005582   0.007328  -0.000526   0.034222  -0.106804
   65  C  9  X   -0.002957  -0.002811  -0.000290  -0.016020  -0.003012
   66  C  9  Y    0.003969  -0.000905   0.001903  -0.008148   0.012012
   67  C  9  Z   -0.004730  -0.001656  -0.000689  -0.005258   0.003550
   68  H 10  S    0.001020  -0.000042   0.000354  -0.001703   0.000855
   69  H 10  S    0.001519  -0.000638  -0.001352  -0.000369   0.017441
   70  O 11  S   -0.001463   0.000029   0.000033   0.000044  -0.000132
   71  O 11  S   -0.000035   0.000196   0.000310  -0.000014  -0.000845
   72  O 11  X   -0.000304   0.000018  -0.000082   0.000192  -0.000078
   73  O 11  Y    0.000136  -0.000055  -0.000134   0.000419  -0.000121
   74  O 11  Z   -0.000028  -0.000036   0.000041  -0.000015  -0.000020
   75  O 11  S   -0.001340  -0.001081  -0.001032  -0.002290   0.010095
   76  O 11  X    0.001226   0.000172   0.000340   0.000602   0.000394
   77  O 11  Y    0.000040   0.000703   0.000685   0.000558  -0.004095
   78  O 11  Z    0.000087  -0.000005  -0.000301  -0.000185   0.001687
   79  C 12  S   -0.001036  -0.000444  -0.002140  -0.005547  -0.064486
   80  C 12  S   -0.004657  -0.000231  -0.000998  -0.000931  -0.011076
   81  C 12  X    0.000080   0.000312   0.000650   0.001220  -0.000299
   82  C 12  Y   -0.001677   0.000064   0.000126   0.000120  -0.000172
   83  C 12  Z    0.000256  -0.000062   0.000105   0.000105  -0.000058
   84  C 12  S    0.024803  -0.000519   0.001689  -0.003413   0.034738
   85  C 12  X   -0.001571  -0.001025  -0.004503  -0.002704  -0.014898
   86  C 12  Y   -0.010192  -0.001075  -0.001594  -0.002444   0.009229
   87  C 12  Z    0.010975   0.000429  -0.000052  -0.000287   0.002474
   88  H 13  S   -0.001265   0.000045  -0.000473  -0.000085  -0.001876
   89  H 13  S    0.000255   0.000121   0.000399   0.000114  -0.000356
   90  O 14  S    0.982510   0.000014   0.000026   0.000053   0.000048
   91  O 14  S    0.105665   0.000107   0.000187   0.000586   0.000015
   92  O 14  X    0.002617   0.000021   0.000016  -0.000406   0.000422
   93  O 14  Y    0.001999   0.000009   0.000022   0.000056  -0.000627
   94  O 14  Z   -0.001940  -0.000009  -0.000051  -0.000047   0.000021
   95  O 14  S   -0.052986  -0.000564  -0.001096  -0.001618  -0.002273
   96  O 14  X   -0.005752   0.000000   0.000177   0.001910  -0.000953
   97  O 14  Y   -0.008159  -0.000191  -0.000438  -0.000469   0.000590
   98  O 14  Z    0.006023   0.000140   0.000475   0.000416   0.000397
   99  C 15  S    0.000169  -0.000339  -0.000650  -0.007847  -0.039623
  100  C 15  S    0.000395  -0.000299  -0.000373  -0.002157  -0.005351
  101  C 15  X    0.000845   0.000053  -0.000069   0.000318   0.000979
  102  C 15  Y    0.000585  -0.000032   0.000019  -0.000214  -0.000178
  103  C 15  Z    0.000294   0.000046   0.000016   0.000043   0.000015
  104  C 15  S   -0.005104   0.001271   0.002594   0.005877   0.002026
  105  C 15  X    0.000862  -0.000816  -0.000707  -0.003933  -0.000111
  106  C 15  Y    0.003126  -0.000016  -0.001052   0.000383   0.001917
  107  C 15  Z   -0.003169  -0.000609  -0.000877  -0.000972   0.001046
  108  O 16  S   -0.004876  -0.000001   0.000011  -0.000015  -0.000049
  109  O 16  S   -0.000316  -0.000011   0.000078  -0.000155  -0.000522
  110  O 16  X   -0.000400   0.000005   0.000038   0.000044   0.000388
  111  O 16  Y   -0.000309  -0.000004   0.000032  -0.000046   0.000044
  112  O 16  Z   -0.000256  -0.000016   0.000010  -0.000028   0.000117
  113  O 16  S    0.000680   0.000036  -0.000468   0.000569   0.001407
  114  O 16  X    0.001081   0.000006   0.000026  -0.000147  -0.001852
  115  O 16  Y    0.001271   0.000022  -0.000217   0.000262  -0.000136
  116  O 16  Z    0.001096   0.000090  -0.000040   0.000184  -0.000465
  117  H 17  S    0.000081  -0.001580  -0.001063   0.000274  -0.000291
  118  H 17  S   -0.000568   0.014436   0.003426  -0.001153  -0.000221
  119  H 18  S    0.000096  -0.000430  -0.000581   0.000337  -0.000199
  120  H 18  S   -0.000166   0.002423   0.002875   0.000651  -0.000273
  121  H 19  S    0.000065   0.000219  -0.000499  -0.000467  -0.000228
  122  H 19  S    0.000322  -0.000070   0.002873   0.003502  -0.000026
  123  H 20  S   -0.000188   0.000096   0.000307  -0.000682  -0.000520
  124  H 20  S    0.000429  -0.000172  -0.000755   0.001220   0.003897
  125  H 21  S    0.003217   0.000051   0.000078  -0.000331   0.000743
  126  H 21  S    0.006141  -0.000067  -0.000078  -0.000447   0.001351
  127  H 22  S   -0.000471  -0.000147  -0.000082  -0.000554  -0.000140
  128  H 22  S   -0.000224  -0.000173  -0.000075  -0.000686  -0.001194
  129  H 23  S    0.000783  -0.000093  -0.000107  -0.000535   0.000041
  130  H 23  S    0.001092   0.000300   0.000416   0.000183  -0.002189
  131  H 24  S   -0.000627  -0.000027   0.000091  -0.000138   0.000331
  132  H 24  S   -0.000349   0.000097   0.000040   0.000499   0.000441

                     11         12         13         14         15
                  -10.1627   -10.1605    -1.1023    -1.0539    -1.0320
                     A          A          A          A          A   
    1  O  1  S   -0.000002   0.000012  -0.192085   0.078565  -0.025294
    2  O  1  S   -0.000012   0.000092   0.183083  -0.074855   0.023921
    3  O  1  X    0.000020   0.000023   0.135767  -0.051491   0.016118
    4  O  1  Y   -0.000005   0.000025  -0.000721   0.006241  -0.003247
    5  O  1  Z   -0.000019  -0.000020   0.045116  -0.020195   0.006740
    6  O  1  S    0.000158  -0.000514   0.587772  -0.253764   0.085377
    7  O  1  X   -0.000027  -0.000300   0.127901  -0.051373   0.016958
    8  O  1  Y    0.000046  -0.000208   0.004527   0.006790  -0.003803
    9  O  1  Z    0.000073   0.000034   0.040767  -0.020206   0.007250
   10  C  2  S    0.000255   0.000569  -0.118987   0.032886  -0.009557
   11  C  2  S   -0.000117  -0.000446   0.128842  -0.036337   0.010948
   12  C  2  X   -0.000093  -0.000090  -0.136790   0.071128  -0.023323
   13  C  2  Y   -0.000002  -0.000070   0.022795   0.012813  -0.007274
   14  C  2  Z    0.000068   0.000043  -0.054545   0.015969  -0.004803
   15  C  2  S   -0.000069   0.003053   0.126779  -0.038102   0.009312
   16  C  2  X    0.000278   0.000627   0.045600  -0.032022   0.014539
   17  C  2  Y   -0.000386   0.001643  -0.010338   0.014305  -0.010318
   18  C  2  Z    0.000135  -0.000421   0.019312  -0.018868   0.009638
   19  C  3  S    0.000440   0.002511  -0.043558  -0.065429   0.025245
   20  C  3  S   -0.000077  -0.000665   0.039455   0.068196  -0.027496
   21  C  3  X    0.000037  -0.000532  -0.029545  -0.018670   0.023612
   22  C  3  Y    0.000090  -0.000347   0.004190   0.043310  -0.026262
   23  C  3  Z    0.000125   0.000089  -0.015987  -0.045238   0.016064
   24  C  3  S    0.001072   0.003094   0.078186   0.111915  -0.043050
   25  C  3  X   -0.000187   0.004491  -0.018824   0.011342  -0.007842
   26  C  3  Y   -0.000791   0.001927   0.004390  -0.019099   0.008841
   27  C  3  Z   -0.001676  -0.001521  -0.019122   0.011625  -0.009826
   28  H  4  S   -0.000003  -0.000477   0.012318   0.016355  -0.005750
   29  H  4  S    0.001187   0.000100  -0.004223  -0.008063   0.003726
   30  O  5  S    0.000010   0.000026  -0.069618  -0.155884   0.084612
   31  O  5  S    0.000079   0.000217   0.066624   0.143383  -0.078400
   32  O  5  X   -0.000003   0.000142  -0.013129  -0.022397   0.018233
   33  O  5  Y   -0.000031   0.000001  -0.034835  -0.067015   0.034250
   34  O  5  Z   -0.000022   0.000044   0.014695   0.026904  -0.015539
   35  O  5  S   -0.000380  -0.000913   0.194605   0.485563  -0.266918
   36  O  5  X   -0.000014  -0.001011  -0.016109  -0.015842   0.015858
   37  O  5  Y    0.000274   0.000120  -0.034102  -0.075610   0.040392
   38  O  5  Z    0.000075  -0.000278   0.012037   0.029232  -0.019856
   39  C  6  S    0.007284   0.009941  -0.012097  -0.055458  -0.024548
   40  C  6  S   -0.000451  -0.000005   0.013940   0.055041   0.026725
   41  C  6  X   -0.000360  -0.001179  -0.011133  -0.013377   0.011489
   42  C  6  Y    0.000084  -0.000021   0.002147   0.015671   0.006030
   43  C  6  Z   -0.000011  -0.000007  -0.004005  -0.037573  -0.019064
   44  C  6  S    0.005898   0.001225   0.021160   0.087318   0.031976
   45  C  6  X    0.005833   0.005402   0.022039  -0.005529  -0.003729
   46  C  6  Y    0.000681   0.000976   0.009005   0.014289  -0.000024
   47  C  6  Z    0.000852  -0.001504   0.004558  -0.009865   0.000229
   48  H  7  S   -0.000740  -0.000747   0.005732   0.015390   0.008591
   49  H  7  S    0.000070   0.001513  -0.005446   0.000838   0.001672
   50  O  8  S    0.000004   0.000045  -0.017296  -0.108208  -0.050328
   51  O  8  S   -0.000034   0.000465   0.015272   0.101593   0.046570
   52  O  8  X    0.000009   0.000349  -0.004919  -0.026727  -0.008028
   53  O  8  Y   -0.000044  -0.000059   0.004947   0.028808   0.012260
   54  O  8  Z   -0.000016   0.000103   0.007511   0.042532   0.019543
   55  O  8  S   -0.000191  -0.001355   0.053982   0.319573   0.154214
   56  O  8  X   -0.000443  -0.001647  -0.007954  -0.027268  -0.005854
   57  O  8  Y    0.000144   0.000264   0.002920   0.029951   0.014636
   58  O  8  Z   -0.000205  -0.000756   0.009532   0.044428   0.020733
   59  C  9  S    0.025598   0.069746  -0.002755  -0.029827  -0.049947
   60  C  9  S    0.002471   0.004446   0.005256   0.030922   0.051114
   61  C  9  X   -0.001345  -0.000239  -0.001110  -0.008721   0.008032
   62  C  9  Y   -0.000387  -0.000140   0.000468   0.011654   0.024824
   63  C  9  Z   -0.000316   0.000038  -0.002052  -0.015980  -0.022040
   64  C  9  S   -0.008247   0.020427  -0.015415   0.047150   0.087638
   65  C  9  X    0.001890   0.018061   0.002628   0.006508  -0.007139
   66  C  9  Y    0.005619  -0.006077   0.005496  -0.007326  -0.023905
   67  C  9  Z    0.002353  -0.000701   0.006931   0.001447   0.002104
   68  H 10  S    0.000200  -0.002056   0.000673   0.008843   0.014135
   69  H 10  S   -0.001889   0.001502  -0.000074  -0.005214  -0.002913
   70  O 11  S    0.000051   0.000001  -0.003987  -0.051070  -0.095965
   71  O 11  S    0.000482  -0.000327   0.003425   0.047340   0.088856
   72  O 11  X    0.000087   0.000009  -0.000747  -0.006178  -0.008141
   73  O 11  Y   -0.000124   0.000392  -0.001994  -0.024965  -0.044733
   74  O 11  Z    0.000038   0.000184  -0.000653  -0.010675  -0.019764
   75  O 11  S   -0.001442  -0.000149   0.012941   0.153836   0.296092
   76  O 11  X   -0.000642  -0.001277  -0.000899  -0.008555  -0.009156
   77  O 11  Y    0.000553  -0.000085  -0.003692  -0.027664  -0.050232
   78  O 11  Z   -0.000544  -0.001070  -0.001131  -0.008342  -0.014508
   79  C 12  S   -0.200676   0.964332  -0.000880  -0.011499  -0.056658
   80  C 12  S   -0.026353   0.113037   0.000362   0.012445   0.057453
   81  C 12  X   -0.000336  -0.000104  -0.001058  -0.004304   0.003658
   82  C 12  Y   -0.000281   0.000619  -0.000045  -0.000344  -0.023173
   83  C 12  Z   -0.000427   0.000378   0.000200   0.002892   0.023186
   84  C 12  S    0.045059  -0.099277   0.007414   0.011214   0.094958
   85  C 12  X    0.013118   0.002625  -0.000509   0.001776   0.018767
   86  C 12  Y    0.009258  -0.009298   0.003819   0.000664   0.011525
   87  C 12  Z    0.006022  -0.005345  -0.000629  -0.005124  -0.012856
   88  H 13  S   -0.001547   0.000270  -0.000018   0.003321   0.015097
   89  H 13  S   -0.001442   0.015756  -0.000350  -0.000042  -0.006900
   90  O 14  S    0.000050  -0.000180  -0.000704  -0.014051  -0.100399
   91  O 14  S    0.000018  -0.001276   0.000517   0.012993   0.093567
   92  O 14  X   -0.000226   0.000182   0.000126   0.004086   0.038042
   93  O 14  Y   -0.000488  -0.000131   0.000263   0.004308   0.024357
   94  O 14  Z    0.000089  -0.000324  -0.000167  -0.003539  -0.022861
   95  O 14  S   -0.003432   0.011519   0.002732   0.042926   0.304503
   96  O 14  X   -0.000304  -0.000714   0.000020   0.005478   0.039070
   97  O 14  Y   -0.000624   0.005175   0.000357   0.004175   0.028411
   98  O 14  Z    0.000207  -0.000906  -0.000464  -0.003669  -0.025637
   99  C 15  S    0.965619   0.197409  -0.000073  -0.005036  -0.054064
  100  C 15  S    0.110531   0.018867   0.000639   0.005195   0.057257
  101  C 15  X   -0.000392  -0.000381  -0.000206  -0.000609   0.024921
  102  C 15  Y   -0.000038   0.000269   0.000025  -0.002686  -0.035886
  103  C 15  Z    0.000129  -0.000207  -0.000087  -0.001035  -0.008169
  104  C 15  S   -0.093464   0.010623  -0.002663   0.008577   0.080587
  105  C 15  X    0.012789  -0.011907   0.002279  -0.000854   0.000107
  106  C 15  Y    0.004023  -0.008698  -0.000156  -0.001211   0.003053
  107  C 15  Z    0.001838  -0.002015   0.001172   0.002367   0.014105
  108  O 16  S   -0.000102   0.000059  -0.000120  -0.007369  -0.121991
  109  O 16  S   -0.000474   0.000296   0.000128   0.006930   0.113971
  110  O 16  X   -0.000280   0.000413  -0.000005  -0.000684  -0.001810
  111  O 16  Y    0.000367   0.000035   0.000073   0.002932   0.049109
  112  O 16  Z    0.000131   0.000174   0.000056   0.001573   0.026621
  113  O 16  S    0.008695  -0.001161   0.000177   0.021749   0.370026
  114  O 16  X   -0.002797  -0.000463  -0.000164  -0.000643  -0.009865
  115  O 16  Y    0.000821  -0.000058  -0.000135   0.002934   0.050937
  116  O 16  Z    0.000013  -0.000665  -0.000197   0.001429   0.026270
  117  H 17  S   -0.000058  -0.000020   0.022021  -0.004405   0.001157
  118  H 17  S   -0.000247   0.000183  -0.023794   0.013927  -0.007057
  119  H 18  S    0.000050  -0.000180   0.040397   0.071831  -0.042417
  120  H 18  S   -0.000054  -0.000054   0.005539   0.006166  -0.004682
  121  H 19  S   -0.000167  -0.000262   0.011095   0.059940   0.020177
  122  H 19  S    0.000190  -0.000403   0.000037   0.007944   0.001014
  123  H 20  S    0.000373  -0.000884   0.001789   0.027565   0.050186
  124  H 20  S   -0.000724   0.000346   0.001413   0.006248   0.007100
  125  H 21  S   -0.000540  -0.000308   0.000220   0.006236   0.051496
  126  H 21  S    0.001065   0.003081   0.000380   0.000259   0.009556
  127  H 22  S    0.000106  -0.001498   0.000326   0.001817   0.016341
  128  H 22  S    0.015880   0.005296   0.000435   0.001231  -0.001400
  129  H 23  S    0.000460  -0.001908   0.000230   0.001304   0.015263
  130  H 23  S    0.016286   0.003150  -0.000495  -0.000994  -0.007433
  131  H 24  S   -0.000335   0.000388   0.000173   0.003562   0.062929
  132  H 24  S    0.001952   0.001732  -0.000266   0.000398   0.011543

                     16         17         18         19         20
                   -1.0244    -1.0054    -0.9989    -0.7854    -0.7528
                     A          A          A          A          A   
    1  O  1  S    0.022953  -0.009246  -0.000734   0.031570  -0.027123
    2  O  1  S   -0.021567   0.008267   0.000536  -0.031874   0.027043
    3  O  1  X   -0.014561   0.005836   0.000471   0.002101  -0.005119
    4  O  1  Y    0.003373  -0.002064  -0.000279   0.004384  -0.004522
    5  O  1  Z   -0.006130   0.002530   0.000214  -0.001576   0.000226
    6  O  1  S   -0.079509   0.036314   0.003849  -0.104633   0.093346
    7  O  1  X   -0.015399   0.007292   0.000990   0.002071  -0.002769
    8  O  1  Y    0.004305  -0.002066   0.000194   0.003533  -0.002782
    9  O  1  Z   -0.007199   0.002965   0.000143  -0.001741   0.000471
   10  C  2  S    0.008642  -0.003760  -0.000411  -0.055123   0.048065
   11  C  2  S   -0.009440   0.004574   0.000766   0.068268  -0.055854
   12  C  2  X    0.021179  -0.007892  -0.000469   0.089123  -0.069751
   13  C  2  Y    0.007502  -0.004094  -0.000415   0.035209  -0.028978
   14  C  2  Z    0.004255  -0.002133  -0.000234   0.010888  -0.010579
   15  C  2  S   -0.010491  -0.000317  -0.003412   0.090815  -0.101554
   16  C  2  X   -0.017844   0.011353   0.000632   0.024787  -0.027532
   17  C  2  Y    0.011163  -0.013907  -0.005002  -0.015216   0.003659
   18  C  2  Z   -0.009834   0.010639   0.002833   0.015801  -0.012485
   19  C  3  S   -0.023824   0.009970   0.000611  -0.122555   0.083002
   20  C  3  S    0.025507  -0.013216  -0.001734   0.120203  -0.076499
   21  C  3  X   -0.027841   0.021589   0.003538   0.041620   0.000990
   22  C  3  Y    0.029048  -0.021017  -0.002994  -0.059609   0.044439
   23  C  3  Z   -0.013981   0.003110   0.000164   0.020514  -0.017799
   24  C  3  S    0.049621  -0.011310   0.006177   0.333220  -0.256611
   25  C  3  X    0.012788  -0.017704  -0.005432  -0.005061  -0.004046
   26  C  3  Y   -0.012232   0.004911  -0.003737  -0.048423   0.033737
   27  C  3  Z    0.015822  -0.029962  -0.007710   0.019234  -0.000669
   28  H  4  S    0.005178  -0.001738   0.000201   0.070400  -0.045735
   29  H  4  S   -0.007067   0.008273   0.002260   0.001048  -0.000859
   30  O  5  S   -0.089398   0.054691   0.006687   0.051915  -0.034718
   31  O  5  S    0.082919  -0.050288  -0.005982  -0.048137   0.031671
   32  O  5  X   -0.021310   0.015669   0.001904   0.060423  -0.044110
   33  O  5  Y   -0.035291   0.019512   0.002086  -0.014729   0.015390
   34  O  5  Z    0.016866  -0.011454  -0.001513   0.025472  -0.019663
   35  O  5  S    0.284241  -0.181266  -0.023263  -0.190776   0.133236
   36  O  5  X   -0.019043   0.014401   0.001762   0.043675  -0.029634
   37  O  5  Y   -0.042227   0.026504   0.003913   0.003591   0.000503
   38  O  5  Z    0.023091  -0.019182  -0.002630   0.014456  -0.010524
   39  C  6  S    0.039420  -0.042604  -0.008814  -0.111571   0.012598
   40  C  6  S   -0.039317   0.045704   0.009038   0.113454  -0.010905
   41  C  6  X   -0.005386  -0.018601  -0.002571  -0.011862   0.069110
   42  C  6  Y   -0.009212  -0.003988  -0.005159   0.006941   0.004441
   43  C  6  Z    0.039938  -0.065097  -0.010023   0.071184  -0.016816
   44  C  6  S   -0.084790   0.085220   0.016402   0.271285  -0.036216
   45  C  6  X   -0.000090   0.010963   0.011486   0.002886  -0.017112
   46  C  6  Y   -0.002703  -0.017074   0.000987  -0.000953  -0.017263
   47  C  6  Z   -0.016330   0.033122   0.003597   0.035419  -0.000067
   48  H  7  S   -0.009766   0.009493   0.004240   0.065870  -0.005601
   49  H  7  S    0.010371  -0.014220   0.009354  -0.007887  -0.014569
   50  O  8  S    0.097441  -0.149398  -0.025534   0.056911  -0.008992
   51  O  8  S   -0.090001   0.138035   0.023921  -0.053780   0.008671
   52  O  8  X    0.020021  -0.038373  -0.006517   0.032192   0.008304
   53  O  8  Y   -0.024523   0.035780   0.005180  -0.032143   0.002801
   54  O  8  Z   -0.035434   0.048732   0.008512   0.037042  -0.003974
   55  O  8  S   -0.302197   0.473859   0.080257  -0.199711   0.031730
   56  O  8  X    0.017230  -0.039034  -0.008587   0.023647   0.011812
   57  O  8  Y   -0.025883   0.034000   0.004398  -0.028223   0.001722
   58  O  8  Z   -0.040711   0.062960   0.010001   0.014089   0.000434
   59  C  9  S    0.038773   0.049372   0.012199  -0.080060  -0.076729
   60  C  9  S   -0.039551  -0.050299  -0.013786   0.082519   0.076779
   61  C  9  X    0.011573  -0.012897   0.007314  -0.022374   0.063845
   62  C  9  Y   -0.033607  -0.054327  -0.040255  -0.050750  -0.041435
   63  C  9  Z    0.024961   0.022173   0.013131   0.011433   0.005624
   64  C  9  S   -0.060345  -0.097601  -0.032220   0.185255   0.202818
   65  C  9  X   -0.013549   0.003580   0.003083   0.001201  -0.008839
   66  C  9  Y   -0.006639   0.026517  -0.003612  -0.018586  -0.016946
   67  C  9  Z    0.007903  -0.025127   0.012633   0.006609  -0.014456
   68  H 10  S   -0.010350  -0.011892  -0.003438   0.047001   0.043235
   69  H 10  S    0.001876   0.008886  -0.001766   0.002909   0.001335
   70  O 11  S    0.097184   0.141778   0.073381   0.044478   0.042372
   71  O 11  S   -0.091777  -0.131288  -0.069227  -0.042006  -0.038502
   72  O 11  X    0.010636   0.011621   0.007914   0.004417   0.021608
   73  O 11  Y    0.043812   0.060073   0.029686  -0.014215  -0.021174
   74  O 11  Z    0.021450   0.029617   0.016993   0.041174   0.044415
   75  O 11  S   -0.290004  -0.445934  -0.223083  -0.156203  -0.159146
   76  O 11  X    0.012187   0.010467   0.004709   0.003815   0.021453
   77  O 11  Y    0.047062   0.070491   0.033041   0.000701  -0.002686
   78  O 11  Z    0.020439   0.023658   0.014548   0.029339   0.033456
   79  C 12  S   -0.022199   0.022201  -0.055133  -0.046433  -0.122058
   80  C 12  S    0.020571  -0.024026   0.059588   0.047154   0.118782
   81  C 12  X    0.019778   0.012164  -0.004923  -0.026755   0.004150
   82  C 12  Y   -0.023659   0.005640  -0.068846   0.029490   0.073671
   83  C 12  Z    0.014215  -0.009673   0.035621   0.001679   0.003026
   84  C 12  S    0.051948  -0.032867   0.095574   0.113169   0.322024
   85  C 12  X    0.011120  -0.006611  -0.008927   0.009093  -0.004661
   86  C 12  Y    0.000396  -0.017905   0.011413   0.009044   0.030873
   87  C 12  Z    0.000126   0.020007  -0.004345   0.004663   0.011141
   88  H 13  S    0.005440  -0.005623   0.015762   0.022841   0.060492
   89  H 13  S   -0.006499   0.011495  -0.006550  -0.006135  -0.001188
   90  O 14  S   -0.057375   0.042123  -0.177271   0.030490   0.060700
   91  O 14  S    0.054067  -0.037976   0.165083  -0.028274  -0.055501
   92  O 14  X    0.025424  -0.014050   0.066188  -0.030386  -0.047959
   93  O 14  Y    0.011592  -0.009342   0.032771   0.024822   0.060918
   94  O 14  Z   -0.012483   0.008832  -0.037628  -0.003117  -0.010997
   95  O 14  S    0.170448  -0.137838   0.548820  -0.109030  -0.225719
   96  O 14  X    0.022155  -0.016896   0.065941  -0.028329  -0.037884
   97  O 14  Y    0.015899  -0.013075   0.042785   0.010454   0.027437
   98  O 14  Z   -0.013307   0.012714  -0.043783   0.000287  -0.001785
   99  C 15  S   -0.048235  -0.013212   0.026908  -0.023267  -0.099987
  100  C 15  S    0.051574   0.014989  -0.029525   0.027179   0.103411
  101  C 15  X    0.036235   0.023972  -0.047574  -0.021295  -0.067550
  102  C 15  Y   -0.034637  -0.010381   0.012474  -0.000861  -0.006396
  103  C 15  Z   -0.006153  -0.001180   0.005151  -0.003291  -0.013543
  104  C 15  S    0.075363   0.026748  -0.046120   0.042244   0.248841
  105  C 15  X    0.003498   0.004396   0.005949   0.005677  -0.014182
  106  C 15  Y    0.004340   0.003802  -0.018015   0.008620   0.014755
  107  C 15  Z    0.004836  -0.010262   0.007040  -0.001560  -0.007683
  108  O 16  S   -0.129953  -0.058384   0.114041   0.009303   0.038791
  109  O 16  S    0.121843   0.055361  -0.107040  -0.008371  -0.036009
  110  O 16  X    0.001450   0.004617  -0.012092  -0.012933  -0.068021
  111  O 16  Y    0.052669   0.024326  -0.048359   0.000310   0.002106
  112  O 16  Z    0.028526   0.012850  -0.024937  -0.003440  -0.014554
  113  O 16  S    0.394617   0.177492  -0.355223  -0.034279  -0.144298
  114  O 16  X   -0.007532   0.001273  -0.004576  -0.005652  -0.042672
  115  O 16  Y    0.054564   0.025298  -0.056466  -0.000803  -0.003905
  116  O 16  Z    0.028877   0.014248  -0.027483  -0.002459  -0.011942
  117  H 17  S   -0.000668   0.000095   0.000192   0.036790  -0.032602
  118  H 17  S    0.007419  -0.008054  -0.002925   0.001725  -0.000357
  119  H 18  S    0.045953  -0.029383  -0.003499  -0.054691   0.039350
  120  H 18  S    0.005866  -0.005508  -0.000936  -0.033745   0.026837
  121  H 19  S   -0.044378   0.075655   0.012993  -0.053526   0.003305
  122  H 19  S   -0.004704   0.008492   0.000275  -0.038139   0.009364
  123  H 20  S   -0.052128  -0.070537  -0.038176  -0.042107  -0.043807
  124  H 20  S   -0.008417  -0.008533  -0.006310  -0.028001  -0.023864
  125  H 21  S    0.032790  -0.019077   0.090290  -0.032876  -0.065019
  126  H 21  S    0.009115  -0.001935   0.011022  -0.017875  -0.042090
  127  H 22  S    0.013189   0.002695  -0.007588   0.012872   0.054161
  128  H 22  S   -0.007148  -0.008471   0.003239  -0.005486  -0.009046
  129  H 23  S    0.014104   0.004597  -0.008089   0.013420   0.052976
  130  H 23  S   -0.004176   0.002363   0.000591   0.001072   0.002256
  131  H 24  S    0.068597   0.032595  -0.063923  -0.011020  -0.053612
  132  H 24  S    0.013266   0.006665  -0.015213  -0.007906  -0.031349

                     21         22         23         24         25
                   -0.6991    -0.6262    -0.6005    -0.5860    -0.5417
                     A          A          A          A          A   
    1  O  1  S    0.038360  -0.052183  -0.037376  -0.027039  -0.014968
    2  O  1  S   -0.037655   0.050255   0.037508   0.026220   0.014228
    3  O  1  X    0.015467  -0.038240  -0.029389  -0.023121  -0.016563
[...]
   24             0.000289   0.003998   0.000305

               ----- POPULATIONS IN EACH AO -----
                             MULLIKEN      LOWDIN
              1  O  1  S      1.98580     1.98057
              2  O  1  S      0.44045     0.59668
              3  O  1  X      0.65621     0.63894
              4  O  1  Y      0.66661     0.65500
              5  O  1  Z      0.77824     0.77072
              6  O  1  S      1.55244     1.05913
              7  O  1  X      0.71273     0.77017
              8  O  1  Y      0.76148     0.79283
              9  O  1  Z      0.86184     0.90355
             10  C  2  S      1.98540     1.97504
             11  C  2  S      0.42939     0.45266
             12  C  2  X      0.55564     0.53009
             13  C  2  Y      0.47988     0.45829
             14  C  2  Z      0.56909     0.53107
             15  C  2  S      0.77803     0.56880
             16  C  2  X      0.20331     0.41621
             17  C  2  Y      0.33741     0.45180
             18  C  2  Z      0.41491     0.50646
             19  C  3  S      1.98852     1.97363
             20  C  3  S      0.36717     0.43945
             21  C  3  X      0.53112     0.51426
             22  C  3  Y      0.59772     0.56522
             23  C  3  Z      0.51064     0.49007
             24  C  3  S      1.02698     0.56167
             25  C  3  X      0.27831     0.46256
             26  C  3  Y      0.50325     0.55982
             27  C  3  Z      0.29360     0.47071
             28  H  4  S      0.46606     0.47174
             29  H  4  S      0.28572     0.41790
             30  O  5  S      1.98489     1.97899
             31  O  5  S      0.42340     0.58010
             32  O  5  X      0.65575     0.63857
             33  O  5  Y      0.77350     0.76735
             34  O  5  Z      0.70103     0.69273
             35  O  5  S      1.50960     1.04050
             36  O  5  X      0.75511     0.79596
             37  O  5  Y      0.91393     0.93457
             38  O  5  Z      0.85146     0.89340
             39  C  6  S      1.98870     1.97372
             40  C  6  S      0.36812     0.43958
             41  C  6  X      0.56424     0.54750
             42  C  6  Y      0.58055     0.54650
             43  C  6  Z      0.46742     0.45330
             44  C  6  S      1.01119     0.56047
             45  C  6  X      0.28313     0.48609
             46  C  6  Y      0.47767     0.53960
             47  C  6  Z      0.26452     0.43509
             48  H  7  S      0.47580     0.48181
             49  H  7  S      0.30439     0.42928
             50  O  8  S      1.98487     1.97909
             51  O  8  S      0.42255     0.58148
             52  O  8  X      0.68462     0.66779
             53  O  8  Y      0.79549     0.79397
             54  O  8  Z      0.64728     0.63505
             55  O  8  S      1.51686     1.04913
             56  O  8  X      0.81681     0.83687
             57  O  8  Y      0.93974     0.97182
             58  O  8  Z      0.75847     0.81966
             59  C  9  S      1.98843     1.97359
             60  C  9  S      0.37138     0.43652
             61  C  9  X      0.57601     0.55973
             62  C  9  Y      0.46359     0.44461
             63  C  9  Z      0.58949     0.55423
             64  C  9  S      0.99211     0.55053
             65  C  9  X      0.30675     0.49767
             66  C  9  Y      0.20785     0.40771
             67  C  9  Z      0.47747     0.54591
             68  H 10  S      0.47980     0.48635
             69  H 10  S      0.32022     0.43454
             70  O 11  S      1.98496     1.97937
             71  O 11  S      0.42453     0.58429
             72  O 11  X      0.84143     0.84487
             73  O 11  Y      0.60793     0.59313
             74  O 11  Z      0.67128     0.65079
             75  O 11  S      1.52179     1.05552
             76  O 11  X      1.00506     1.01936
             77  O 11  Y      0.73084     0.80115
             78  O 11  Z      0.77835     0.81696
             79  C 12  S      1.98851     1.97356
             80  C 12  S      0.37249     0.43611
             81  C 12  X      0.58209     0.56393
             82  C 12  Y      0.46205     0.44500
             83  C 12  Z      0.58860     0.55158
             84  C 12  S      0.99416     0.55155
             85  C 12  X      0.30299     0.49188
             86  C 12  Y      0.21825     0.40991
             87  C 12  Z      0.47814     0.55365
             88  H 13  S      0.47774     0.48674
             89  H 13  S      0.31658     0.43452
             90  O 14  S      1.98484     1.97917
             91  O 14  S      0.42200     0.58146
             92  O 14  X      0.66917     0.65003
             93  O 14  Y      0.60447     0.58826
             94  O 14  Z      0.85441     0.85959
             95  O 14  S      1.52075     1.05360
             96  O 14  X      0.79818     0.82639
             97  O 14  Y      0.71588     0.78256
             98  O 14  Z      1.01126     1.03205
             99  C 15  S      1.98678     1.97378
            100  C 15  S      0.37928     0.43665
            101  C 15  X      0.49488     0.48381
            102  C 15  Y      0.55095     0.51493
            103  C 15  Z      0.57786     0.53594
            104  C 15  S      1.00057     0.57562
            105  C 15  X      0.29712     0.44590
            106  C 15  Y      0.40363     0.51547
            107  C 15  Z      0.46284     0.55625
            108  O 16  S      1.98451     1.97897
            109  O 16  S      0.42363     0.57903
            110  O 16  X      0.59078     0.56415
            111  O 16  Y      0.74706     0.74268
            112  O 16  Z      0.79175     0.78933
            113  O 16  S      1.50168     1.05470
            114  O 16  X      0.66598     0.71812
            115  O 16  Y      0.90994     0.94072
            116  O 16  Z      0.94541     0.96648
            117  H 17  S      0.47837     0.47461
            118  H 17  S      0.31904     0.45087
            119  H 18  S      0.40486     0.41536
            120  H 18  S      0.23723     0.34744
            121  H 19  S      0.39859     0.40929
            122  H 19  S      0.23135     0.35039
            123  H 20  S      0.40647     0.41681
            124  H 20  S      0.24898     0.35776
            125  H 21  S      0.41318     0.42350
            126  H 21  S      0.23643     0.34533
            127  H 22  S      0.47966     0.48048
            128  H 22  S      0.32129     0.43833
            129  H 23  S      0.48004     0.48387
            130  H 23  S      0.33973     0.44812
            131  H 24  S      0.42789     0.43693
            132  H 24  S      0.22137     0.32502

          ----- MULLIKEN ATOMIC OVERLAP POPULATIONS -----
          (OFF-DIAGONAL ELEMENTS NEED TO BE MULTIPLIED BY 2)

             1           2           3           4           5

    1    8.0255626
    2    0.4802362   5.0212934
    3   -0.0774268   0.0499051   5.8176310
    4    0.0007620  -0.0269386   0.3134257   0.5258949
    5   -0.0096637  -0.0338283   0.2505357  -0.0306636   8.1574899
    6   -0.0003143  -0.0513601   0.0963095  -0.0630200  -0.0475209
    7    0.0003107   0.0029928  -0.0519223   0.0038204   0.0006134
    8   -0.0000013   0.0013157  -0.0371136   0.0003798  -0.0145909
    9    0.0000168   0.0009728  -0.0534939  -0.0016452   0.0016216
   10   -0.0000036   0.0010222  -0.0024403  -0.0023246   0.0000137
   11   -0.0000000   0.0001280  -0.0098745   0.0235569  -0.0000023
   12   -0.0000000   0.0000177   0.0040609   0.0008935  -0.0000160
   13    0.0000000  -0.0000044   0.0001944  -0.0000170   0.0000007
   14    0.0000000  -0.0000044   0.0000143  -0.0000052   0.0000000
   15    0.0000000  -0.0000004  -0.0000623  -0.0000075   0.0000000
   16   -0.0000000  -0.0000000   0.0000000  -0.0000000  -0.0000000
   17   -0.0520133   0.3090262  -0.1022102   0.0021153   0.0013591
   18    0.0483300  -0.0033332  -0.0850364   0.0043297   0.2333879
   19    0.0000048   0.0015720  -0.0168633   0.0007453   0.0599583
   20   -0.0000000   0.0000495   0.0016664   0.0004851  -0.0000306
   21   -0.0000000   0.0000000   0.0000024   0.0000004  -0.0000000
   22    0.0000000  -0.0000000   0.0000021  -0.0000047   0.0000000
   23    0.0000000  -0.0000002  -0.0000017  -0.0000007  -0.0000000
   24    0.0000000   0.0000000  -0.0000000  -0.0000000   0.0000000

             6           7           8           9          10

    6    5.6217203
    7    0.3300302   0.5583436
    8    0.2378286  -0.0305428   8.1784357
    9    0.1145836  -0.0516504  -0.0534048   5.5308163
   10   -0.0496406   0.0023562   0.0015723   0.3472959   0.5695394
   11   -0.0381227   0.0015290  -0.0118714   0.2514598  -0.0273794
   12   -0.0648149  -0.0018787  -0.0033143   0.1000335  -0.0603140
   13   -0.0105272  -0.0000384   0.0098059  -0.0533204   0.0053608
   14   -0.0014722   0.0126894   0.0000134  -0.0385210   0.0067304
   15    0.0057310   0.0002983   0.0000182  -0.0590647  -0.0067718
   16   -0.0000122   0.0000003   0.0000000   0.0017423  -0.0000219
   17    0.0032037   0.0006803  -0.0000201   0.0008827   0.0021681
   18    0.0060412   0.0003971   0.0003820  -0.0000877   0.0000011
   19   -0.0642634   0.0008882   0.2315142   0.0080582  -0.0001104
   20   -0.0185237   0.0015792   0.0562684  -0.0774367   0.0064863
   21   -0.0001599  -0.0002815  -0.0000025   0.0068906  -0.0001614
   22   -0.0000689  -0.0000206   0.0000023  -0.0003636   0.0005257
   23   -0.0000760   0.0000003  -0.0000005  -0.0021207   0.0061163
   24    0.0000016  -0.0000000  -0.0000000  -0.0001755  -0.0000004

            11          12          13          14          15

   11    8.1812403
   12   -0.0475848   5.5150806
   13    0.0014844   0.3293663   0.5964366
   14    0.0002278   0.2245079  -0.0335874   8.2127401
   15    0.0009698   0.1796250  -0.0602815  -0.0400438   5.3234679
   16    0.0000027  -0.0450293   0.0012857  -0.0068860   0.2392576
   17   -0.0000100  -0.0000305   0.0000009  -0.0000023   0.0000001
   18   -0.0000010   0.0000016  -0.0000001  -0.0000000  -0.0000000
   19    0.0002316  -0.0002282  -0.0001376  -0.0000013   0.0000021
   20    0.2305722  -0.0000518   0.0030427  -0.0000123  -0.0004842
   21   -0.0000332  -0.0626301  -0.0000736   0.2405887  -0.0112762
   22    0.0096737  -0.0394568   0.0003042   0.0019796   0.3008938
   23   -0.0000212  -0.0470405   0.0051692   0.0017400   0.3223192
   24    0.0000012   0.0060790  -0.0001464   0.0002694  -0.0406750

            16          17          18          19          20

   16    8.1466344
   17    0.0000000   0.6298869
   18    0.0000000   0.0024117   0.4368719
   19   -0.0000000  -0.0000442  -0.0016023   0.4122282
   20   -0.0000012   0.0000027  -0.0000010  -0.0020188   0.4536856
   21    0.0408730   0.0000002   0.0000000   0.0000000   0.0000038
   22   -0.0302111   0.0000000   0.0000000  -0.0000002   0.0001618
   23   -0.0326722  -0.0000001   0.0000000   0.0000001   0.0000056
   24    0.2457700   0.0000000  -0.0000000   0.0000000  -0.0000001

            21          22          23          24

   21    0.4367027
   22    0.0010819   0.5993944
   23   -0.0002764  -0.0422627   0.6127742
   24   -0.0016355  -0.0006764  -0.0038858   0.4443326

          TOTAL MULLIKEN AND LOWDIN ATOMIC POPULATIONS
       ATOM         MULL.POP.    CHARGE          LOW.POP.     CHARGE
    1 O             8.415800   -0.415800         8.167579   -0.167579
    2 C             5.753062    0.246938         5.890423    0.109577
    3 C             6.097302   -0.097302         6.037385   -0.037385
    4 H             0.751782    0.248218         0.889645    0.110355
    5 O             8.568664   -0.568664         8.322174   -0.322174
    6 C             6.005553   -0.005553         5.981848    0.018152
    7 H             0.780194    0.219806         0.911091    0.088909
    8 O             8.566674   -0.566674         8.334845   -0.334845
    9 C             5.973089    0.026911         5.970507    0.029493
   10 H             0.800020    0.199980         0.920888    0.079112
   11 O             8.566177   -0.566177         8.345431   -0.345431
   12 C             5.987276    0.012724         5.977167    0.022833
   13 H             0.794318    0.205682         0.921260    0.078740
   14 O             8.580965   -0.580965         8.353110   -0.353110
   15 C             6.153916   -0.153916         6.038353   -0.038353
   16 O             8.560732   -0.560732         8.334182   -0.334182
   17 H             0.797407    0.202593         0.925486    0.074514
   18 H             0.642093    0.357907         0.762799    0.237201
   19 H             0.629933    0.370067         0.759684    0.240316
   20 H             0.655449    0.344551         0.774565    0.225435
   21 H             0.649614    0.350386         0.768828    0.231172
   22 H             0.800955    0.199045         0.918812    0.081188
   23 H             0.819766    0.180234         0.931991    0.068009
   24 H             0.649259    0.350741         0.761948    0.238052

          -------------------------------
          BOND ORDER AND VALENCE ANALYSIS     BOND ORDER THRESHOLD=0.050
          -------------------------------

                   BOND                       BOND                       BOND
  ATOM PAIR DIST  ORDER      ATOM PAIR DIST  ORDER      ATOM PAIR DIST  ORDER
    1   2  1.238  1.842        1  18  1.965  0.104        2   3  1.506  0.855
    2  17  1.099  0.827        3   4  1.096  0.835        3   5  1.458  0.910
    3   6  1.560  0.816        5  18  1.007  0.743        5  19  1.810  0.124
    6   7  1.095  0.861        6   8  1.464  0.919        6   9  1.532  0.856
    8  19  1.010  0.722        8  20  1.905  0.117        9  10  1.095  0.882
    9  11  1.458  0.943        9  12  1.522  0.851       11  20  1.009  0.748
   12  13  1.098  0.858       12  14  1.457  0.923       12  15  1.525  0.897
   14  21  1.001  0.772       15  16  1.471  0.903       15  22  1.093  0.864
   15  23  1.099  0.882       16  21  2.005  0.082       16  24  0.992  0.822

                       TOTAL       BONDED        FREE
      ATOM            VALENCE     VALENCE     VALENCE
    1 O                 2.096       2.096       0.000
    2 C                 3.567       3.567      -0.000
    3 C                 3.472       3.472      -0.000
    4 H                 0.915       0.915       0.000
    5 O                 1.920       1.920      -0.000
    6 C                 3.502       3.502       0.000
    7 H                 0.916       0.916      -0.000
    8 O                 1.920       1.920       0.000
    9 C                 3.547       3.547      -0.000
   10 H                 0.917       0.917      -0.000
   11 O                 1.891       1.891      -0.000
   12 C                 3.544       3.544      -0.000
   13 H                 0.912       0.912      -0.000
   14 O                 1.853       1.853      -0.000
   15 C                 3.574       3.574      -0.000
   16 O                 1.890       1.890      -0.000
   17 H                 0.899       0.899       0.000
   18 H                 0.872       0.872       0.000
   19 H                 0.866       0.866      -0.000
   20 H                 0.883       0.883       0.000
   21 H                 0.875       0.875       0.000
   22 H                 0.916       0.916       0.000
   23 H                 0.914       0.914       0.000
   24 H                 0.848       0.848       0.000

          ---------------------
          ELECTROSTATIC MOMENTS
          ---------------------

 POINT   1           X           Y           Z (BOHR)    CHARGE
                 0.003689   -0.049185    0.072813       -0.00 (A.U.)
         DX          DY          DZ         /D/  (DEBYE)
     1.653462    0.229627    1.774257    2.436115
 ...... END OF PROPERTY EVALUATION ......
 CPU     0: STEP CPU TIME=     0.07 TOTAL CPU TIME=       1858.1 (     31.0 MIN)
 TOTAL WALL CLOCK TIME=       1868.5 SECONDS, CPU UTILIZATION IS    99.44%
  $VIB   
          IVIB=   0 IATOM=   0 ICOORD=   0 E=     -683.0006181396
 -5.357046843E-05-4.032792910E-06-2.498553855E-05 3.227869254E-05-2.210582936E-05
  4.092373901E-05 3.001328066E-05 4.636488108E-05-8.089988077E-05 2.738426054E-05
  2.138146313E-05 2.632658849E-05 2.742037378E-05-5.754561420E-05 4.439236890E-05
  1.967358943E-06 3.050537452E-05 5.628185588E-05-8.623514426E-06 5.646201676E-06
  5.209854232E-06-5.315238635E-05 2.625662808E-05-5.664075245E-05-3.280765101E-05
  3.336391153E-05-2.895860867E-05-8.217429690E-06 1.608535234E-06-1.953526496E-05
 -1.639979315E-05-6.262489264E-05-1.128608977E-05 3.134976969E-06-1.061127102E-05
 -2.540803323E-05-2.317129446E-06 2.146669744E-06 4.834042646E-05 2.034118503E-05
  2.872653405E-05-9.233731979E-06 1.249582403E-06-3.551512845E-05-5.929276221E-07
  2.809877545E-05 2.156781066E-05 1.906006750E-05-7.495955864E-06 2.552332862E-06
 -1.704710358E-05-7.801983963E-08 4.752520685E-06-9.117518528E-07 5.166844666E-05
 -3.909207691E-05 2.478042619E-05 6.377250990E-06 1.567379652E-06 4.030689174E-05
 -2.495916764E-05 6.596516676E-07-2.029431716E-06-6.759656724E-06 4.856042302E-06
 -5.217732442E-06 8.057410018E-06 1.288400448E-05-9.649196745E-06-2.361042142E-05
 -1.331233587E-05-1.322617407E-05
  1.653462331E+00 2.296270299E-01 1.774257238E+00
 ......END OF GEOMETRY SEARCH......
 CPU     0: STEP CPU TIME=     0.01 TOTAL CPU TIME=       1858.1 (     31.0 MIN)
 TOTAL WALL CLOCK TIME=       1868.6 SECONDS, CPU UTILIZATION IS    99.44%
               956419  WORDS OF DYNAMIC MEMORY USED
 EXECUTION OF GAMESS TERMINATED NORMALLY Fri May 22 16:22:22 2020
 DDI: 263640 bytes (0.3 MB / 0 MWords) used by master data server.
Note: The following floating-point exceptions are signalling: IEEE_UNDERFLOW_FLAGNote: The following floating-point exceptions are signalling: IEEE_UNDERFLOW_FLAGNote: The following floating-point exceptions are signalling: IEEE_UNDERFLOW_FLAGNote: The following floating-point exceptions are signalling: IEEE_UNDERFLOW_FLAG IEEE_DENORMAL

 ----------------------------------------
 CPU timing information for all processes
 ========================================
 0: 1846.07 + 12.89 = 1858.97
 1: 1847.55 + 4.76 = 1851.131
 2: 1847.435 + 5.387 = 1852.823
 3: 1845.757 + 4.15 = 1849.773
 4: 1846.723 + 5.351 = 1852.75
 5: 1844.857 + 3.411 = 1848.269
 6: 1846.170 + 4.436 = 1850.606
 7: 1843.974 + 3.519 = 1847.493
 ----------------------------------------
 IEEE_DENORMAL
 IEEE_DENORMAL
 IEEE_DENORMAL
Note: The following floating-point exceptions are signalling: IEEE_UNDERFLOW_FLAGNote: The following floating-point exceptions are signalling:Note: The following floating-point exceptions are signalling: IEEE_UNDERFLOW_FLAGNote: The following floating-point exceptions are signalling: IEEE_UNDERFLOW_FLAG IEEE_DENORMAL
 IEEE_UNDERFLOW_FLAG IEEE_DENORMAL IEEE_DENORMAL
 IEEE_DENORMAL

 ddikick.x: exited gracefully.
unset echo
----- accounting info -----
Files used on the master node pietdev were:
-rwxr-xr-x 1 piet piet     1328 mei 22 15:51 /home/piet/scr/d-glucose_geoopt.F05*
-rw-r--r-- 1 piet piet 57344000 mei 22 16:22 /home/piet/scr/d-glucose_geoopt.F10
-rw-r--r-- 1 piet piet  6184288 mei 22 16:21 /home/piet/scr/d-glucose_geoopt.F22
-rw-r--r-- 1 piet piet  6184288 mei 22 16:21 /home/piet/scr/d-glucose_geoopt.F22.001
-rw-r--r-- 1 piet piet  6184288 mei 22 16:21 /home/piet/scr/d-glucose_geoopt.F22.002
-rw-r--r-- 1 piet piet  6184288 mei 22 16:21 /home/piet/scr/d-glucose_geoopt.F22.003
-rw-r--r-- 1 piet piet  6184288 mei 22 16:21 /home/piet/scr/d-glucose_geoopt.F22.004
-rw-r--r-- 1 piet piet  6184288 mei 22 16:21 /home/piet/scr/d-glucose_geoopt.F22.005
-rw-r--r-- 1 piet piet  6184288 mei 22 16:21 /home/piet/scr/d-glucose_geoopt.F22.006
-rw-r--r-- 1 piet piet  6184288 mei 22 16:21 /home/piet/scr/d-glucose_geoopt.F22.007
ls: No match.
ls: No match.
ls: No match.
vr 22 mei 2020 16:22:25 CEST
0.109u 0.023s 31:11.72 0.0%	0+0k 8+8io 0pf+0w
