----- GAMESS execution script 'rungms' -----
This job is running on host pietdev
under operating system Linux at vr 22 mei 2020 16:23:53 CEST
Available scratch disk space (Kbyte units) at beginning of the job is
Filesystem     1K-blocks     Used Available Use% Mounted on
/dev/sda2      244568380 31372860 200702464  14% /
GAMESS temporary binary files will be written to /home/piet/scr
GAMESS supplementary output files will be written to /home/piet/gamess/scr
Copying input file d-glucose_fukui_acid.inp to your run's scratch directory...
cp d-glucose_fukui_acid.inp /home/piet/scr/d-glucose_fukui_acid.F05
unset echo
 
Assuming a single but multicore node.
 
/home/piet/gamess/ddikick.x /home/piet/gamess/gamess.03.x d-glucose_fukui_acid -ddi 1 8 pietdev:cpus=8 -scr /home/piet/scr

 Distributed Data Interface kickoff program.
 Initiating 8 compute processes on 1 nodes to run the following command:
 /home/piet/gamess/gamess.03.x d-glucose_fukui_acid 

          ******************************************************
          *         GAMESS VERSION = 30 SEP 2019 (R2)          *
          *             FROM IOWA STATE UNIVERSITY             *
          * M.W.SCHMIDT, K.K.BALDRIDGE, J.A.BOATZ, S.T.ELBERT, *
          *   M.S.GORDON, J.H.JENSEN, S.KOSEKI, N.MATSUNAGA,   *
          *          K.A.NGUYEN, S.J.SU, T.L.WINDUS,           *
          *       TOGETHER WITH M.DUPUIS, J.A.MONTGOMERY       *
          *         J.COMPUT.CHEM.  14, 1347-1363(1993)        *
          **************** 64 BIT LINUX VERSION ****************

  SINCE 1993, STUDENTS AND POSTDOCS WORKING AT IOWA STATE UNIVERSITY
  AND ALSO IN THEIR VARIOUS JOBS AFTER LEAVING ISU HAVE MADE IMPORTANT
  CONTRIBUTIONS TO THE CODE:
     IVANA ADAMOVIC, CHRISTINE AIKENS, YURI ALEXEEV, POOJA ARORA,
     ANDREY ASADCHEV, ROB BELL, PRADIPTA BANDYOPADHYAY, JONATHAN BENTZ,
     COLLEEN BERTONI, BRETT BODE, KURT BRORSEN, CALEB CARLIN, GALINA CHABAN,
     WEI CHEN, CHEOL HO CHOI, PAUL DAY, ALBERT DEFUSCO, NUWAN DESILVA,
     TIM DUDLEY, DMITRI FEDOROV, ALEX FINDLATER, GRAHAM FLETCHER, 
     MARK FREITAG, KURT GLAESEMANN, EMILIE B GUIDEZ, ANASTASIA GUNINA, 
     DAN KEMP, SAROM SOK LEANG, GRANT MERRILL,
     NORIYUKI MINEZAWA, JONATHAN MULLIN,
     TAKESHI NAGATA, SEAN NEDD, HEATHER NETZLOFF, BOSILJKA NJEGIC, RYAN OLSON,
     MIKE PAK, BUU PHAM, DAVID POOLE,
     SPENCER PRUITT, LUKE ROSKOP, TOSAPORN SATTASATHUCHANA,
     JIM SHOEMAKER, LYUDMILA SLIPCHENKO,
     TONY SMITH, JIE SONG, TETSUYA TAKETSUGU, SIMON WEBB,
     JORGE LUIS GALVEZ VALLEJO, PENG XU, SOOHAENG YOO,
     FEDERICO ZAHARIEV

  ADDITIONAL CODE HAS BEEN PROVIDED BY COLLABORATORS IN OTHER GROUPS:
     IOWA STATE UNIVERSITY:
          JOE IVANIC, AARON WEST, LAIMUTIS BYTAUTAS, KLAUS RUEDENBERG
     UNIVERSITY OF TOKYO: KIMIHIKO HIRAO, TAKAHITO NAKAJIMA,
          TAKAO TSUNEDA, MUNEAKI KAMIYA, SUSUMU YANAGISAWA,
          KIYOSHI YAGI, MAHITO CHIBA, SEIKEN TOKURA, NAOAKI KAWAKAMI
     UNIVERSITY OF AARHUS: FRANK JENSEN
     UNIVERSITY OF IOWA: VISVALDAS KAIRYS, HUI LI
     NATIONAL INST. OF STANDARDS AND TECHNOLOGY: WALT STEVENS, DAVID GARMER
     UNIVERSITY OF PISA: BENEDETTA MENNUCCI, JACOPO TOMASI
     UNIVERSITY OF MEMPHIS: HENRY KURTZ, PRAKASHAN KORAMBATH
     UNIVERSITY OF ALBERTA: TOBY ZENG, MARIUSZ KLOBUKOWSKI
     UNIVERSITY OF NEW ENGLAND: MARK SPACKMAN
     MIE UNIVERSITY: HIROAKI UMEDA
     NAT. INST. OF ADVANCED INDUSTRIAL SCIENCE AND TECHNOLOGY: KAZUO KITAURA
     MICHIGAN STATE UNIVERSITY:
          KAROL KOWALSKI, MARTA WLOCH, JEFFREY GOUR, JESSE LUTZ,
          WEI LI, JUN SHEN, J. EMILIANO DEUSTUA, PIOTR PIECUCH
     UNIVERSITY OF MINNESOTA:
          ANDREW SAND, PRACHI SHARMA, YINAN SHU
     UNIVERSITY OF SILESIA: MONIKA MUSIAL, STANISLAW KUCHARSKI
     FACULTES UNIVERSITAIRES NOTRE-DAME DE LA PAIX:
          OLIVIER QUINET, BENOIT CHAMPAGNE
     UNIVERSITY OF CALIFORNIA - SANTA BARBARA: BERNARD KIRTMAN
     INSTITUTE FOR MOLECULAR SCIENCE:
          KAZUYA ISHIMURA, MICHIO KATOUDA, AND SHIGERU NAGASE
     UNIVERSITY OF NOTRE DAME: ANNA POMOGAEVA, DAN CHIPMAN
     KYUSHU UNIVERSITY:
          HARUYUKI NAKANO,
          FENG LONG GU, JACEK KORCHOWIEC, MARCIN MAKOWSKI, AND YURIKO AOKI,
          HIROTOSHI MORI AND EISAKU MIYOSHI
     PENNSYLVANIA STATE UNIVERSITY:
          TZVETELIN IORDANOV, CHET SWALINA, JONATHAN SKONE,
          SHARON HAMMES-SCHIFFER
     WASEDA UNIVERSITY:
          MASATO KOBAYASHI, TOMOKO AKAMA, TSUGUKI TOUMA,
          TAKESHI YOSHIKAWA, YASUHIRO IKABATA, JUNJI SEINO,
          YUYA NAKAJIMA, HIROMI NAKAI
     NANJING UNIVERSITY: SHUHUA LI
     UNIVERSITY OF NEBRASKA:
          PEIFENG SU, DEJUN SI, NANDUN THELLAMUREGE, YALI WANG, HUI LI
     UNIVERSITY OF ZURICH: ROBERTO PEVERATI, KIM BALDRIDGE
     N. COPERNICUS UNIVERSITY AND JACKSON STATE UNIVERSITY:
          MARIA BARYSZ
     UNIVERSITY OF COPENHAGEN: Jimmy Kromann, CASPER STEINMANN
     TOKYO INSTITUTE OF TECHNOLOGY: HIROYA NAKATA
     NAGOYA UNIVERSITY: YOSHIO NISHIMOTO, STEPHAN IRLE
     MOSCOW STATE UNIVERSITY: VLADIMIR MIRONOV
     A.N.NESMEYANOV INSTITUTE OF ORGANOELEMENT COMPOUNDS OF RUSSIAN ACADEMY OF SCIENCES:
          IGOR S. GERASIMOV
     JOHANNES KEPLER UNIVERSITY LINZ:
          CHRISTIAN FRIEDL


 PARALLEL VERSION RUNNING ON        8 PROCESSORS IN        1 NODES.

 EXECUTION OF GAMESS BEGUN Fri May 22 16:23:53 2020

            ECHO OF THE FIRST FEW INPUT CARDS -
 INPUT CARD> $BASIS GBASIS=N21 NGAUSS=3 $END                                                
 INPUT CARD> $CONTRL SCFTYP=UHF MAXIT=60 MULT=2 ICHARG=-1 $END                              
 INPUT CARD> $SYSTEM MEMDDI=1000 MWORDS=30 $END                                             
 INPUT CARD> $SCF DIRSCF=.TRUE. $END                                                        
 INPUT CARD> $STATPT OPTTOL=0.0001 NSTEP=999 $END                                           
 INPUT CARD> $DATA                                                                          
 INPUT CARD>                                                                                
 INPUT CARD>C1                                                                              
 INPUT CARD>O 8.0000000 -3.6322681587 -1.1505051891 0.9673452413                            
 INPUT CARD>C 6.0000000 -2.5606205824 -0.5753323311 1.1969610883                            
 INPUT CARD>C 6.0000000 -1.9840375526 0.3934634534 0.1984511696                             
 INPUT CARD>H 1.0000000 -1.7523240240 1.3688200625 0.6425220326                             
 INPUT CARD>O 8.0000000 -2.9343119424 0.5535393095 -0.8955785371                            
 INPUT CARD>C 6.0000000 -0.6517681826 -0.1458171848 -0.4069671079                           
 INPUT CARD>H 1.0000000 -0.6244502984 -1.2378179781 -0.4826124181                           
 INPUT CARD>O 8.0000000 -0.5329071399 0.5021898078 -1.7145181248                            
 INPUT CARD>C 6.0000000 0.5477311751 0.3746825548 0.3904642593                              
 INPUT CARD>H 1.0000000 0.4457942134 0.1423690647 1.4551790977                              
 INPUT CARD>O 8.0000000 0.5778656115 1.8231249621 0.2284457007                              
 INPUT CARD>C 6.0000000 1.8371653509 -0.2533384196 -0.1186285928                            
 INPUT CARD>H 1.0000000 1.9071816237 -0.1016771506 -1.2040587646                            
 INPUT CARD>O 8.0000000 1.7675741545 -1.6663877223 0.2288751433                             
 INPUT CARD>C 6.0000000 3.0614839158 0.3559716081 0.5571669927                              
 INPUT CARD>O 8.0000000 4.1487702701 -0.5444266731 0.1434271503                             
 INPUT CARD>H 1.0000000 -1.9683689914 -0.7564342376 2.1048700386                            
 INPUT CARD>H 1.0000000 -3.6359408739 -0.1474698987 -0.7218162812                           
 INPUT CARD>H 1.0000000 -1.4975698240 0.6089085349 -1.9957530896                            
 INPUT CARD>H 1.0000000 0.3002716602 1.9095032068 -0.7381730019                             
 INPUT CARD>H 1.0000000 2.7247763948 -1.9557642142 0.1781731580                             
 INPUT CARD>H 1.0000000 3.1991575586 1.3896449791 0.2280693742                              
 INPUT CARD>H 1.0000000 2.9173918746 0.3336190105 1.6466972828                              
 INPUT CARD>H 1.0000000 4.9629037670 -0.3284654549 0.6683579888                             
 INPUT CARD> $END                                                                           
   30000000 WORDS OF MEMORY AVAILABLE

     BASIS OPTIONS
     -------------
     GBASIS=N21          IGAUSS=       3      POLAR=NONE    
     NDFUNC=       0     NFFUNC=       0     DIFFSP=       F
     NPFUNC=       0      DIFFS=       F     BASNAM=        


     RUN TITLE
     ---------
                                                                                 

 THE POINT GROUP OF THE MOLECULE IS C1      
 THE ORDER OF THE PRINCIPAL AXIS IS     0

 ATOM      ATOMIC                      COORDINATES (BOHR)
           CHARGE         X                   Y                   Z
 O           8.0    -6.8639915339       -2.1741395549        1.8280174416
 C           6.0    -4.8388712593       -1.0872204577        2.2619284749
 C           6.0    -3.7492873238        0.7435381131        0.3750183325
 H           1.0    -3.3114122471        2.5866948446        1.2141905827
 O           8.0    -5.5450455336        1.0460376184       -1.6923980356
 C           6.0    -1.2316632726       -0.2755545236       -0.7690563199
 H           1.0    -1.1800399569       -2.3391368013       -0.9120052285
 O           8.0    -1.0070484713        0.9490011306       -3.2399694569
 C           6.0     1.0350618359        0.7080473610        0.7378704581
 H           1.0     0.8424289102        0.2690385214        2.7498897577
 O           8.0     1.0920076635        3.4452066197        0.4316997774
 C           6.0     3.4717391073       -0.4787401952       -0.2241755347
 H           1.0     3.6040506776       -0.1921419538       -2.2753411382
 O           8.0     3.3402308150       -3.1490161845        0.4325113062
 C           6.0     5.7853657167        0.6726887987        1.0528929456
 O           8.0     7.8400389965       -1.0288172326        0.2710380133
 H           1.0    -3.7196780365       -1.4294534368        3.9776276127
 H           1.0    -6.8709319592       -0.2786777000       -1.3640349849
 H           1.0    -2.8299966148        1.1506702825       -3.7714264785
 H           1.0     0.5674311597        3.6084378335       -1.3949447051
 H           1.0     5.1490807640       -3.6958584614        0.3366984470
 H           1.0     6.0455311773        2.6260482307        0.4309886234
 H           1.0     5.5130712418        0.6304485141        3.1118066492
 H           1.0     9.3785282231       -0.6207097062        1.2630134605

          INTERNUCLEAR DISTANCES (ANGS.)
          ------------------------------

                1 O          2 C          3 C          4 H          5 O     

   1 O       0.0000000    1.2377301 *  2.3857287 *  3.1601740    2.6194266 *
   2 C       1.2377301 *  0.0000000    1.5059998 *  2.1772631 *  2.4068067 *
   3 C       2.3857287 *  1.5059998 *  0.0000000    1.0964536 *  1.4579255 *
   4 H       3.1601740    2.1772631 *  1.0964536 *  0.0000000    2.1041700 *
   5 O       2.6194266 *  2.4068067 *  1.4579255 *  2.1041700 *  0.0000000  
   6 C       3.4324208    2.5299776 *  1.5595822 *  2.1463403 *  2.4367697 *
   7 H       3.3402049    2.6473779 *  2.2301131 *  3.0549286    2.9521116 *
   8 O       4.4192568    3.7080166    2.4035500 *  2.7917134 *  2.5377241 *
   9 C       4.4868011    3.3488529    2.5391090 *  2.5183519 *  3.7162508  
  10 H       4.3058215    3.1016611    2.7470886 *  2.6450553 *  4.1376612  
  11 O       5.2070793    4.0670278    2.9339699 *  2.4099037 *  3.9000858  
  12 C       5.6479156    4.6016277    3.8885066    4.0118802    4.9011936  
  13 H       6.0415676    5.0941635    4.1657874    4.3547910    4.8953579  
  14 O       5.4744653    4.5673693    4.2800120    4.6661840    5.3197937  
  15 C       6.8734297    5.7345203    5.0583959    4.9199486    6.1724445  
  16 O       7.8479762    6.7916724    6.2043531    6.2235458    7.2425904  
  17 H       2.0537320 *  1.0990262 *  2.2264193 *  2.5887918 *  3.4134686  
  18 H       1.9645254 *  2.2407781 *  1.9667958 *  2.7764306 *  1.0069212 *
  19 H       4.0536928    3.5673418    2.2577865 *  2.7573286 *  1.8104358 *
  20 H       5.2666226    4.2548626    2.8971900 *  2.5321544 *  3.5108326  
  21 H       6.4562567    5.5568824    5.2623389    5.5957938    6.2828996  
  22 H       7.3257948    6.1623803    5.2781404    4.9688404    6.2913516  
  23 H       6.7499771    5.5710929    5.1112629    4.8873567    6.3838835  
  24 H       8.6395673    7.5461105    7.0001420    6.9264515    8.0987558  

                6 C          7 H          8 O          9 C         10 H     

   1 O       3.4324208    3.3402049    4.4192568    4.4868011    4.3058215  
   2 C       2.5299776 *  2.6473779 *  3.7080166    3.3488529    3.1016611  
   3 C       1.5595822 *  2.2301131 *  2.4035500 *  2.5391090 *  2.7470886 *
   4 H       2.1463403 *  3.0549286    2.7917134 *  2.5183519 *  2.6450553 *
   5 O       2.4367697 *  2.9521116 *  2.5377241 *  3.7162508    4.1376612  
   6 C       0.0000000    1.0949585 *  1.4641484 *  1.5315402 *  2.1806611 *
   7 H       1.0949585 *  0.0000000    2.1339163 *  2.1763341 *  2.6087115 *
   8 O       1.4641484 *  2.1339163 *  0.0000000    2.3695966 *  3.3368110  
   9 C       1.5315402 *  2.1763341 *  2.3695966 *  0.0000000    1.0945220 *
  10 H       2.1806611 *  2.6087115 *  3.3368110    1.0945220 *  0.0000000  
  11 O       2.4067575 *  3.3646008    2.5988063 *  1.4577872 *  2.0850079 *
  12 C       2.5078856 *  2.6760485 *  2.9554915 *  1.5219154 *  2.1376082 *
  13 H       2.6805834 *  2.8671346 *  2.5650063 *  2.1488434 *  3.0441350  
  14 O       2.9273960 *  2.5321271 *  3.7110268    2.3832952 *  2.5539234 *
  15 C       3.8690551    4.1481824    4.2545952    2.5193437 *  2.7737852 *
  16 O       4.8484011    4.8637796    5.1444601    3.7246841    3.9880338  
  17 H       2.9009682 *  2.9551503 *  4.2699428    3.2479797    2.6567141 *
  18 H       3.0007365    3.2117212    3.3220977    4.3603811    4.6350703  
  19 H       1.9517254 *  2.5421116 *  1.0104732 *  3.1515316    3.9878886  
  20 H       2.2891962 *  3.2902967    1.9047225 *  1.9211280 *  2.8204137 *
  21 H       3.8754807    3.4884673    4.4984798    3.1961814    3.3506219  
  22 H       4.1941083    4.6934643    4.2999453    2.8436917 *  3.2622853  
  23 H       4.1456363    4.4213143    4.8198287    2.6823683 *  2.4863730 *
  24 H       5.7196351    5.7766929    6.0474808    4.4794409    4.6092354  

               11 O         12 C         13 H         14 O         15 C     

   1 O       5.2070793    5.6479156    6.0415676    5.4744653    6.8734297  
   2 C       4.0670278    4.6016277    5.0941635    4.5673693    5.7345203  
   3 C       2.9339699 *  3.8885066    4.1657874    4.2800120    5.0583959  
   4 H       2.4099037 *  4.0118802    4.3547910    4.6661840    4.9199486  
   5 O       3.9000858    4.9011936    4.8953579    5.3197937    6.1724445  
   6 C       2.4067575 *  2.5078856 *  2.6805834 *  2.9273960 *  3.8690551  
   7 H       3.3646008    2.6760485 *  2.8671346 *  2.5321271 *  4.1481824  
   8 O       2.5988063 *  2.9554915 *  2.5650063 *  3.7110268    4.2545952  
   9 C       1.4577872 *  1.5219154 *  2.1488434 *  2.3832952 *  2.5193437 *
  10 H       2.0850079 *  2.1376082 *  3.0441350    2.5539234 *  2.7737852 *
  11 O       0.0000000    2.4531605 *  2.7429935 *  3.6867473    2.9032665 *
  12 C       2.4531605 *  0.0000000    1.0982086 *  1.4568151 *  1.5254227 *
  13 H       2.7429935 *  1.0982086 *  0.0000000    2.1262900 *  2.1549414 *
  14 O       3.6867473    1.4568151 *  2.1262900 *  0.0000000    2.4232035 *
  15 C       2.9032665 *  1.5254227 *  2.1549414 *  2.4232035 *  0.0000000  
  16 O       4.2853108    2.3445517 *  2.6526336 *  2.6336653 *  1.4710844 *
  17 H       4.0814709    4.4361180    5.1378604    4.2783926    5.3788709  
  18 H       4.7478845    5.5072620    5.5642485    5.6928815    6.8370133  
  19 H       3.2754868    3.9226936    3.5670778    4.5592882    5.2312856  
  20 H       1.0093916 *  2.7246580 *  2.6161146 *  3.9843638    3.4228145  
  21 H       4.3464648    1.9427296 *  2.4528891 *  1.0012720 *  2.3666708 *
  22 H       2.6568923 *  2.1620862 *  2.4380801 *  3.3747248    1.0934989 *
  23 H       3.1150359    2.1512284 *  3.0556206    2.7078271 *  1.0992445 *
  24 H       4.9042251    3.2241639    3.5909351    3.4918924    2.0239108 *

               16 O         17 H         18 H         19 H         20 H     

   1 O       7.8479762    2.0537320 *  1.9645254 *  4.0536928    5.2666226  
   2 C       6.7916724    1.0990262 *  2.2407781 *  3.5673418    4.2548626  
   3 C       6.2043531    2.2264193 *  1.9667958 *  2.2577865 *  2.8971900 *
   4 H       6.2235458    2.5887918 *  2.7764306 *  2.7573286 *  2.5321544 *
   5 O       7.2425904    3.4134686    1.0069212 *  1.8104358 *  3.5108326  
   6 C       4.8484011    2.9009682 *  3.0007365    1.9517254 *  2.2891962 *
   7 H       4.8637796    2.9551503 *  3.2117212    2.5421116 *  3.2902967  
   8 O       5.1444601    4.2699428    3.3220977    1.0104732 *  1.9047225 *
   9 C       3.7246841    3.2479797    4.3603811    3.1515316    1.9211280 *
  10 H       3.9880338    2.6567141 *  4.6350703    3.9878886    2.8204137 *
  11 O       4.2853108    4.0814709    4.7478845    3.2754868    1.0093916 *
  12 C       2.3445517 *  4.4361180    5.5072620    3.9226936    2.7246580 *
  13 H       2.6526336 *  5.1378604    5.5642485    3.5670778    2.6161146 *
  14 O       2.6336653 *  4.2783926    5.6928815    4.5592882    3.9843638  
  15 C       1.4710844 *  5.3788709    6.8370133    5.2312856    3.4228145  
  16 O       0.0000000    6.4274099    7.8427003    6.1471482    4.6486484  
  17 H       6.4274099    0.0000000    3.3379319    4.3475192    4.5096393  
  18 H       7.8427003    3.3379319    0.0000000    2.6014715 *  4.4413033  
  19 H       6.1471482    4.3475192    2.6014715 *  0.0000000    2.5505466 *
  20 H       4.6486484    4.5096393    4.4413033    2.5505466 *  0.0000000  
  21 H       2.0052031 *  5.2130765    6.6737271    5.3973798    4.6538377  
  22 H       2.1562842 *  5.9018105    7.0699063    5.2549200    3.0995833  
  23 H       2.1323879 *  5.0268079    6.9848030    5.7301934    3.8756078  
  24 H       0.9924742 *  7.0914925    8.7123747    7.0508068    5.3597548  

               21 H         22 H         23 H         24 H     

   1 O       6.4562567    7.3257948    6.7499771    8.6395673  
   2 C       5.5568824    6.1623803    5.5710929    7.5461105  
   3 C       5.2623389    5.2781404    5.1112629    7.0001420  
   4 H       5.5957938    4.9688404    4.8873567    6.9264515  
   5 O       6.2828996    6.2913516    6.3838835    8.0987558  
   6 C       3.8754807    4.1941083    4.1456363    5.7196351  
   7 H       3.4884673    4.6934643    4.4213143    5.7766929  
   8 O       4.4984798    4.2999453    4.8198287    6.0474808  
   9 C       3.1961814    2.8436917 *  2.6823683 *  4.4794409  
  10 H       3.3506219    3.2622853    2.4863730 *  4.6092354  
  11 O       4.3464648    2.6568923 *  3.1150359    4.9042251  
  12 C       1.9427296 *  2.1620862 *  2.1512284 *  3.2241639  
  13 H       2.4528891 *  2.4380801 *  3.0556206    3.5909351  
  14 O       1.0012720 *  3.3747248    2.7078271 *  3.4918924  
  15 C       2.3666708 *  1.0934989 *  1.0992445 *  2.0239108 *
  16 O       2.0052031 *  2.1562842 *  2.1323879 *  0.9924742 *
  17 H       5.2130765    5.9018105    5.0268079    7.0914925  
  18 H       6.6737271    7.0699063    6.9848030    8.7123747  
  19 H       5.3973798    5.2549200    5.7301934    7.0508068  
  20 H       4.6538377    3.0995833    3.8756078    5.3597548  
  21 H       0.0000000    3.3792440    2.7267085 *  2.8102663 *
  22 H       3.3792440    0.0000000    1.7908344 *  2.5013113 *
  23 H       2.7267085 *  1.7908344 *  0.0000000    2.3621225 *
  24 H       2.8102663 *  2.5013113 *  2.3621225 *  0.0000000  

  * ... LESS THAN  3.000


     ATOMIC BASIS SET
     ----------------
 THE CONTRACTED PRIMITIVE FUNCTIONS HAVE BEEN UNNORMALIZED
 THE CONTRACTED BASIS FUNCTIONS ARE NOW NORMALIZED TO UNITY

  SHELL TYPE  PRIMITIVE        EXPONENT          CONTRACTION COEFFICIENT(S)

 O         

      1   S       1           322.0370000    0.059239393389
      1   S       2            48.4308000    0.351499960776
      1   S       3            10.4206000    0.707657921031

      2   L       4             7.4029400   -0.404453583190    0.244586106967
      2   L       5             1.5762000    1.221561761397    0.853955373466

      3   L       6             0.3736840    1.000000000000    1.000000000000

 C         

      4   S       7           172.2560000    0.061766907377
      4   S       8            25.9109000    0.358794042852
      4   S       9             5.5333500    0.700713083689

      5   L      10             3.6649800   -0.395895162119    0.236459946619
      5   L      11             0.7705450    1.215834355681    0.860618805716

      6   L      12             0.1958570    1.000000000000    1.000000000000

 C         

      7   S      13           172.2560000    0.061766907377
      7   S      14            25.9109000    0.358794042852
      7   S      15             5.5333500    0.700713083689

      8   L      16             3.6649800   -0.395895162119    0.236459946619
      8   L      17             0.7705450    1.215834355681    0.860618805716

      9   L      18             0.1958570    1.000000000000    1.000000000000

 H         

     10   S      19             5.4471780    0.156284978695
     10   S      20             0.8245472    0.904690876670

     11   S      21             0.1831916    1.000000000000

 O         

     12   S      22           322.0370000    0.059239393389
     12   S      23            48.4308000    0.351499960776
     12   S      24            10.4206000    0.707657921031

     13   L      25             7.4029400   -0.404453583190    0.244586106967
     13   L      26             1.5762000    1.221561761397    0.853955373466

     14   L      27             0.3736840    1.000000000000    1.000000000000

 C         

     15   S      28           172.2560000    0.061766907377
     15   S      29            25.9109000    0.358794042852
     15   S      30             5.5333500    0.700713083689

     16   L      31             3.6649800   -0.395895162119    0.236459946619
     16   L      32             0.7705450    1.215834355681    0.860618805716

     17   L      33             0.1958570    1.000000000000    1.000000000000

 H         

     18   S      34             5.4471780    0.156284978695
     18   S      35             0.8245472    0.904690876670

     19   S      36             0.1831916    1.000000000000

 O         

     20   S      37           322.0370000    0.059239393389
     20   S      38            48.4308000    0.351499960776
     20   S      39            10.4206000    0.707657921031

     21   L      40             7.4029400   -0.404453583190    0.244586106967
     21   L      41             1.5762000    1.221561761397    0.853955373466

     22   L      42             0.3736840    1.000000000000    1.000000000000

 C         

     23   S      43           172.2560000    0.061766907377
     23   S      44            25.9109000    0.358794042852
     23   S      45             5.5333500    0.700713083689

     24   L      46             3.6649800   -0.395895162119    0.236459946619
     24   L      47             0.7705450    1.215834355681    0.860618805716

     25   L      48             0.1958570    1.000000000000    1.000000000000

 H         

     26   S      49             5.4471780    0.156284978695
     26   S      50             0.8245472    0.904690876670

     27   S      51             0.1831916    1.000000000000

 O         

     28   S      52           322.0370000    0.059239393389
     28   S      53            48.4308000    0.351499960776
     28   S      54            10.4206000    0.707657921031

     29   L      55             7.4029400   -0.404453583190    0.244586106967
     29   L      56             1.5762000    1.221561761397    0.853955373466

     30   L      57             0.3736840    1.000000000000    1.000000000000

 C         

     31   S      58           172.2560000    0.061766907377
     31   S      59            25.9109000    0.358794042852
     31   S      60             5.5333500    0.700713083689

     32   L      61             3.6649800   -0.395895162119    0.236459946619
     32   L      62             0.7705450    1.215834355681    0.860618805716

     33   L      63             0.1958570    1.000000000000    1.000000000000

 H         

     34   S      64             5.4471780    0.156284978695
     34   S      65             0.8245472    0.904690876670

     35   S      66             0.1831916    1.000000000000

 O         

     36   S      67           322.0370000    0.059239393389
     36   S      68            48.4308000    0.351499960776
     36   S      69            10.4206000    0.707657921031

     37   L      70             7.4029400   -0.404453583190    0.244586106967
     37   L      71             1.5762000    1.221561761397    0.853955373466

     38   L      72             0.3736840    1.000000000000    1.000000000000

 C         

     39   S      73           172.2560000    0.061766907377
     39   S      74            25.9109000    0.358794042852
     39   S      75             5.5333500    0.700713083689

     40   L      76             3.6649800   -0.395895162119    0.236459946619
     40   L      77             0.7705450    1.215834355681    0.860618805716

     41   L      78             0.1958570    1.000000000000    1.000000000000

 O         

     42   S      79           322.0370000    0.059239393389
     42   S      80            48.4308000    0.351499960776
     42   S      81            10.4206000    0.707657921031

     43   L      82             7.4029400   -0.404453583190    0.244586106967
     43   L      83             1.5762000    1.221561761397    0.853955373466

     44   L      84             0.3736840    1.000000000000    1.000000000000

 H         

     45   S      85             5.4471780    0.156284978695
     45   S      86             0.8245472    0.904690876670

     46   S      87             0.1831916    1.000000000000

 H         

     47   S      88             5.4471780    0.156284978695
     47   S      89             0.8245472    0.904690876670

     48   S      90             0.1831916    1.000000000000

 H         

     49   S      91             5.4471780    0.156284978695
     49   S      92             0.8245472    0.904690876670

     50   S      93             0.1831916    1.000000000000

 H         

     51   S      94             5.4471780    0.156284978695
     51   S      95             0.8245472    0.904690876670

     52   S      96             0.1831916    1.000000000000

 H         

     53   S      97             5.4471780    0.156284978695
     53   S      98             0.8245472    0.904690876670

     54   S      99             0.1831916    1.000000000000

 H         

     55   S     100             5.4471780    0.156284978695
     55   S     101             0.8245472    0.904690876670

     56   S     102             0.1831916    1.000000000000

 H         

     57   S     103             5.4471780    0.156284978695
     57   S     104             0.8245472    0.904690876670

     58   S     105             0.1831916    1.000000000000

 H         

     59   S     106             5.4471780    0.156284978695
     59   S     107             0.8245472    0.904690876670

     60   S     108             0.1831916    1.000000000000

 TOTAL NUMBER OF BASIS SET SHELLS             =   60
 NUMBER OF CARTESIAN GAUSSIAN BASIS FUNCTIONS =  132
 NUMBER OF ELECTRONS                          =   97
 CHARGE OF MOLECULE                           =   -1
 SPIN MULTIPLICITY                            =    2
 NUMBER OF OCCUPIED ORBITALS (ALPHA)          =   49
 NUMBER OF OCCUPIED ORBITALS (BETA )          =   48
 TOTAL NUMBER OF ATOMS                        =   24
 THE NUCLEAR REPULSION ENERGY IS      784.0216010816

     $CONTRL OPTIONS
     ---------------
 SCFTYP=UHF          RUNTYP=ENERGY       EXETYP=RUN     
 MPLEVL=       0     CITYP =NONE         CCTYP =NONE         VBTYP =NONE    
 DFTTYP=NONE         TDDFT =NONE    
 MULT  =       2     ICHARG=      -1     NZVAR =       0     COORD =UNIQUE  
 PP    =NONE         RELWFN=NONE         LOCAL =NONE         NUMGRD=       F
 ISPHER=      -1     NOSYM =       0     MAXIT =      60     UNITS =ANGS    
 PLTORB=       F     MOLPLT=       F     AIMPAC=       F     FRIEND=        
 NPRINT=       7     IREST =       0     GEOM  =INPUT   
 NORMF =       0     NORMP =       0     ITOL  =      20     ICUT  =       9
 INTTYP=BEST         GRDTYP=BEST         QMTTOL= 1.0E-06

     $SYSTEM OPTIONS
     ---------------
  REPLICATED MEMORY=    30000000 WORDS (ON EVERY NODE).
 DISTRIBUTED MEMDDI=        1000 MILLION WORDS IN AGGREGATE,
 MEMDDI DISTRIBUTED OVER   8 PROCESSORS IS   125000000 WORDS/PROCESSOR.
 TOTAL MEMORY REQUESTED ON EACH PROCESSOR=   155000000 WORDS.
 TIMLIM=      525600.00 MINUTES, OR     365.0 DAYS.
 PARALL= T  BALTYP=  DLB     KDIAG=    0  COREFL= F
 MXSEQ2=     300 MXSEQ3=     150  mem10=         0

          ----------------
          PROPERTIES INPUT
          ----------------

     MOMENTS            FIELD           POTENTIAL          DENSITY
 IEMOM =       1   IEFLD =       0   IEPOT =       0   IEDEN =       0
 WHERE =COMASS     WHERE =NUCLEI     WHERE =NUCLEI     WHERE =NUCLEI  
 OUTPUT=BOTH       OUTPUT=BOTH       OUTPUT=BOTH       OUTPUT=BOTH    
 IEMINT=       0   IEFINT=       0                     IEDINT=       0
                                                       MORB  =       0
          EXTRAPOLATION IN EFFECT
          SOSCF IN EFFECT
          DIIS or SOSCF will be reset if energy rises
 ORBITAL PRINTING OPTION: NPREO=     1   132     2     1

     -------------------------------
     INTEGRAL TRANSFORMATION OPTIONS
     -------------------------------
     NWORD  =            0
     CUTOFF = 1.0E-09     MPTRAN =       0
     DIRTRF =       T     AOINTS =DUP     

          ----------------------
          INTEGRAL INPUT OPTIONS
          ----------------------
 NOPK  =       1 NORDER=       0 SCHWRZ=       T

     ------------------------------------------
     THE POINT GROUP IS C1 , NAXIS= 0, ORDER= 1
     ------------------------------------------

     DIMENSIONS OF THE SYMMETRY SUBSPACES ARE
 A   =  132

 ..... DONE SETTING UP THE RUN .....
 CPU     0: STEP CPU TIME=     0.03 TOTAL CPU TIME=          0.0 (      0.0 MIN)
 TOTAL WALL CLOCK TIME=          0.1 SECONDS, CPU UTILIZATION IS    60.00%

          ********************
          1 ELECTRON INTEGRALS
          ********************
 ...... END OF ONE-ELECTRON INTEGRALS ......
 CPU     0: STEP CPU TIME=     0.01 TOTAL CPU TIME=          0.0 (      0.0 MIN)
 TOTAL WALL CLOCK TIME=          0.1 SECONDS, CPU UTILIZATION IS    57.14%

          -------------
          GUESS OPTIONS
          -------------
          GUESS =HUCKEL            NORB  =       0          NORDER=       0
          MIX   =       F          PRTMO =       F          PUNMO =       F
          TOLZ  = 1.0E-08          TOLE  = 1.0E-05
          SYMDEN=       F          PURIFY=       F

 INITIAL GUESS ORBITALS GENERATED BY HUCKEL   ROUTINE.
 HUCKEL GUESS REQUIRES    164928 WORDS.

 SYMMETRIES FOR INITIAL GUESS ORBITALS FOLLOW.  ALPHA SET(S).
    49 ORBITALS ARE OCCUPIED (   12 CORE ORBITALS).
    13=A       14=A       15=A       16=A       17=A       18=A       19=A   
    20=A       21=A       22=A       23=A       24=A       25=A       26=A   
    27=A       28=A       29=A       30=A       31=A       32=A       33=A   
    34=A       35=A       36=A       37=A       38=A       39=A       40=A   
    41=A       42=A       43=A       44=A       45=A       46=A       47=A   
    48=A       49=A       50=A       51=A       52=A       53=A       54=A   
    55=A       56=A       57=A       58=A       59=A   

 SYMMETRIES FOR INITIAL GUESS ORBITALS FOLLOW.   BETA SET(S).
    48 ORBITALS ARE OCCUPIED (   12 CORE ORBITALS).
    13=A       14=A       15=A       16=A       17=A       18=A       19=A   
    20=A       21=A       22=A       23=A       24=A       25=A       26=A   
    27=A       28=A       29=A       30=A       31=A       32=A       33=A   
    34=A       35=A       36=A       37=A       38=A       39=A       40=A   
    41=A       42=A       43=A       44=A       45=A       46=A       47=A   
    48=A       49=A       50=A       51=A       52=A       53=A       54=A   
    55=A       56=A       57=A       58=A   
 ...... END OF INITIAL ORBITAL SELECTION ......
 CPU     0: STEP CPU TIME=     0.04 TOTAL CPU TIME=          0.1 (      0.0 MIN)
 TOTAL WALL CLOCK TIME=          0.1 SECONDS, CPU UTILIZATION IS    66.67%

                    ----------------------
                    AO INTEGRAL TECHNOLOGY
                    ----------------------
     S,P,L SHELL ROTATED AXIS INTEGRALS, REPROGRAMMED BY
        KAZUYA ISHIMURA (IMS) AND JOSE SIERRA (SYNSTAR).
     S,P,D,L SHELL ROTATED AXIS INTEGRALS PROGRAMMED BY
        KAZUYA ISHIMURA (INSTITUTE FOR MOLECULAR SCIENCE).
     S,P,D,F,G SHELL TO TOTAL QUARTET ANGULAR MOMENTUM SUM 5,
        ERIC PROGRAM BY GRAHAM FLETCHER (ELORET AND NASA ADVANCED
        SUPERCOMPUTING DIVISION, AMES RESEARCH CENTER).
     S,P,D,F,G,L SHELL GENERAL RYS QUADRATURE PROGRAMMED BY
        MICHEL DUPUIS (PACIFIC NORTHWEST NATIONAL LABORATORY).

          --------------------
          2 ELECTRON INTEGRALS
          --------------------

 DIRECT SCF METHOD SKIPS INTEGRAL STORAGE ON DISK.
 DIRECT TRANSFORMATION SKIPS AO INTEGRAL STORAGE ON DISK.
  ...... END OF TWO-ELECTRON INTEGRALS .....
 CPU     0: STEP CPU TIME=     0.02 TOTAL CPU TIME=          0.1 (      0.0 MIN)
 TOTAL WALL CLOCK TIME=          0.2 SECONDS, CPU UTILIZATION IS    62.50%

          ---------------------------
                  UHF SCF CALCULATION
          ---------------------------

     NUCLEAR ENERGY =       784.0216010816
     MAXIT = 60     NPUNCH=  2     MULT=  2
     EXTRAP=T  DAMP=F  SHIFT=F  RSTRCT=F  DIIS=F  SOSCF=T
     DENSITY MATRIX CONV=  2.00E-05
     SOSCF WILL OPTIMIZE    4067 ALPHA AND    4032 BETA ROTATION ANGLES.
     SOGTOL= 2.500E-01
     MEMORY REQUIRED FOR UHF/ROHF ITERS=    281061 WORDS.

 DIRECT SCF CALCULATION, SCHWRZ=T   FDIFF=T
 SCHWARZ INEQUALITY OVERHEAD:      7804 INTEGRALS, T=        0.00

                                                                                NONZERO     BLOCKS
 ITER EX      TOTAL ENERGY        E CHANGE  DENSITY CHANGE    ORB. GRAD       INTEGRALS    SKIPPED
   1  0     -677.5473965525  -677.5473965525   0.831172320   0.000000000       18139840     963752
          ---------------START SECOND ORDER SCF---------------
   2  1     -679.3299998376    -1.7826032850   0.142072038   0.075969256       18092070     975758
   3  2     -679.4302345932    -0.1002347557   0.137703420   0.056179475       17805302    1015055
   4  3     -679.4617946293    -0.0315600361   0.022031900   0.004767585       17488622    1043199
   5  4     -679.4625682563    -0.0007736270   0.006338172   0.002081415       16750674    1091645
   6  5     -679.4626924277    -0.0001241714   0.002488434   0.000865282       16018314    1125036
   7  6     -679.4627081521    -0.0000157244   0.001613531   0.000311964       15198484    1163722
   8  7     -679.4627114728    -0.0000033207   0.000934328   0.000156169       14472633    1195330
   9  8     -679.4627125863    -0.0000011135   0.000312821   0.000072938       13893928    1220373
  10  9     -679.4627128672    -0.0000002809   0.000106790   0.000026389       13430448    1242236
  11 10     -679.4627129155    -0.0000000483   0.000109490   0.000020621       12734928    1270822
  12 11     -679.4627129297    -0.0000000142   0.000067539   0.000010214       12303882    1288179
  13 12     -679.4627129324    -0.0000000027   0.000036786   0.000002976       11554035    1319395
  14 13     -679.4627129338    -0.0000000014   0.000011723   0.000001256       10887711    1341580
  15 14     -679.4627129357    -0.0000000019   0.000002986   0.000000766       10041199    1374984

          -----------------
          DENSITY CONVERGED
          -----------------
     TIME TO FORM FOCK OPERATORS=       2.6 SECONDS (       0.2 SEC/ITER)
     FOCK TIME ON FIRST ITERATION=       0.2, LAST ITERATION=       0.1
     TIME TO SOLVE SCF EQUATIONS=       0.2 SECONDS (       0.0 SEC/ITER)

 FINAL UHF ENERGY IS     -679.4627129357 AFTER  15 ITERATIONS

          --------------------
          SPIN SZ   =    0.500
          S-SQUARED =    0.761
          --------------------

  ----- ALPHA SET ----- 

          ------------
          EIGENVECTORS
          ------------

                      1          2          3          4          5
                  -20.3766   -20.3263   -20.3090   -20.2937   -20.2764
                     A          A          A          A          A   
    1  O  1  S    0.000035  -0.000095  -0.000197  -0.000293  -0.001013
    2  O  1  S    0.000041  -0.000077  -0.000152  -0.000204  -0.000777
    3  O  1  X   -0.000007  -0.000027  -0.000028   0.000040  -0.000141
    4  O  1  Y    0.000000   0.000011   0.000030  -0.000068   0.000038
    5  O  1  Z   -0.000002   0.000022  -0.000012  -0.000072  -0.000243
    6  O  1  S   -0.000216   0.000237   0.000546   0.000829   0.004842
    7  O  1  X   -0.000024   0.000150   0.000202  -0.000133   0.001848
    8  O  1  Y   -0.000037  -0.000024  -0.000118   0.000350   0.000745
    9  O  1  Z    0.000023  -0.000088   0.000083   0.000362   0.000689
   10  C  2  S    0.000007   0.000018  -0.000023  -0.000114   0.000196
   11  C  2  S    0.000076   0.000158  -0.000083  -0.000826   0.000385
   12  C  2  X    0.000027   0.000105   0.000094  -0.000381  -0.000291
   13  C  2  Y    0.000006  -0.000001   0.000009   0.000055  -0.000448
   14  C  2  Z    0.000009  -0.000119  -0.000130   0.000057   0.000357
   15  C  2  S   -0.000124   0.000084   0.001628   0.001532  -0.007987
   16  C  2  X   -0.000340   0.000032   0.000771   0.002458   0.005259
   17  C  2  Y   -0.000053   0.000292   0.001293  -0.000138  -0.000230
   18  C  2  Z   -0.000351   0.000271  -0.000227  -0.000570   0.007634
   19  C  3  S    0.000026   0.000006   0.000083   0.000287  -0.001026
   20  C  3  S    0.000079   0.000128   0.000787   0.001067  -0.004430
   21  C  3  X   -0.000189   0.000093   0.000250  -0.000634  -0.000412
   22  C  3  Y   -0.000007  -0.000112  -0.000153   0.000185   0.000820
   23  C  3  Z   -0.000037   0.000038   0.000295   0.000388  -0.000859
   24  C  3  S   -0.001298  -0.000085  -0.001593  -0.008870   0.024666
   25  C  3  X    0.000153  -0.000337  -0.000035  -0.002978  -0.010690
   26  C  3  Y    0.000281   0.000961   0.001112  -0.000574  -0.005282
   27  C  3  Z    0.000760  -0.000600  -0.002968   0.003075  -0.010969
   28  H  4  S   -0.000068   0.000029  -0.000297   0.000811  -0.000502
   29  H  4  S    0.000108  -0.000630   0.000828   0.000294   0.000691
   30  O  5  S   -0.000265   0.000243   0.000461   0.004118   0.983580
   31  O  5  S   -0.000150   0.000090   0.000137   0.000654   0.098802
   32  O  5  X   -0.000015  -0.000007  -0.000012   0.000148   0.000772
   33  O  5  Y    0.000010   0.000042   0.000067  -0.000112  -0.002136
   34  O  5  Z   -0.000020   0.000006   0.000047  -0.000358   0.002576
   35  O  5  S    0.000556  -0.000363  -0.000710   0.000055  -0.048371
   36  O  5  X    0.000193  -0.000085  -0.000206  -0.000247  -0.004354
   37  O  5  Y   -0.000074  -0.000174  -0.000245   0.000288   0.005112
   38  O  5  Z    0.000203  -0.000104  -0.000286   0.001734  -0.008441
   39  C  6  S   -0.000042   0.000157   0.000177  -0.001043   0.000301
   40  C  6  S   -0.000273   0.001060   0.000502  -0.004704   0.001250
   41  C  6  X    0.000210   0.000263  -0.000853  -0.000150   0.000266
   42  C  6  Y   -0.000079   0.000135  -0.000303  -0.000111  -0.000340
   43  C  6  Z   -0.000062  -0.000229  -0.000766  -0.001485  -0.000093
   44  C  6  S    0.002285  -0.003560  -0.005723   0.023668  -0.008065
   45  C  6  X   -0.000588  -0.001772  -0.000884   0.000394   0.005122
   46  C  6  Y    0.001035  -0.002174  -0.004833   0.011427  -0.000285
   47  C  6  Z    0.001001   0.001987   0.002169  -0.008607   0.001388
   48  H  7  S    0.000059  -0.000319  -0.000402  -0.000724   0.000713
   49  H  7  S    0.000156   0.000276  -0.000443   0.001069   0.000677
   50  O  8  S    0.000027  -0.002648   0.003996   0.983533  -0.004083
   51  O  8  S    0.000017  -0.000695   0.000524   0.098512  -0.000146
   52  O  8  X   -0.000009   0.000007   0.000477  -0.002536  -0.000131
   53  O  8  Y    0.000034   0.000109   0.000357  -0.000921   0.000219
   54  O  8  Z    0.000020  -0.000063   0.000224   0.002337  -0.000182
   55  O  8  S   -0.000070   0.002078   0.001173  -0.047099  -0.000231
   56  O  8  X    0.000103  -0.000009  -0.001930   0.005661   0.000669
   57  O  8  Y   -0.000143  -0.000689  -0.001656   0.003161  -0.001075
   58  O  8  Z   -0.000122   0.000895  -0.000025  -0.008399   0.001236
   59  C  9  S   -0.000157   0.000128  -0.000958   0.000207  -0.000059
   60  C  9  S   -0.000964   0.000223  -0.004201   0.000644  -0.000446
   61  C  9  X   -0.000504  -0.000441   0.000192   0.000774   0.000788
   62  C  9  Y   -0.000176   0.000219   0.001350   0.000451  -0.000163
   63  C  9  Z   -0.000153   0.000546   0.000446   0.000461  -0.000255
   64  C  9  S    0.003602  -0.004376   0.021240  -0.006535  -0.001035
   65  C  9  X    0.004710  -0.003621  -0.000161   0.002077  -0.004775
   66  C  9  Y    0.000380   0.004542   0.012805  -0.004335   0.002132
   67  C  9  Z    0.000981  -0.003816  -0.006791   0.004327   0.001813
   68  H 10  S   -0.000488   0.000846  -0.000754  -0.000435  -0.000456
   69  H 10  S   -0.000258   0.001821   0.000651  -0.000242  -0.000396
   70  O 11  S    0.000316   0.000282   0.983543  -0.004009  -0.000414
   71  O 11  S    0.000174   0.000130   0.098306  -0.000277   0.000064
   72  O 11  X   -0.000021  -0.000250  -0.000697  -0.000229  -0.000037
   73  O 11  Y   -0.000037   0.000116  -0.003200   0.000163  -0.000038
   74  O 11  Z    0.000064  -0.000017  -0.002052  -0.000274   0.000128
   75  O 11  S   -0.000833  -0.001292  -0.046767   0.001073  -0.000632
   76  O 11  X   -0.000285   0.001054   0.001674   0.000826   0.000466
   77  O 11  Y    0.000528   0.000084   0.010268  -0.001672   0.000431
   78  O 11  Z   -0.000333   0.000213   0.004012   0.001303  -0.000612
   79  C 12  S    0.000330  -0.000988   0.000146   0.000082  -0.000109
   80  C 12  S    0.001476  -0.004444   0.000298   0.000674  -0.000618
   81  C 12  X   -0.000581   0.000085   0.000455  -0.000351  -0.000235
   82  C 12  Y   -0.000001  -0.001463  -0.000179  -0.000135  -0.000050
   83  C 12  Z    0.000125  -0.000316  -0.000527   0.000107  -0.000130
   84  C 12  S   -0.010857   0.022284  -0.004209  -0.001091   0.004807
   85  C 12  X   -0.002565  -0.001053   0.001706   0.001368  -0.000614
   86  C 12  Y   -0.001113  -0.011201  -0.004864   0.002582   0.001348
   87  C 12  Z   -0.003821   0.008028   0.002984  -0.001323   0.001770
   88  H 13  S    0.000483  -0.000906   0.000974  -0.000318  -0.000072
   89  H 13  S   -0.000950   0.000823   0.001037  -0.000175   0.000230
   90  O 14  S    0.001657   0.983539  -0.000227   0.002539  -0.000235
   91  O 14  S    0.000409   0.098214   0.000084  -0.000157   0.000047
   92  O 14  X    0.000200   0.002718   0.000331   0.000040  -0.000019
   93  O 14  Y   -0.000121   0.002594  -0.000125  -0.000070  -0.000002
   94  O 14  Z    0.000056  -0.000968  -0.000082   0.000049   0.000028
   95  O 14  S   -0.000204  -0.046500  -0.001264   0.001611  -0.000303
   96  O 14  X   -0.000787  -0.005543  -0.001342  -0.000161   0.000023
   97  O 14  Y    0.001170  -0.008919  -0.000061   0.000831  -0.000183
   98  O 14  Z   -0.000110   0.002494   0.000292  -0.000292  -0.000147
   99  C 15  S   -0.000853   0.000160   0.000045   0.000009   0.000042
  100  C 15  S   -0.003414   0.000356   0.000370   0.000061   0.000168
  101  C 15  X    0.001280   0.000837  -0.000066  -0.000036   0.000141
  102  C 15  Y   -0.000741   0.000465  -0.000133   0.000030  -0.000004
  103  C 15  Z   -0.000290   0.000429   0.000218  -0.000112   0.000041
  104  C 15  S    0.020039  -0.005248  -0.000781  -0.000488  -0.001722
  105  C 15  X    0.003885   0.001016   0.000171   0.000371   0.000489
  106  C 15  Y   -0.008039   0.003675   0.001007  -0.000477   0.000619
  107  C 15  Z   -0.003588  -0.001694  -0.001942   0.001218   0.000239
  108  O 16  S    0.983446  -0.001630  -0.000287  -0.000026   0.000236
  109  O 16  S    0.097489   0.000110   0.000045   0.000008  -0.000094
  110  O 16  X   -0.000377  -0.000348  -0.000073   0.000007   0.000041
  111  O 16  Y    0.002450  -0.000265   0.000025  -0.000020  -0.000004
  112  O 16  Z    0.002421  -0.000316  -0.000123   0.000037   0.000010
  113  O 16  S   -0.043299   0.000235  -0.000118  -0.000041   0.000419
  114  O 16  X    0.003294   0.001030   0.000278  -0.000020  -0.000287
  115  O 16  Y   -0.006176   0.001186  -0.000107   0.000082   0.000076
  116  O 16  Z   -0.005250   0.001308   0.000533  -0.000192  -0.000003
  117  H 17  S    0.000040   0.000017  -0.000169  -0.000394  -0.000818
  118  H 17  S    0.000301  -0.000145   0.000044  -0.000452  -0.002430
  119  H 18  S   -0.000050  -0.000001  -0.000032   0.000098   0.003033
  120  H 18  S    0.000084  -0.000042  -0.000075  -0.000150   0.005722
  121  H 19  S    0.000011  -0.000105  -0.000320   0.003131  -0.000596
  122  H 19  S    0.000053   0.000252  -0.000497   0.006015   0.003541
  123  H 20  S   -0.000093  -0.000179   0.003003  -0.000520   0.000008
  124  H 20  S   -0.000031   0.000530   0.005885   0.003241  -0.000434
  125  H 21  S   -0.000553   0.003111   0.000413  -0.000077  -0.000001
  126  H 21  S    0.002459   0.005782  -0.000133   0.000340   0.000086
  127  H 22  S   -0.001052  -0.000409  -0.000517   0.000206   0.000044
  128  H 22  S   -0.000296  -0.000185   0.000237   0.000177  -0.000107
  129  H 23  S   -0.001215   0.000689   0.000464  -0.000029   0.000057
  130  H 23  S   -0.001605   0.000908   0.000674  -0.000729   0.000177
  131  H 24  S    0.002897  -0.000543  -0.000158   0.000047   0.000015
  132  H 24  S    0.005120  -0.000275   0.000012  -0.000068   0.000036

                      6          7          8          9         10
                  -20.1471   -11.1306   -11.1064   -11.0899   -11.0629
                     A          A          A          A          A   
    1  O  1  S    0.983464  -0.000005   0.000025   0.000030   0.000005
    2  O  1  S    0.099843  -0.000044   0.000214   0.000281   0.000036
    3  O  1  X    0.003700  -0.000009   0.000008  -0.000000   0.000088
    4  O  1  Y    0.002215   0.000009  -0.000009   0.000022  -0.000045
    5  O  1  Z    0.000383  -0.000008   0.000010   0.000068  -0.000119
    6  O  1  S   -0.052709   0.000232  -0.001087  -0.001197  -0.000204
    7  O  1  X   -0.012453   0.000098  -0.000235  -0.000166  -0.000428
    8  O  1  Y   -0.007522  -0.000010  -0.000125  -0.000128  -0.000086
    9  O  1  Z   -0.001220   0.000031  -0.000060  -0.000410   0.000431
   10  C  2  S   -0.000029   0.000016   0.000011   0.000445  -0.002080
   11  C  2  S    0.000142   0.000052   0.000061   0.000615  -0.001971
   12  C  2  X   -0.001707  -0.000018  -0.000024   0.000174  -0.000776
   13  C  2  Y   -0.001277  -0.000047  -0.000058   0.000083  -0.000351
   14  C  2  Z    0.000243   0.000046   0.000154  -0.000067   0.000473
   15  C  2  S    0.020583  -0.000615  -0.000563  -0.001981   0.005670
   16  C  2  X   -0.018395   0.000014  -0.001723  -0.002098   0.001040
   17  C  2  Y   -0.006155   0.000200  -0.000437  -0.001546   0.002362
   18  C  2  Z   -0.010510   0.000121  -0.000707   0.001442  -0.002054
   19  C  3  S    0.000219  -0.000420  -0.001507  -0.002828  -0.004910
   20  C  3  S    0.000780  -0.000401  -0.001237  -0.001180  -0.003651
   21  C  3  X   -0.000413  -0.000033  -0.000458  -0.000941   0.000757
   22  C  3  Y   -0.000039   0.000089   0.000018   0.000379  -0.000586
   23  C  3  Z   -0.000836   0.000028  -0.000198  -0.000011  -0.000077
   24  C  3  S   -0.004580   0.001786   0.004084   0.000575   0.025134
   25  C  3  X    0.009578   0.000416   0.004118  -0.000199   0.015339
   26  C  3  Y    0.004461  -0.000930  -0.000921  -0.003173   0.001084
   27  C  3  Z    0.005701  -0.000825   0.000988   0.001425  -0.008509
   28  H  4  S   -0.000892  -0.000047  -0.000756  -0.000352  -0.001813
   29  H  4  S   -0.001883   0.000486   0.000818   0.002319  -0.002691
   30  O  5  S    0.000813   0.000006  -0.000029  -0.000032   0.000064
   31  O  5  S   -0.000616   0.000027  -0.000268  -0.000307   0.000252
   32  O  5  X   -0.000396  -0.000028   0.000012  -0.000118  -0.000019
   33  O  5  Y   -0.000169   0.000013  -0.000002   0.000062   0.000281
   34  O  5  Z   -0.000076   0.000006  -0.000056  -0.000051  -0.000207
   35  O  5  S    0.004084  -0.000282   0.001170   0.000999  -0.002252
   36  O  5  X    0.002680  -0.000019   0.000042   0.000682  -0.001923
   37  O  5  Y    0.000313   0.000023   0.000000  -0.000070  -0.000830
   38  O  5  Z    0.001653  -0.000117   0.000464   0.000312   0.000264
   39  C  6  S   -0.000009  -0.001705  -0.002634  -0.006725   0.988376
   40  C  6  S   -0.000022  -0.001359  -0.000845  -0.003950   0.106345
   41  C  6  X   -0.000034  -0.000445  -0.001014   0.000821   0.000551
   42  C  6  Y    0.000362   0.000137   0.000110  -0.000100   0.001492
   43  C  6  Z    0.000023  -0.000038  -0.000071   0.000131   0.000408
   44  C  6  S   -0.000439   0.004932  -0.001720   0.026533  -0.098050
   45  C  6  X   -0.001267   0.004906   0.002756   0.012366  -0.002009
   46  C  6  Y   -0.003549  -0.000054  -0.000017   0.006351  -0.014096
   47  C  6  Z   -0.001212   0.000816  -0.001385   0.007052  -0.008060
   48  H  7  S   -0.000071  -0.000655  -0.000311  -0.001319   0.000179
   49  H  7  S   -0.002500   0.000139   0.000651   0.001067   0.011757
   50  O  8  S    0.000253   0.000014   0.000045   0.000050  -0.000325
   51  O  8  S   -0.000139   0.000086   0.000475   0.000004  -0.001392
   52  O  8  X    0.000033   0.000033   0.000334  -0.000460  -0.000236
   53  O  8  Y   -0.000068  -0.000052  -0.000059   0.000058  -0.000246
   54  O  8  Z   -0.000114  -0.000010   0.000114  -0.000593   0.000374
   55  O  8  S    0.000486  -0.000560  -0.001280  -0.002115   0.012727
   56  O  8  X   -0.000047  -0.000325  -0.001475   0.001253   0.000530
   57  O  8  Y    0.000359   0.000358   0.000379   0.000034  -0.001687
   58  O  8  Z    0.000587  -0.000259  -0.000652   0.000388   0.005797
   59  C  9  S    0.000020  -0.004245  -0.010500   0.988223   0.005547
   60  C  9  S    0.000268  -0.001571  -0.004412   0.105760  -0.002864
   61  C  9  X   -0.000376  -0.001166   0.000171   0.000223  -0.000504
   62  C  9  Y    0.000207  -0.000230  -0.000087  -0.000289  -0.000277
   63  C  9  Z    0.000085  -0.000359   0.000190  -0.000956  -0.000068
   64  C  9  S    0.001268  -0.000034   0.028780  -0.096806   0.028285
   65  C  9  X    0.001526   0.004019   0.016778  -0.000686  -0.015026
   66  C  9  Y   -0.001473   0.002243  -0.006950   0.006411  -0.002206
   67  C  9  Z   -0.001902   0.002965  -0.004308   0.010269  -0.009834
   68  H 10  S   -0.000093  -0.000128  -0.001889   0.000669  -0.001244
   69  H 10  S    0.001356  -0.002148   0.000949   0.014375   0.001127
   70  O 11  S    0.000161   0.000042   0.000015  -0.000278   0.000053
   71  O 11  S   -0.000134   0.000322  -0.000217  -0.001101   0.000025
   72  O 11  X   -0.000008   0.000015  -0.000033  -0.000201   0.000316
   73  O 11  Y    0.000030  -0.000038   0.000300  -0.000461   0.000464
   74  O 11  Z   -0.000029   0.000027   0.000240  -0.000025   0.000194
   75  O 11  S    0.000645  -0.001280  -0.000689   0.010835  -0.002748
   76  O 11  X   -0.000181  -0.000519  -0.000970   0.000683  -0.000156
   77  O 11  Y   -0.000293   0.000651   0.000416  -0.005042   0.000406
   78  O 11  Z    0.000233  -0.000397  -0.000668   0.000387  -0.000223
   79  C 12  S    0.000072  -0.006075   0.988292   0.009379   0.002658
   80  C 12  S    0.000428  -0.003052   0.106056  -0.002164  -0.000364
   81  C 12  X    0.000013   0.000004   0.000147  -0.000482   0.001149
   82  C 12  Y   -0.000016   0.000074   0.000404  -0.000104   0.000133
   83  C 12  Z    0.000071  -0.000221   0.000863   0.000137   0.000065
   84  C 12  S   -0.002643   0.022184  -0.099353   0.026159  -0.001898
   85  C 12  X    0.001058   0.012273   0.002429  -0.013374  -0.003324
   86  C 12  Y   -0.000324   0.005107  -0.008323   0.008014  -0.002900
   87  C 12  Z   -0.000719   0.006661  -0.010360   0.002582   0.000448
   88  H 13  S    0.000080  -0.001255   0.000911  -0.001854  -0.000129
   89  H 13  S   -0.000082   0.001365   0.013794  -0.000200   0.001026
   90  O 14  S    0.000076   0.000019  -0.000297   0.000010   0.000062
   91  O 14  S   -0.000078  -0.000182  -0.001279  -0.000264   0.000606
   92  O 14  X    0.000024  -0.000146   0.000226   0.000404  -0.000285
   93  O 14  Y    0.000013  -0.000436   0.000424  -0.000542   0.000122
   94  O 14  Z    0.000019  -0.000104  -0.000310  -0.000122  -0.000051
   95  O 14  S    0.000384  -0.001080   0.011506  -0.000421  -0.001986
   96  O 14  X   -0.000104  -0.000449  -0.000736  -0.000891   0.001349
   97  O 14  Y    0.000145   0.000286   0.005229   0.000949  -0.000953
   98  O 14  Z   -0.000057   0.000087   0.000143   0.000362   0.000357
   99  C 15  S   -0.000023   0.987672   0.005098   0.004168   0.001396
  100  C 15  S   -0.000117   0.101715  -0.002646  -0.000592  -0.001077
  101  C 15  X   -0.000017  -0.000359  -0.000655   0.000872   0.000324
  102  C 15  Y   -0.000001  -0.000132   0.000160  -0.000144  -0.000180
  103  C 15  Z   -0.000048   0.000070  -0.000348  -0.000022  -0.000002
  104  C 15  S    0.000620  -0.080235   0.026508   0.000271   0.004828
  105  C 15  X   -0.000314   0.009504  -0.012746  -0.000832  -0.003467
  106  C 15  Y   -0.000145   0.002191  -0.007661   0.000727   0.000785
  107  C 15  Z    0.000233   0.002288  -0.004348   0.001380  -0.001244
  108  O 16  S   -0.000027  -0.000196   0.000078  -0.000048  -0.000014
  109  O 16  S    0.000028  -0.000418   0.000384  -0.000480  -0.000151
  110  O 16  X   -0.000026  -0.000469   0.000405   0.000357   0.000043
  111  O 16  Y   -0.000011   0.000428  -0.000099  -0.000044  -0.000031
  112  O 16  Z   -0.000006   0.000267   0.000181   0.000187  -0.000020
  113  O 16  S   -0.000076   0.007692  -0.002728   0.001487   0.000571
  114  O 16  X    0.000127  -0.002559   0.000139  -0.001742  -0.000187
  115  O 16  Y    0.000039   0.001484  -0.000065   0.000306   0.000180
  116  O 16  Z    0.000008   0.000355  -0.000844  -0.000690   0.000176
  117  H 17  S    0.000535  -0.000107   0.000255   0.000608  -0.000274
  118  H 17  S    0.004573   0.000389   0.000605  -0.001263  -0.000116
  119  H 18  S   -0.000771  -0.000017  -0.000133  -0.000166  -0.000365
  120  H 18  S    0.002772   0.000022   0.000181   0.000264  -0.000049
  121  H 19  S   -0.000038  -0.000054  -0.000289   0.000654  -0.000399
  122  H 19  S    0.000240   0.000169  -0.000284   0.001018   0.002777
  123  H 20  S    0.000101   0.000264  -0.000684  -0.000187  -0.000510
  124  H 20  S   -0.000001  -0.000744   0.000132   0.003062   0.001876
  125  H 21  S   -0.000007  -0.000496  -0.000288   0.000518  -0.000178
  126  H 21  S   -0.000012   0.001643   0.002364   0.001492  -0.000416
  127  H 22  S   -0.000022   0.000150  -0.001330  -0.000174  -0.000529
  128  H 22  S    0.000059   0.014629   0.001996  -0.000238  -0.000682
  129  H 23  S   -0.000042   0.000519  -0.001804  -0.000236  -0.000544
  130  H 23  S   -0.000294   0.014889  -0.000595  -0.001232   0.000606
  131  H 24  S   -0.000031  -0.000505   0.000445   0.000319  -0.000114
  132  H 24  S    0.000003   0.002003   0.001043   0.000531   0.000474

                     11         12         13         14         15
                  -11.0347   -10.9442    -1.2672    -1.2267    -1.2109
                     A          A          A          A          A   
    1  O  1  S    0.000046   0.000166  -0.000268  -0.007554   0.007862
    2  O  1  S    0.000080   0.001119   0.000225   0.007339  -0.007705
    3  O  1  X   -0.000249  -0.000427   0.000152   0.003745  -0.003781
    4  O  1  Y   -0.000038  -0.000213   0.000091   0.002676  -0.002700
    5  O  1  Z   -0.000229   0.000064  -0.000006  -0.000319   0.000274
    6  O  1  S   -0.002023  -0.001732   0.000930   0.020473  -0.020991
    7  O  1  X   -0.000520  -0.003451   0.000120   0.003335  -0.003208
    8  O  1  Y   -0.001344  -0.001768   0.000189   0.002585  -0.002380
    9  O  1  Z    0.002111  -0.001618  -0.000147  -0.001704   0.001336
   10  C  2  S   -0.002018   0.986342  -0.000353  -0.007343   0.006922
   11  C  2  S   -0.003008   0.096607   0.000350   0.009673  -0.008405
   12  C  2  X    0.000359  -0.000044   0.000020  -0.001018   0.002050
   13  C  2  Y    0.000041  -0.000152   0.000074   0.001237  -0.000745
   14  C  2  Z   -0.000007  -0.000671  -0.000260  -0.005458   0.004848
   15  C  2  S    0.027133  -0.051573   0.000214   0.002910  -0.007099
   16  C  2  X    0.005203  -0.010703   0.000251  -0.004398   0.004034
   17  C  2  Y    0.009950  -0.007129  -0.000222  -0.002037   0.000509
   18  C  2  Z   -0.014350   0.001647   0.000701   0.001108   0.001541
   19  C  3  S    0.988361   0.001559  -0.001527  -0.025026   0.019828
   20  C  3  S    0.105722  -0.000804   0.001366   0.025702  -0.020258
   21  C  3  X    0.000765   0.000014   0.001062   0.002710   0.002272
   22  C  3  Y   -0.000747   0.000198  -0.000113  -0.001015   0.001019
   23  C  3  Z   -0.000413  -0.000530  -0.000747  -0.015908   0.013469
   24  C  3  S   -0.097998   0.010263   0.005054   0.039224  -0.031752
   25  C  3  X   -0.004471  -0.003779   0.000339   0.001884  -0.005344
   26  C  3  Y    0.012384  -0.003860  -0.000712  -0.001392  -0.003678
   27  C  3  Z   -0.002003   0.010161  -0.000701   0.002290  -0.001350
   28  H  4  S    0.000768  -0.001452   0.000765   0.009254  -0.006022
   29  H  4  S    0.013771   0.001321  -0.000178   0.001713   0.001872
   30  O  5  S   -0.000271  -0.000034  -0.001682  -0.043151   0.040507
   31  O  5  S   -0.001012  -0.000495   0.001691   0.039052  -0.036568
   32  O  5  X    0.000233  -0.000269   0.000486   0.006780  -0.004907
   33  O  5  Y   -0.000041   0.000150  -0.000384  -0.008678   0.008108
   34  O  5  Z    0.000431  -0.000368   0.000372   0.008879  -0.008329
   35  O  5  S    0.010522   0.001092   0.004519   0.134567  -0.127667
   36  O  5  X    0.003536   0.001528  -0.000034   0.008829  -0.007070
   37  O  5  Y   -0.001147  -0.000185  -0.000160  -0.010252   0.010502
   38  O  5  Z    0.003204   0.000901   0.000019   0.009492  -0.010132
   39  C  6  S    0.003741   0.001692  -0.005075  -0.052760   0.028996
   40  C  6  S   -0.002558  -0.001806   0.006907   0.054604  -0.030761
   41  C  6  X   -0.000345   0.001181   0.002382   0.010201   0.001491
   42  C  6  Y    0.000136   0.000387   0.001889   0.027018  -0.018431
   43  C  6  Z    0.000568  -0.001026  -0.000234  -0.020156   0.018112
   44  C  6  S    0.024531   0.005190  -0.004590   0.088703  -0.050551
   45  C  6  X   -0.016132  -0.004785  -0.001940  -0.001179   0.006637
   46  C  6  Y    0.002200  -0.000822   0.000125   0.013685   0.004091
   47  C  6  Z    0.003817   0.005222  -0.005717  -0.000457  -0.003026
   48  H  7  S   -0.001473  -0.001435   0.002260   0.015408  -0.006898
   49  H  7  S   -0.001443   0.001418   0.002325   0.000185   0.012432
   50  O  8  S    0.000047  -0.000059  -0.007458  -0.109618   0.075728
   51  O  8  S    0.000066  -0.000553   0.006880   0.100443  -0.068807
   52  O  8  X    0.000025  -0.000073  -0.001105  -0.023597   0.018615
   53  O  8  Y   -0.000108   0.000018  -0.000631  -0.006633   0.004133
   54  O  8  Z   -0.000391  -0.000222   0.002401   0.027295  -0.016273
   55  O  8  S   -0.001866   0.002147   0.022347   0.338236  -0.238747
   56  O  8  X    0.001146   0.000440  -0.001346  -0.027985   0.021705
   57  O  8  Y    0.000672  -0.000398   0.000148  -0.005715   0.005550
   58  O  8  Z    0.000043   0.001312   0.002446   0.032508  -0.023014
   59  C  9  S    0.002714  -0.000254  -0.013651  -0.065624   0.013314
   60  C  9  S   -0.000825   0.000626   0.015558   0.067820  -0.013772
   61  C  9  X    0.001265  -0.000410   0.008934  -0.002444   0.017706
   62  C  9  Y    0.000048  -0.000074   0.000388   0.035818  -0.029121
   63  C  9  Z   -0.000096   0.000202  -0.002974  -0.021081   0.005801
   64  C  9  S    0.000457  -0.001895   0.024430   0.115185  -0.032230
   65  C  9  X   -0.005456   0.003346  -0.011472   0.011919  -0.007048
   66  C  9  Y    0.001943   0.000960  -0.012497  -0.015843  -0.012962
   67  C  9  Z    0.000671  -0.002145  -0.004511  -0.001813   0.017005
   68  H 10  S   -0.000323   0.000614   0.004861   0.018849  -0.004081
   69  H 10  S   -0.000603   0.000918  -0.000442  -0.007412  -0.002733
   70  O 11  S    0.000065   0.000002  -0.016228  -0.138630   0.062298
   71  O 11  S    0.000628   0.000025   0.014373   0.127272  -0.058079
   72  O 11  X   -0.000346   0.000084  -0.000028  -0.009766   0.006427
   73  O 11  Y   -0.000099   0.000027  -0.005754  -0.039801   0.015446
   74  O 11  Z    0.000132  -0.000038  -0.003426  -0.030670   0.014690
   75  O 11  S   -0.001763  -0.000243   0.053444   0.434672  -0.190365
   76  O 11  X    0.001657  -0.000526  -0.000453  -0.014232   0.006074
   77  O 11  Y    0.000809  -0.000074  -0.008115  -0.052218   0.019904
   78  O 11  Z   -0.000596   0.000260  -0.002478  -0.036490   0.017229
   79  C 12  S    0.001213   0.000014  -0.042808  -0.041416  -0.054222
   80  C 12  S   -0.001067   0.000026   0.042915   0.045754   0.056756
   81  C 12  X    0.000530   0.000289   0.015939  -0.016750   0.001161
   82  C 12  Y    0.000116   0.000064  -0.018599  -0.018076  -0.064675
   83  C 12  Z    0.000130   0.000074   0.013418   0.010680   0.015875
   84  C 12  S    0.004759  -0.001723   0.080146   0.057980   0.106235
   85  C 12  X   -0.005210  -0.001085   0.016010   0.004057  -0.004742
   86  C 12  Y   -0.000389  -0.001620   0.005412   0.014357   0.015145
   87  C 12  Z    0.000167  -0.000514  -0.001261  -0.008547  -0.002666
   88  H 13  S   -0.000569  -0.000036   0.011645   0.013007   0.014606
   89  H 13  S    0.000462   0.000214  -0.005053  -0.003443  -0.011350
   90  O 14  S    0.000030   0.000015  -0.077800  -0.086703  -0.184241
   91  O 14  S    0.000211   0.000139   0.072449   0.079523   0.169443
   92  O 14  X    0.000020  -0.000062   0.023457   0.018454   0.046272
   93  O 14  Y    0.000033   0.000017   0.019741   0.019953   0.034573
   94  O 14  Z   -0.000015  -0.000055  -0.005424  -0.006153  -0.012603
   95  O 14  S   -0.001130  -0.000547   0.236929   0.276839   0.585878
   96  O 14  X    0.000193   0.000279   0.027970   0.028247   0.059110
   97  O 14  Y   -0.000595  -0.000222   0.025415   0.026513   0.052717
   98  O 14  Z    0.000211   0.000268  -0.007278  -0.009925  -0.018885
   99  C 15  S    0.000349  -0.000028  -0.069349   0.007379   0.008232
  100  C 15  S   -0.000352  -0.000103   0.075038  -0.008007  -0.009283
  101  C 15  X    0.000054  -0.000125   0.037809  -0.026198  -0.030848
  102  C 15  Y   -0.000000  -0.000002  -0.043906   0.006454   0.001306
  103  C 15  Z    0.000031   0.000001  -0.019210   0.000566   0.000605
  104  C 15  S    0.002071   0.001432   0.111121  -0.015763  -0.017095
  105  C 15  X   -0.000748  -0.000205  -0.000008  -0.001255   0.003287
  106  C 15  Y   -0.000366  -0.000372   0.004093  -0.008464  -0.014223
  107  C 15  Z   -0.000888  -0.000661   0.008782   0.006489   0.004915
  108  O 16  S    0.000001   0.000010  -0.203274   0.062586   0.072594
  109  O 16  S   -0.000020   0.000079   0.188610  -0.058280  -0.067674
  110  O 16  X    0.000078  -0.000006  -0.001456  -0.006328  -0.010585
  111  O 16  Y    0.000018   0.000023   0.040428  -0.013118  -0.016564
  112  O 16  Z    0.000036  -0.000003   0.042771  -0.013393  -0.015545
  113  O 16  S   -0.000086  -0.000356   0.636472  -0.199553  -0.234089
  114  O 16  X   -0.000236   0.000131  -0.011500  -0.002548  -0.007860
  115  O 16  Y   -0.000124  -0.000160   0.053866  -0.019193  -0.026010
  116  O 16  Z   -0.000139  -0.000006   0.054434  -0.018378  -0.022721
  117  H 17  S   -0.000975  -0.001387   0.000133   0.002360  -0.002066
  118  H 17  S    0.002982   0.013531  -0.000631   0.000207  -0.000486
  119  H 18  S   -0.000763  -0.000448   0.000688   0.016346  -0.015647
  120  H 18  S    0.002925   0.002150  -0.000242   0.001127  -0.001776
  121  H 19  S   -0.000088   0.000007   0.002775   0.045241  -0.032983
  122  H 19  S    0.001426   0.000938  -0.000501   0.004447  -0.005196
  123  H 20  S    0.000298  -0.000027   0.007188   0.064332  -0.030432
  124  H 20  S   -0.000948   0.000241   0.000223   0.007014  -0.005649
  125  H 21  S    0.000088  -0.000007   0.039983   0.034236   0.079896
  126  H 21  S    0.000040  -0.000198   0.009115   0.001624   0.010577
  127  H 22  S   -0.000085  -0.000050   0.020308  -0.000767  -0.002323
  128  H 22  S   -0.000202  -0.000071  -0.007187   0.006046   0.001181
  129  H 23  S   -0.000133   0.000014   0.021188  -0.002219  -0.002496
  130  H 23  S    0.000380   0.000083  -0.005871  -0.001881  -0.001046
  131  H 24  S    0.000100   0.000024   0.091555  -0.030932  -0.036927
  132  H 24  S    0.000118  -0.000020   0.018687  -0.008188  -0.010320

                     16         17         18         19         20
                   -1.1866    -1.1564    -1.1047    -0.9214    -0.8634
                     A          A          A          A          A   
    1  O  1  S    0.032915  -0.066619  -0.204192   0.005835   0.023363
    2  O  1  S   -0.030971   0.062668   0.190506  -0.005825  -0.021738
    3  O  1  X   -0.015106   0.029576   0.085422  -0.000337   0.002058
    4  O  1  Y   -0.010462   0.019110   0.046890  -0.000362   0.000844
    5  O  1  Z    0.000503   0.000869   0.016113  -0.000628  -0.002203
    6  O  1  S   -0.096904   0.201136   0.650679  -0.017676  -0.080721
    7  O  1  X   -0.014615   0.028075   0.092368  -0.000512  -0.000592
    8  O  1  Y   -0.010513   0.020514   0.052709   0.000111  -0.000108
    9  O  1  Z    0.003497  -0.001138   0.013406  -0.000454  -0.002953
   10  C  2  S    0.024852  -0.043780  -0.103501  -0.005230  -0.027990
   11  C  2  S   -0.027491   0.044015   0.108242   0.006742   0.035747
   12  C  2  X    0.013218  -0.032639  -0.107541   0.009671   0.040349
   13  C  2  Y    0.001014  -0.008346  -0.058238   0.005694   0.027073
   14  C  2  Z    0.015337  -0.020000  -0.023893  -0.004148  -0.018567
   15  C  2  S   -0.028817   0.058264   0.121852   0.005440   0.033935
   16  C  2  X    0.002207   0.007466   0.051390   0.005858   0.009031
   17  C  2  Y   -0.002560   0.005347   0.016926  -0.001743  -0.004616
   18  C  2  Z    0.000241  -0.006335   0.027879   0.002656   0.011272
   19  C  3  S    0.048309  -0.045597   0.008230  -0.019179  -0.087144
   20  C  3  S   -0.048847   0.047565  -0.013165   0.022651   0.086387
   21  C  3  X    0.023851  -0.046752   0.011110   0.018146   0.056422
   22  C  3  Y    0.003964  -0.002359  -0.017053  -0.006346  -0.019387
   23  C  3  Z    0.033700  -0.022931   0.035768   0.002577   0.012890
   24  C  3  S   -0.089840   0.073324  -0.009935   0.033635   0.216293
   25  C  3  X   -0.007401   0.006910  -0.031763  -0.010536   0.003756
   26  C  3  Y   -0.001742  -0.003467  -0.021916   0.001827  -0.022925
   27  C  3  Z    0.004560   0.005797  -0.022879   0.009384   0.022101
   28  H  4  S   -0.010850   0.013306   0.000078   0.011800   0.050602
   29  H  4  S    0.009888  -0.001840   0.007125  -0.009085   0.004183
   30  O  5  S    0.128263  -0.149616   0.091069   0.007853   0.036170
   31  O  5  S   -0.117188   0.137527  -0.080485  -0.006514  -0.031772
   32  O  5  X   -0.008076  -0.003244  -0.000623   0.004915   0.032231
   33  O  5  Y    0.026530  -0.032287   0.013392   0.000749   0.006175
   34  O  5  Z   -0.027566   0.036541  -0.012270   0.004135   0.020308
   35  O  5  S   -0.402272   0.475666  -0.313189  -0.030246  -0.137569
   36  O  5  X   -0.013975   0.001053  -0.010177   0.002351   0.021233
   37  O  5  Y    0.033186  -0.039666   0.020559   0.001906   0.010733
   38  O  5  Z   -0.033248   0.049955  -0.024021   0.000519   0.008049
   39  C  6  S    0.031107   0.033886  -0.005249  -0.049767  -0.123184
   40  C  6  S   -0.033547  -0.035169   0.008113   0.052526   0.117505
   41  C  6  X    0.020387  -0.011468   0.003209   0.029021   0.001330
   42  C  6  Y   -0.010345  -0.016964  -0.000638  -0.001069   0.004913
   43  C  6  Z    0.032316   0.047786  -0.005362   0.031756   0.068012
   44  C  6  S   -0.051219  -0.067619   0.006390   0.110118   0.337892
   45  C  6  X   -0.003972  -0.003957   0.016330  -0.016170   0.010103
   46  C  6  Y    0.012498   0.011170   0.014062  -0.004201   0.031183
   47  C  6  Z   -0.003181  -0.013678   0.001718   0.005285   0.030857
   48  H  7  S   -0.008680  -0.008695   0.004198   0.028896   0.066493
   49  H  7  S    0.003799   0.007042   0.008522  -0.009610   0.010804
   50  O  8  S    0.100234   0.145467  -0.023077   0.026831   0.055401
   51  O  8  S   -0.092095  -0.132228   0.021514  -0.023238  -0.046918
   52  O  8  X    0.031882   0.031644  -0.002194   0.016070   0.024909
   53  O  8  Y    0.009580   0.011057  -0.001819  -0.010185  -0.020777
   54  O  8  Z   -0.014971  -0.021718   0.003646   0.018562   0.054078
   55  O  8  S   -0.317312  -0.472635   0.074725  -0.099975  -0.220630
   56  O  8  X    0.039830   0.041745  -0.005565   0.015958   0.020057
   57  O  8  Y    0.014318   0.017091  -0.003449  -0.006662  -0.011757
   58  O  8  Z   -0.024068  -0.034316   0.001057   0.006332   0.022407
   59  C  9  S   -0.041467  -0.012048  -0.000556  -0.095668  -0.079145
   60  C  9  S    0.042861   0.013641  -0.000345   0.098875   0.075505
   61  C  9  X    0.008797   0.007092   0.000113   0.040424  -0.076066
   62  C  9  Y    0.051657   0.024751  -0.003302  -0.058216  -0.042251
   63  C  9  Z   -0.003635   0.005687  -0.001962  -0.014084  -0.015382
   64  C  9  S    0.079071   0.030299  -0.006776   0.228808   0.224367
   65  C  9  X   -0.006234   0.005089  -0.008651  -0.012462   0.016569
   66  C  9  Y   -0.008767  -0.015911   0.005613  -0.017389  -0.032160
   67  C  9  Z    0.009859   0.014091   0.008151  -0.017742   0.000655
   68  H 10  S    0.010524   0.003591  -0.000003   0.054208   0.046259
   69  H 10  S   -0.006432  -0.006775  -0.004444   0.000672  -0.002527
   70  O 11  S   -0.145074  -0.062251   0.005609   0.059924   0.034885
   71  O 11  S    0.133026   0.055877  -0.004641  -0.052657  -0.031664
   72  O 11  X   -0.007372  -0.001911  -0.000059   0.016379  -0.016491
   73  O 11  Y   -0.034341  -0.012476   0.000533  -0.035082  -0.031488
   74  O 11  Z   -0.028076  -0.009650   0.000692   0.025409   0.017933
   75  O 11  S    0.463634   0.207870  -0.020692  -0.223457  -0.130044
   76  O 11  X   -0.006971  -0.002630   0.001409   0.015017  -0.017283
   77  O 11  Y   -0.049775  -0.021648   0.002255  -0.010212  -0.014927
   78  O 11  Z   -0.036690  -0.013316  -0.000058   0.025739   0.015452
   79  C 12  S   -0.001657  -0.002057  -0.000368  -0.127854   0.035901
   80  C 12  S    0.000260   0.002766  -0.000946   0.124528  -0.030375
   81  C 12  X   -0.008125  -0.001475  -0.000839  -0.002039  -0.083259
   82  C 12  Y    0.018935   0.003481   0.000110   0.076243  -0.024675
   83  C 12  Z    0.001986   0.002922  -0.000587   0.025482  -0.012241
   84  C 12  S    0.008664   0.001118   0.011292   0.342451  -0.119485
   85  C 12  X    0.002450   0.007763  -0.003396   0.005809   0.008555
   86  C 12  Y    0.012092   0.007868   0.003069   0.033325  -0.019976
   87  C 12  Z   -0.006826  -0.009707   0.004023   0.025825  -0.009497
   88  H 13  S   -0.000263  -0.000264   0.000095   0.065703  -0.016976
   89  H 13  S   -0.006693  -0.010340   0.001459  -0.003519  -0.006717
   90  O 14  S    0.029173   0.001112   0.000803   0.068052  -0.014299
   91  O 14  S   -0.027172  -0.001666  -0.000598  -0.059584   0.013364
   92  O 14  X   -0.008470  -0.000168  -0.000442  -0.034307  -0.014848
   93  O 14  Y   -0.003452   0.000015   0.000031   0.056575  -0.012051
   94  O 14  Z    0.002311   0.000462  -0.000010  -0.000167  -0.001250
   95  O 14  S   -0.090857  -0.000015  -0.003305  -0.258313   0.054233
   96  O 14  X   -0.008106   0.000104  -0.000212  -0.031706  -0.015349
   97  O 14  Y   -0.006654   0.001619  -0.000455   0.021418  -0.004623
   98  O 14  Z    0.002238  -0.000080  -0.000137  -0.000118  -0.001407
   99  C 15  S   -0.003060  -0.001445   0.000196  -0.110381   0.099592
  100  C 15  S    0.002970   0.001261   0.000377   0.115916  -0.095020
  101  C 15  X   -0.000520  -0.001496   0.000169  -0.070602   0.035183
  102  C 15  Y    0.001769   0.000542  -0.000001   0.002295  -0.006363
  103  C 15  Z   -0.000777  -0.000398   0.000081  -0.015647   0.006720
  104  C 15  S    0.002680   0.001241  -0.003641   0.271502  -0.298976
  105  C 15  X   -0.004455  -0.002913   0.002087  -0.006813   0.025804
  106  C 15  Y    0.002181  -0.000661   0.000723   0.017493  -0.005396
  107  C 15  Z    0.004502   0.004054  -0.000154   0.000808  -0.001071
  108  O 16  S   -0.002697   0.001365  -0.000161   0.041427  -0.035034
  109  O 16  S    0.002178  -0.001416   0.000073  -0.036122   0.031407
  110  O 16  X    0.000718  -0.000423   0.000135  -0.059685   0.067001
  111  O 16  Y    0.001157  -0.000179   0.000061   0.021896  -0.023400
  112  O 16  Z    0.000614  -0.000276   0.000054  -0.007326   0.004441
  113  O 16  S    0.010530  -0.003674   0.000745  -0.162474   0.139994
  114  O 16  X    0.000390  -0.000121  -0.000404  -0.038446   0.053468
  115  O 16  Y    0.002992   0.000569  -0.000041   0.010167  -0.013972
  116  O 16  Z    0.001053  -0.000373  -0.000054  -0.008476   0.007384
  117  H 17  S   -0.005710   0.008881   0.019965   0.002977   0.017112
  118  H 17  S    0.003271  -0.004438  -0.024586   0.000197   0.000693
  119  H 18  S   -0.053103   0.067819  -0.029180  -0.004557  -0.026936
  120  H 18  S   -0.006763   0.010913   0.000416  -0.004316  -0.020857
  121  H 19  S   -0.051146  -0.053779   0.004245  -0.021180  -0.045327
  122  H 19  S   -0.011177  -0.003446  -0.006444  -0.014241  -0.038131
  123  H 20  S    0.057508   0.019552  -0.001468  -0.040247  -0.023919
  124  H 20  S    0.005672  -0.000280   0.000323  -0.029447  -0.029466
  125  H 21  S   -0.014298  -0.000871  -0.000503  -0.054568   0.001049
  126  H 21  S   -0.002219   0.000315   0.000135  -0.042475   0.010443
  127  H 22  S    0.001880   0.000840   0.000093   0.064081  -0.060863
  128  H 22  S    0.004663   0.003344  -0.000417  -0.006969  -0.007852
  129  H 23  S    0.000798   0.000271   0.000109   0.062527  -0.057060
  130  H 23  S   -0.001332  -0.001494   0.000746   0.003376  -0.002980
  131  H 24  S    0.001326  -0.000938   0.000212  -0.045560   0.046895
  132  H 24  S    0.000795  -0.000111  -0.000054  -0.030789   0.029493

                     21         22         23         24         25
                   -0.7832    -0.6926    -0.6576    -0.6024    -0.5842
                     A          A          A          A          A   
    1  O  1  S    0.035874   0.037987  -0.026009   0.019615   0.066191
    2  O  1  S   -0.032727  -0.034542   0.023781  -0.017940  -0.060487
    3  O  1  X    0.010696   0.021178  -0.017186   0.018077   0.064118
    4  O  1  Y    0.007195   0.016698  -0.014052   0.010621   0.036693
    5  O  1  Z   -0.002489   0.000529  -0.004371  -0.001107   0.005697
    6  O  1  S   -0.131504  -0.145340   0.100307  -0.077075  -0.262586
    7  O  1  X    0.004697   0.013930  -0.012486   0.014563   0.052417
    8  O  1  Y    0.003154   0.010798  -0.009909   0.008748   0.031254
    9  O  1  Z   -0.003716   0.000618  -0.005018  -0.000964   0.007292
   10  C  2  S   -0.054052  -0.065639   0.048663  -0.032374  -0.115192
   11  C  2  S    0.062775   0.069694  -0.049538   0.033583   0.115949
   12  C  2  X    0.056698   0.046470  -0.028693   0.020966   0.072366
   13  C  2  Y    0.047943   0.051861  -0.034815   0.010437   0.026756
   14  C  2  Z   -0.027343  -0.015505  -0.002398  -0.002788   0.025469
   15  C  2  S    0.103559   0.167696  -0.136665   0.096887   0.361744
   16  C  2  X    0.017981   0.029485  -0.025774   0.022664   0.086102
   17  C  2  Y    0.007840   0.028453  -0.027239   0.011705   0.044848
   18  C  2  Z    0.011866   0.000941   0.000326  -0.000798   0.000115
   19  C  3  S   -0.120188  -0.076483   0.031997   0.005668   0.053028
   20  C  3  S    0.111001   0.066524  -0.025607  -0.003865  -0.043692
   21  C  3  X    0.029948  -0.044478   0.044984  -0.029193  -0.070324
   22  C  3  Y   -0.017683  -0.003644  -0.011329  -0.041942  -0.121305
   23  C  3  Z    0.031963   0.059662  -0.060583   0.024071   0.122287
   24  C  3  S    0.355247   0.264774  -0.129522  -0.029301  -0.215693
   25  C  3  X    0.023998   0.011298  -0.008696  -0.024252  -0.054944
   26  C  3  Y   -0.032866  -0.010942  -0.008915  -0.027301  -0.064827
   27  C  3  Z    0.013273   0.014106  -0.019258   0.006061   0.054517
   28  H  4  S    0.072714   0.053192  -0.035148  -0.023654  -0.075550
   29  H  4  S    0.020426   0.015228  -0.008890  -0.012934  -0.042552
   30  O  5  S    0.046728   0.026250  -0.009520   0.001641  -0.007867
   31  O  5  S   -0.041132  -0.023275   0.008727  -0.001543   0.006348
   32  O  5  X    0.061373   0.043997  -0.015044  -0.026576  -0.162510
   33  O  5  Y    0.012751   0.014119  -0.014192  -0.021508  -0.081286
   34  O  5  Z    0.038166   0.041734  -0.016632   0.008587  -0.014943
   35  O  5  S   -0.185717  -0.108779   0.039202  -0.005969   0.041889
   36  O  5  X    0.044907   0.032711  -0.009702  -0.027657  -0.165340
   37  O  5  Y    0.016591   0.013974  -0.012805  -0.021206  -0.081548
   38  O  5  Z    0.022458   0.033776  -0.014856   0.007724  -0.011594
   39  C  6  S   -0.031390   0.077039  -0.098317  -0.011253   0.000518
   40  C  6  S    0.029576  -0.066518   0.082712   0.009360   0.000572
   41  C  6  X   -0.104415  -0.058855   0.010590   0.013028   0.097463
   42  C  6  Y    0.007827   0.011022  -0.038491  -0.054904  -0.063957
   43  C  6  Z    0.015609  -0.010329  -0.036323  -0.034519  -0.012555
   44  C  6  S    0.097390  -0.275481   0.383154   0.056685   0.007548
   45  C  6  X   -0.000419  -0.000567   0.009511   0.024057   0.060812
   46  C  6  Y    0.027443  -0.012921  -0.001325  -0.035186  -0.054358
   47  C  6  Z    0.010539  -0.020391   0.005852  -0.012309  -0.008855
   48  H  7  S    0.014369  -0.052581   0.084845   0.040398   0.035876
   49  H  7  S    0.011246  -0.020512   0.030186   0.029370   0.018353
   50  O  8  S    0.014792  -0.020294   0.034346  -0.000955  -0.026168
   51  O  8  S   -0.013379   0.016018  -0.029357   0.000937   0.024852
   52  O  8  X   -0.018095  -0.024087   0.060233   0.040221   0.092051
   53  O  8  Y    0.000552   0.030464  -0.049819  -0.023332  -0.028162
   54  O  8  Z    0.014965  -0.055234   0.101812   0.013513  -0.017012
   55  O  8  S   -0.059388   0.096052  -0.153194   0.003114   0.104702
   56  O  8  X   -0.019159  -0.022699   0.059175   0.039361   0.095633
   57  O  8  Y    0.001250   0.025835  -0.042173  -0.021919  -0.028009
   58  O  8  Z    0.005354  -0.043885   0.088090   0.013307  -0.016947
   59  C  9  S    0.091737   0.041635   0.081997   0.040719  -0.016411
[...]
   15 C             0.000103                     0.000116
   16 O            -0.000002                     0.000018
   17 H            -0.087313                    -0.047238
   18 H            -0.006244                    -0.004259
   19 H            -0.000566                    -0.000193
   20 H            -0.000089                    -0.000051
   21 H            -0.000019                    -0.000014
   22 H            -0.000013                    -0.000006
   23 H            -0.000016                    -0.000009
   24 H             0.000041                     0.000031


          ********* ALL ELECTRONS ********

               ----- POPULATIONS IN EACH AO -----
                             MULLIKEN      LOWDIN
              1  O  1  S      1.98645     1.98094
              2  O  1  S      0.41178     0.56896
              3  O  1  X      0.64833     0.64576
              4  O  1  Y      0.70517     0.71237
              5  O  1  Z      0.74703     0.75329
              6  O  1  S      1.54063     1.05931
              7  O  1  X      0.82965     0.85944
              8  O  1  Y      0.91082     0.92277
              9  O  1  Z      0.96770     0.99224
             10  C  2  S      1.98620     1.97533
             11  C  2  S      0.37897     0.40687
             12  C  2  X      0.55486     0.54590
             13  C  2  Y      0.54454     0.54453
             14  C  2  Z      0.51909     0.49810
             15  C  2  S      0.69539     0.54840
             16  C  2  X      0.30269     0.50629
             17  C  2  Y      0.50550     0.61989
             18  C  2  Z      0.45425     0.57764
             19  C  3  S      1.99003     1.97569
             20  C  3  S      0.35091     0.42537
             21  C  3  X      0.47523     0.46761
             22  C  3  Y      0.57359     0.54743
             23  C  3  Z      0.49115     0.47886
             24  C  3  S      1.02981     0.56171
             25  C  3  X      0.26132     0.45663
             26  C  3  Y      0.53435     0.57337
             27  C  3  Z      0.30042     0.47911
             28  H  4  S      0.48151     0.49899
             29  H  4  S      0.33419     0.44902
             30  O  5  S      1.98599     1.98001
             31  O  5  S      0.40703     0.56534
             32  O  5  X      0.63581     0.62894
             33  O  5  Y      0.75785     0.76123
             34  O  5  Z      0.69630     0.69900
             35  O  5  S      1.51389     1.03945
             36  O  5  X      0.83761     0.84578
             37  O  5  Y      0.98314     0.97570
             38  O  5  Z      0.94119     0.94986
             39  C  6  S      1.99046     1.97609
             40  C  6  S      0.35321     0.43618
             41  C  6  X      0.56745     0.56326
             42  C  6  Y      0.54793     0.52372
             43  C  6  Z      0.41760     0.41263
             44  C  6  S      1.02710     0.56673
             45  C  6  X      0.31560     0.50425
             46  C  6  Y      0.51165     0.55110
             47  C  6  Z      0.23626     0.42439
             48  H  7  S      0.47536     0.48562
             49  H  7  S      0.29566     0.43084
             50  O  8  S      1.98599     1.98011
             51  O  8  S      0.40640     0.56722
             52  O  8  X      0.66663     0.66019
             53  O  8  Y      0.78033     0.78838
             54  O  8  Z      0.64077     0.64011
             55  O  8  S      1.51951     1.04775
             56  O  8  X      0.89252     0.88086
             57  O  8  Y      1.00912     1.01641
             58  O  8  Z      0.85176     0.87938
             59  C  9  S      1.99002     1.97569
             60  C  9  S      0.35420     0.42513
             61  C  9  X      0.55682     0.54887
             62  C  9  Y      0.42447     0.41433
             63  C  9  Z      0.57256     0.54772
             64  C  9  S      1.00639     0.55166
             65  C  9  X      0.30098     0.50157
             66  C  9  Y      0.19621     0.40545
             67  C  9  Z      0.53389     0.56453
             68  H 10  S      0.47536     0.48670
             69  H 10  S      0.29284     0.42809
             70  O 11  S      1.98612     1.98045
             71  O 11  S      0.41158     0.57247
             72  O 11  X      0.83548     0.84703
             73  O 11  Y      0.59129     0.58614
             74  O 11  Z      0.64941     0.63790
             75  O 11  S      1.52455     1.05280
             76  O 11  X      1.05834     1.05191
             77  O 11  Y      0.80934     0.85217
             78  O 11  Z      0.84597     0.85448
             79  C 12  S      1.99011     1.97568
             80  C 12  S      0.35514     0.42552
             81  C 12  X      0.56774     0.55788
             82  C 12  Y      0.42864     0.42016
             83  C 12  Z      0.56238     0.53393
             84  C 12  S      1.01330     0.55217
             85  C 12  X      0.31305     0.50047
             86  C 12  Y      0.21466     0.41070
             87  C 12  Z      0.50982     0.56449
             88  H 13  S      0.47537     0.48918
             89  H 13  S      0.30106     0.43308
             90  O 14  S      1.98614     1.98048
             91  O 14  S      0.41303     0.57429
             92  O 14  X      0.64776     0.63620
             93  O 14  Y      0.58349     0.57562
             94  O 14  Z      0.84448     0.85612
             95  O 14  S      1.52569     1.05201
             96  O 14  X      0.85087     0.85464
             97  O 14  Y      0.78085     0.82486
             98  O 14  Z      1.05517     1.05832
             99  C 15  S      1.98856     1.97590
            100  C 15  S      0.36405     0.42702
            101  C 15  X      0.46700     0.46390
            102  C 15  Y      0.52390     0.49506
            103  C 15  Z      0.55533     0.52117
            104  C 15  S      1.00948     0.57622
            105  C 15  X      0.29440     0.44840
            106  C 15  Y      0.41887     0.52224
            107  C 15  Z      0.49465     0.56991
            108  O 16  S      1.98583     1.98028
            109  O 16  S      0.41300     0.57118
            110  O 16  X      0.56666     0.54955
            111  O 16  Y      0.73751     0.74185
            112  O 16  Z      0.77518     0.77992
            113  O 16  S      1.50697     1.05380
            114  O 16  X      0.73164     0.75593
            115  O 16  Y      0.97527     0.98244
            116  O 16  Z      0.99528     0.99694
            117  H 17  S      0.47697     0.48574
            118  H 17  S      0.48121     0.53367
            119  H 18  S      0.37566     0.39763
            120  H 18  S      0.22990     0.34670
            121  H 19  S      0.37528     0.39659
            122  H 19  S      0.20868     0.34060
            123  H 20  S      0.38603     0.40528
            124  H 20  S      0.21965     0.34290
            125  H 21  S      0.40196     0.41996
            126  H 21  S      0.21423     0.33462
            127  H 22  S      0.47887     0.48187
            128  H 22  S      0.31085     0.43796
            129  H 23  S      0.47799     0.48486
            130  H 23  S      0.32914     0.44700
            131  H 24  S      0.41638     0.43377
            132  H 24  S      0.21739     0.32585

          ----- MULLIKEN ATOMIC OVERLAP POPULATIONS -----
          (OFF-DIAGONAL ELEMENTS NEED TO BE MULTIPLIED BY 2)

             1           2           3           4           5

    1    8.4754382
    2    0.3655684   5.2490490
    3   -0.0849696   0.1308135   5.6082711
    4    0.0013812  -0.0365659   0.3655178   0.5821084
    5   -0.0105957  -0.0316775   0.2233176  -0.0290918   8.3747473
    6    0.0009344  -0.1035309   0.1518230  -0.0938859  -0.0470906
    7    0.0001981   0.0085049  -0.0373099   0.0032445   0.0007113
    8   -0.0000023   0.0019022  -0.0374234   0.0024365  -0.0131516
    9    0.0000147   0.0029454  -0.0671096  -0.0004064   0.0015514
   10   -0.0000144   0.0025944  -0.0027429   0.0003078   0.0000186
   11   -0.0000000   0.0000974  -0.0061263   0.0122080   0.0000003
   12    0.0000001  -0.0001283   0.0037885   0.0003487  -0.0000150
   13    0.0000000  -0.0000061   0.0000983  -0.0000137   0.0000004
   14    0.0000000  -0.0000019   0.0000041  -0.0000030  -0.0000000
   15   -0.0000000   0.0000010  -0.0000612  -0.0000013   0.0000000
   16    0.0000000  -0.0000000   0.0000000  -0.0000000  -0.0000000
   17   -0.0570631   0.3465879  -0.1355231   0.0028772   0.0013352
   18    0.0566769   0.0040158  -0.0932935   0.0039741   0.2390176
   19   -0.0000110   0.0013104  -0.0142276   0.0010951   0.0497555
   20    0.0000000   0.0000014   0.0019488   0.0001762  -0.0000234
   21   -0.0000000  -0.0000002   0.0000020   0.0000002  -0.0000000
   22    0.0000000  -0.0000000   0.0000015  -0.0000019   0.0000000
   23    0.0000000  -0.0000002  -0.0000015  -0.0000000  -0.0000000
   24   -0.0000000   0.0000000  -0.0000000  -0.0000000   0.0000000

             6           7           8           9          10

    6    5.5968521
    7    0.3619947   0.4994278
    8    0.1753024  -0.0263117   8.4087307
    9    0.1637744  -0.0519360  -0.0518334   5.4351463
   10   -0.0435435   0.0025064   0.0015193   0.3760454   0.5033702
   11   -0.0395669   0.0013289  -0.0098677   0.2230763  -0.0238958
   12   -0.0785192  -0.0027413  -0.0019609   0.1341121  -0.0631199
   13   -0.0075599   0.0004369   0.0079788  -0.0484615   0.0036545
   14   -0.0001927   0.0076935   0.0000130  -0.0388898   0.0048016
   15    0.0052194   0.0001297   0.0000108  -0.0813960  -0.0038902
   16   -0.0000131   0.0000001   0.0000000   0.0015969  -0.0000200
   17    0.0041382   0.0010279  -0.0000239  -0.0007849   0.0019878
   18    0.0057914   0.0003500   0.0002032  -0.0000955   0.0000030
   19   -0.0683856   0.0007954   0.2514428   0.0078178  -0.0000968
   20   -0.0159250   0.0011169   0.0440657  -0.0770548   0.0050556
   21   -0.0002055  -0.0001357  -0.0000020   0.0060858  -0.0001674
   22   -0.0000547  -0.0000120   0.0000007   0.0008064   0.0004593
   23   -0.0000910   0.0000034  -0.0000005   0.0006870   0.0033653
   24    0.0000016  -0.0000000  -0.0000000  -0.0001629   0.0000008

            11          12          13          14          15

   11    8.3416114
   12   -0.0510899   5.4364128
   13    0.0015437   0.3660328   0.5332433
   14    0.0002125   0.2053132  -0.0295315   8.3243592
   15    0.0025509   0.2012588  -0.0587067  -0.0430008   5.2496404
   16    0.0000020  -0.0478570   0.0011075  -0.0051066   0.2080980
   17    0.0000003   0.0000334  -0.0000000  -0.0000064  -0.0000001
   18   -0.0000010   0.0000019  -0.0000000  -0.0000000  -0.0000000
   19    0.0001367  -0.0002763  -0.0001494  -0.0000010   0.0000027
   20    0.2526242   0.0012766   0.0024755  -0.0000153  -0.0004864
   21   -0.0000293  -0.0601638   0.0001416   0.2585242  -0.0119069
   22    0.0073265  -0.0434531   0.0004448   0.0017122   0.3378103
   23   -0.0000658  -0.0501871   0.0038414   0.0014467   0.3545595
   24    0.0000012   0.0057781  -0.0001348   0.0001483  -0.0435942

            16          17          18          19          20

   16    8.3006655
   17    0.0000000   0.7907604
   18    0.0000000   0.0028768   0.3875102
   19   -0.0000000  -0.0000418  -0.0014710   0.3579583
   20   -0.0000008  -0.0000007  -0.0000003  -0.0016940   0.3920215
   21    0.0271941   0.0000004   0.0000000  -0.0000000   0.0000028
   22   -0.0272680   0.0000000   0.0000000  -0.0000002   0.0001056
   23   -0.0307269  -0.0000006  -0.0000000   0.0000000   0.0000113
   24    0.2596670  -0.0000000  -0.0000000   0.0000000  -0.0000001

            21          22          23          24

   21    0.3972638
   22    0.0006976   0.5468791
   23    0.0000540  -0.0348573   0.5623466
   24   -0.0011638  -0.0008777  -0.0032547   0.4173572

          TOTAL MULLIKEN AND LOWDIN ATOMIC POPULATIONS
       ATOM         MULL.POP.    CHARGE          LOW.POP.     CHARGE
    1 O             8.747556   -0.747556         8.495084   -0.495084
    2 C             5.941481    0.058519         6.222935   -0.222935
    3 C             6.006798   -0.006798         5.965778    0.034222
    4 H             0.815706    0.184294         0.948015    0.051985
    5 O             8.758810   -0.758810         8.445315   -0.445315
    6 C             5.967267    0.032733         5.958361    0.041639
    7 H             0.771024    0.228976         0.916462    0.083538
    8 O             8.753028   -0.753028         8.460414   -0.460414
    9 C             5.935529    0.064471         5.934963    0.065037
   10 H             0.768199    0.231801         0.914790    0.085210
   11 O             8.712078   -0.712078         8.435365   -0.435365
   12 C             5.954845    0.045155         5.941009    0.058991
   13 H             0.776436    0.223564         0.922264    0.077736
   14 O             8.687480   -0.687480         8.412532   -0.412532
   15 C             6.116238   -0.116238         5.999816    0.000184
   16 O             8.687339   -0.687339         8.411889   -0.411889
   17 H             0.958181    0.041819         1.019406   -0.019406
   18 H             0.605559    0.394441         0.744330    0.255670
   19 H             0.583960    0.416040         0.737192    0.262808
   20 H             0.605681    0.394319         0.748185    0.251815
   21 H             0.616192    0.383808         0.754581    0.245419
   22 H             0.789719    0.210281         0.919835    0.080165
   23 H             0.807130    0.192870         0.931858    0.068142
   24 H             0.633766    0.366234         0.759621    0.240379

          -------------------------------
          BOND ORDER AND VALENCE ANALYSIS     BOND ORDER THRESHOLD=0.050
          -------------------------------

                   BOND                       BOND                       BOND
  ATOM PAIR DIST  ORDER      ATOM PAIR DIST  ORDER      ATOM PAIR DIST  ORDER
    1   2  1.238  1.443        1  18  1.965  0.124        2   3  1.506  0.835
    2  17  1.099  0.880        3   4  1.096  0.897        3   5  1.458  0.819
    3   6  1.560  0.833        5  18  1.007  0.715        5  19  1.810  0.101
    6   7  1.095  0.890        6   8  1.464  0.811        6   9  1.532  0.870
    8  19  1.010  0.720        8  20  1.905  0.087        9  10  1.095  0.897
    9  11  1.458  0.864        9  12  1.522  0.850       11  20  1.009  0.747
   12  13  1.098  0.884       12  14  1.457  0.859       12  15  1.525  0.889
   14  21  1.001  0.781       15  16  1.471  0.824       15  22  1.093  0.887
   15  23  1.099  0.903       16  21  2.005  0.051       16  24  0.992  0.823

                       TOTAL       BONDED        FREE
      ATOM            VALENCE     VALENCE     VALENCE
    1 O                 1.811       1.645       0.166
    2 C                 3.529       3.174       0.355
    3 C                 3.382       3.375       0.007
    4 H                 0.925       0.923       0.001
    5 O                 1.722       1.722       0.000
    6 C                 3.390       3.388       0.002
    7 H                 0.917       0.917       0.000
    8 O                 1.709       1.709       0.000
    9 C                 3.438       3.438       0.000
   10 H                 0.907       0.907       0.000
   11 O                 1.724       1.724       0.000
   12 C                 3.447       3.447       0.000
   13 H                 0.907       0.907       0.000
   14 O                 1.726       1.726       0.000
   15 C                 3.496       3.496       0.000
   16 O                 1.739       1.739       0.000
   17 H                 0.936       0.928       0.008
   18 H                 0.855       0.855       0.000
   19 H                 0.827       0.827       0.000
   20 H                 0.841       0.841       0.000
   21 H                 0.842       0.842       0.000
   22 H                 0.913       0.913       0.000
   23 H                 0.913       0.913       0.000
   24 H                 0.838       0.838       0.000

          -----------------------------------------
          ATOMIC SPIN DENSITY AT THE NUCLEUS (A.U.)
          -----------------------------------------
                            SPIN DENS    ALPHA DENS     BETA DENS
    1  O            8.0     0.1678498     116.87437     116.70652
    2  C            6.0     0.1345471      46.97177      46.83723
    3  C            6.0    -0.0492220      47.04476      47.09399
    4  H            1.0     0.0124897       0.19595       0.18346
    5  O            8.0    -0.0043295     116.69521     116.69954
    6  C            6.0     0.0665417      47.13858      47.07204
    7  H            1.0    -0.0011155       0.18563       0.18674
    8  O            8.0     0.0041906     116.71353     116.70934
    9  C            6.0    -0.0028038      47.06892      47.07173
   10  H            1.0     0.0000104       0.18651       0.18650
   11  O            8.0     0.0000682     116.75339     116.75332
   12  C            6.0     0.0004610      47.07172      47.07126
   13  H            1.0     0.0000174       0.18660       0.18659
   14  O            8.0     0.0000255     116.76300     116.76297
   15  C            6.0     0.0000788      47.00752      47.00744
   16  O            8.0     0.0001544     116.71912     116.71897
   17  H            1.0    -0.0194470       0.17694       0.19639
   18  H            1.0    -0.0001954       0.15186       0.15206
   19  H            1.0    -0.0000465       0.15165       0.15169
   20  H            1.0     0.0000071       0.15621       0.15620
   21  H            1.0    -0.0000055       0.16280       0.16280
   22  H            1.0    -0.0000034       0.18710       0.18711
   23  H            1.0    -0.0000037       0.18701       0.18701
   24  H            1.0     0.0000116       0.16850       0.16849

          ---------------------
          ELECTROSTATIC MOMENTS
          ---------------------

 POINT   1           X           Y           Z (BOHR)    CHARGE
                 0.003689   -0.049185    0.072813       -1.00 (A.U.)
         DX          DY          DZ         /D/  (DEBYE)
    12.375355    2.330438   -1.441890   12.675149
 ...... END OF PROPERTY EVALUATION ......
 CPU     0: STEP CPU TIME=     0.07 TOTAL CPU TIME=          3.1 (      0.1 MIN)
 TOTAL WALL CLOCK TIME=          8.8 SECONDS, CPU UTILIZATION IS    35.42%
               580000  WORDS OF DYNAMIC MEMORY USED
 EXECUTION OF GAMESS TERMINATED NORMALLY Fri May 22 16:24:02 2020
 DDI: 263640 bytes (0.3 MB / 0 MWords) used by master data server.
Note: The following floating-point exceptions are signalling: IEEE_DENORMALNote: The following floating-point exceptions are signalling: IEEE_DENORMAL
Note: The following floating-point exceptions are signalling: IEEE_DENORMAL

Note: The following floating-point exceptions are signalling: IEEE_DENORMALNote: The following floating-point exceptions are signalling: IEEE_DENORMAL
 ----------------------------------------
 CPU timing information for all processes
 ========================================
 0: 2.946 + 0.175 = 3.122
 1: 2.881 + 0.16 = 2.897
 2: 2.707 + 0.16 = 2.723
 3: 2.873 + 0.15 = 2.889
 4: 2.913 + 0.47 = 2.960
 5: 2.978 + 0.35 = 3.14
 6: 2.855 + 0.04 = 2.859
 7: 2.810 + 0.15 = 2.826
 ----------------------------------------

Note: The following floating-point exceptions are signalling: IEEE_DENORMAL

Note: The following floating-point exceptions are signalling: IEEE_DENORMAL
Note: The following floating-point exceptions are signalling: IEEE_DENORMAL
 ddikick.x: exited gracefully.
unset echo
----- accounting info -----
Files used on the master node pietdev were:
-rwxr-xr-x 1 piet piet     1456 mei 22 16:23 /home/piet/scr/d-glucose_fukui_acid.F05*
-rw-r--r-- 1 piet piet 68812800 mei 22 16:24 /home/piet/scr/d-glucose_fukui_acid.F10
ls: No match.
ls: No match.
ls: No match.
vr 22 mei 2020 16:24:05 CEST
0.128u 0.032s 0:12.00 1.2%	0+0k 0+8io 0pf+0w
