----- GAMESS execution script 'rungms' -----
This job is running on host pietdev
under operating system Linux at vr 22 mei 2020 16:23:53 CEST
Available scratch disk space (Kbyte units) at beginning of the job is
Filesystem     1K-blocks     Used Available Use% Mounted on
/dev/sda2      244568380 31372868 200702456  14% /
GAMESS temporary binary files will be written to /home/piet/scr
GAMESS supplementary output files will be written to /home/piet/gamess/scr
Copying input file d-glucose_fukui_base.inp to your run's scratch directory...
cp d-glucose_fukui_base.inp /home/piet/scr/d-glucose_fukui_base.F05
unset echo
 
Assuming a single but multicore node.
 
/home/piet/gamess/ddikick.x /home/piet/gamess/gamess.03.x d-glucose_fukui_base -ddi 1 8 pietdev:cpus=8 -scr /home/piet/scr

 Distributed Data Interface kickoff program.
 Initiating 8 compute processes on 1 nodes to run the following command:
 /home/piet/gamess/gamess.03.x d-glucose_fukui_base 

          ******************************************************
          *         GAMESS VERSION = 30 SEP 2019 (R2)          *
          *             FROM IOWA STATE UNIVERSITY             *
          * M.W.SCHMIDT, K.K.BALDRIDGE, J.A.BOATZ, S.T.ELBERT, *
          *   M.S.GORDON, J.H.JENSEN, S.KOSEKI, N.MATSUNAGA,   *
          *          K.A.NGUYEN, S.J.SU, T.L.WINDUS,           *
          *       TOGETHER WITH M.DUPUIS, J.A.MONTGOMERY       *
          *         J.COMPUT.CHEM.  14, 1347-1363(1993)        *
          **************** 64 BIT LINUX VERSION ****************

  SINCE 1993, STUDENTS AND POSTDOCS WORKING AT IOWA STATE UNIVERSITY
  AND ALSO IN THEIR VARIOUS JOBS AFTER LEAVING ISU HAVE MADE IMPORTANT
  CONTRIBUTIONS TO THE CODE:
     IVANA ADAMOVIC, CHRISTINE AIKENS, YURI ALEXEEV, POOJA ARORA,
     ANDREY ASADCHEV, ROB BELL, PRADIPTA BANDYOPADHYAY, JONATHAN BENTZ,
     COLLEEN BERTONI, BRETT BODE, KURT BRORSEN, CALEB CARLIN, GALINA CHABAN,
     WEI CHEN, CHEOL HO CHOI, PAUL DAY, ALBERT DEFUSCO, NUWAN DESILVA,
     TIM DUDLEY, DMITRI FEDOROV, ALEX FINDLATER, GRAHAM FLETCHER, 
     MARK FREITAG, KURT GLAESEMANN, EMILIE B GUIDEZ, ANASTASIA GUNINA, 
     DAN KEMP, SAROM SOK LEANG, GRANT MERRILL,
     NORIYUKI MINEZAWA, JONATHAN MULLIN,
     TAKESHI NAGATA, SEAN NEDD, HEATHER NETZLOFF, BOSILJKA NJEGIC, RYAN OLSON,
     MIKE PAK, BUU PHAM, DAVID POOLE,
     SPENCER PRUITT, LUKE ROSKOP, TOSAPORN SATTASATHUCHANA,
     JIM SHOEMAKER, LYUDMILA SLIPCHENKO,
     TONY SMITH, JIE SONG, TETSUYA TAKETSUGU, SIMON WEBB,
     JORGE LUIS GALVEZ VALLEJO, PENG XU, SOOHAENG YOO,
     FEDERICO ZAHARIEV

  ADDITIONAL CODE HAS BEEN PROVIDED BY COLLABORATORS IN OTHER GROUPS:
     IOWA STATE UNIVERSITY:
          JOE IVANIC, AARON WEST, LAIMUTIS BYTAUTAS, KLAUS RUEDENBERG
     UNIVERSITY OF TOKYO: KIMIHIKO HIRAO, TAKAHITO NAKAJIMA,
          TAKAO TSUNEDA, MUNEAKI KAMIYA, SUSUMU YANAGISAWA,
          KIYOSHI YAGI, MAHITO CHIBA, SEIKEN TOKURA, NAOAKI KAWAKAMI
     UNIVERSITY OF AARHUS: FRANK JENSEN
     UNIVERSITY OF IOWA: VISVALDAS KAIRYS, HUI LI
     NATIONAL INST. OF STANDARDS AND TECHNOLOGY: WALT STEVENS, DAVID GARMER
     UNIVERSITY OF PISA: BENEDETTA MENNUCCI, JACOPO TOMASI
     UNIVERSITY OF MEMPHIS: HENRY KURTZ, PRAKASHAN KORAMBATH
     UNIVERSITY OF ALBERTA: TOBY ZENG, MARIUSZ KLOBUKOWSKI
     UNIVERSITY OF NEW ENGLAND: MARK SPACKMAN
     MIE UNIVERSITY: HIROAKI UMEDA
     NAT. INST. OF ADVANCED INDUSTRIAL SCIENCE AND TECHNOLOGY: KAZUO KITAURA
     MICHIGAN STATE UNIVERSITY:
          KAROL KOWALSKI, MARTA WLOCH, JEFFREY GOUR, JESSE LUTZ,
          WEI LI, JUN SHEN, J. EMILIANO DEUSTUA, PIOTR PIECUCH
     UNIVERSITY OF MINNESOTA:
          ANDREW SAND, PRACHI SHARMA, YINAN SHU
     UNIVERSITY OF SILESIA: MONIKA MUSIAL, STANISLAW KUCHARSKI
     FACULTES UNIVERSITAIRES NOTRE-DAME DE LA PAIX:
          OLIVIER QUINET, BENOIT CHAMPAGNE
     UNIVERSITY OF CALIFORNIA - SANTA BARBARA: BERNARD KIRTMAN
     INSTITUTE FOR MOLECULAR SCIENCE:
          KAZUYA ISHIMURA, MICHIO KATOUDA, AND SHIGERU NAGASE
     UNIVERSITY OF NOTRE DAME: ANNA POMOGAEVA, DAN CHIPMAN
     KYUSHU UNIVERSITY:
          HARUYUKI NAKANO,
          FENG LONG GU, JACEK KORCHOWIEC, MARCIN MAKOWSKI, AND YURIKO AOKI,
          HIROTOSHI MORI AND EISAKU MIYOSHI
     PENNSYLVANIA STATE UNIVERSITY:
          TZVETELIN IORDANOV, CHET SWALINA, JONATHAN SKONE,
          SHARON HAMMES-SCHIFFER
     WASEDA UNIVERSITY:
          MASATO KOBAYASHI, TOMOKO AKAMA, TSUGUKI TOUMA,
          TAKESHI YOSHIKAWA, YASUHIRO IKABATA, JUNJI SEINO,
          YUYA NAKAJIMA, HIROMI NAKAI
     NANJING UNIVERSITY: SHUHUA LI
     UNIVERSITY OF NEBRASKA:
          PEIFENG SU, DEJUN SI, NANDUN THELLAMUREGE, YALI WANG, HUI LI
     UNIVERSITY OF ZURICH: ROBERTO PEVERATI, KIM BALDRIDGE
     N. COPERNICUS UNIVERSITY AND JACKSON STATE UNIVERSITY:
          MARIA BARYSZ
     UNIVERSITY OF COPENHAGEN: Jimmy Kromann, CASPER STEINMANN
     TOKYO INSTITUTE OF TECHNOLOGY: HIROYA NAKATA
     NAGOYA UNIVERSITY: YOSHIO NISHIMOTO, STEPHAN IRLE
     MOSCOW STATE UNIVERSITY: VLADIMIR MIRONOV
     A.N.NESMEYANOV INSTITUTE OF ORGANOELEMENT COMPOUNDS OF RUSSIAN ACADEMY OF SCIENCES:
          IGOR S. GERASIMOV
     JOHANNES KEPLER UNIVERSITY LINZ:
          CHRISTIAN FRIEDL


 PARALLEL VERSION RUNNING ON        8 PROCESSORS IN        1 NODES.

 EXECUTION OF GAMESS BEGUN Fri May 22 16:23:53 2020

            ECHO OF THE FIRST FEW INPUT CARDS -
 INPUT CARD> $BASIS GBASIS=N21 NGAUSS=3 $END                                                
 INPUT CARD> $CONTRL SCFTYP=UHF MAXIT=60 MULT=2 ICHARG=1 $END                               
 INPUT CARD> $SYSTEM MEMDDI=1000 MWORDS=30 $END                                             
 INPUT CARD> $SCF DIRSCF=.TRUE. $END                                                        
 INPUT CARD> $STATPT OPTTOL=0.0001 NSTEP=999 $END                                           
 INPUT CARD> $DATA                                                                          
 INPUT CARD>                                                                                
 INPUT CARD>C1                                                                              
 INPUT CARD>O 8.0000000 -3.6322681587 -1.1505051891 0.9673452413                            
 INPUT CARD>C 6.0000000 -2.5606205824 -0.5753323311 1.1969610883                            
 INPUT CARD>C 6.0000000 -1.9840375526 0.3934634534 0.1984511696                             
 INPUT CARD>H 1.0000000 -1.7523240240 1.3688200625 0.6425220326                             
 INPUT CARD>O 8.0000000 -2.9343119424 0.5535393095 -0.8955785371                            
 INPUT CARD>C 6.0000000 -0.6517681826 -0.1458171848 -0.4069671079                           
 INPUT CARD>H 1.0000000 -0.6244502984 -1.2378179781 -0.4826124181                           
 INPUT CARD>O 8.0000000 -0.5329071399 0.5021898078 -1.7145181248                            
 INPUT CARD>C 6.0000000 0.5477311751 0.3746825548 0.3904642593                              
 INPUT CARD>H 1.0000000 0.4457942134 0.1423690647 1.4551790977                              
 INPUT CARD>O 8.0000000 0.5778656115 1.8231249621 0.2284457007                              
 INPUT CARD>C 6.0000000 1.8371653509 -0.2533384196 -0.1186285928                            
 INPUT CARD>H 1.0000000 1.9071816237 -0.1016771506 -1.2040587646                            
 INPUT CARD>O 8.0000000 1.7675741545 -1.6663877223 0.2288751433                             
 INPUT CARD>C 6.0000000 3.0614839158 0.3559716081 0.5571669927                              
 INPUT CARD>O 8.0000000 4.1487702701 -0.5444266731 0.1434271503                             
 INPUT CARD>H 1.0000000 -1.9683689914 -0.7564342376 2.1048700386                            
 INPUT CARD>H 1.0000000 -3.6359408739 -0.1474698987 -0.7218162812                           
 INPUT CARD>H 1.0000000 -1.4975698240 0.6089085349 -1.9957530896                            
 INPUT CARD>H 1.0000000 0.3002716602 1.9095032068 -0.7381730019                             
 INPUT CARD>H 1.0000000 2.7247763948 -1.9557642142 0.1781731580                             
 INPUT CARD>H 1.0000000 3.1991575586 1.3896449791 0.2280693742                              
 INPUT CARD>H 1.0000000 2.9173918746 0.3336190105 1.6466972828                              
 INPUT CARD>H 1.0000000 4.9629037670 -0.3284654549 0.6683579888                             
 INPUT CARD> $END                                                                           
   30000000 WORDS OF MEMORY AVAILABLE

     BASIS OPTIONS
     -------------
     GBASIS=N21          IGAUSS=       3      POLAR=NONE    
     NDFUNC=       0     NFFUNC=       0     DIFFSP=       F
     NPFUNC=       0      DIFFS=       F     BASNAM=        


     RUN TITLE
     ---------
                                                                                 

 THE POINT GROUP OF THE MOLECULE IS C1      
 THE ORDER OF THE PRINCIPAL AXIS IS     0

 ATOM      ATOMIC                      COORDINATES (BOHR)
           CHARGE         X                   Y                   Z
 O           8.0    -6.8639915339       -2.1741395549        1.8280174416
 C           6.0    -4.8388712593       -1.0872204577        2.2619284749
 C           6.0    -3.7492873238        0.7435381131        0.3750183325
 H           1.0    -3.3114122471        2.5866948446        1.2141905827
 O           8.0    -5.5450455336        1.0460376184       -1.6923980356
 C           6.0    -1.2316632726       -0.2755545236       -0.7690563199
 H           1.0    -1.1800399569       -2.3391368013       -0.9120052285
 O           8.0    -1.0070484713        0.9490011306       -3.2399694569
 C           6.0     1.0350618359        0.7080473610        0.7378704581
 H           1.0     0.8424289102        0.2690385214        2.7498897577
 O           8.0     1.0920076635        3.4452066197        0.4316997774
 C           6.0     3.4717391073       -0.4787401952       -0.2241755347
 H           1.0     3.6040506776       -0.1921419538       -2.2753411382
 O           8.0     3.3402308150       -3.1490161845        0.4325113062
 C           6.0     5.7853657167        0.6726887987        1.0528929456
 O           8.0     7.8400389965       -1.0288172326        0.2710380133
 H           1.0    -3.7196780365       -1.4294534368        3.9776276127
 H           1.0    -6.8709319592       -0.2786777000       -1.3640349849
 H           1.0    -2.8299966148        1.1506702825       -3.7714264785
 H           1.0     0.5674311597        3.6084378335       -1.3949447051
 H           1.0     5.1490807640       -3.6958584614        0.3366984470
 H           1.0     6.0455311773        2.6260482307        0.4309886234
 H           1.0     5.5130712418        0.6304485141        3.1118066492
 H           1.0     9.3785282231       -0.6207097062        1.2630134605

          INTERNUCLEAR DISTANCES (ANGS.)
          ------------------------------

                1 O          2 C          3 C          4 H          5 O     

   1 O       0.0000000    1.2377301 *  2.3857287 *  3.1601740    2.6194266 *
   2 C       1.2377301 *  0.0000000    1.5059998 *  2.1772631 *  2.4068067 *
   3 C       2.3857287 *  1.5059998 *  0.0000000    1.0964536 *  1.4579255 *
   4 H       3.1601740    2.1772631 *  1.0964536 *  0.0000000    2.1041700 *
   5 O       2.6194266 *  2.4068067 *  1.4579255 *  2.1041700 *  0.0000000  
   6 C       3.4324208    2.5299776 *  1.5595822 *  2.1463403 *  2.4367697 *
   7 H       3.3402049    2.6473779 *  2.2301131 *  3.0549286    2.9521116 *
   8 O       4.4192568    3.7080166    2.4035500 *  2.7917134 *  2.5377241 *
   9 C       4.4868011    3.3488529    2.5391090 *  2.5183519 *  3.7162508  
  10 H       4.3058215    3.1016611    2.7470886 *  2.6450553 *  4.1376612  
  11 O       5.2070793    4.0670278    2.9339699 *  2.4099037 *  3.9000858  
  12 C       5.6479156    4.6016277    3.8885066    4.0118802    4.9011936  
  13 H       6.0415676    5.0941635    4.1657874    4.3547910    4.8953579  
  14 O       5.4744653    4.5673693    4.2800120    4.6661840    5.3197937  
  15 C       6.8734297    5.7345203    5.0583959    4.9199486    6.1724445  
  16 O       7.8479762    6.7916724    6.2043531    6.2235458    7.2425904  
  17 H       2.0537320 *  1.0990262 *  2.2264193 *  2.5887918 *  3.4134686  
  18 H       1.9645254 *  2.2407781 *  1.9667958 *  2.7764306 *  1.0069212 *
  19 H       4.0536928    3.5673418    2.2577865 *  2.7573286 *  1.8104358 *
  20 H       5.2666226    4.2548626    2.8971900 *  2.5321544 *  3.5108326  
  21 H       6.4562567    5.5568824    5.2623389    5.5957938    6.2828996  
  22 H       7.3257948    6.1623803    5.2781404    4.9688404    6.2913516  
  23 H       6.7499771    5.5710929    5.1112629    4.8873567    6.3838835  
  24 H       8.6395673    7.5461105    7.0001420    6.9264515    8.0987558  

                6 C          7 H          8 O          9 C         10 H     

   1 O       3.4324208    3.3402049    4.4192568    4.4868011    4.3058215  
   2 C       2.5299776 *  2.6473779 *  3.7080166    3.3488529    3.1016611  
   3 C       1.5595822 *  2.2301131 *  2.4035500 *  2.5391090 *  2.7470886 *
   4 H       2.1463403 *  3.0549286    2.7917134 *  2.5183519 *  2.6450553 *
   5 O       2.4367697 *  2.9521116 *  2.5377241 *  3.7162508    4.1376612  
   6 C       0.0000000    1.0949585 *  1.4641484 *  1.5315402 *  2.1806611 *
   7 H       1.0949585 *  0.0000000    2.1339163 *  2.1763341 *  2.6087115 *
   8 O       1.4641484 *  2.1339163 *  0.0000000    2.3695966 *  3.3368110  
   9 C       1.5315402 *  2.1763341 *  2.3695966 *  0.0000000    1.0945220 *
  10 H       2.1806611 *  2.6087115 *  3.3368110    1.0945220 *  0.0000000  
  11 O       2.4067575 *  3.3646008    2.5988063 *  1.4577872 *  2.0850079 *
  12 C       2.5078856 *  2.6760485 *  2.9554915 *  1.5219154 *  2.1376082 *
  13 H       2.6805834 *  2.8671346 *  2.5650063 *  2.1488434 *  3.0441350  
  14 O       2.9273960 *  2.5321271 *  3.7110268    2.3832952 *  2.5539234 *
  15 C       3.8690551    4.1481824    4.2545952    2.5193437 *  2.7737852 *
  16 O       4.8484011    4.8637796    5.1444601    3.7246841    3.9880338  
  17 H       2.9009682 *  2.9551503 *  4.2699428    3.2479797    2.6567141 *
  18 H       3.0007365    3.2117212    3.3220977    4.3603811    4.6350703  
  19 H       1.9517254 *  2.5421116 *  1.0104732 *  3.1515316    3.9878886  
  20 H       2.2891962 *  3.2902967    1.9047225 *  1.9211280 *  2.8204137 *
  21 H       3.8754807    3.4884673    4.4984798    3.1961814    3.3506219  
  22 H       4.1941083    4.6934643    4.2999453    2.8436917 *  3.2622853  
  23 H       4.1456363    4.4213143    4.8198287    2.6823683 *  2.4863730 *
  24 H       5.7196351    5.7766929    6.0474808    4.4794409    4.6092354  

               11 O         12 C         13 H         14 O         15 C     

   1 O       5.2070793    5.6479156    6.0415676    5.4744653    6.8734297  
   2 C       4.0670278    4.6016277    5.0941635    4.5673693    5.7345203  
   3 C       2.9339699 *  3.8885066    4.1657874    4.2800120    5.0583959  
   4 H       2.4099037 *  4.0118802    4.3547910    4.6661840    4.9199486  
   5 O       3.9000858    4.9011936    4.8953579    5.3197937    6.1724445  
   6 C       2.4067575 *  2.5078856 *  2.6805834 *  2.9273960 *  3.8690551  
   7 H       3.3646008    2.6760485 *  2.8671346 *  2.5321271 *  4.1481824  
   8 O       2.5988063 *  2.9554915 *  2.5650063 *  3.7110268    4.2545952  
   9 C       1.4577872 *  1.5219154 *  2.1488434 *  2.3832952 *  2.5193437 *
  10 H       2.0850079 *  2.1376082 *  3.0441350    2.5539234 *  2.7737852 *
  11 O       0.0000000    2.4531605 *  2.7429935 *  3.6867473    2.9032665 *
  12 C       2.4531605 *  0.0000000    1.0982086 *  1.4568151 *  1.5254227 *
  13 H       2.7429935 *  1.0982086 *  0.0000000    2.1262900 *  2.1549414 *
  14 O       3.6867473    1.4568151 *  2.1262900 *  0.0000000    2.4232035 *
  15 C       2.9032665 *  1.5254227 *  2.1549414 *  2.4232035 *  0.0000000  
  16 O       4.2853108    2.3445517 *  2.6526336 *  2.6336653 *  1.4710844 *
  17 H       4.0814709    4.4361180    5.1378604    4.2783926    5.3788709  
  18 H       4.7478845    5.5072620    5.5642485    5.6928815    6.8370133  
  19 H       3.2754868    3.9226936    3.5670778    4.5592882    5.2312856  
  20 H       1.0093916 *  2.7246580 *  2.6161146 *  3.9843638    3.4228145  
  21 H       4.3464648    1.9427296 *  2.4528891 *  1.0012720 *  2.3666708 *
  22 H       2.6568923 *  2.1620862 *  2.4380801 *  3.3747248    1.0934989 *
  23 H       3.1150359    2.1512284 *  3.0556206    2.7078271 *  1.0992445 *
  24 H       4.9042251    3.2241639    3.5909351    3.4918924    2.0239108 *

               16 O         17 H         18 H         19 H         20 H     

   1 O       7.8479762    2.0537320 *  1.9645254 *  4.0536928    5.2666226  
   2 C       6.7916724    1.0990262 *  2.2407781 *  3.5673418    4.2548626  
   3 C       6.2043531    2.2264193 *  1.9667958 *  2.2577865 *  2.8971900 *
   4 H       6.2235458    2.5887918 *  2.7764306 *  2.7573286 *  2.5321544 *
   5 O       7.2425904    3.4134686    1.0069212 *  1.8104358 *  3.5108326  
   6 C       4.8484011    2.9009682 *  3.0007365    1.9517254 *  2.2891962 *
   7 H       4.8637796    2.9551503 *  3.2117212    2.5421116 *  3.2902967  
   8 O       5.1444601    4.2699428    3.3220977    1.0104732 *  1.9047225 *
   9 C       3.7246841    3.2479797    4.3603811    3.1515316    1.9211280 *
  10 H       3.9880338    2.6567141 *  4.6350703    3.9878886    2.8204137 *
  11 O       4.2853108    4.0814709    4.7478845    3.2754868    1.0093916 *
  12 C       2.3445517 *  4.4361180    5.5072620    3.9226936    2.7246580 *
  13 H       2.6526336 *  5.1378604    5.5642485    3.5670778    2.6161146 *
  14 O       2.6336653 *  4.2783926    5.6928815    4.5592882    3.9843638  
  15 C       1.4710844 *  5.3788709    6.8370133    5.2312856    3.4228145  
  16 O       0.0000000    6.4274099    7.8427003    6.1471482    4.6486484  
  17 H       6.4274099    0.0000000    3.3379319    4.3475192    4.5096393  
  18 H       7.8427003    3.3379319    0.0000000    2.6014715 *  4.4413033  
  19 H       6.1471482    4.3475192    2.6014715 *  0.0000000    2.5505466 *
  20 H       4.6486484    4.5096393    4.4413033    2.5505466 *  0.0000000  
  21 H       2.0052031 *  5.2130765    6.6737271    5.3973798    4.6538377  
  22 H       2.1562842 *  5.9018105    7.0699063    5.2549200    3.0995833  
  23 H       2.1323879 *  5.0268079    6.9848030    5.7301934    3.8756078  
  24 H       0.9924742 *  7.0914925    8.7123747    7.0508068    5.3597548  

               21 H         22 H         23 H         24 H     

   1 O       6.4562567    7.3257948    6.7499771    8.6395673  
   2 C       5.5568824    6.1623803    5.5710929    7.5461105  
   3 C       5.2623389    5.2781404    5.1112629    7.0001420  
   4 H       5.5957938    4.9688404    4.8873567    6.9264515  
   5 O       6.2828996    6.2913516    6.3838835    8.0987558  
   6 C       3.8754807    4.1941083    4.1456363    5.7196351  
   7 H       3.4884673    4.6934643    4.4213143    5.7766929  
   8 O       4.4984798    4.2999453    4.8198287    6.0474808  
   9 C       3.1961814    2.8436917 *  2.6823683 *  4.4794409  
  10 H       3.3506219    3.2622853    2.4863730 *  4.6092354  
  11 O       4.3464648    2.6568923 *  3.1150359    4.9042251  
  12 C       1.9427296 *  2.1620862 *  2.1512284 *  3.2241639  
  13 H       2.4528891 *  2.4380801 *  3.0556206    3.5909351  
  14 O       1.0012720 *  3.3747248    2.7078271 *  3.4918924  
  15 C       2.3666708 *  1.0934989 *  1.0992445 *  2.0239108 *
  16 O       2.0052031 *  2.1562842 *  2.1323879 *  0.9924742 *
  17 H       5.2130765    5.9018105    5.0268079    7.0914925  
  18 H       6.6737271    7.0699063    6.9848030    8.7123747  
  19 H       5.3973798    5.2549200    5.7301934    7.0508068  
  20 H       4.6538377    3.0995833    3.8756078    5.3597548  
  21 H       0.0000000    3.3792440    2.7267085 *  2.8102663 *
  22 H       3.3792440    0.0000000    1.7908344 *  2.5013113 *
  23 H       2.7267085 *  1.7908344 *  0.0000000    2.3621225 *
  24 H       2.8102663 *  2.5013113 *  2.3621225 *  0.0000000  

  * ... LESS THAN  3.000


     ATOMIC BASIS SET
     ----------------
 THE CONTRACTED PRIMITIVE FUNCTIONS HAVE BEEN UNNORMALIZED
 THE CONTRACTED BASIS FUNCTIONS ARE NOW NORMALIZED TO UNITY

  SHELL TYPE  PRIMITIVE        EXPONENT          CONTRACTION COEFFICIENT(S)

 O         

      1   S       1           322.0370000    0.059239393389
      1   S       2            48.4308000    0.351499960776
      1   S       3            10.4206000    0.707657921031

      2   L       4             7.4029400   -0.404453583190    0.244586106967
      2   L       5             1.5762000    1.221561761397    0.853955373466

      3   L       6             0.3736840    1.000000000000    1.000000000000

 C         

      4   S       7           172.2560000    0.061766907377
      4   S       8            25.9109000    0.358794042852
      4   S       9             5.5333500    0.700713083689

      5   L      10             3.6649800   -0.395895162119    0.236459946619
      5   L      11             0.7705450    1.215834355681    0.860618805716

      6   L      12             0.1958570    1.000000000000    1.000000000000

 C         

      7   S      13           172.2560000    0.061766907377
      7   S      14            25.9109000    0.358794042852
      7   S      15             5.5333500    0.700713083689

      8   L      16             3.6649800   -0.395895162119    0.236459946619
      8   L      17             0.7705450    1.215834355681    0.860618805716

      9   L      18             0.1958570    1.000000000000    1.000000000000

 H         

     10   S      19             5.4471780    0.156284978695
     10   S      20             0.8245472    0.904690876670

     11   S      21             0.1831916    1.000000000000

 O         

     12   S      22           322.0370000    0.059239393389
     12   S      23            48.4308000    0.351499960776
     12   S      24            10.4206000    0.707657921031

     13   L      25             7.4029400   -0.404453583190    0.244586106967
     13   L      26             1.5762000    1.221561761397    0.853955373466

     14   L      27             0.3736840    1.000000000000    1.000000000000

 C         

     15   S      28           172.2560000    0.061766907377
     15   S      29            25.9109000    0.358794042852
     15   S      30             5.5333500    0.700713083689

     16   L      31             3.6649800   -0.395895162119    0.236459946619
     16   L      32             0.7705450    1.215834355681    0.860618805716

     17   L      33             0.1958570    1.000000000000    1.000000000000

 H         

     18   S      34             5.4471780    0.156284978695
     18   S      35             0.8245472    0.904690876670

     19   S      36             0.1831916    1.000000000000

 O         

     20   S      37           322.0370000    0.059239393389
     20   S      38            48.4308000    0.351499960776
     20   S      39            10.4206000    0.707657921031

     21   L      40             7.4029400   -0.404453583190    0.244586106967
     21   L      41             1.5762000    1.221561761397    0.853955373466

     22   L      42             0.3736840    1.000000000000    1.000000000000

 C         

     23   S      43           172.2560000    0.061766907377
     23   S      44            25.9109000    0.358794042852
     23   S      45             5.5333500    0.700713083689

     24   L      46             3.6649800   -0.395895162119    0.236459946619
     24   L      47             0.7705450    1.215834355681    0.860618805716

     25   L      48             0.1958570    1.000000000000    1.000000000000

 H         

     26   S      49             5.4471780    0.156284978695
     26   S      50             0.8245472    0.904690876670

     27   S      51             0.1831916    1.000000000000

 O         

     28   S      52           322.0370000    0.059239393389
     28   S      53            48.4308000    0.351499960776
     28   S      54            10.4206000    0.707657921031

     29   L      55             7.4029400   -0.404453583190    0.244586106967
     29   L      56             1.5762000    1.221561761397    0.853955373466

     30   L      57             0.3736840    1.000000000000    1.000000000000

 C         

     31   S      58           172.2560000    0.061766907377
     31   S      59            25.9109000    0.358794042852
     31   S      60             5.5333500    0.700713083689

     32   L      61             3.6649800   -0.395895162119    0.236459946619
     32   L      62             0.7705450    1.215834355681    0.860618805716

     33   L      63             0.1958570    1.000000000000    1.000000000000

 H         

     34   S      64             5.4471780    0.156284978695
     34   S      65             0.8245472    0.904690876670

     35   S      66             0.1831916    1.000000000000

 O         

     36   S      67           322.0370000    0.059239393389
     36   S      68            48.4308000    0.351499960776
     36   S      69            10.4206000    0.707657921031

     37   L      70             7.4029400   -0.404453583190    0.244586106967
     37   L      71             1.5762000    1.221561761397    0.853955373466

     38   L      72             0.3736840    1.000000000000    1.000000000000

 C         

     39   S      73           172.2560000    0.061766907377
     39   S      74            25.9109000    0.358794042852
     39   S      75             5.5333500    0.700713083689

     40   L      76             3.6649800   -0.395895162119    0.236459946619
     40   L      77             0.7705450    1.215834355681    0.860618805716

     41   L      78             0.1958570    1.000000000000    1.000000000000

 O         

     42   S      79           322.0370000    0.059239393389
     42   S      80            48.4308000    0.351499960776
     42   S      81            10.4206000    0.707657921031

     43   L      82             7.4029400   -0.404453583190    0.244586106967
     43   L      83             1.5762000    1.221561761397    0.853955373466

     44   L      84             0.3736840    1.000000000000    1.000000000000

 H         

     45   S      85             5.4471780    0.156284978695
     45   S      86             0.8245472    0.904690876670

     46   S      87             0.1831916    1.000000000000

 H         

     47   S      88             5.4471780    0.156284978695
     47   S      89             0.8245472    0.904690876670

     48   S      90             0.1831916    1.000000000000

 H         

     49   S      91             5.4471780    0.156284978695
     49   S      92             0.8245472    0.904690876670

     50   S      93             0.1831916    1.000000000000

 H         

     51   S      94             5.4471780    0.156284978695
     51   S      95             0.8245472    0.904690876670

     52   S      96             0.1831916    1.000000000000

 H         

     53   S      97             5.4471780    0.156284978695
     53   S      98             0.8245472    0.904690876670

     54   S      99             0.1831916    1.000000000000

 H         

     55   S     100             5.4471780    0.156284978695
     55   S     101             0.8245472    0.904690876670

     56   S     102             0.1831916    1.000000000000

 H         

     57   S     103             5.4471780    0.156284978695
     57   S     104             0.8245472    0.904690876670

     58   S     105             0.1831916    1.000000000000

 H         

     59   S     106             5.4471780    0.156284978695
     59   S     107             0.8245472    0.904690876670

     60   S     108             0.1831916    1.000000000000

 TOTAL NUMBER OF BASIS SET SHELLS             =   60
 NUMBER OF CARTESIAN GAUSSIAN BASIS FUNCTIONS =  132
 NUMBER OF ELECTRONS                          =   95
 CHARGE OF MOLECULE                           =    1
 SPIN MULTIPLICITY                            =    2
 NUMBER OF OCCUPIED ORBITALS (ALPHA)          =   48
 NUMBER OF OCCUPIED ORBITALS (BETA )          =   47
 TOTAL NUMBER OF ATOMS                        =   24
 THE NUCLEAR REPULSION ENERGY IS      784.0216010816

     $CONTRL OPTIONS
     ---------------
 SCFTYP=UHF          RUNTYP=ENERGY       EXETYP=RUN     
 MPLEVL=       0     CITYP =NONE         CCTYP =NONE         VBTYP =NONE    
 DFTTYP=NONE         TDDFT =NONE    
 MULT  =       2     ICHARG=       1     NZVAR =       0     COORD =UNIQUE  
 PP    =NONE         RELWFN=NONE         LOCAL =NONE         NUMGRD=       F
 ISPHER=      -1     NOSYM =       0     MAXIT =      60     UNITS =ANGS    
 PLTORB=       F     MOLPLT=       F     AIMPAC=       F     FRIEND=        
 NPRINT=       7     IREST =       0     GEOM  =INPUT   
 NORMF =       0     NORMP =       0     ITOL  =      20     ICUT  =       9
 INTTYP=BEST         GRDTYP=BEST         QMTTOL= 1.0E-06

     $SYSTEM OPTIONS
     ---------------
  REPLICATED MEMORY=    30000000 WORDS (ON EVERY NODE).
 DISTRIBUTED MEMDDI=        1000 MILLION WORDS IN AGGREGATE,
 MEMDDI DISTRIBUTED OVER   8 PROCESSORS IS   125000000 WORDS/PROCESSOR.
 TOTAL MEMORY REQUESTED ON EACH PROCESSOR=   155000000 WORDS.
 TIMLIM=      525600.00 MINUTES, OR     365.0 DAYS.
 PARALL= T  BALTYP=  DLB     KDIAG=    0  COREFL= F
 MXSEQ2=     300 MXSEQ3=     150  mem10=         0

          ----------------
          PROPERTIES INPUT
          ----------------

     MOMENTS            FIELD           POTENTIAL          DENSITY
 IEMOM =       1   IEFLD =       0   IEPOT =       0   IEDEN =       0
 WHERE =COMASS     WHERE =NUCLEI     WHERE =NUCLEI     WHERE =NUCLEI  
 OUTPUT=BOTH       OUTPUT=BOTH       OUTPUT=BOTH       OUTPUT=BOTH    
 IEMINT=       0   IEFINT=       0                     IEDINT=       0
                                                       MORB  =       0
          EXTRAPOLATION IN EFFECT
          SOSCF IN EFFECT
          DIIS or SOSCF will be reset if energy rises
 ORBITAL PRINTING OPTION: NPREO=     1   132     2     1

     -------------------------------
     INTEGRAL TRANSFORMATION OPTIONS
     -------------------------------
     NWORD  =            0
     CUTOFF = 1.0E-09     MPTRAN =       0
     DIRTRF =       T     AOINTS =DUP     

          ----------------------
          INTEGRAL INPUT OPTIONS
          ----------------------
 NOPK  =       1 NORDER=       0 SCHWRZ=       T

     ------------------------------------------
     THE POINT GROUP IS C1 , NAXIS= 0, ORDER= 1
     ------------------------------------------

     DIMENSIONS OF THE SYMMETRY SUBSPACES ARE
 A   =  132

 ..... DONE SETTING UP THE RUN .....
 CPU     0: STEP CPU TIME=     0.03 TOTAL CPU TIME=          0.0 (      0.0 MIN)
 TOTAL WALL CLOCK TIME=          0.1 SECONDS, CPU UTILIZATION IS    50.00%

          ********************
          1 ELECTRON INTEGRALS
          ********************
 ...... END OF ONE-ELECTRON INTEGRALS ......
 CPU     0: STEP CPU TIME=     0.01 TOTAL CPU TIME=          0.0 (      0.0 MIN)
 TOTAL WALL CLOCK TIME=          0.1 SECONDS, CPU UTILIZATION IS    50.00%

          -------------
          GUESS OPTIONS
          -------------
          GUESS =HUCKEL            NORB  =       0          NORDER=       0
          MIX   =       F          PRTMO =       F          PUNMO =       F
          TOLZ  = 1.0E-08          TOLE  = 1.0E-05
          SYMDEN=       F          PURIFY=       F

 INITIAL GUESS ORBITALS GENERATED BY HUCKEL   ROUTINE.
 HUCKEL GUESS REQUIRES    164928 WORDS.

 SYMMETRIES FOR INITIAL GUESS ORBITALS FOLLOW.  ALPHA SET(S).
    48 ORBITALS ARE OCCUPIED (   12 CORE ORBITALS).
    13=A       14=A       15=A       16=A       17=A       18=A       19=A   
    20=A       21=A       22=A       23=A       24=A       25=A       26=A   
    27=A       28=A       29=A       30=A       31=A       32=A       33=A   
    34=A       35=A       36=A       37=A       38=A       39=A       40=A   
    41=A       42=A       43=A       44=A       45=A       46=A       47=A   
    48=A       49=A       50=A       51=A       52=A       53=A       54=A   
    55=A       56=A       57=A       58=A   

 SYMMETRIES FOR INITIAL GUESS ORBITALS FOLLOW.   BETA SET(S).
    47 ORBITALS ARE OCCUPIED (   12 CORE ORBITALS).
    13=A       14=A       15=A       16=A       17=A       18=A       19=A   
    20=A       21=A       22=A       23=A       24=A       25=A       26=A   
    27=A       28=A       29=A       30=A       31=A       32=A       33=A   
    34=A       35=A       36=A       37=A       38=A       39=A       40=A   
    41=A       42=A       43=A       44=A       45=A       46=A       47=A   
    48=A       49=A       50=A       51=A       52=A       53=A       54=A   
    55=A       56=A       57=A   
 ...... END OF INITIAL ORBITAL SELECTION ......
 CPU     0: STEP CPU TIME=     0.05 TOTAL CPU TIME=          0.1 (      0.0 MIN)
 TOTAL WALL CLOCK TIME=          0.2 SECONDS, CPU UTILIZATION IS    52.94%

                    ----------------------
                    AO INTEGRAL TECHNOLOGY
                    ----------------------
     S,P,L SHELL ROTATED AXIS INTEGRALS, REPROGRAMMED BY
        KAZUYA ISHIMURA (IMS) AND JOSE SIERRA (SYNSTAR).
     S,P,D,L SHELL ROTATED AXIS INTEGRALS PROGRAMMED BY
        KAZUYA ISHIMURA (INSTITUTE FOR MOLECULAR SCIENCE).
     S,P,D,F,G SHELL TO TOTAL QUARTET ANGULAR MOMENTUM SUM 5,
        ERIC PROGRAM BY GRAHAM FLETCHER (ELORET AND NASA ADVANCED
        SUPERCOMPUTING DIVISION, AMES RESEARCH CENTER).
     S,P,D,F,G,L SHELL GENERAL RYS QUADRATURE PROGRAMMED BY
        MICHEL DUPUIS (PACIFIC NORTHWEST NATIONAL LABORATORY).

          --------------------
          2 ELECTRON INTEGRALS
          --------------------

 DIRECT SCF METHOD SKIPS INTEGRAL STORAGE ON DISK.
 DIRECT TRANSFORMATION SKIPS AO INTEGRAL STORAGE ON DISK.
  ...... END OF TWO-ELECTRON INTEGRALS .....
 CPU     0: STEP CPU TIME=     0.01 TOTAL CPU TIME=          0.1 (      0.0 MIN)
 TOTAL WALL CLOCK TIME=          0.2 SECONDS, CPU UTILIZATION IS    45.45%

          ---------------------------
                  UHF SCF CALCULATION
          ---------------------------

     NUCLEAR ENERGY =       784.0216010816
     MAXIT = 60     NPUNCH=  2     MULT=  2
     EXTRAP=T  DAMP=F  SHIFT=F  RSTRCT=F  DIIS=F  SOSCF=T
     DENSITY MATRIX CONV=  2.00E-05
     SOSCF WILL OPTIMIZE    4032 ALPHA AND    3995 BETA ROTATION ANGLES.
     SOGTOL= 2.500E-01
     MEMORY REQUIRED FOR UHF/ROHF ITERS=    280557 WORDS.

 DIRECT SCF CALCULATION, SCHWRZ=T   FDIFF=T
 SCHWARZ INEQUALITY OVERHEAD:      7804 INTEGRALS, T=        0.00

                                                                                NONZERO     BLOCKS
 ITER EX      TOTAL ENERGY        E CHANGE  DENSITY CHANGE    ORB. GRAD       INTEGRALS    SKIPPED
   1  0     -677.0886685355  -677.0886685355   0.915539694   0.000000000       18160280     960858
          ---------------START SECOND ORDER SCF---------------
   2  1     -678.8788127162    -1.7901441807   0.204272529   0.119136716       18118143     971839
   3  2     -678.9634444781    -0.0846317618   0.156661772   0.104565576       18040320     990163
   4  3     -679.0948624868    -0.1314180088   0.069835854   0.030009669       17914911    1011990
   5  4     -679.1317674436    -0.0369049568   0.179639766   0.017267622       17758457    1029963
   6  5     -679.0893027551     0.0424646885   0.150001831   0.096488561       17978072    1002019
   7  6     -679.1584089268    -0.0691061717   0.047463434   0.016762843       17852709    1017396
   8  7     -679.1729782796    -0.0145693527   0.132085709   0.011708551       17564519    1046286
   9  8     -679.1669506454     0.0060276341   0.078201318   0.037411849       17848069    1016018
  10  9     -679.1846486314    -0.0176979860   0.019738095   0.008678981       17708968    1030955
  11 10     -679.1864252498    -0.0017766184   0.013704862   0.001985745       17093234    1080591
  12 11     -679.1867003262    -0.0002750764   0.002606368   0.001593167       16797699    1093542
  13 12     -679.1867888702    -0.0000885441   0.002565545   0.001188465       15977106    1139844
  14 13     -679.1868239013    -0.0000350311   0.004811081   0.000842875       15510411    1157642
  15 14     -679.1868627752    -0.0000388739   0.006189840   0.000957744       15648202    1150509
  16 15     -679.1869035654    -0.0000407902   0.012146913   0.001060136       15466718    1160361
  17 16     -679.1869735432    -0.0000699778   0.017041951   0.001355817       15832047    1144437
  18 17     -679.1870608254    -0.0000872822   0.010619368   0.001988855       16027639    1136195
  19 18     -679.1871521830    -0.0000913576   0.008499919   0.001926243       15727969    1148055
  20 19     -679.1872870877    -0.0001349047   0.004020449   0.000946996       16057574    1130468
  21 20     -679.1873371482    -0.0000500605   0.002618569   0.000385317       15761604    1147650
  22 21     -679.1873550089    -0.0000178607   0.001864800   0.000160516       15491476    1158336
  23 22     -679.1873594379    -0.0000044289   0.001032066   0.000122013       14877442    1183628
  24 23     -679.1873605778    -0.0000011399   0.000427790   0.000087281       14188263    1213896
  25 24     -679.1873608835    -0.0000003057   0.000199252   0.000048446       13852545    1227168
  26 25     -679.1873609687    -0.0000000852   0.000070921   0.000016768       13269548    1254172
  27 26     -679.1873609952    -0.0000000265   0.000054990   0.000008751       12405466    1286705
  28 27     -679.1873610042    -0.0000000090   0.000025032   0.000005433       12121338    1297745
  29 28     -679.1873610049    -0.0000000008   0.000014902   0.000003214       11138040    1336096
  30 29     -679.1873610045     0.0000000004   0.000006116   0.000001585       10740377    1351908

          -----------------
          DENSITY CONVERGED
          -----------------
     TIME TO FORM FOCK OPERATORS=       6.0 SECONDS (       0.2 SEC/ITER)
     FOCK TIME ON FIRST ITERATION=       0.3, LAST ITERATION=       0.1
     TIME TO SOLVE SCF EQUATIONS=       0.3 SECONDS (       0.0 SEC/ITER)

 FINAL UHF ENERGY IS     -679.1873610045 AFTER  30 ITERATIONS

          --------------------
          SPIN SZ   =    0.500
          S-SQUARED =    0.892
          --------------------

  ----- ALPHA SET ----- 

          ------------
          EIGENVECTORS
          ------------

                      1          2          3          4          5
                  -20.9253   -20.6663   -20.6545   -20.6379   -20.6172
                     A          A          A          A          A   
    1  O  1  S   -0.000128   0.983547   0.003396   0.004084  -0.000093
    2  O  1  S   -0.000144   0.099542   0.000167  -0.000263   0.000019
    3  O  1  X   -0.000028   0.003897   0.000055  -0.000120  -0.000011
    4  O  1  Y    0.000031   0.002321  -0.000060   0.000049   0.000001
    5  O  1  Z   -0.000011   0.000431  -0.000071  -0.000241   0.000001
    6  O  1  S    0.000537  -0.052829   0.000644   0.004574  -0.000173
    7  O  1  X    0.000200  -0.012548  -0.000177   0.001782  -0.000001
    8  O  1  Y   -0.000119  -0.007573   0.000321   0.000707  -0.000038
    9  O  1  Z    0.000082  -0.001245   0.000359   0.000679   0.000013
   10  C  2  S   -0.000022  -0.000027  -0.000115   0.000196   0.000010
   11  C  2  S   -0.000080   0.000168  -0.000831   0.000381   0.000096
   12  C  2  X    0.000095  -0.001759  -0.000390  -0.000300   0.000040
   13  C  2  Y    0.000009  -0.001304   0.000051  -0.000458   0.000006
   14  C  2  Z   -0.000130   0.000231   0.000058   0.000367  -0.000005
   15  C  2  S    0.001619   0.020768   0.001628  -0.007899  -0.000126
   16  C  2  X    0.000758  -0.018424   0.002412   0.005162  -0.000326
   17  C  2  Y    0.001288  -0.006144  -0.000148  -0.000261  -0.000015
   18  C  2  Z   -0.000225  -0.010556  -0.000606   0.007582  -0.000305
   19  C  3  S    0.000082   0.000224   0.000289  -0.001028   0.000025
   20  C  3  S    0.000785   0.000803   0.001067  -0.004429   0.000088
   21  C  3  X    0.000252  -0.000402  -0.000639  -0.000420  -0.000177
   22  C  3  Y   -0.000151  -0.000039   0.000185   0.000825  -0.000021
   23  C  3  Z    0.000294  -0.000833   0.000392  -0.000871  -0.000033
   24  C  3  S   -0.001572  -0.004725  -0.008912   0.024711  -0.001267
   25  C  3  X   -0.000027   0.009638  -0.002964  -0.010687   0.000098
   26  C  3  Y    0.001101   0.004501  -0.000557  -0.005285   0.000395
   27  C  3  Z   -0.002966   0.005716   0.003066  -0.010971   0.000667
   28  H  4  S   -0.000298  -0.000889   0.000808  -0.000506  -0.000065
   29  H  4  S    0.000833  -0.001880   0.000295   0.000687   0.000028
   30  O  5  S    0.000063  -0.004300   0.004260   0.983586   0.001109
   31  O  5  S    0.000096  -0.001131   0.000664   0.098769  -0.000003
   32  O  5  X   -0.000012  -0.000400   0.000145   0.000867  -0.000015
   33  O  5  Y    0.000068  -0.000157  -0.000114  -0.002237   0.000013
   34  O  5  Z    0.000047  -0.000088  -0.000355   0.002768  -0.000015
   35  O  5  S   -0.000689   0.004340   0.000057  -0.048410   0.000442
   36  O  5  X   -0.000202   0.002694  -0.000234  -0.004389   0.000175
   37  O  5  Y   -0.000245   0.000280   0.000292   0.005159  -0.000089
   38  O  5  Z   -0.000289   0.001688   0.001726  -0.008531   0.000179
   39  C  6  S    0.000179  -0.000006  -0.001046   0.000300  -0.000022
   40  C  6  S    0.000513  -0.000010  -0.004708   0.001248  -0.000137
   41  C  6  X   -0.000849  -0.000035  -0.000160   0.000268   0.000242
   42  C  6  Y   -0.000303   0.000363  -0.000114  -0.000341  -0.000061
   43  C  6  Z   -0.000756   0.000030  -0.001498  -0.000091  -0.000092
   44  C  6  S   -0.005755  -0.000485   0.023715  -0.008078   0.001817
   45  C  6  X   -0.000869  -0.001293   0.000393   0.005117  -0.000803
   46  C  6  Y   -0.004839  -0.003581   0.011473  -0.000296   0.000756
   47  C  6  Z    0.002189  -0.001184  -0.008616   0.001375   0.001245
   48  H  7  S   -0.000398  -0.000073  -0.000718   0.000714   0.000018
   49  H  7  S   -0.000444  -0.002500   0.001078   0.000667   0.000193
   50  O  8  S    0.000223  -0.003417   0.983555  -0.004237   0.000225
   51  O  8  S    0.000149  -0.000507   0.098462  -0.000164  -0.000018
   52  O  8  X    0.000484   0.000043  -0.002524  -0.000129  -0.000010
   53  O  8  Y    0.000359  -0.000066  -0.000829   0.000218   0.000048
   54  O  8  Z    0.000214  -0.000122   0.002582  -0.000183   0.000013
   55  O  8  S    0.001337   0.000663  -0.047134  -0.000214   0.000170
   56  O  8  X   -0.001940  -0.000070   0.005640   0.000661   0.000105
   57  O  8  Y   -0.001660   0.000352   0.003124  -0.001073  -0.000229
   58  O  8  Z    0.000004   0.000610  -0.008521   0.001233  -0.000010
   59  C  9  S   -0.000949   0.000020   0.000203  -0.000060  -0.000141
   60  C  9  S   -0.004183   0.000267   0.000619  -0.000448  -0.000936
   61  C  9  X    0.000188  -0.000380   0.000780   0.000789  -0.000558
   62  C  9  Y    0.001335   0.000206   0.000456  -0.000160  -0.000148
   63  C  9  Z    0.000440   0.000084   0.000469  -0.000255  -0.000083
   64  C  9  S    0.021117   0.001293  -0.006433  -0.001024   0.003043
   65  C  9  X   -0.000177   0.001534   0.002113  -0.004793   0.004234
   66  C  9  Y    0.012753  -0.001467  -0.004320   0.002131   0.000949
   67  C  9  Z   -0.006730  -0.001919   0.004293   0.001807   0.000488
   68  H 10  S   -0.000756  -0.000090  -0.000441  -0.000459  -0.000380
   69  H 10  S    0.000638   0.001355  -0.000232  -0.000391  -0.000024
   70  O 11  S    0.983260   0.000094  -0.000234  -0.000032  -0.000041
   71  O 11  S    0.099308  -0.000141   0.000104   0.000102   0.000152
   72  O 11  X   -0.000784  -0.000007  -0.000231  -0.000038  -0.000053
   73  O 11  Y   -0.003103   0.000029   0.000152  -0.000039  -0.000021
   74  O 11  Z   -0.002040  -0.000029  -0.000283   0.000128   0.000062
   75  O 11  S   -0.046667   0.000648   0.000882  -0.000648  -0.000980
   76  O 11  X    0.001698  -0.000184   0.000832   0.000470  -0.000149
   77  O 11  Y    0.010195  -0.000289  -0.001639   0.000434   0.000535
   78  O 11  Z    0.003976   0.000230   0.001333  -0.000610  -0.000306
   79  C 12  S    0.000144   0.000073   0.000088  -0.000110   0.000202
   80  C 12  S    0.000292   0.000428   0.000702  -0.000622   0.000898
   81  C 12  X    0.000453   0.000016  -0.000349  -0.000234  -0.000573
   82  C 12  Y   -0.000178  -0.000014  -0.000128  -0.000051  -0.000187
   83  C 12  Z   -0.000522   0.000072   0.000107  -0.000130   0.000085
   84  C 12  S   -0.004154  -0.002661  -0.001245   0.004833  -0.007951
   85  C 12  X    0.001673   0.001050   0.001391  -0.000609  -0.002659
   86  C 12  Y   -0.004846  -0.000333   0.002604   0.001341  -0.002547
   87  C 12  Z    0.002965  -0.000724  -0.001353   0.001778  -0.002783
   88  H 13  S    0.000969   0.000081  -0.000306  -0.000074   0.000363
   89  H 13  S    0.001025  -0.000082  -0.000179   0.000231  -0.000845
   90  O 14  S    0.000038  -0.000321  -0.002276   0.000569   0.126894
   91  O 14  S    0.000111  -0.000116  -0.000637   0.000126   0.012914
   92  O 14  X    0.000330   0.000023   0.000028  -0.000017   0.000530
   93  O 14  Y   -0.000124   0.000012  -0.000083   0.000000   0.000233
   94  O 14  Z   -0.000083   0.000019   0.000054   0.000027  -0.000066
   95  O 14  S   -0.001278   0.000397   0.001833  -0.000338  -0.006132
   96  O 14  X   -0.001333  -0.000101  -0.000141   0.000019  -0.001484
   97  O 14  Y   -0.000067   0.000146   0.000874  -0.000191   0.000013
   98  O 14  Z    0.000294  -0.000056  -0.000303  -0.000145   0.000210
   99  C 15  S    0.000044  -0.000023   0.000008   0.000043  -0.000828
  100  C 15  S    0.000367  -0.000119   0.000059   0.000172  -0.003342
  101  C 15  X   -0.000067  -0.000017  -0.000040   0.000140   0.001380
  102  C 15  Y   -0.000131  -0.000001   0.000027  -0.000002  -0.000678
  103  C 15  Z    0.000216  -0.000047  -0.000113   0.000042  -0.000236
  104  C 15  S   -0.000759   0.000634  -0.000456  -0.001751   0.019253
  105  C 15  X    0.000176  -0.000316   0.000362   0.000482   0.004003
  106  C 15  Y    0.000996  -0.000149  -0.000489   0.000633  -0.007535
  107  C 15  Z   -0.001937   0.000227   0.001215   0.000245  -0.003785
  108  O 16  S    0.000071   0.000147   0.000055  -0.001219   0.975236
  109  O 16  S    0.000081   0.000046   0.000016  -0.000238   0.096704
  110  O 16  X   -0.000073  -0.000026   0.000008   0.000041  -0.000574
  111  O 16  Y    0.000026  -0.000010  -0.000018  -0.000008   0.002442
  112  O 16  Z   -0.000121  -0.000005   0.000038   0.000006   0.002380
  113  O 16  S   -0.000137  -0.000085  -0.000046   0.000482  -0.042939
  114  O 16  X    0.000279   0.000128  -0.000022  -0.000290   0.003484
  115  O 16  Y   -0.000111   0.000037   0.000075   0.000086  -0.006001
  116  O 16  Z    0.000527   0.000007  -0.000195   0.000005  -0.005046
  117  H 17  S   -0.000167   0.000529  -0.000396  -0.000816   0.000041
  118  H 17  S    0.000045   0.004565  -0.000440  -0.002399   0.000278
  119  H 18  S   -0.000033  -0.000786   0.000096   0.003050  -0.000045
  120  H 18  S   -0.000077   0.002720  -0.000137   0.005712   0.000086
  121  H 19  S   -0.000328  -0.000046   0.003144  -0.000594  -0.000002
  122  H 19  S   -0.000520   0.000198   0.005962   0.003516   0.000093
  123  H 20  S    0.002975   0.000104  -0.000502   0.000009  -0.000117
  124  H 20  S    0.005859  -0.000014   0.003288  -0.000431   0.000036
  125  H 21  S    0.000411  -0.000008  -0.000090   0.000002  -0.000151
  126  H 21  S   -0.000131  -0.000015   0.000310   0.000087   0.003171
  127  H 22  S   -0.000513  -0.000023   0.000205   0.000045  -0.001096
  128  H 22  S    0.000228   0.000059   0.000177  -0.000106  -0.000315
  129  H 23  S    0.000461  -0.000043  -0.000031   0.000059  -0.001121
  130  H 23  S    0.000672  -0.000292  -0.000731   0.000178  -0.001476
  131  H 24  S   -0.000155  -0.000031   0.000048   0.000010   0.002809
  132  H 24  S    0.000013   0.000005  -0.000066   0.000029   0.005003

                      6          7          8          9         10
                  -20.6165   -11.4860   -11.4472   -11.4458   -11.4324
                     A          A          A          A          A   
    1  O  1  S    0.000322   0.000030  -0.000008   0.000086   0.000044
    2  O  1  S   -0.000039   0.000287  -0.000100   0.000879   0.000061
    3  O  1  X   -0.000024   0.000000   0.000150  -0.000373  -0.000257
    4  O  1  Y    0.000012   0.000021  -0.000007  -0.000212  -0.000043
    5  O  1  Z    0.000022   0.000067  -0.000132   0.000062  -0.000222
    6  O  1  S    0.000239  -0.001221  -0.000133  -0.000569  -0.001912
    7  O  1  X    0.000145  -0.000178   0.000036  -0.003040  -0.000522
    8  O  1  Y   -0.000021  -0.000132   0.000154  -0.001442  -0.001338
    9  O  1  Z   -0.000090  -0.000406   0.000705  -0.001539   0.002075
   10  C  2  S    0.000016   0.001425  -0.160249   0.973708   0.009868
   11  C  2  S    0.000144   0.000706  -0.017227   0.093601  -0.001863
   12  C  2  X    0.000099   0.000171  -0.000714  -0.000445   0.000353
   13  C  2  Y   -0.000002   0.000084  -0.000331  -0.000255   0.000039
   14  C  2  Z   -0.000119  -0.000063   0.000594  -0.000738  -0.000032
   15  C  2  S    0.000121  -0.002027   0.014282  -0.052006   0.026641
   16  C  2  X    0.000072  -0.002128   0.002717  -0.009993   0.005242
   17  C  2  Y    0.000293  -0.001560   0.003507  -0.006938   0.009934
   18  C  2  Z    0.000300   0.001400  -0.002497   0.002200  -0.014246
   19  C  3  S    0.000006  -0.002946  -0.007013  -0.011707   0.985953
   20  C  3  S    0.000127  -0.001186  -0.003588  -0.002944   0.105843
   21  C  3  X    0.000114  -0.000958   0.000758   0.000095   0.000749
   22  C  3  Y   -0.000111   0.000381  -0.000608   0.000071  -0.001068
   23  C  3  Z    0.000045  -0.000016  -0.000001  -0.000444   0.000100
   24  C  3  S    0.000011   0.000478   0.023041   0.016794  -0.097908
   25  C  3  X   -0.000354  -0.000170   0.015897  -0.001582  -0.004695
   26  C  3  Y    0.000920  -0.003181   0.001885  -0.004418   0.012617
   27  C  3  Z   -0.000664   0.001504  -0.010086   0.008758  -0.002265
   28  H  4  S    0.000041  -0.000367  -0.001552  -0.001732   0.000803
   29  H  4  S   -0.000637   0.002358  -0.002916   0.000744   0.013619
   30  O  5  S   -0.000691  -0.000033   0.000066  -0.000011  -0.000269
   31  O  5  S    0.000012  -0.000315   0.000310  -0.000370  -0.001020
   32  O  5  X   -0.000005  -0.000116   0.000021  -0.000271   0.000228
   33  O  5  Y    0.000042   0.000060   0.000256   0.000185  -0.000030
   34  O  5  Z    0.000004  -0.000054  -0.000145  -0.000402   0.000424
   35  O  5  S   -0.000381   0.001045  -0.002334   0.000266   0.010402
   36  O  5  X   -0.000105   0.000688  -0.002124   0.001087   0.003533
   37  O  5  Y   -0.000167  -0.000068  -0.000817  -0.000215  -0.001196
   38  O  5  Z   -0.000111   0.000335   0.000143   0.000780   0.003220
   39  C  6  S    0.000157  -0.004808   0.975304   0.160032   0.007162
   40  C  6  S    0.001069  -0.003732   0.105289   0.015375  -0.002174
   41  C  6  X    0.000233   0.000850   0.000221   0.001201  -0.000256
   42  C  6  Y    0.000144  -0.000117   0.001705   0.000624   0.000150
   43  C  6  Z   -0.000227   0.000136   0.000918  -0.000883   0.000561
   44  C  6  S   -0.003731   0.026281  -0.097718  -0.011242   0.024284
   45  C  6  X   -0.001698   0.012162  -0.001173  -0.004472  -0.016390
   46  C  6  Y   -0.002227   0.006506  -0.014221  -0.002903   0.002035
   47  C  6  Z    0.001799   0.006968  -0.008981   0.003649   0.003984
   48  H  7  S   -0.000329  -0.001275   0.000444  -0.001296  -0.001477
   49  H  7  S    0.000272   0.001138   0.011110   0.003398  -0.001457
   50  O  8  S    0.002158   0.000050  -0.000314  -0.000110   0.000041
   51  O  8  S   -0.000213  -0.000002  -0.001334  -0.000773   0.000023
   52  O  8  X   -0.000004  -0.000472  -0.000220  -0.000097  -0.000007
   53  O  8  Y    0.000100   0.000057  -0.000250  -0.000018  -0.000104
   54  O  8  Z   -0.000053  -0.000597   0.000389  -0.000157  -0.000391
   55  O  8  S    0.001846  -0.002113   0.012324   0.004143  -0.001668
   56  O  8  X    0.000006   0.001307   0.000434   0.000438   0.001279
   57  O  8  Y   -0.000651   0.000030  -0.001590  -0.000674   0.000625
   58  O  8  Z    0.000863   0.000395   0.005606   0.002209   0.000114
   59  C  9  S    0.000148   0.988265   0.003790  -0.000673   0.002672
   60  C  9  S    0.000341   0.105787  -0.003077   0.000052  -0.000618
   61  C  9  X   -0.000374  -0.000032  -0.000432  -0.000490   0.001256
   62  C  9  Y    0.000247   0.000630  -0.000244  -0.000113   0.000052
   63  C  9  Z    0.000565  -0.001068  -0.000103   0.000181  -0.000106
   64  C  9  S   -0.004841  -0.096687   0.028216   0.002615  -0.001368
   65  C  9  X   -0.004195  -0.000766  -0.015640   0.000886  -0.006668
   66  C  9  Y    0.004412   0.006014  -0.002212   0.000522   0.002472
   67  C  9  Z   -0.003892   0.010405  -0.009371  -0.003544   0.000871
   68  H 10  S    0.000898   0.000701  -0.001312   0.000398  -0.000193
   69  H 10  S    0.001837   0.014182   0.000944   0.001015  -0.000640
   70  O 11  S    0.000012  -0.000263   0.000053   0.000009   0.000065
   71  O 11  S    0.000081  -0.000993   0.000018   0.000009   0.000651
   72  O 11  X   -0.000248  -0.000200   0.000307   0.000142  -0.000344
   73  O 11  Y    0.000123  -0.000506   0.000461   0.000107  -0.000121
   74  O 11  Z   -0.000027  -0.000030   0.000201  -0.000007   0.000117
   75  O 11  S   -0.001147   0.010718  -0.002700  -0.000623  -0.001764
   76  O 11  X    0.001091   0.000698  -0.000082  -0.000567   0.001718
   77  O 11  Y   -0.000004  -0.004817   0.000419  -0.000042   0.000804
   78  O 11  Z    0.000262   0.000424  -0.000279   0.000221  -0.000551
   79  C 12  S   -0.001024  -0.003450  -0.007165  -0.001239  -0.067125
   80  C 12  S   -0.004593  -0.003567  -0.001397  -0.000193  -0.008409
   81  C 12  X    0.000157  -0.000482   0.001073   0.000444   0.000580
   82  C 12  Y   -0.001456  -0.000124   0.000113   0.000076   0.000063
   83  C 12  Z   -0.000328   0.000147   0.000035   0.000076   0.000055
   84  C 12  S    0.023517   0.027229  -0.000671  -0.001845   0.011594
   85  C 12  X   -0.000745  -0.013420  -0.003070  -0.001465  -0.005432
   86  C 12  Y   -0.010992   0.008161  -0.002519  -0.001957   0.000156
   87  C 12  Z    0.008465   0.002542   0.000685  -0.000407   0.000907
   88  H 13  S   -0.000961  -0.001878  -0.000111  -0.000046  -0.000630
   89  H 13  S    0.000945  -0.000456   0.000852   0.000328  -0.000473
   90  O 14  S    0.975323   0.000013   0.000062   0.000024   0.000051
   91  O 14  S    0.097358  -0.000236   0.000588   0.000228   0.000308
   92  O 14  X    0.002554   0.000382  -0.000270  -0.000109   0.000002
   93  O 14  Y    0.002764  -0.000528   0.000116   0.000034   0.000006
   94  O 14  Z   -0.000954  -0.000112  -0.000037  -0.000060   0.000006
   95  O 14  S   -0.046101  -0.000543  -0.001976  -0.000831  -0.001947
   96  O 14  X   -0.005333  -0.000802   0.001275   0.000490   0.000254
   97  O 14  Y   -0.009086   0.000848  -0.000960  -0.000359  -0.000970
   98  O 14  Z    0.002484   0.000345   0.000294   0.000307   0.000204
   99  C 15  S    0.000266  -0.002040  -0.002372  -0.000382  -0.000929
  100  C 15  S    0.000782  -0.001175  -0.001385  -0.000308  -0.000264
  101  C 15  X    0.000667   0.000879   0.000348  -0.000068   0.000099
  102  C 15  Y    0.000558  -0.000144  -0.000177  -0.000030  -0.000011
  103  C 15  Z    0.000463  -0.000019   0.000003   0.000000   0.000056
  104  C 15  S   -0.007741   0.000382   0.004464   0.002059   0.000329
  105  C 15  X    0.000509  -0.000699  -0.003253  -0.000698   0.000123
  106  C 15  Y    0.004666   0.000770   0.000932  -0.000211   0.000164
  107  C 15  Z   -0.001232   0.001450  -0.001071  -0.000796  -0.000608
  108  O 16  S   -0.126855  -0.000047  -0.000016   0.000007  -0.000005
  109  O 16  S   -0.012306  -0.000482  -0.000166   0.000051  -0.000047
  110  O 16  X   -0.000276   0.000355   0.000040  -0.000000   0.000052
  111  O 16  Y   -0.000579  -0.000044  -0.000035   0.000017   0.000025
  112  O 16  Z   -0.000623   0.000184  -0.000023  -0.000007   0.000024
  113  O 16  S    0.005750   0.001467   0.000629  -0.000245   0.000095
  114  O 16  X    0.000588  -0.001728  -0.000198   0.000098  -0.000248
  115  O 16  Y    0.001955   0.000292   0.000201  -0.000122  -0.000125
  116  O 16  Z    0.001965  -0.000687   0.000187   0.000025  -0.000082
  117  H 17  S    0.000011   0.000609  -0.000106  -0.001109  -0.001018
  118  H 17  S   -0.000181  -0.001223  -0.002233   0.013030   0.003093
  119  H 18  S    0.000003  -0.000169  -0.000297  -0.000460  -0.000774
  120  H 18  S   -0.000058   0.000268  -0.000400   0.002112   0.002923
  121  H 19  S   -0.000090   0.000665  -0.000403  -0.000077  -0.000055
  122  H 19  S    0.000269   0.001017   0.002577   0.001349   0.001418
  123  H 20  S   -0.000171  -0.000114  -0.000501  -0.000130   0.000352
  124  H 20  S    0.000550   0.003071   0.001808   0.000577  -0.000965
  125  H 21  S    0.003158   0.000500  -0.000168  -0.000039   0.000109
  126  H 21  S    0.005365   0.001433  -0.000406  -0.000261  -0.000128
  127  H 22  S   -0.000272  -0.000153  -0.000498  -0.000125   0.000005
  128  H 22  S   -0.000147  -0.000318  -0.000736  -0.000181  -0.000357
  129  H 23  S    0.000837  -0.000213  -0.000517  -0.000066  -0.000007
  130  H 23  S    0.001106  -0.001322   0.000540   0.000162   0.000414
  131  H 24  S   -0.000907   0.000320  -0.000121   0.000004   0.000072
  132  H 24  S   -0.000917   0.000499   0.000448   0.000049   0.000045

                     11         12         13         14         15
                  -11.4309   -11.4004    -1.7973    -1.5985    -1.5575
                     A          A          A          A          A   
    1  O  1  S    0.000028  -0.000005  -0.000065  -0.202742   0.068021
    2  O  1  S    0.000222  -0.000039   0.000492   0.194092  -0.065001
    3  O  1  X   -0.000008  -0.000009   0.000174   0.095910  -0.030460
    4  O  1  Y   -0.000013   0.000009   0.000034   0.055486  -0.015454
    5  O  1  Z   -0.000005  -0.000008  -0.000042   0.012632  -0.007549
    6  O  1  S   -0.001232   0.000205  -0.001937   0.645660  -0.224117
    7  O  1  X   -0.000279   0.000092  -0.000698   0.111203  -0.036795
    8  O  1  Y   -0.000217  -0.000016   0.000074   0.067054  -0.020297
    9  O  1  Z    0.000078   0.000033   0.000015   0.009269  -0.009253
   10  C  2  S    0.000756  -0.000004  -0.000378  -0.105115   0.025638
   11  C  2  S   -0.000078   0.000045   0.000708   0.115956  -0.024969
   12  C  2  X   -0.000008  -0.000019   0.000273  -0.109713   0.043857
   13  C  2  Y   -0.000059  -0.000048   0.000413  -0.051060   0.027421
   14  C  2  Z    0.000157   0.000049   0.000066  -0.038111  -0.000701
   15  C  2  S    0.001299  -0.000574  -0.002506   0.089059  -0.027715
   16  C  2  X   -0.001368  -0.000012  -0.003080   0.049651  -0.029400
   17  C  2  Y    0.000243   0.000211  -0.002959   0.020109  -0.008982
   18  C  2  Z   -0.001660   0.000086  -0.001652   0.021444  -0.009050
   19  C  3  S    0.066703   0.001153  -0.003253  -0.040891  -0.044707
   20  C  3  S    0.006019  -0.000260   0.002983   0.038000   0.047102
   21  C  3  X   -0.000403  -0.000044   0.002070  -0.021863  -0.001146
   22  C  3  Y   -0.000050   0.000089   0.000864  -0.014477   0.000997
   23  C  3  Z   -0.000190   0.000025  -0.001243  -0.004537  -0.037908
   24  C  3  S   -0.002290   0.001737  -0.000406   0.080452   0.081439
   25  C  3  X    0.003957   0.000510   0.001918  -0.019655   0.014115
   26  C  3  Y   -0.000146  -0.000936  -0.002867  -0.020540   0.006592
   27  C  3  Z    0.000723  -0.000826   0.007757  -0.018761   0.006612
   28  H  4  S   -0.000723  -0.000064   0.002823   0.013056   0.012431
   29  H  4  S    0.001786   0.000529   0.004849   0.000605  -0.007978
   30  O  5  S   -0.000046   0.000005  -0.001309  -0.064590  -0.093799
   31  O  5  S   -0.000334   0.000019   0.000806   0.061702   0.084984
   32  O  5  X    0.000026  -0.000028   0.000766   0.004470   0.013277
   33  O  5  Y   -0.000002   0.000015  -0.000301  -0.017451  -0.018625
   34  O  5  Z   -0.000028   0.000005   0.000243   0.020594   0.019468
   35  O  5  S    0.001852  -0.000243   0.006501   0.184772   0.298017
   36  O  5  X    0.000268  -0.000010   0.000769   0.001078   0.021798
   37  O  5  Y   -0.000083   0.000016   0.000150  -0.020148  -0.024664
   38  O  5  Z    0.000681  -0.000100   0.001656   0.021053   0.024338
   39  C  6  S    0.007717   0.002094  -0.012973  -0.016563  -0.073100
   40  C  6  S   -0.000018  -0.000993   0.011936   0.020117   0.074840
   41  C  6  X   -0.001046  -0.000443   0.010483  -0.008983  -0.003752
   42  C  6  Y    0.000142   0.000143   0.010888   0.004811   0.035594
   43  C  6  Z   -0.000016  -0.000036   0.004600  -0.003893  -0.049215
   44  C  6  S   -0.000604   0.004831   0.026488   0.019467   0.131613
   45  C  6  X    0.001954   0.004986  -0.003123   0.013445  -0.006627
   46  C  6  Y    0.000043  -0.000024   0.022585   0.015054  -0.001624
   47  C  6  Z   -0.001154   0.000855  -0.008293  -0.003513   0.010561
   48  H  7  S   -0.000445  -0.000670   0.004213   0.007001   0.019772
   49  H  7  S    0.000658   0.000211   0.002359   0.006471  -0.009315
   50  O  8  S    0.000047   0.000014  -0.012001  -0.028095  -0.179962
   51  O  8  S    0.000475   0.000086   0.010476   0.026745   0.165343
   52  O  8  X    0.000321   0.000034  -0.000646  -0.008497  -0.045858
   53  O  8  Y   -0.000069  -0.000053   0.000832  -0.001991  -0.011753
   54  O  8  Z    0.000083  -0.000011   0.006489   0.007862   0.040877
   55  O  8  S   -0.001350  -0.000546   0.030873   0.082536   0.566279
   56  O  8  X   -0.001370  -0.000329   0.005265  -0.011876  -0.058003
   57  O  8  Y    0.000418   0.000354   0.007564  -0.002494  -0.014452
   58  O  8  Z   -0.000601  -0.000246   0.006440   0.006672   0.059794
   59  C  9  S    0.002587   0.001945  -0.053839  -0.002790  -0.015618
   60  C  9  S   -0.003033  -0.000985   0.062750   0.002461   0.015165
   61  C  9  X    0.000266  -0.001185  -0.001282  -0.003462  -0.016259
   62  C  9  Y   -0.000073  -0.000234   0.057171  -0.002705  -0.013225
   63  C  9  Z    0.000185  -0.000372  -0.014238  -0.002607  -0.014345
   64  C  9  S    0.027765  -0.000172   0.044958   0.002567   0.034035
   65  C  9  X    0.016240   0.004266   0.002627   0.000774   0.014223
   66  C  9  Y   -0.006788   0.002217  -0.040954   0.001060   0.006908
   67  C  9  Z   -0.004251   0.003008   0.016272   0.005772  -0.024913
   68  H 10  S   -0.001906  -0.000167   0.012499   0.001335   0.006548
   69  H 10  S    0.001196  -0.002059  -0.010920  -0.005359   0.005453
   70  O 11  S    0.000014   0.000042  -0.236889   0.005646   0.026312
   71  O 11  S   -0.000214   0.000316   0.235161  -0.005630  -0.025785
   72  O 11  X   -0.000066   0.000013  -0.018909  -0.000866  -0.003780
   73  O 11  Y    0.000307  -0.000037  -0.057497  -0.000491  -0.004197
   74  O 11  Z    0.000254   0.000032  -0.052451   0.000598   0.000153
   75  O 11  S   -0.000633  -0.001249   0.761982  -0.019698  -0.097057
   76  O 11  X   -0.000807  -0.000530  -0.026108  -0.000803  -0.006012
   77  O 11  Y    0.000352   0.000638  -0.094883   0.001063   0.003829
   78  O 11  Z   -0.000717  -0.000418  -0.067852   0.000768   0.004616
   79  C 12  S    0.986013   0.004149  -0.009208  -0.000971  -0.009718
   80  C 12  S    0.105820  -0.001928   0.009410   0.001232   0.012703
   81  C 12  X   -0.000627   0.000001  -0.008755  -0.001079  -0.003820
   82  C 12  Y    0.000804   0.000079   0.007270  -0.000348  -0.003331
   83  C 12  Z    0.001092  -0.000209   0.004125  -0.000201   0.000519
   84  C 12  S   -0.098684   0.021194   0.012584   0.002925  -0.000505
   85  C 12  X    0.002323   0.012188   0.003166   0.001629   0.004167
   86  C 12  Y   -0.008473   0.005080   0.019448   0.001226  -0.009147
   87  C 12  Z   -0.010544   0.006507  -0.014232   0.001133   0.003769
   88  H 13  S    0.000894  -0.001258   0.000089   0.000636   0.004996
   89  H 13  S    0.013636   0.001526  -0.005628   0.000293   0.006998
   90  O 14  S   -0.000294   0.000014  -0.002165  -0.001215  -0.015098
   91  O 14  S   -0.001296  -0.000213   0.001319   0.001085   0.014414
   92  O 14  X    0.000237  -0.000146  -0.000845   0.000117   0.002746
   93  O 14  Y    0.000414  -0.000439   0.001569   0.000413   0.004740
   94  O 14  Z   -0.000314  -0.000111   0.000106  -0.000128  -0.001400
   95  O 14  S    0.011436  -0.000905   0.011973   0.003922   0.044448
   96  O 14  X   -0.000771  -0.000442   0.004622   0.000116   0.003445
   97  O 14  Y    0.005234   0.000381   0.002104   0.000669   0.004396
   98  O 14  Z    0.000179   0.000099  -0.001538  -0.000255  -0.001366
   99  C 15  S   -0.005170   0.987668  -0.002300  -0.000049  -0.003028
  100  C 15  S   -0.003773   0.101722   0.001770   0.000682   0.003837
  101  C 15  X   -0.000627  -0.000786  -0.001604  -0.000181  -0.001309
  102  C 15  Y    0.000150  -0.000099   0.000435  -0.000104  -0.002104
  103  C 15  Z   -0.000362  -0.000077  -0.001444  -0.000017  -0.001054
  104  C 15  S    0.027421  -0.079926   0.001161  -0.002712   0.005740
  105  C 15  X   -0.012948   0.009523  -0.003940   0.001711   0.002066
  106  C 15  Y   -0.007610   0.002082  -0.003034   0.000196  -0.000165
  107  C 15  Z   -0.004298   0.002336   0.008718   0.000265  -0.001836
  108  O 16  S    0.000080  -0.000197  -0.000523  -0.000192  -0.004903
  109  O 16  S    0.000393  -0.000451   0.000093   0.000188   0.004865
  110  O 16  X    0.000393  -0.000455  -0.000154  -0.000051  -0.000866
  111  O 16  Y   -0.000107   0.000419   0.000009   0.000043   0.000997
  112  O 16  Z    0.000173   0.000267   0.000202   0.000035   0.000938
  113  O 16  S   -0.002779   0.007704   0.003018   0.000544   0.013778
  114  O 16  X    0.000216  -0.002608  -0.000850  -0.000053  -0.000012
  115  O 16  Y   -0.000053   0.001514   0.001293  -0.000045   0.000334
  116  O 16  Z   -0.000820   0.000346  -0.000687   0.000055   0.001540
  117  H 17  S    0.000190  -0.000102   0.000593   0.020716  -0.003092
  118  H 17  S    0.000773   0.000398   0.001373  -0.023759   0.009617
  119  H 18  S   -0.000190  -0.000024   0.000235   0.034140   0.033121
  120  H 18  S    0.000384   0.000032  -0.000031   0.001804   0.000511
  121  H 19  S   -0.000282  -0.000055   0.003477   0.014253   0.076889
  122  H 19  S   -0.000146   0.000186   0.000274  -0.000981   0.005706
  123  H 20  S   -0.000697   0.000252   0.078658  -0.000637   0.001471
  124  H 20  S    0.000170  -0.000719  -0.015165   0.000730   0.004960
  125  H 21  S   -0.000266  -0.000504  -0.000877   0.000411   0.006162
  126  H 21  S    0.002307   0.001676   0.000265   0.000007  -0.001278
  127  H 22  S   -0.001346   0.000144   0.001569   0.000177   0.000954
  128  H 22  S    0.001806   0.014653   0.005210  -0.000033  -0.001992
  129  H 23  S   -0.001839   0.000519  -0.000560   0.000197   0.001367
  130  H 23  S   -0.000785   0.014820  -0.003240   0.000365   0.000184
  131  H 24  S    0.000425  -0.000493   0.000155   0.000100   0.001872
  132  H 24  S    0.001023   0.001979   0.000237  -0.000198  -0.000328

                     16         17         18         19         20
                   -1.5263    -1.5088    -1.4842    -1.2938    -1.2204
                     A          A          A          A          A   
    1  O  1  S   -0.009267   0.053767  -0.001648   0.011453   0.028852
    2  O  1  S    0.008661  -0.051179   0.001694  -0.011945  -0.028938
    3  O  1  X    0.004007  -0.022715   0.000665   0.001432   0.009377
    4  O  1  Y    0.001699  -0.008833   0.000242   0.000500   0.006192
    5  O  1  Z    0.001480  -0.010055   0.000363  -0.001755  -0.004090
    6  O  1  S    0.032425  -0.185239   0.005009  -0.035996  -0.099576
    7  O  1  X    0.005421  -0.031131   0.000741   0.000761   0.005303
    8  O  1  Y    0.002645  -0.012876   0.000195   0.000686   0.003434
    9  O  1  Z    0.001695  -0.011191   0.000358  -0.001369  -0.004060
   10  C  2  S   -0.002815   0.013604  -0.000232  -0.017819  -0.050740
   11  C  2  S    0.002888  -0.016137   0.000158   0.024229   0.065694
   12  C  2  X   -0.005958   0.034344  -0.001209   0.025146   0.058759
   13  C  2  Y   -0.004668   0.029663  -0.001039   0.018797   0.049575
   14  C  2  Z    0.001061  -0.008701   0.000389  -0.011740  -0.029826
   15  C  2  S    0.001567  -0.005661   0.001670   0.015072   0.069317
   16  C  2  X    0.006260  -0.028709   0.000066   0.009360   0.017289
   17  C  2  Y    0.001110  -0.005627   0.000370  -0.003140   0.001710
   18  C  2  Z    0.004399  -0.024059  -0.000203   0.007472   0.016883
   19  C  3  S    0.008891  -0.055258   0.001905  -0.052099  -0.117761
   20  C  3  S   -0.009277   0.058904  -0.002343   0.054815   0.109676
   21  C  3  X    0.006681  -0.053813   0.001565   0.041633   0.051715
   22  C  3  Y   -0.000704   0.004427  -0.000091  -0.014754  -0.027648
   23  C  3  Z    0.007675  -0.042553   0.000714   0.014558   0.040130
   24  C  3  S   -0.014532   0.104784  -0.002265   0.120534   0.347078
   25  C  3  X   -0.005558   0.025490   0.002094  -0.005232   0.023570
   26  C  3  Y   -0.002549   0.002995   0.002589  -0.009205  -0.047369
   27  C  3  Z   -0.003010   0.018245  -0.001321   0.025405   0.028509
   28  H  4  S   -0.001937   0.013991  -0.000928   0.031912   0.068447
   29  H  4  S    0.001021  -0.008027  -0.000988  -0.009446   0.013533
   30  O  5  S    0.026531  -0.187087   0.006034   0.025438   0.054408
   31  O  5  S   -0.023976   0.171734  -0.005645  -0.022333  -0.048255
   32  O  5  X   -0.001382   0.001651   0.000387   0.012912   0.042290
   33  O  5  Y    0.005429  -0.039824   0.001393   0.004155   0.011252
   34  O  5  Z   -0.005968   0.045050  -0.001721   0.008392   0.024475
   35  O  5  S   -0.086123   0.602750  -0.019232  -0.093573  -0.208003
   36  O  5  X   -0.003873   0.013234  -0.000025   0.005050   0.023409
   37  O  5  Y    0.007727  -0.052749   0.001458   0.008194   0.019464
   38  O  5  Z   -0.009260   0.067646  -0.002264  -0.000097   0.005155
   39  C  6  S   -0.001441   0.030847   0.001147  -0.092054  -0.082160
   40  C  6  S    0.003215  -0.032786   0.000096   0.093363   0.074195
   41  C  6  X    0.007607  -0.019086  -0.003866   0.037011  -0.056250
   42  C  6  Y   -0.003069  -0.016349   0.003128   0.009496   0.006753
   43  C  6  Z    0.004298   0.038828  -0.006538   0.068795   0.050639
   44  C  6  S   -0.010821  -0.064965  -0.006927   0.211098   0.240444
   45  C  6  X    0.000638  -0.005184  -0.004802  -0.016200   0.029125
   46  C  6  Y    0.002647  -0.004274  -0.007741   0.012697   0.046500
   47  C  6  Z   -0.005197  -0.014181  -0.000512   0.022823   0.028232
   48  H  7  S    0.002571  -0.009033  -0.001620   0.046584   0.041776
   49  H  7  S    0.007707   0.001113  -0.007648  -0.008253   0.016371
   50  O  8  S    0.006912   0.120034  -0.013622   0.057209   0.039103
   51  O  8  S   -0.006016  -0.109971   0.012030  -0.049954  -0.033385
   52  O  8  X    0.003744   0.022362  -0.004071   0.028383   0.006382
   53  O  8  Y   -0.000556   0.006994   0.000013  -0.013101  -0.008297
   54  O  8  Z   -0.000391  -0.022825   0.001289   0.031904   0.032587
   55  O  8  S   -0.023186  -0.388779   0.046652  -0.212424  -0.157956
   56  O  8  X    0.003577   0.031079  -0.004453   0.026601   0.003125
   57  O  8  Y    0.000268   0.010769  -0.000949  -0.008191  -0.003132
   58  O  8  Z   -0.002931  -0.034681   0.004863   0.003682   0.006151
   59  C  9  S   -0.020764   0.007358   0.014080  -0.150265   0.034551
   60  C  9  S    0.021747  -0.004778  -0.013355   0.146623  -0.030694
   61  C  9  X    0.020927   0.006720  -0.008529  -0.003879  -0.110688
   62  C  9  Y   -0.015082   0.006289   0.010635  -0.034321   0.000974
   63  C  9  Z   -0.004443   0.009765   0.003750  -0.017452  -0.000618
   64  C  9  S    0.039808  -0.010531  -0.023888   0.413901  -0.117014
   65  C  9  X   -0.013234   0.008111  -0.007217  -0.007049  -0.003230
   66  C  9  Y   -0.018480  -0.016465   0.011331  -0.009114  -0.007521
   67  C  9  Z    0.001817   0.010332  -0.013372  -0.027725   0.031959
   68  H 10  S    0.007965  -0.001671  -0.004375   0.080294  -0.015467
   69  H 10  S   -0.003655  -0.002335   0.005794  -0.005756  -0.006566
   70  O 11  S    0.009867  -0.011871  -0.003917   0.052008  -0.008881
   71  O 11  S   -0.010561   0.010391   0.004319  -0.049955   0.006372
   72  O 11  X    0.005357   0.002415  -0.001939   0.011709  -0.081353
   73  O 11  Y   -0.005822   0.002914   0.003915  -0.120394   0.042525
   74  O 11  Z    0.003838   0.002210  -0.002421   0.057140  -0.013056
   75  O 11  S   -0.030569   0.050592   0.011516  -0.219532   0.049431
   76  O 11  X    0.004274   0.000859   0.000271   0.011498  -0.076410
   77  O 11  Y   -0.003480  -0.003158   0.002658  -0.077870   0.030998
   78  O 11  Z    0.005633   0.001503  -0.001687   0.052388  -0.014242
   79  C 12  S   -0.078605  -0.003070   0.036947  -0.074212   0.094500
   80  C 12  S    0.080992   0.004243  -0.041242   0.075733  -0.089233
   81  C 12  X    0.008236   0.004941   0.020813  -0.051004  -0.004210
   82  C 12  Y   -0.050646  -0.004411   0.048879   0.062797  -0.065787
   83  C 12  Z    0.024083   0.003233  -0.009779   0.015773  -0.019537
   84  C 12  S    0.155407   0.000570  -0.066780   0.175319  -0.265708
   85  C 12  X    0.008666   0.007503   0.012963   0.016640   0.013057
   86  C 12  Y    0.016926   0.003659  -0.014355   0.019018  -0.039616
   87  C 12  Z    0.000475  -0.008517   0.003060   0.018944  -0.018249
   88  H 13  S    0.022223  -0.000101  -0.010686   0.036603  -0.045932
   89  H 13  S   -0.011819  -0.007953   0.007397  -0.008658  -0.000474
   90  O 14  S   -0.169793  -0.011710   0.132157   0.059197  -0.047172
   91  O 14  S    0.157580   0.010274  -0.121497  -0.052317   0.041762
   92  O 14  X    0.043038   0.004026  -0.027047  -0.031852   0.018893
   93  O 14  Y    0.041373   0.002094  -0.025792   0.024784  -0.034347
   94  O 14  Z   -0.011377  -0.000507   0.008808   0.002250  -0.000413
   95  O 14  S    0.528993   0.039572  -0.425946  -0.214243   0.178328
   96  O 14  X    0.053398   0.004150  -0.037167  -0.030567   0.014891
   97  O 14  Y    0.057039   0.005398  -0.040777  -0.000666  -0.009905
   98  O 14  Z   -0.016813  -0.000983   0.014106   0.001371  -0.000187
   99  C 15  S   -0.056084  -0.007892  -0.050205  -0.030935   0.071112
  100  C 15  S    0.060923   0.008034   0.054115   0.037741  -0.072385
  101  C 15  X    0.010439   0.004079   0.055039  -0.033876   0.056003
  102  C 15  Y   -0.036111  -0.004928  -0.028934   0.002685  -0.003971
  103  C 15  Z   -0.016788  -0.002247  -0.012346  -0.006358   0.013261
  104  C 15  S    0.087474   0.014632   0.092838   0.044706  -0.175931
  105  C 15  X    0.001813  -0.002296  -0.005345   0.007652   0.019295
  106  C 15  Y   -0.003336  -0.001220   0.014800   0.015884  -0.014338
  107  C 15  Z    0.010078   0.003181  -0.001852   0.001887  -0.000836
  108  O 16  S   -0.121502  -0.020930  -0.185753   0.015398  -0.032440
  109  O 16  S    0.112782   0.019457   0.173181  -0.013445   0.029360
  110  O 16  X   -0.008951  -0.000703   0.005469  -0.010180   0.032149
  111  O 16  Y    0.023802   0.004133   0.039354   0.003608  -0.008961
  112  O 16  Z    0.025633   0.004467   0.039839  -0.003587   0.007014
  113  O 16  S    0.376505   0.065549   0.587628  -0.055344   0.119758
  114  O 16  X   -0.016831  -0.001736  -0.005488  -0.001178   0.019473
  115  O 16  Y    0.029322   0.006005   0.056849   0.000541  -0.002133
  116  O 16  Z    0.031508   0.005604   0.054048  -0.002174   0.008147
  117  H 17  S    0.000215  -0.001338   0.000058   0.011483   0.033650
  118  H 17  S   -0.002609   0.012266  -0.000405   0.000834  -0.002980
  119  H 18  S   -0.010351   0.078059  -0.002797  -0.014925  -0.039414
  120  H 18  S   -0.001001   0.005666  -0.000100  -0.009211  -0.025236
  121  H 19  S   -0.004836  -0.038433   0.005815  -0.040395  -0.026389
  122  H 19  S   -0.002432   0.003933   0.000900  -0.022873  -0.025746
  123  H 20  S   -0.005003  -0.003533   0.002911  -0.051475   0.019184
  124  H 20  S   -0.001968  -0.003955   0.002150  -0.035461   0.003421
  125  H 21  S    0.075009   0.005881  -0.049776  -0.041234   0.034364
  126  H 21  S    0.007044   0.001578   0.000052  -0.020060   0.021988
  127  H 22  S    0.017226   0.002284   0.014634   0.018102  -0.040902
  128  H 22  S   -0.005989   0.000821  -0.007082  -0.008183   0.004364
  129  H 23  S    0.017593   0.002143   0.015540   0.018040  -0.037198
  130  H 23  S   -0.006303  -0.002149  -0.002611   0.001130   0.002945
  131  H 24  S    0.050882   0.008979   0.084542  -0.011329   0.028672
  132  H 24  S    0.006104   0.001454   0.015289  -0.007433   0.014018

                     21         22         23         24         25
                   -1.1456    -1.0829    -1.0473    -1.0126    -0.9865
                     A          A          A          A          A   
    1  O  1  S    0.032451  -0.023487  -0.032402  -0.024596   0.007547
    2  O  1  S   -0.032761   0.023677   0.033225   0.024910  -0.007689
    3  O  1  X    0.017974  -0.018399  -0.031118  -0.025944   0.011868
    4  O  1  Y    0.013664  -0.014600  -0.022128  -0.022758   0.001955
    5  O  1  Z   -0.003588  -0.001487  -0.001144  -0.011049   0.000859
    6  O  1  S   -0.115265   0.086591   0.118192   0.092676  -0.028306
    7  O  1  X    0.012341  -0.013902  -0.025094  -0.020120   0.010263
    8  O  1  Y    0.009162  -0.010616  -0.018227  -0.019674   0.000673
    9  O  1  Z   -0.002843  -0.002282  -0.002021  -0.012177   0.001177
   10  C  2  S   -0.060658   0.046322   0.060699   0.049077  -0.013050
   11  C  2  S    0.073875  -0.053944  -0.070554  -0.053863   0.014259
   12  C  2  X    0.056044  -0.033653  -0.039978  -0.022793   0.010003
   13  C  2  Y    0.053290  -0.034303  -0.035809  -0.027533  -0.003285
   14  C  2  Z   -0.028449   0.008821   0.008858  -0.013635   0.004009
   15  C  2  S    0.118899  -0.110353  -0.151933  -0.140337   0.045916
   16  C  2  X    0.027921  -0.021893  -0.038387  -0.030672   0.013534
   17  C  2  Y    0.016277  -0.021123  -0.024624  -0.025947   0.006373
   18  C  2  Z    0.009127  -0.000307  -0.002189  -0.001285  -0.000606
   19  C  3  S   -0.094350   0.041011   0.023717   0.011936   0.015824
   20  C  3  S    0.084145  -0.030779  -0.018144  -0.007746  -0.012614
   21  C  3  X   -0.005567   0.036760   0.059113   0.059835  -0.008623
   22  C  3  Y   -0.024337   0.002403   0.033755  -0.035769  -0.034120
   23  C  3  Z    0.053030  -0.052354  -0.058278  -0.077321   0.005378
   24  C  3  S    0.317937  -0.180992  -0.105719  -0.065350  -0.068967
   25  C  3  X    0.018154  -0.024810   0.018637   0.001505  -0.004390
   26  C  3  Y   -0.035775   0.007623   0.018439  -0.026178  -0.029172
   27  C  3  Z    0.016769  -0.013186  -0.023672  -0.030232  -0.017741
   28  H  4  S    0.053177  -0.029869  -0.000113  -0.040735  -0.025887
   29  H  4  S    0.008196  -0.005120   0.025614  -0.022523   0.018118
   30  O  5  S    0.040339  -0.016673  -0.010228  -0.000579  -0.002164
   31  O  5  S   -0.035529   0.015325   0.009163   0.000342   0.001815
   32  O  5  X    0.041273  -0.019965   0.001695   0.017977  -0.013063
   33  O  5  Y    0.009932  -0.008719   0.003666  -0.014305  -0.015081
   34  O  5  Z    0.029757  -0.015334  -0.020571  -0.017328  -0.010890
   35  O  5  S   -0.162115   0.067072   0.042766   0.003129   0.009738
   36  O  5  X    0.025158  -0.012961   0.005609   0.021741  -0.012459
   37  O  5  Y    0.014743  -0.008990   0.002474  -0.011173  -0.013747
   38  O  5  Z    0.013173  -0.009239  -0.015035  -0.017438  -0.009956
   39  C  6  S    0.019874  -0.084289  -0.046093  -0.098079  -0.017504
[...]
   15 C            -0.003157                    -0.001739
   16 O            -0.000332                    -0.000238
   17 H             0.034136                     0.019343
   18 H            -0.001942                    -0.001192
   19 H             0.000673                     0.000637
   20 H            -0.045014                    -0.036543
   21 H             0.002152                     0.002022
   22 H            -0.001624                    -0.000324
   23 H             0.000928                     0.000867
   24 H             0.000342                     0.000302


          ********* ALL ELECTRONS ********

               ----- POPULATIONS IN EACH AO -----
                             MULLIKEN      LOWDIN
              1  O  1  S      1.98719     1.98203
              2  O  1  S      0.43805     0.59517
              3  O  1  X      0.62977     0.61731
              4  O  1  Y      0.63579     0.62951
              5  O  1  Z      0.77603     0.77588
              6  O  1  S      1.55784     1.05691
              7  O  1  X      0.73893     0.78263
              8  O  1  Y      0.78304     0.80220
              9  O  1  Z      0.90848     0.92713
             10  C  2  S      1.98724     1.97690
             11  C  2  S      0.42024     0.44266
             12  C  2  X      0.53985     0.52224
             13  C  2  Y      0.45593     0.44027
             14  C  2  Z      0.54680     0.51642
             15  C  2  S      0.74901     0.56030
             16  C  2  X      0.22282     0.42741
             17  C  2  Y      0.33238     0.45741
             18  C  2  Z      0.42287     0.51280
             19  C  3  S      1.99008     1.97571
             20  C  3  S      0.34959     0.42757
             21  C  3  X      0.50131     0.49386
             22  C  3  Y      0.56860     0.54258
             23  C  3  Z      0.49896     0.48484
             24  C  3  S      1.04707     0.56188
             25  C  3  X      0.27961     0.46885
             26  C  3  Y      0.53585     0.56704
             27  C  3  Z      0.29833     0.47714
             28  H  4  S      0.47154     0.48433
             29  H  4  S      0.27596     0.42117
             30  O  5  S      1.98619     1.98031
             31  O  5  S      0.41396     0.57271
             32  O  5  X      0.63254     0.62302
             33  O  5  Y      0.76377     0.76454
             34  O  5  Z      0.68073     0.67955
             35  O  5  S      1.52111     1.03900
             36  O  5  X      0.81039     0.82857
             37  O  5  Y      0.96720     0.96584
             38  O  5  Z      0.89875     0.92386
             39  C  6  S      1.99032     1.97588
             40  C  6  S      0.34823     0.42896
             41  C  6  X      0.52961     0.52096
             42  C  6  Y      0.57598     0.55798
             43  C  6  Z      0.43385     0.42601
             44  C  6  S      1.04681     0.56441
             45  C  6  X      0.25163     0.47958
             46  C  6  Y      0.58383     0.56883
             47  C  6  Z      0.22828     0.42269
             48  H  7  S      0.45917     0.46627
             49  H  7  S      0.20191     0.38829
             50  O  8  S      1.98613     1.98032
             51  O  8  S      0.41150     0.57210
             52  O  8  X      0.68315     0.67642
             53  O  8  Y      0.77154     0.77616
             54  O  8  Z      0.62180     0.61687
             55  O  8  S      1.52572     1.04740
             56  O  8  X      0.90246     0.88504
             57  O  8  Y      0.98612     1.00090
             58  O  8  Z      0.80360     0.85178
             59  C  9  S      1.99049     1.97640
             60  C  9  S      0.36224     0.44356
             61  C  9  X      0.60767     0.60248
             62  C  9  Y      0.33409     0.32617
             63  C  9  Z      0.61866     0.59832
             64  C  9  S      1.06226     0.56317
             65  C  9  X      0.39816     0.53402
             66  C  9  Y      0.10683     0.35017
             67  C  9  Z      0.61128     0.57795
             68  H 10  S      0.45767     0.46700
             69  H 10  S      0.19160     0.38418
             70  O 11  S      1.98713     1.98199
             71  O 11  S      0.44913     0.60716
             72  O 11  X      0.54433     0.54252
             73  O 11  Y      0.73980     0.73516
             74  O 11  Z      0.73164     0.71878
             75  O 11  S      1.53506     1.04938
             76  O 11  X      0.55639     0.55936
             77  O 11  Y      0.85820     0.86540
             78  O 11  Z      0.82593     0.80834
             79  C 12  S      1.99005     1.97558
             80  C 12  S      0.35381     0.42309
             81  C 12  X      0.52550     0.51138
             82  C 12  Y      0.45083     0.44037
             83  C 12  Z      0.58349     0.55565
             84  C 12  S      1.02569     0.55195
             85  C 12  X      0.24388     0.47270
             86  C 12  Y      0.24462     0.42951
             87  C 12  Z      0.53077     0.56716
             88  H 13  S      0.46682     0.47990
             89  H 13  S      0.23839     0.40461
             90  O 14  S      1.98613     1.98044
             91  O 14  S      0.41464     0.57413
             92  O 14  X      0.66963     0.65982
             93  O 14  Y      0.55695     0.54565
             94  O 14  Z      0.84806     0.85814
             95  O 14  S      1.52565     1.04909
             96  O 14  X      0.87870     0.87148
             97  O 14  Y      0.73738     0.79775
             98  O 14  Z      1.04391     1.05100
             99  C 15  S      1.98848     1.97575
            100  C 15  S      0.36047     0.42416
            101  C 15  X      0.46629     0.46135
            102  C 15  Y      0.52928     0.49939
            103  C 15  Z      0.56153     0.52687
            104  C 15  S      1.02096     0.57578
            105  C 15  X      0.27202     0.44503
            106  C 15  Y      0.41802     0.52630
            107  C 15  Z      0.48935     0.56773
            108  O 16  S      1.98582     1.98026
            109  O 16  S      0.41487     0.57133
            110  O 16  X      0.56862     0.55102
            111  O 16  Y      0.72645     0.72806
            112  O 16  Z      0.78202     0.78577
            113  O 16  S      1.50716     1.05121
            114  O 16  X      0.73160     0.75544
            115  O 16  Y      0.95193     0.96779
            116  O 16  Z      0.99154     0.99450
            117  H 17  S      0.47161     0.47030
            118  H 17  S      0.27418     0.43518
            119  H 18  S      0.37613     0.39403
            120  H 18  S      0.17646     0.31292
            121  H 19  S      0.36242     0.38123
            122  H 19  S      0.16523     0.31431
            123  H 20  S      0.34769     0.36137
            124  H 20  S      0.13195     0.29046
            125  H 21  S      0.37948     0.39648
            126  H 21  S      0.17059     0.30754
            127  H 22  S      0.47885     0.48188
            128  H 22  S      0.30315     0.43399
            129  H 23  S      0.47437     0.47985
            130  H 23  S      0.29556     0.43177
            131  H 24  S      0.39935     0.41601
            132  H 24  S      0.17765     0.29959

          ----- MULLIKEN ATOMIC OVERLAP POPULATIONS -----
          (OFF-DIAGONAL ELEMENTS NEED TO BE MULTIPLIED BY 2)

             1           2           3           4           5

    1    8.0874919
    2    0.4599847   4.8915294
    3   -0.0768954   0.1024168   5.6738915
    4    0.0007687  -0.0290242   0.3652384   0.4915213
    5   -0.0070915  -0.0318449   0.2312547  -0.0276452   8.2617908
    6    0.0001153  -0.0710334   0.1079593  -0.0693166  -0.0454932
    7    0.0003084   0.0022852  -0.0353747   0.0021608   0.0007475
    8   -0.0000014   0.0014194  -0.0416515   0.0014198  -0.0122517
    9    0.0000166   0.0044716  -0.0818344   0.0010914   0.0017703
   10   -0.0000079   0.0013415  -0.0027940   0.0000247   0.0000093
   11   -0.0000000   0.0000254  -0.0012009   0.0031413  -0.0000002
   12    0.0000001  -0.0001138   0.0035116   0.0000390  -0.0000130
   13    0.0000000  -0.0000037   0.0001155  -0.0000055   0.0000003
   14    0.0000000  -0.0000005   0.0000200  -0.0000004  -0.0000000
   15   -0.0000000   0.0000007  -0.0000712   0.0000033   0.0000000
   16    0.0000000  -0.0000000   0.0000000  -0.0000000  -0.0000000
   17   -0.0437348   0.3493212  -0.0906614   0.0026825   0.0011756
   18    0.0341560  -0.0049771  -0.0740168   0.0035663   0.2571823
   19   -0.0000115   0.0013303  -0.0129333   0.0007106   0.0450602
   20   -0.0000000   0.0000290   0.0024305   0.0011246  -0.0000155
   21   -0.0000000  -0.0000002   0.0000018   0.0000001  -0.0000000
   22   -0.0000000  -0.0000000   0.0000022  -0.0000005  -0.0000000
   23    0.0000000  -0.0000002  -0.0000006   0.0000003  -0.0000000
   24    0.0000000   0.0000000  -0.0000000   0.0000000   0.0000000

             6           7           8           9          10

    6    5.6039705
    7    0.3618163   0.3823351
    8    0.2042495  -0.0210356   8.3098578
    9    0.0976270  -0.0424430  -0.0596753   5.9270597
   10   -0.0367994   0.0016329   0.0012832   0.3455607   0.3742245
   11   -0.0358233   0.0008954  -0.0095630   0.0626433  -0.0165049
   12   -0.0586891  -0.0042867  -0.0018234   0.0637804  -0.0291762
   13   -0.0065894   0.0000534   0.0071535  -0.0583559   0.0029879
   14   -0.0016678   0.0095061   0.0000127  -0.0440787   0.0037855
   15    0.0044637   0.0002536   0.0000003  -0.0850086  -0.0037814
   16   -0.0000140  -0.0000001   0.0000000   0.0019114  -0.0000090
   17    0.0034676   0.0005653  -0.0000183   0.0000090   0.0007117
   18    0.0047516   0.0002339   0.0002550  -0.0000892  -0.0000012
   19   -0.0577829   0.0004233   0.2482232   0.0067573  -0.0000812
   20   -0.0162353   0.0011654   0.0641654  -0.0565301   0.0033628
   21   -0.0001530  -0.0001573  -0.0000015   0.0062311   0.0000704
   22   -0.0002107  -0.0000090   0.0000012   0.0013702   0.0002691
   23   -0.0000660  -0.0000004  -0.0000007  -0.0004300   0.0031654
   24    0.0000013   0.0000000  -0.0000000  -0.0001713  -0.0000045

            11          12          13          14          15

   11    8.0470834
   12   -0.0245069   5.4192957
   13    0.0009788   0.3650622   0.4621347
   14    0.0001743   0.2345311  -0.0272409   8.2680700
   15    0.0011554   0.1818554  -0.0475918  -0.0407238   5.2144094
   16    0.0000009  -0.0465140   0.0013417  -0.0053942   0.2321886
   17    0.0000020   0.0000298  -0.0000000  -0.0000059  -0.0000004
   18   -0.0000002   0.0000019  -0.0000001  -0.0000000  -0.0000000
   19    0.0001651  -0.0001538  -0.0000842  -0.0000015   0.0000018
   20    0.1970235   0.0015178   0.0019507  -0.0000034  -0.0002716
   21   -0.0000195  -0.0578011   0.0003551   0.2610949  -0.0088909
   22    0.0020324  -0.0498561  -0.0003563   0.0015519   0.3409156
   23   -0.0000919  -0.0531630   0.0034285   0.0013015   0.3563695
   24    0.0000001   0.0051182  -0.0001217   0.0001204  -0.0388742

            16          17          18          19          20

   16    8.2369663
   17    0.0000000   0.5207448
   18    0.0000000   0.0015378   0.3310402
   19   -0.0000000  -0.0000327  -0.0010502   0.2986770
   20   -0.0000007   0.0000002  -0.0000015  -0.0015628   0.2812604
   21    0.0292684   0.0000003   0.0000000   0.0000001   0.0000016
   22   -0.0264836   0.0000000   0.0000000  -0.0000003   0.0002273
   23   -0.0284939  -0.0000002   0.0000000   0.0000000  -0.0000054
   24    0.2652467  -0.0000000  -0.0000000   0.0000000  -0.0000001

            21          22          23          24

   21    0.3201219
   22    0.0008480   0.5471743
   23   -0.0000497  -0.0347599   0.5256033
   24   -0.0008469  -0.0007162  -0.0028813   0.3501260

          TOTAL MULLIKEN AND LOWDIN ATOMIC POPULATIONS
       ATOM         MULL.POP.    CHARGE          LOW.POP.     CHARGE
    1 O             8.455099   -0.455099         8.168773   -0.168773
    2 C             5.677157    0.322843         5.856413    0.143587
    3 C             6.069408   -0.069408         5.999477    0.000523
    4 H             0.747500    0.252500         0.905503    0.094497
    5 O             8.674636   -0.674636         8.377404   -0.377404
    6 C             5.988548    0.011452         5.945296    0.054704
    7 H             0.661076    0.338924         0.854556    0.145444
    8 O             8.692018   -0.692018         8.406994   -0.406994
    9 C             6.091683   -0.091683         5.972244    0.027756
   10 H             0.649270    0.350730         0.851180    0.148820
   11 O             8.227611   -0.227611         7.868083    0.131917
   12 C             5.948646    0.051354         5.927384    0.072616
   13 H             0.705213    0.294787         0.884516    0.115484
   14 O             8.661051   -0.661051         8.387514   -0.387514
   15 C             6.106403   -0.106403         6.002352   -0.002352
   16 O             8.660014   -0.660014         8.385384   -0.385384
   17 H             0.745794    0.254206         0.905478    0.094522
   18 H             0.552589    0.447411         0.706951    0.293049
   19 H             0.527655    0.472345         0.695540    0.304460
   20 H             0.479633    0.520367         0.651830    0.348170
   21 H             0.550074    0.449926         0.704023    0.295977
   22 H             0.782000    0.218000         0.915872    0.084128
   23 H             0.769925    0.230075         0.911628    0.088372
   24 H             0.576997    0.423003         0.715607    0.284393

          -------------------------------
          BOND ORDER AND VALENCE ANALYSIS     BOND ORDER THRESHOLD=0.050
          -------------------------------

                   BOND                       BOND                       BOND
  ATOM PAIR DIST  ORDER      ATOM PAIR DIST  ORDER      ATOM PAIR DIST  ORDER
    1   2  1.238  1.709        1  18  1.965  0.066        2   3  1.506  0.835
    2  17  1.099  0.844        3   4  1.096  0.880        3   5  1.458  0.899
    3   6  1.560  0.819        5  18  1.007  0.715        5  19  1.810  0.087
    6   7  1.095  0.841        6   8  1.464  0.881        6   9  1.532  0.832
    8  19  1.010  0.678        8  20  1.905  0.133        9  10  1.095  0.838
    9  11  1.458  0.606        9  12  1.522  0.794       11  20  1.009  0.602
   12  13  1.098  0.847       12  14  1.457  0.929       12  15  1.525  0.872
   14  21  1.001  0.721       15  16  1.471  0.897       15  22  1.093  0.878
   15  23  1.099  0.884       16  21  2.005  0.055       16  24  0.992  0.780

                       TOTAL       BONDED        FREE
      ATOM            VALENCE     VALENCE     VALENCE
    1 O                 1.989       1.852       0.137
    2 C                 3.520       3.387       0.133
    3 C                 3.440       3.437       0.002
    4 H                 0.893       0.892       0.000
    5 O                 1.787       1.787       0.000
    6 C                 3.355       3.354       0.001
    7 H                 0.861       0.861       0.000
    8 O                 1.781       1.781       0.000
    9 C                 3.062       3.056       0.007
   10 H                 0.846       0.845       0.000
   11 O                 2.180       1.305       0.875
   12 C                 3.434       3.429       0.005
   13 H                 0.872       0.872       0.000
   14 O                 1.746       1.746       0.000
   15 C                 3.527       3.527       0.000
   16 O                 1.778       1.778       0.000
   17 H                 0.884       0.882       0.001
   18 H                 0.794       0.794       0.000
   19 H                 0.776       0.776       0.000
   20 H                 0.737       0.735       0.002
   21 H                 0.792       0.792       0.000
   22 H                 0.901       0.901       0.000
   23 H                 0.897       0.897       0.000
   24 H                 0.798       0.798       0.000

          -----------------------------------------
          ATOMIC SPIN DENSITY AT THE NUCLEUS (A.U.)
          -----------------------------------------
                            SPIN DENS    ALPHA DENS     BETA DENS
    1  O            8.0     0.0902565     117.01459     116.92433
    2  C            6.0    -0.0909101      46.95456      47.04547
    3  C            6.0     0.0168388      47.08423      47.06739
    4  H            1.0    -0.0056062       0.18232       0.18793
    5  O            8.0     0.0002208     116.74768     116.74746
    6  C            6.0    -0.0068671      47.08664      47.09351
    7  H            1.0    -0.0002263       0.17912       0.17934
    8  O            8.0    -0.0048548     116.74288     116.74774
    9  C            6.0    -0.0360246      47.11186      47.14788
   10  H            1.0     0.0052015       0.18153       0.17632
   11  O            8.0     0.2579831     117.12082     116.86283
   12  C            6.0     0.0334857      47.08222      47.04874
   13  H            1.0    -0.0015123       0.18226       0.18377
   14  O            8.0     0.0054307     116.76033     116.75489
   15  C            6.0    -0.0035831      46.99750      47.00108
   16  O            8.0     0.0006867     116.71623     116.71554
   17  H            1.0     0.0097354       0.18760       0.17787
   18  H            1.0     0.0002719       0.15168       0.15141
   19  H            1.0     0.0003465       0.14605       0.14571
   20  H            1.0    -0.0225519       0.12766       0.15021
   21  H            1.0     0.0012323       0.15378       0.15255
   22  H            1.0     0.0007403       0.18752       0.18677
   23  H            1.0     0.0003449       0.18561       0.18526
   24  H            1.0     0.0001366       0.16133       0.16120

          ---------------------
          ELECTROSTATIC MOMENTS
          ---------------------

 POINT   1           X           Y           Z (BOHR)    CHARGE
                 0.003689   -0.049185    0.072813        1.00 (A.U.)
         DX          DY          DZ         /D/  (DEBYE)
     3.905595    4.440233    2.629342    6.471691
 ...... END OF PROPERTY EVALUATION ......
 CPU     0: STEP CPU TIME=     0.06 TOTAL CPU TIME=          6.6 (      0.1 MIN)
 TOTAL WALL CLOCK TIME=         11.9 SECONDS, CPU UTILIZATION IS    55.28%
               580000  WORDS OF DYNAMIC MEMORY USED
 EXECUTION OF GAMESS TERMINATED NORMALLY Fri May 22 16:24:05 2020
 DDI: 263640 bytes (0.3 MB / 0 MWords) used by master data server.
Note: The following floating-point exceptions are signalling: IEEE_DENORMALNote: The following floating-point exceptions are signalling:
 ----------------------------------------
 CPU timing information for all processes
 ========================================
 0: 6.410 + 0.206 = 6.617
 1: 6.396 + 0.44 = 6.440
 2: 6.200 + 0.20 = 6.220
 3: 5.948 + 0.47 = 5.996
 4: 6.169 + 0.32 = 6.201
 5: 6.275 + 0.56 = 6.332
 6: 6.320 + 0.31 = 6.351
 7: 6.282 + 0.31 = 6.314
 ----------------------------------------
Note: The following floating-point exceptions are signalling: IEEE_DENORMALNote: The following floating-point exceptions are signalling: IEEE_DENORMAL
Note: The following floating-point exceptions are signalling:Note: The following floating-point exceptions are signalling: IEEE_DENORMAL IEEE_DENORMALNote: The following floating-point exceptions are signalling: IEEE_DENORMALNote: The following floating-point exceptions are signalling:

 IEEE_DENORMAL



 IEEE_DENORMAL
 ddikick.x: exited gracefully.
unset echo
----- accounting info -----
Files used on the master node pietdev were:
-rwxr-xr-x 1 piet piet     1455 mei 22 16:23 /home/piet/scr/d-glucose_fukui_base.F05*
-rw-r--r-- 1 piet piet 68812800 mei 22 16:24 /home/piet/scr/d-glucose_fukui_base.F10
ls: No match.
ls: No match.
ls: No match.
vr 22 mei 2020 16:24:08 CEST
0.146u 0.039s 0:15.19 1.1%	0+0k 0+8io 0pf+0w
