----- GAMESS execution script 'rungms' -----
This job is running on host pietdev
under operating system Linux at zo 24 mei 2020 20:32:32 CEST
Available scratch disk space (Kbyte units) at beginning of the job is
Filesystem     1K-blocks     Used Available Use% Mounted on
/dev/sda2      244568380 31203488 200871836  14% /
GAMESS temporary binary files will be written to /home/piet/scr
GAMESS supplementary output files will be written to /home/piet/gamess/scr
Copying input file 16H2O_fukui_base.inp to your run's scratch directory...
cp 16H2O_fukui_base.inp /home/piet/scr/16H2O_fukui_base.F05
unset echo
 
Assuming a single but multicore node.
 
/home/piet/gamess/ddikick.x /home/piet/gamess/gamess.03.x 16H2O_fukui_base -ddi 1 6 pietdev:cpus=6 -scr /home/piet/scr

 Distributed Data Interface kickoff program.
 Initiating 6 compute processes on 1 nodes to run the following command:
 /home/piet/gamess/gamess.03.x 16H2O_fukui_base 

          ******************************************************
          *         GAMESS VERSION = 30 SEP 2019 (R2)          *
          *             FROM IOWA STATE UNIVERSITY             *
          * M.W.SCHMIDT, K.K.BALDRIDGE, J.A.BOATZ, S.T.ELBERT, *
          *   M.S.GORDON, J.H.JENSEN, S.KOSEKI, N.MATSUNAGA,   *
          *          K.A.NGUYEN, S.J.SU, T.L.WINDUS,           *
          *       TOGETHER WITH M.DUPUIS, J.A.MONTGOMERY       *
          *         J.COMPUT.CHEM.  14, 1347-1363(1993)        *
          **************** 64 BIT LINUX VERSION ****************

  SINCE 1993, STUDENTS AND POSTDOCS WORKING AT IOWA STATE UNIVERSITY
  AND ALSO IN THEIR VARIOUS JOBS AFTER LEAVING ISU HAVE MADE IMPORTANT
  CONTRIBUTIONS TO THE CODE:
     IVANA ADAMOVIC, CHRISTINE AIKENS, YURI ALEXEEV, POOJA ARORA,
     ANDREY ASADCHEV, ROB BELL, PRADIPTA BANDYOPADHYAY, JONATHAN BENTZ,
     COLLEEN BERTONI, BRETT BODE, KURT BRORSEN, CALEB CARLIN, GALINA CHABAN,
     WEI CHEN, CHEOL HO CHOI, PAUL DAY, ALBERT DEFUSCO, NUWAN DESILVA,
     TIM DUDLEY, DMITRI FEDOROV, ALEX FINDLATER, GRAHAM FLETCHER, 
     MARK FREITAG, KURT GLAESEMANN, EMILIE B GUIDEZ, ANASTASIA GUNINA, 
     DAN KEMP, SAROM SOK LEANG, GRANT MERRILL,
     NORIYUKI MINEZAWA, JONATHAN MULLIN,
     TAKESHI NAGATA, SEAN NEDD, HEATHER NETZLOFF, BOSILJKA NJEGIC, RYAN OLSON,
     MIKE PAK, BUU PHAM, DAVID POOLE,
     SPENCER PRUITT, LUKE ROSKOP, TOSAPORN SATTASATHUCHANA,
     JIM SHOEMAKER, LYUDMILA SLIPCHENKO,
     TONY SMITH, JIE SONG, TETSUYA TAKETSUGU, SIMON WEBB,
     JORGE LUIS GALVEZ VALLEJO, PENG XU, SOOHAENG YOO,
     FEDERICO ZAHARIEV

  ADDITIONAL CODE HAS BEEN PROVIDED BY COLLABORATORS IN OTHER GROUPS:
     IOWA STATE UNIVERSITY:
          JOE IVANIC, AARON WEST, LAIMUTIS BYTAUTAS, KLAUS RUEDENBERG
     UNIVERSITY OF TOKYO: KIMIHIKO HIRAO, TAKAHITO NAKAJIMA,
          TAKAO TSUNEDA, MUNEAKI KAMIYA, SUSUMU YANAGISAWA,
          KIYOSHI YAGI, MAHITO CHIBA, SEIKEN TOKURA, NAOAKI KAWAKAMI
     UNIVERSITY OF AARHUS: FRANK JENSEN
     UNIVERSITY OF IOWA: VISVALDAS KAIRYS, HUI LI
     NATIONAL INST. OF STANDARDS AND TECHNOLOGY: WALT STEVENS, DAVID GARMER
     UNIVERSITY OF PISA: BENEDETTA MENNUCCI, JACOPO TOMASI
     UNIVERSITY OF MEMPHIS: HENRY KURTZ, PRAKASHAN KORAMBATH
     UNIVERSITY OF ALBERTA: TOBY ZENG, MARIUSZ KLOBUKOWSKI
     UNIVERSITY OF NEW ENGLAND: MARK SPACKMAN
     MIE UNIVERSITY: HIROAKI UMEDA
     NAT. INST. OF ADVANCED INDUSTRIAL SCIENCE AND TECHNOLOGY: KAZUO KITAURA
     MICHIGAN STATE UNIVERSITY:
          KAROL KOWALSKI, MARTA WLOCH, JEFFREY GOUR, JESSE LUTZ,
          WEI LI, JUN SHEN, J. EMILIANO DEUSTUA, PIOTR PIECUCH
     UNIVERSITY OF MINNESOTA:
          ANDREW SAND, PRACHI SHARMA, YINAN SHU
     UNIVERSITY OF SILESIA: MONIKA MUSIAL, STANISLAW KUCHARSKI
     FACULTES UNIVERSITAIRES NOTRE-DAME DE LA PAIX:
          OLIVIER QUINET, BENOIT CHAMPAGNE
     UNIVERSITY OF CALIFORNIA - SANTA BARBARA: BERNARD KIRTMAN
     INSTITUTE FOR MOLECULAR SCIENCE:
          KAZUYA ISHIMURA, MICHIO KATOUDA, AND SHIGERU NAGASE
     UNIVERSITY OF NOTRE DAME: ANNA POMOGAEVA, DAN CHIPMAN
     KYUSHU UNIVERSITY:
          HARUYUKI NAKANO,
          FENG LONG GU, JACEK KORCHOWIEC, MARCIN MAKOWSKI, AND YURIKO AOKI,
          HIROTOSHI MORI AND EISAKU MIYOSHI
     PENNSYLVANIA STATE UNIVERSITY:
          TZVETELIN IORDANOV, CHET SWALINA, JONATHAN SKONE,
          SHARON HAMMES-SCHIFFER
     WASEDA UNIVERSITY:
          MASATO KOBAYASHI, TOMOKO AKAMA, TSUGUKI TOUMA,
          TAKESHI YOSHIKAWA, YASUHIRO IKABATA, JUNJI SEINO,
          YUYA NAKAJIMA, HIROMI NAKAI
     NANJING UNIVERSITY: SHUHUA LI
     UNIVERSITY OF NEBRASKA:
          PEIFENG SU, DEJUN SI, NANDUN THELLAMUREGE, YALI WANG, HUI LI
     UNIVERSITY OF ZURICH: ROBERTO PEVERATI, KIM BALDRIDGE
     N. COPERNICUS UNIVERSITY AND JACKSON STATE UNIVERSITY:
          MARIA BARYSZ
     UNIVERSITY OF COPENHAGEN: Jimmy Kromann, CASPER STEINMANN
     TOKYO INSTITUTE OF TECHNOLOGY: HIROYA NAKATA
     NAGOYA UNIVERSITY: YOSHIO NISHIMOTO, STEPHAN IRLE
     MOSCOW STATE UNIVERSITY: VLADIMIR MIRONOV
     A.N.NESMEYANOV INSTITUTE OF ORGANOELEMENT COMPOUNDS OF RUSSIAN ACADEMY OF SCIENCES:
          IGOR S. GERASIMOV
     JOHANNES KEPLER UNIVERSITY LINZ:
          CHRISTIAN FRIEDL


 PARALLEL VERSION RUNNING ON        6 PROCESSORS IN        1 NODES.

 EXECUTION OF GAMESS BEGUN Sun May 24 20:32:32 2020

            ECHO OF THE FIRST FEW INPUT CARDS -
 INPUT CARD> $BASIS GBASIS=N21 NGAUSS=3 $END                                                
 INPUT CARD> $CONTRL SCFTYP=UHF MAXIT=60 MULT=2 ICHARG=1 $END                               
 INPUT CARD> $SYSTEM MEMDDI=1000 MWORDS=30 $END                                             
 INPUT CARD> $SCF DIRSCF=.TRUE. $END                                                        
 INPUT CARD> $STATPT OPTTOL=0.0001 NSTEP=999 $END                                           
 INPUT CARD> $DATA                                                                          
 INPUT CARD>                                                                                
 INPUT CARD>C1                                                                              
 INPUT CARD>O 8.0000000 -12.7695180518 3.6536855721 -1.1082344879                           
 INPUT CARD>H 1.0000000 -12.0840465305 2.8772459863 -1.1505645677                           
 INPUT CARD>H 1.0000000 -12.9153466336 3.9239445476 0.0742703567                            
 INPUT CARD>O 8.0000000 -9.3053993861 4.9376825381 1.1259829044                             
 INPUT CARD>H 1.0000000 -9.8763694709 4.0906532662 1.4367718334                             
 INPUT CARD>H 1.0000000 -9.9976799604 5.7242920044 1.0869649149                             
 INPUT CARD>O 8.0000000 -11.3634683068 5.6897422850 -1.6894569062                           
 INPUT CARD>H 1.0000000 -11.6068127001 6.3444860186 -2.3912050651                           
 INPUT CARD>H 1.0000000 -12.2884732102 4.5036274125 -1.5105762992                           
 INPUT CARD>O 8.0000000 -9.2947008367 4.3159570070 -1.3336221515                            
 INPUT CARD>H 1.0000000 -9.2018612529 4.6264011968 -0.3109267443                            
 INPUT CARD>H 1.0000000 -10.0268892309 4.9594752126 -1.7301337322                           
 INPUT CARD>O 8.0000000 -11.3318138816 6.3508126417 0.6588455381                            
 INPUT CARD>H 1.0000000 -11.3663984978 6.1513024105 -0.5398241929                           
 INPUT CARD>H 1.0000000 -11.5793903373 7.2735438985 0.9189037319                            
 INPUT CARD>O 8.0000000 -10.6679233542 2.2641521484 -0.8302729942                           
 INPUT CARD>H 1.0000000 -10.0535703803 1.4351031429 -0.8770775848                           
 INPUT CARD>H 1.0000000 -10.0631452426 3.1078865835 -1.1350127326                           
 INPUT CARD>O 8.0000000 -10.6911305388 2.8668377001 1.6281411887                            
 INPUT CARD>H 1.0000000 -10.7439948650 2.5388187194 0.6082898420                            
 INPUT CARD>H 1.0000000 -10.0472114587 2.2101236164 2.1005195250                            
 INPUT CARD>O 8.0000000 -12.7476128564 4.3030179010 1.2446318531                            
 INPUT CARD>H 1.0000000 -12.0646325594 3.6499940996 1.6675616104                            
 INPUT CARD>H 1.0000000 -12.2630333475 5.2295064278 1.1461818012                            
 INPUT CARD>H 1.0000000 -7.8943494310 3.5417200302 -1.4613576769                            
 INPUT CARD>O 8.0000000 -5.1714414397 1.5031624946 -0.5799688759                            
 INPUT CARD>H 1.0000000 -6.3368686988 -1.4650256470 -0.3242419863                           
 INPUT CARD>H 1.0000000 -5.8609190249 2.1547140347 -0.9982503851                            
 INPUT CARD>O 8.0000000 -7.2758952171 2.8464518049 -1.0127382564                            
 INPUT CARD>H 1.0000000 -5.6535479205 0.5669119581 -0.4962598479                            
 INPUT CARD>O 8.0000000 -6.5766855106 -0.5461912463 -0.0438527767                           
 INPUT CARD>H 1.0000000 -5.0098822526 1.8618554332 0.5756798999                             
 INPUT CARD>H 1.0000000 -7.8813200636 1.9659779238 -0.8434539177                            
 INPUT CARD>O 8.0000000 -8.6033607108 1.5254158168 2.0407764374                             
 INPUT CARD>H 1.0000000 -7.9180141398 0.0667765422 -0.4270295062                            
 INPUT CARD>O 8.0000000 -8.6475054537 0.8247310054 -0.3974271908                            
 INPUT CARD>H 1.0000000 -7.9092029162 0.8234451841 2.3939403305                             
 INPUT CARD>O 8.0000000 -6.5781053476 0.0615099305 2.3190755710                             
 INPUT CARD>H 1.0000000 -6.5582607329 -0.3676899741 1.1822419833                            
 INPUT CARD>H 1.0000000 -7.1802431123 3.3331093463 0.3674657476                             
 INPUT CARD>O 8.0000000 -5.1617628879 2.1221854605 1.7812417724                             
 INPUT CARD>O 8.0000000 -7.2185241909 3.5623758193 1.4145574246                             
   30000000 WORDS OF MEMORY AVAILABLE

     BASIS OPTIONS
     -------------
     GBASIS=N21          IGAUSS=       3      POLAR=NONE    
     NDFUNC=       0     NFFUNC=       0     DIFFSP=       F
     NPFUNC=       0      DIFFS=       F     BASNAM=        


     RUN TITLE
     ---------
                                                                                 

 THE POINT GROUP OF THE MOLECULE IS C1      
 THE ORDER OF THE PRINCIPAL AXIS IS     0

 ATOM      ATOMIC                      COORDINATES (BOHR)
           CHARGE         X                   Y                   Z
 O           8.0   -24.1308901132        6.9044645766       -2.0942595123
 H           1.0   -22.8355367655        5.4372065134       -2.1742517641
 H           1.0   -24.4064661740        7.4151799860        0.1403506232
 O           8.0   -17.5846550460        9.3308670114        2.1277991562
 H           1.0   -18.6636320535        7.7302137839        2.7151050720
 H           1.0   -18.8928756381       10.8173433620        2.0540658474
 O           8.0   -21.4738413700       10.7520538594       -3.1926106208
 H           1.0   -21.9336955940       11.9893401081       -4.5187223535
 H           1.0   -23.2218471747        8.5106217604       -2.8545752890
 O           8.0   -17.5644377192        8.1559761180       -2.5201804375
 H           1.0   -17.3889963450        8.7426305712       -0.5875663490
 H           1.0   -18.9480731556        9.3720491947       -3.2694786760
 O           8.0   -21.4140231801       12.0012956922        1.2450375352
 H           1.0   -21.4793786281       11.6242760235       -1.0201198061
 H           1.0   -21.8818748424       13.7450049278        1.7364762624
 O           8.0   -20.1594519975        4.2786271550       -1.5689884540
 H           1.0   -18.9984932170        2.7119517042       -1.6574363052
 H           1.0   -19.0165870832        5.8730540437       -2.1448630572
 O           8.0   -20.2033072173        5.4175377045        3.0767407160
 H           1.0   -20.3032063083        4.7976717122        1.1495011225
 H           1.0   -18.9864765976        4.1765280340        3.9694063341
 O           8.0   -24.0894952962        8.1315247532        2.3520131579
 H           1.0   -22.7988496798        6.8974887050        3.1512345113
 H           1.0   -23.1737728051        9.8823341996        2.1659695364
 H           1.0   -14.9181572759        6.6928803823       -2.7615655794
 O           8.0    -9.7726072826        2.8405652298       -1.0959822569
 H           1.0   -11.9749454609       -2.7684970378       -0.6127285078
 H           1.0   -11.0755309933        4.0718191075       -1.8864196950
 O           8.0   -13.7494482757        5.3790139485       -1.9137978019
 H           1.0   -10.6836564282        1.0713082600       -0.9377951312
 O           8.0   -12.4281335225       -1.0321517924       -0.0828697318
 H           1.0    -9.4673046882        3.5183965975        1.0878772675
 H           1.0   -14.8935353417        3.7151595739       -1.5938967877
 O           8.0   -16.2579943169        2.8826179111        3.8565082689
 H           1.0   -14.9628770911        0.1261893672       -0.8069687554
 O           8.0   -16.3414157848        1.5585156138       -0.7510284907
 H           1.0   -14.9462262929        1.5560857639        4.5238912556
 O           8.0   -12.4308166253        0.1162369142        4.3824173740
 H           1.0   -12.3933157412       -0.6948332995        2.2341133996
 H           1.0   -13.5686920075        6.2986633516        0.6944095728
 O           8.0    -9.7543174717        4.0103490155        3.3660588677
 O           8.0   -13.6410327565        6.7319141638        2.6731259264
 H           1.0   -15.1763717088        4.5565549779        3.5428017034
 H           1.0   -11.0396464069        5.4827354811        3.4515055232
 H           1.0   -14.8497510488        8.2578602704        2.8383075498
 H           1.0   -16.4897070047        2.0231932369        1.2163399757
 H           1.0   -11.9535858450       -1.1472112903        5.6774217906
 H           1.0   -10.6680584489        2.4058400822        4.0928554400

          INTERNUCLEAR DISTANCES (ANGS.)
          ------------------------------

                1 O          2 H          3 H          4 O          5 H     

   1 O       0.0000000    1.0365913 *  1.2217298 *  4.3174638    3.8779256  
   2 H       1.0365913 *  0.0000000    1.8129695 *  4.1411287    3.6111639  
   3 H       1.2217298 *  1.8129695 *  0.0000000    3.8942885    3.3346041  
   4 O       4.3174638    4.1411287    3.8942885    0.0000000    1.0677337 *
   5 H       3.8779256    3.6111639    3.3346041    1.0677337 *  0.0000000  
   6 H       4.0974868    4.1791309    3.5748539    1.0485844 *  1.6750691 *
   7 O       2.5417164 *  2.9529262 *  2.9388947 *  3.5676243    3.8133784  
   8 H       3.1997350    3.7133131    3.6945705    4.4324046    4.7673476  
   9 H       1.0562595 *  1.6782477 *  1.8002059 *  4.0048193    3.8308815  
  10 O       3.5445391    3.1438589    3.9044732    2.5369892 *  2.8397505 *
  11 H       3.7828627    3.4744104    3.7989203    1.4738811 *  1.9484449 *
  12 H       3.1006222    2.9838692 *  3.5596888    2.9459166 *  3.2873696  
  13 O       3.5304475    3.9881680    2.9561788 *  2.5142613 *  2.7985368 *
  14 H       2.9206035 *  3.4069734    2.7816318 *  2.9147048 *  3.2207753  
  15 H       4.3161404    4.8851625    3.7037819    3.2665218    3.6468151  
  16 O       2.5347122 *  1.5760316 *  2.9366683 *  3.5820627    3.0169780  
  17 H       3.5145289    2.5054749 *  3.9101353    4.1036659    3.5266479  
  18 H       2.7609903 *  2.0340794 *  3.2036493    3.0057334    2.7594911 *
  19 O       3.5251349    3.1083000    2.9118940 *  2.5418128 *  1.4826268 *
  20 H       2.8796055 *  2.2369265 *  2.6303078 *  2.8446635 *  1.9614654 *
  21 H       4.4486994    3.8940079    3.9075654    2.9899138 *  2.0015343 *
  22 O       2.4409204 *  2.8653293 *  1.2416027 *  3.5022436    2.8854904 *
  23 H       2.8638996 *  2.9222169 *  1.8268389 *  3.0927038    2.2440900 *
  24 H       2.7968073 *  3.2924473    1.8108005 *  2.9720646 *  2.6603747 *
  25 H       4.8892230    4.2534315    5.2644717    3.2609975    3.5537144  
  26 O       7.9142013    7.0709118    8.1397962    5.6387771    5.7357388  
  27 H       8.2580159    7.2503921    8.5132945    7.2048594    6.8187098  
  28 H       7.0702017    6.2667829    7.3515594    4.9113874    5.0794720  
  29 O       5.5534348    4.8102249    5.8434571    3.6147284    3.7829358  
  30 H       7.7807272    6.8641875    8.0205295    5.9221049    5.8297158  
  31 O       7.5579791    6.5784313    7.7572348    6.2359656    5.8805179  
  32 H       8.1399122    7.3521927    8.1853522    5.3117806    5.4214128  
  33 H       5.1781218    4.3113381    5.4788023    3.8389727    3.7005266  
  34 O       5.6393855    4.9119524    5.3116202    3.6018425    2.9267415 *
  35 H       6.0718240    5.0772106    6.3326439    5.2973966    4.8477309  
  36 O       5.0496751    4.0730637    5.2954784    4.4350843    3.9421620  
  37 H       6.6255681    5.8490112    6.3289367    4.5259286    3.9319924  
  38 O       7.9362316    7.0909915    7.7535913    5.7130257    5.2811932  
  39 H       7.7458028    6.8195238    7.7497270    5.9746894    5.5634032  
  40 H       5.7896852    5.1535925    5.7729076    2.7688071 *  2.9977301 *
  41 O       8.2808517    7.5553700    8.1411392    5.0523372    5.1206484  
  42 O       6.0980611    5.5427936    5.8635218    2.5159078 *  2.7099284 *
  43 H       5.7354743    5.0790833    5.4209826    2.9270781 *  2.5333267 *
  44 H       7.5610797    6.9157261    7.3586080    4.0783555    4.2241009  
  45 H       5.6078169    5.2078842    5.2737467    1.5994697 *  2.0384851 *
  46 H       5.1079876    4.2142300    5.1006305    3.9398575    3.3276090  
  47 H       8.7516903    7.9097430    8.5170898    6.5690250    6.0937860  
  48 H       8.1939786    7.4181769    8.0159372    5.2826828    5.1353741  

                6 H          7 O          8 H          9 H         10 O     

   1 O       4.0974868    2.5417164 *  3.1997350    1.0562595 *  3.5445391  
   2 H       4.1791309    2.9529262 *  3.7133131    1.6782477 *  3.1438589  
   3 H       3.5748539    2.9388947 *  3.6945705    1.8002059 *  3.9044732  
   4 O       1.0485844 *  3.5676243    4.4324046    4.0048193    2.5369892 *
   5 H       1.6750691 *  3.8133784    4.7673476    3.8308815    2.8397505 *
   6 H       0.0000000    3.0943642    3.8822178    3.6721896    2.8873567 *
   7 O       3.0943642    0.0000000    0.9901295 *  1.5147610 *  2.5087254 *
   8 H       3.8822178    0.9901295 *  0.0000000    2.1514945 *  3.2525794  
   9 H       3.6721896    1.5147610 *  2.1514945 *  0.0000000    3.0048637  
  10 O       2.8873567 *  2.5087254 *  3.2525794    3.0048637    0.0000000  
  11 H       1.9475094 *  2.7755332 *  3.6143000    3.3138204    1.0728004 *
  12 H       2.9192195 *  1.5236103 *  2.2025958 *  2.3174911 *  1.0523483 *
  13 O       1.5348380 *  2.4397829 *  3.0624293    3.0056083    3.5014846  
  14 H       2.1684490 *  1.2388308 *  1.8768937 *  2.1230672 *  2.8793296 *
  15 H       2.2204130 *  3.0591821    3.4381275    3.7520140    4.3635993  
  16 O       4.0121809    3.5995344    4.4684613    2.8467954 *  2.5197229 *
  17 H       4.7178096    4.5252345    5.3672324    3.8486299    3.0139069  
  18 H       3.4332270    2.9435059 *  3.7995400    2.6535307 *  1.4454711 *
  19 O       2.9897810 *  4.4076394    5.3932973    3.8835720    3.5807827  
  20 H       3.3065625    3.9486335    4.9218419    3.2765043    3.0049452  
  21 H       3.6577487    5.3107626    6.3008649    4.8294334    4.0980649  
  22 O       3.0995177    3.5281351    4.3229998    2.8003974 *  4.3093111  
  23 H       2.9853136 *  3.9902102    4.8932068    3.2983867    4.1380107  
  24 H       2.3195140 *  3.0102959    3.7665516    2.7542533 *  3.9742921  
  25 H       3.9599959    4.0866630    4.7436797    4.4984455    1.6052238 *
  26 O       6.6248910    7.5564284    8.2542712    7.7795219    5.0478782  
  27 H       8.1901973    8.8499277    9.6453677    8.5119801    6.5717106  
  28 H       5.8483161    6.5766435    7.2463650    6.8624576    4.0711550  
  29 O       4.4831718    5.0249878    5.7352646    5.3028306    2.5175361 *
  30 H       6.9265181    7.7633949    8.5095559    7.7813109    5.2928734  
  31 O       7.2319369    8.0316978    8.8483713    7.7637919    5.7176567  
  32 H       6.3291354    7.7557474    8.5097517    8.0193086    5.2941212  
  33 H       4.7255075    5.1679298    5.9536680    5.1291048    2.7857336 *
  34 O       4.5259744    6.2349378    7.2032369    5.9213094    4.4330167  
  35 H       6.2148749    6.7143593    7.5415421    6.3214422    4.5577090  
  36 O       5.2945339    5.7196267    6.5726969    5.2943390    3.6720542  
  37 H       5.4852731    7.2309702    8.1885180    6.9258212    5.2926331  
  38 O       6.7289440    8.4050598    9.3247214    8.1857768    6.2307633  
  39 H       6.9964939    8.2479791    9.1274699    7.9885129    5.9794837  
  40 H       3.7647555    5.2234110    6.0227213    5.5669713    2.8862815 *
  41 O       6.0698670    7.9520036    8.7621802    8.2034951    5.6210486  
  42 O       3.5362275    5.5983171    6.4405777    5.9284690    3.5257460  
  43 H       3.9325457    5.8785879    6.8158336    5.8279392    3.9393841  
  44 H       5.0780089    7.1150714    7.9295537    7.4337777    4.8896708  
  45 H       2.5659829 *  4.9208234    5.7539869    5.3592045    3.1791751  
  46 H       4.8446193    5.8082705    6.7322502    5.3960718    3.8425577  
  47 H       7.5661803    9.3307208   10.2629412    9.0587112    7.2020934  
  48 H       6.3182449    8.1894731    9.0567774    8.2513101    5.9011297  

               11 H         12 H         13 O         14 H         15 H     

   1 O       3.7828627    3.1006222    3.5304475    2.9206035 *  4.3161404  
   2 H       3.4744104    2.9838692 *  3.9881680    3.4069734    4.8851625  
   3 H       3.7989203    3.5596888    2.9561788 *  2.7816318 *  3.7037819  
   4 O       1.4738811 *  2.9459166 *  2.5142613 *  2.9147048 *  3.2665218  
   5 H       1.9484449 *  3.2873696    2.7985368 *  3.2207753    3.6468151  
   6 H       1.9475094 *  2.9192195 *  1.5348380 *  2.1684490 *  2.2204130 *
   7 O       2.7755332 *  1.5236103 *  2.4397829 *  1.2388308 *  3.0591821  
   8 H       3.6143000    2.2025958 *  3.0624293    1.8768937 *  3.4381275  
   9 H       3.3138204    2.3174911 *  3.0056083    2.1230672 *  3.7520140  
  10 O       1.0728004 *  1.0523483 *  3.5014846    2.8793296 *  4.3635993  
  11 H       0.0000000    1.6750397 *  2.9070176 *  2.6576191 *  3.7646370  
  12 H       1.6750397 *  0.0000000    3.0571016    2.1521092 *  3.8448112  
  13 O       2.9070176 *  3.0571016    0.0000000    1.2156519 *  0.9901300 *
  14 H       2.6576191 *  2.1521092 *  1.2156519 *  0.0000000    1.8527489 *
  15 H       3.7646370    3.8448112    0.9901300 *  1.8527489 *  0.0000000  
  16 O       2.8282997 *  2.9129779 *  4.3998885    3.9600714    5.3837159  
  17 H       3.3511667    3.6262398    5.3063326    4.9071166    6.2961151  
  18 H       1.9304959 *  1.9452157 *  3.9171440    3.3637923    4.8857213  
  19 O       3.0123033    4.0122760    3.6726136    3.9929650    4.5509431  
  20 H       2.7533862 *  3.4412270    3.8573806    3.8413006    4.8178822  
  21 H       3.5168292    4.7152149    4.5687999    4.9238765    5.4205178  
  22 O       3.8854464    4.0844221    2.5575566 *  2.9168805 *  3.2085616  
  23 H       3.6143114    4.1727056    2.9747188 *  3.4083172    3.7317639  
  24 H       3.4434976    3.6532791    1.5368780 *  2.1204429 *  2.1672822 *
  25 H       2.0517338 *  2.5748779 *  4.9195960    4.4400753    5.7594861  
  26 O       5.1060050    6.0699547    7.9362814    7.7449538    8.7524699  
  27 H       6.7315556    7.5410208    9.3275542    9.1296823   10.2660626  
  28 H       4.2123089    5.0751991    7.0911142    6.8185906    7.9106772  
  29 O       2.7147936 *  3.5422440    5.6147318    5.2799529    6.4691928  
  30 H       5.3948428    6.3200610    8.1872144    7.9889909    9.0607510  
  31 O       5.8067709    6.7126606    8.4067647    8.2488641    9.3328567  
  32 H       5.0991639    6.3310650    7.7539972    7.7491292    8.5183690  
  33 H       3.0174934    3.7882310    5.7783723    5.4548056    6.7046167  
  34 O       3.9376162    5.2951828    5.7130241    5.9743371    6.5693475  
  35 H       4.7383457    5.4848824    7.2334130    6.9946789    8.1947976  
  36 O       3.8428491    4.5579509    6.2336829    5.9820581    7.2052664  
  37 H       4.8424938    6.2128356    6.7287897    6.9960873    7.5663586  
  38 O       5.8855110    7.2305097    8.0566393    8.2575197    8.8874500  
  39 H       5.8445807    6.9922818    8.2582705    8.2813624    9.1471058  
  40 H       2.4939447 *  3.8920924    5.1407174    5.1273077    5.9315769  
  41 O       5.1933284    6.6369741    7.5637683    7.7536207    8.2744222  
  42 O       2.8360309 *  4.4416082    5.0264931    5.2656443    5.7476599  
  43 H       3.3249381    4.8448447    5.2815013    5.5626782    6.0948309  
  44 H       4.3397459    5.8650795    6.5879448    6.8323723    7.2703704  
  45 H       2.2711127 *  3.9366916    4.0867248    4.4328562    4.7559333  
  46 H       3.7123071    4.7381852    5.8882055    5.8468546    6.8332928  
  47 H       6.8303385    8.1915668    8.8868563    9.1458713    9.6982480  
  48 H       5.4797899    6.9257694    7.7711367    7.9905190    8.5307387  

               16 O         17 H         18 H         19 O         20 H     

   1 O       2.5347122 *  3.5145289    2.7609903 *  3.5251349    2.8796055 *
   2 H       1.5760316 *  2.5054749 *  2.0340794 *  3.1083000    2.2369265 *
   3 H       2.9366683 *  3.9101353    3.2036493    2.9118940 *  2.6303078 *
   4 O       3.5820627    4.1036659    3.0057334    2.5418128 *  2.8446635 *
   5 H       3.0169780    3.5266479    2.7594911 *  1.4826268 *  1.9614654 *
   6 H       4.0121809    4.7178096    3.4332270    2.9897810 *  3.3065625  
   7 O       3.5995344    4.5252345    2.9435059 *  4.4076394    3.9486335  
   8 H       4.4684613    5.3672324    3.7995400    5.3932973    4.9218419  
   9 H       2.8467954 *  3.8486299    2.6535307 *  3.8835720    3.2765043  
  10 O       2.5197229 *  3.0139069    1.4454711 *  3.5807827    3.0049452  
  11 H       2.8282997 *  3.3511667    1.9304959 *  3.0123033    2.7533862 *
  12 H       2.9129779 *  3.6262398    1.9452157 *  4.0122760    3.4412270  
  13 O       4.3998885    5.3063326    3.9171440    3.6726136    3.8573806  
  14 H       3.9600714    4.9071166    3.3637923    3.9929650    3.8413006  
  15 H       5.3837159    6.2961151    4.8857213    4.5509431    4.8178822  
  16 O       0.0000000    1.0329291 *  1.0819014 *  2.5313176 *  1.4665237 *
  17 H       1.0329291 *  0.0000000    1.6925799 *  2.9550749 *  1.9751431 *
  18 H       1.0819014 *  1.6925799 *  0.0000000    2.8438512 *  1.9561437 *
  19 O       2.5313176 *  2.9550749 *  2.8438512 *  0.0000000    1.0726080 *
  20 H       1.4665237 *  1.9751431 *  1.9561437 *  1.0726080 *  0.0000000  
  21 H       2.9962889 *  3.0768136    3.3578120    1.0339470 *  1.6793740 *
  22 O       3.5759351    4.4703972    3.7811921    2.5374815 *  2.7444152 *
  23 H       3.1797063    3.9275058    3.4862953    1.5815801 *  2.0250559 *
  24 H       3.9043662    4.8345425    3.8137419    2.8784313 *  3.1363364  
  25 H       3.1181982    3.0726948    2.2357074 *  4.2216648    3.6619300  
  26 O       5.5545541    4.8916346    5.1780285    6.0993711    5.7911911  
  27 H       5.7376710    4.7466036    5.9543272    6.4448767    6.0268687  
  28 H       4.8111832    4.2556842    4.3111422    5.5440054    5.1548945  
  29 O       3.4464796    3.1186196    2.8021531 *  4.3172320    3.8405840  
  30 H       5.3043520    4.5009972    5.1292403    5.9312711    5.5696586  
  31 O       5.0254068    4.0876056    5.1670413    5.6011595    5.2258056  
  32 H       5.8439691    5.2660623    5.4785518    5.8646608    5.7740272  
  33 H       2.8025416 *  2.2364324 *  2.4797829 *  3.8490733    3.2604622  
  34 O       3.6126272    3.2596221    3.8367723    2.5156437 *  2.7679086 *
  35 H       3.5430306    2.5759389 *  3.7882949    4.4445746    3.8947459  
  36 O       2.5182091 *  1.6061249 *  2.7858334 *  3.5283892    2.8887422 *
  37 H       4.4812639    3.9587871    4.7235209    3.5356785    3.7639208  
  38 O       5.6121868    4.9174191    5.7755207    5.0263536    5.1398913  
  39 H       5.2788385    4.4393749    5.4528449    5.2670303    5.1281170  
  40 H       3.8394220    3.6616015    3.2587255    3.7593939    3.6591284  
  41 O       6.0957335    5.6096813    5.7878922    5.5813845    5.7193281  
  42 O       4.3154377    4.2207069    3.8469127    3.5480116    3.7585476  
  43 H       3.7805162    3.5519443    3.6978077    2.7101204 *  2.9967723 *
  44 H       5.5456688    5.2150618    5.1605845    4.8533770    5.0641483  
  45 H       4.2152374    4.3695071    3.6617312    3.2094871    3.5326355  
  46 H       2.7144299 *  2.0513375 *  3.0169711    2.8385559 *  2.4958422 *
  47 H       6.4656370    5.7562227    6.7011111    5.7463234    5.9296161  
  48 H       5.9317526    5.3589669    5.8120102    5.3187916    5.4794833  

               21 H         22 O         23 H         24 H         25 H     

   1 O       4.4486994    2.4409204 *  2.8638996 *  2.7968073 *  4.8892230  
   2 H       3.8940079    2.8653293 *  2.9222169 *  3.2924473    4.2534315  
   3 H       3.9075654    1.2416027 *  1.8268389 *  1.8108005 *  5.2644717  
   4 O       2.9899138 *  3.5022436    3.0927038    2.9720646 *  3.2609975  
   5 H       2.0015343 *  2.8854904 *  2.2440900 *  2.6603747 *  3.5537144  
   6 H       3.6577487    3.0995177    2.9853136 *  2.3195140 *  3.9599959  
   7 O       5.3107626    3.5281351    3.9902102    3.0102959    4.0866630  
   8 H       6.3008649    4.3229998    4.8932068    3.7665516    4.7436797  
   9 H       4.8294334    2.8003974 *  3.2983867    2.7542533 *  4.4984455  
  10 O       4.0980649    4.3093111    4.1380107    3.9742921    1.6052238 *
  11 H       3.5168292    3.8854464    3.6143114    3.4434976    2.0517338 *
  12 H       4.7152149    4.0844221    4.1727056    3.6532791    2.5748779 *
  13 O       4.5687999    2.5575566 *  2.9747188 *  1.5368780 *  4.9195960  
  14 H       4.9238765    2.9168805 *  3.4083172    2.1204429 *  4.4400753  
  15 H       5.4205178    3.2085616    3.7317639    2.1672822 *  5.7594861  
  16 O       2.9962889 *  3.5759351    3.1797063    3.9043662    3.1181982  
  17 H       3.0768136    4.4703972    3.9275058    4.8345425    3.0726948  
  18 H       3.3578120    3.7811921    3.4862953    3.8137419    2.2357074 *
  19 O       1.0339470 *  2.5374815 *  1.5815801 *  2.8784313 *  4.2216648  
  20 H       1.6793740 *  2.7444152 *  2.0250559 *  3.1363364    3.6619300  
  21 H       0.0000000    3.5220616    2.5160818 *  3.8648803    4.3697750  
  22 O       3.5220616    0.0000000    1.0352641 *  1.0501860 *  5.6085755  
  23 H       2.5160818 *  1.0352641 *  0.0000000    1.6751295 *  5.2147023  
  24 H       3.8648803    1.0501860 *  1.6751295 *  0.0000000    5.3603437  
  25 H       4.3697750    5.6085755    5.2147023    5.3603437    0.0000000  
  26 O       5.6087383    8.2805031    7.5615053    8.1948710    3.5138001  
  27 H       5.7578498    8.7652343    7.9333465    9.0608131    5.3652848  
  28 H       5.2086936    7.5546199    6.9158136    7.4188952    2.5046144 *
  29 O       4.2163351    6.0956541    5.5463225    5.9339221    1.0330261 *
  30 H       5.3616870    8.2045688    7.4356926    8.2536476    3.8473482  
  31 O       4.9234291    7.9533242    7.1171956    8.1920338    4.5228948  
  32 H       5.2745722    8.1412067    7.3592899    8.0171533    3.9104499  
  33 H       3.6630141    5.7881485    5.1615127    5.8145232    1.6926128 *
  34 O       1.5990932 *  5.0521031    4.0784219    5.2833503    4.1028189  
  35 H       3.9390255    6.6381636    5.8669587    6.9287781    3.6256899  
  36 O       3.1809161    5.6218963    4.8911193    5.9039662    3.0135065  
  37 H       2.5651615 *  6.0694767    5.0778539    6.3187116    4.7172621  
  38 O       4.0864416    7.5635734    6.5881462    7.7718900    5.3043413  
  39 H       4.4340877    7.7541914    6.8335533    7.9921423    4.9048179  
  40 H       3.5332817    5.7188940    5.0643781    5.4806457    1.9743509 *
  41 O       4.8966600    7.9113273    7.0708367    7.7773252    4.4717512  
  42 O       3.2094550    5.5810614    4.8534992    5.3196262    2.9543280 *
  43 H       2.0387621 *  5.1207889    4.2246598    5.1365100    3.5251153  
  44 H       4.2705132    7.0704799    6.2695904    6.8639429    3.9283900  
  45 H       3.1328525    4.8966860    4.2708474    4.5020605    3.0770836  
  46 H       2.2730047 *  5.1945223    4.3414423    5.4826601    3.3509699  
  47 H       4.7543880    8.2733539    7.2695659    8.5306551    6.2941453  
  48 H       4.5010143    7.7763666    6.8633627    7.7773529    4.8333655  

               26 O         27 H         28 H         29 O         30 H     

   1 O       7.9142013    8.2580159    7.0702017    5.5534348    7.7807272  
   2 H       7.0709118    7.2503921    6.2667829    4.8102249    6.8641875  
   3 H       8.1397962    8.5132945    7.3515594    5.8434571    8.0205295  
   4 O       5.6387771    7.2048594    4.9113874    3.6147284    5.9221049  
   5 H       5.7357388    6.8187098    5.0794720    3.7829358    5.8297158  
   6 H       6.6248910    8.1901973    5.8483161    4.4831718    6.9265181  
   7 O       7.5564284    8.8499277    6.5766435    5.0249878    7.7633949  
   8 H       8.2542712    9.6453677    7.2463650    5.7352646    8.5095559  
   9 H       7.7795219    8.5119801    6.8624576    5.3028306    7.7813109  
  10 O       5.0478782    6.5717106    4.0711550    2.5175361 *  5.2928734  
  11 H       5.1060050    6.7315556    4.2123089    2.7147936 *  5.3948428  
  12 H       6.0699547    7.5410208    5.0751991    3.5422440    6.3200610  
  13 O       7.9362814    9.3275542    7.0911142    5.6147318    8.1872144  
  14 H       7.7449538    9.1296823    6.8185906    5.2799529    7.9889909  
  15 H       8.7524699   10.2660626    7.9106772    6.4691928    9.0607510  
  16 O       5.5545541    5.7376710    4.8111832    3.4464796    5.3043520  
  17 H       4.8916346    4.7466036    4.2556842    3.1186196    4.5009972  
  18 H       5.1780285    5.9543272    4.3111422    2.8021531 *  5.1292403  
  19 O       6.0993711    6.4448767    5.5440054    4.3172320    5.9312711  
  20 H       5.7911911    6.0268687    5.1548945    3.8405840    5.5696586  
  21 H       5.6087383    5.7578498    5.2086936    4.2163351    5.3616870  
  22 O       8.2805031    8.7652343    7.5546199    6.0956541    8.2045688  
  23 H       7.5615053    7.9333465    6.9158136    5.5463225    7.4356926  
  24 H       8.1948710    9.0608131    7.4188952    5.9339221    8.2536476  
  25 H       3.5138001    5.3652848    2.5046144 *  1.0330261 *  3.8473482  
  26 O       0.0000000    3.1990245    1.0367537 *  2.5338590 *  1.0564085 *
  27 H       3.1990245    0.0000000    3.7125908    4.4659418    2.1506482 *
  28 H       1.0367537 *  3.7125908    0.0000000    1.5750774 *  1.6781277 *
  29 O       2.5338590 *  4.4659418    1.5750774 *  0.0000000    2.8451824 *
  30 H       1.0564085 *  2.1506482 *  1.6781277 *  2.8451824 *  0.0000000  
  31 O       2.5420429 *  0.9901449 *  2.9526405 *  3.5968959    1.5152075 *
  32 H       1.2207727 *  3.6930868    1.8130875 *  2.9372295 *  1.8000664 *
  33 H       2.7617141 *  3.7982491    2.0350930 *  1.0818644 *  2.6534691 *
  34 O       4.3182023    4.4354299    4.1415802    3.5820738    4.0070785  
  35 H       3.1032655    2.2038612 *  2.9862044 *  2.9123815 *  2.3200723 *
  36 O       3.5463519    3.2538260    3.1456172    2.5193803 *  3.0066626  
  37 H       4.0989620    3.8855950    4.1802753    4.0123676    3.6751933  
  38 O       3.5300884    3.0619657    3.9875445    4.3981582    3.0060524  
  39 H       2.9204013 *  1.8768735 *  3.4063697    3.9577323    2.1235241 *
  40 H       2.8777807 *  4.9205528    2.2348181 *  1.4666111 *  3.2754646  
  41 O       2.4410241 *  4.3222701    2.8662613 *  3.5777705    2.8013821 *
  42 O       3.5226471    5.3921707    3.1058405    2.5313243 *  3.8824190  
  43 H       3.8765117    4.7677064    3.6096060    3.0161723    3.8308626  
  44 H       2.8627509 *  4.8924038    2.9217782 *  3.1812429    3.2984930  
  45 H       4.4464466    6.3004260    3.8919080    2.9972614 *  4.8286322  
  46 H       3.7840562    3.6158283    3.4755823    2.8284172 *  3.3155650  
  47 H       4.3165437    3.4374132    4.8851102    5.3821086    3.7528945  
  48 H       2.7958821 *  3.7651338    3.2916888    3.9035426    2.7541967 *

               31 O         32 H         33 H         34 O         35 H     

   1 O       7.5579791    8.1399122    5.1781218    5.6393855    6.0718240  
   2 H       6.5784313    7.3521927    4.3113381    4.9119524    5.0772106  
   3 H       7.7572348    8.1853522    5.4788023    5.3116202    6.3326439  
   4 O       6.2359656    5.3117806    3.8389727    3.6018425    5.2973966  
   5 H       5.8805179    5.4214128    3.7005266    2.9267415 *  4.8477309  
   6 H       7.2319369    6.3291354    4.7255075    4.5259744    6.2148749  
   7 O       8.0316978    7.7557474    5.1679298    6.2349378    6.7143593  
   8 H       8.8483713    8.5097517    5.9536680    7.2032369    7.5415421  
   9 H       7.7637919    8.0193086    5.1291048    5.9213094    6.3214422  
  10 O       5.7176567    5.2941212    2.7857336 *  4.4330167    4.5577090  
  11 H       5.8067709    5.0991639    3.0174934    3.9376162    4.7383457  
  12 H       6.7126606    6.3310650    3.7882310    5.2951828    5.4848824  
  13 O       8.4067647    7.7539972    5.7783723    5.7130241    7.2334130  
  14 H       8.2488641    7.7491292    5.4548056    5.9743371    6.9946789  
  15 H       9.3328567    8.5183690    6.7046167    6.5693475    8.1947976  
  16 O       5.0254068    5.8439691    2.8025416 *  3.6126272    3.5430306  
  17 H       4.0876056    5.2660623    2.2364324 *  3.2596221    2.5759389 *
  18 H       5.1670413    5.4785518    2.4797829 *  3.8367723    3.7882949  
  19 O       5.6011595    5.8646608    3.8490733    2.5156437 *  4.4445746  
  20 H       5.2258056    5.7740272    3.2604622    2.7679086 *  3.8947459  
  21 H       4.9234291    5.2745722    3.6630141    1.5990932 *  3.9390255  
  22 O       7.9533242    8.1412067    5.7881485    5.0521031    6.6381636  
  23 H       7.1171956    7.3592899    5.1615127    4.0784219    5.8669587  
  24 H       8.1920338    8.0171533    5.8145232    5.2833503    6.9287781  
  25 H       4.5228948    3.9104499    1.6926128 *  4.1028189    3.6256899  
  26 O       2.5420429 *  1.2207727 *  2.7617141 *  4.3182023    3.1032655  
  27 H       0.9901449 *  3.6930868    3.7982491    4.4354299    2.2038612 *
  28 H       2.9526405 *  1.8130875 *  2.0350930 *  4.1415802    2.9862044 *
  29 O       3.5968959    2.9372295 *  1.0818644 *  3.5820738    2.9123815 *
  30 H       1.5152075 *  1.8000664 *  2.6534691 *  4.0070785    2.3200723 *
  31 O       0.0000000    2.9389423 *  2.9415008 *  3.5699646    1.5237180 *
  32 H       2.9389423 *  0.0000000    3.2046743    3.8952262    3.5615959  
  33 H       2.9415008 *  3.2046743    0.0000000    3.0056983    1.9446649 *
  34 O       3.5699646    3.8952262    3.0056983    0.0000000    2.9474387 *
  35 H       1.5237180 *  3.5615959    1.9446649 *  2.9474387 *  0.0000000  
  36 O       2.5085330 *  3.9057479    1.4451382 *  2.5372712 *  1.0523920 *
  37 H       3.0974735    3.5763707    3.4332026    1.0484954 *  2.9207013 *
  38 O       2.4398224 *  2.9563484 *  3.9149661    2.5143846 *  3.0555648  
  39 H       1.2391572 *  2.7814144 *  3.3615377    2.9160530 *  2.1511497 *
  40 H       3.9474597    2.6302866 *  1.9562422 *  2.8448178 *  3.4415779  
  41 O       3.5289107    1.2426660 *  3.7827793    3.5025830    4.0863295  
  42 O       4.4067267    2.9109422 *  2.8436596 *  2.5414816 *  4.0124734  
  43 H       3.8134537    3.3341473    2.7585119 *  1.0676254 *  3.2874739  
  44 H       3.9904127    1.8268211 *  3.4874695    3.0926684    4.1740960  
  45 H       5.3103097    3.9065057    3.3586077    2.9894118 *  4.7160622  
  46 H       2.7760105 *  3.8000037    1.9304416 *  1.4743822 *  1.6753798 *
  47 H       3.0591477    3.7047476    4.8833062    3.2656360    3.8424501  
  48 H       3.0100062    1.8107983 *  3.8125788    2.9714403 *  3.6528777  

               36 O         37 H         38 O         39 H         40 H     

   1 O       5.0496751    6.6255681    7.9362316    7.7458028    5.7896852  
   2 H       4.0730637    5.8490112    7.0909915    6.8195238    5.1535925  
   3 H       5.2954784    6.3289367    7.7535913    7.7497270    5.7729076  
   4 O       4.4350843    4.5259286    5.7130257    5.9746894    2.7688071 *
   5 H       3.9421620    3.9319924    5.2811932    5.5634032    2.9977301 *
   6 H       5.2945339    5.4852731    6.7289440    6.9964939    3.7647555  
   7 O       5.7196267    7.2309702    8.4050598    8.2479791    5.2234110  
   8 H       6.5726969    8.1885180    9.3247214    9.1274699    6.0227213  
   9 H       5.2943390    6.9258212    8.1857768    7.9885129    5.5669713  
  10 O       3.6720542    5.2926331    6.2307633    5.9794837    2.8862815 *
  11 H       3.8428491    4.8424938    5.8855110    5.8445807    2.4939447 *
  12 H       4.5579509    6.2128356    7.2305097    6.9922818    3.8920924  
  13 O       6.2336829    6.7287897    8.0566393    8.2582705    5.1407174  
  14 H       5.9820581    6.9960873    8.2575197    8.2813624    5.1273077  
  15 H       7.2052664    7.5663586    8.8874500    9.1471058    5.9315769  
  16 O       2.5182091 *  4.4812639    5.6121868    5.2788385    3.8394220  
  17 H       1.6061249 *  3.9587871    4.9174191    4.4393749    3.6616015  
  18 H       2.7858334 *  4.7235209    5.7755207    5.4528449    3.2587255  
  19 O       3.5283892    3.5356785    5.0263536    5.2670303    3.7593939  
  20 H       2.8887422 *  3.7639208    5.1398913    5.1281170    3.6591284  
  21 H       3.1809161    2.5651615 *  4.0864416    4.4340877    3.5332817  
  22 O       5.6218963    6.0694767    7.5635734    7.7541914    5.7188940  
  23 H       4.8911193    5.0778539    6.5881462    6.8335533    5.0643781  
  24 H       5.9039662    6.3187116    7.7718900    7.9921423    5.4806457  
  25 H       3.0135065    4.7172621    5.3043413    4.9048179    1.9743509 *
  26 O       3.5463519    4.0989620    3.5300884    2.9204013 *  2.8777807 *
  27 H       3.2538260    3.8855950    3.0619657    1.8768735 *  4.9205528  
  28 H       3.1456172    4.1802753    3.9875445    3.4063697    2.2348181 *
  29 O       2.5193803 *  4.0123676    4.3981582    3.9577323    1.4666111 *
  30 H       3.0066626    3.6751933    3.0060524    2.1235241 *  3.2754646  
  31 O       2.5085330 *  3.0974735    2.4398224 *  1.2391572 *  3.9474597  
  32 H       3.9057479    3.5763707    2.9563484 *  2.7814144 *  2.6302866 *
  33 H       1.4451382 *  3.4332026    3.9149661    3.3615377    1.9562422 *
  34 O       2.5372712 *  1.0484954 *  2.5143846 *  2.9160530 *  2.8448178 *
  35 H       1.0523920 *  2.9207013 *  3.0555648    2.1511497 *  3.4415779  
  36 O       0.0000000    2.8873560 *  3.4991871    2.8778753 *  3.0049762  
  37 H       2.8873560 *  0.0000000    1.5355686 *  2.1707281 *  3.3070222  
  38 O       3.4991871    1.5355686 *  0.0000000    1.2153176 *  3.8567750  
  39 H       2.8778753 *  2.1707281 *  1.2153176 *  0.0000000    3.8401352  
  40 H       3.0049762    3.3070222    3.8567750    3.8401352    0.0000000  
  41 O       4.3104974    3.1000891    2.5576698 *  2.9169310 *  2.7457898 *
  42 O       3.5804992    2.9896436 *  3.6721045    3.9919087    1.0725808 *
  43 H       2.8390024 *  1.6749375 *  2.7981145 *  3.2203879    1.9610222 *
  44 H       4.1387464    2.9855145 *  2.9747697 *  3.4080338    2.0263680 *
  45 H       4.0986346    3.6572343    4.5681684    4.9230508    1.6797409 *
  46 H       1.0726064 *  1.9472297 *  2.9049431 *  2.6566570 *  2.7539792 *
  47 H       4.3604649    2.2196664 *  0.9901537 *  1.8524515 *  4.8175486  
  48 H       3.9729955    2.3193782 *  1.5367516 *  2.1197238 *  3.1358913  

               41 O         42 O         43 H         44 H         45 H     

   1 O       8.2808517    6.0980611    5.7354743    7.5610797    5.6078169  
   2 H       7.5553700    5.5427936    5.0790833    6.9157261    5.2078842  
   3 H       8.1411392    5.8635218    5.4209826    7.3586080    5.2737467  
   4 O       5.0523372    2.5159078 *  2.9270781 *  4.0783555    1.5994697 *
   5 H       5.1206484    2.7099284 *  2.5333267 *  4.2241009    2.0384851 *
   6 H       6.0698670    3.5362275    3.9325457    5.0780089    2.5659829 *
   7 O       7.9520036    5.5983171    5.8785879    7.1150714    4.9208234  
   8 H       8.7621802    6.4405777    6.8158336    7.9295537    5.7539869  
   9 H       8.2034951    5.9284690    5.8279392    7.4337777    5.3592045  
  10 O       5.6210486    3.5257460    3.9393841    4.8896708    3.1791751  
  11 H       5.1933284    2.8360309 *  3.3249381    4.3397459    2.2711127 *
  12 H       6.6369741    4.4416082    4.8448447    5.8650795    3.9366916  
  13 O       7.5637683    5.0264931    5.2815013    6.5879448    4.0867248  
  14 H       7.7536207    5.2656443    5.5626782    6.8323723    4.4328562  
  15 H       8.2744222    5.7476599    6.0948309    7.2703704    4.7559333  
  16 O       6.0957335    4.3154377    3.7805162    5.5456688    4.2152374  
  17 H       5.6096813    4.2207069    3.5519443    5.2150618    4.3695071  
  18 H       5.7878922    3.8469127    3.6978077    5.1605845    3.6617312  
  19 O       5.5813845    3.5480116    2.7101204 *  4.8533770    3.2094871  
  20 H       5.7193281    3.7585476    2.9967723 *  5.0641483    3.5326355  
  21 H       4.8966600    3.2094550    2.0387621 *  4.2705132    3.1328525  
  22 O       7.9113273    5.5810614    5.1207889    7.0704799    4.8966860  
  23 H       7.0708367    4.8534992    4.2246598    6.2695904    4.2708474  
  24 H       7.7773252    5.3196262    5.1365100    6.8639429    4.5020605  
  25 H       4.4717512    2.9543280 *  3.5251153    3.9283900    3.0770836  
  26 O       2.4410241 *  3.5226471    3.8765117    2.8627509 *  4.4464466  
  27 H       4.3222701    5.3921707    4.7677064    4.8924038    6.3004260  
  28 H       2.8662613 *  3.1058405    3.6096060    2.9217782 *  3.8919080  
  29 O       3.5777705    2.5313243 *  3.0161723    3.1812429    2.9972614 *
  30 H       2.8013821 *  3.8824190    3.8308626    3.2984930    4.8286322  
  31 O       3.5289107    4.4067267    3.8134537    3.9904127    5.3103097  
  32 H       1.2426660 *  2.9109422 *  3.3341473    1.8268211 *  3.9065057  
  33 H       3.7827793    2.8436596 *  2.7585119 *  3.4874695    3.3586077  
  34 O       3.5025830    2.5414816 *  1.0676254 *  3.0926684    2.9894118 *
  35 H       4.0863295    4.0124734    3.2874739    4.1740960    4.7160622  
  36 O       4.3104974    3.5804992    2.8390024 *  4.1387464    4.0986346  
  37 H       3.1000891    2.9896436 *  1.6749375 *  2.9855145 *  3.6572343  
  38 O       2.5576698 *  3.6721045    2.7981145 *  2.9747697 *  4.5681684  
  39 H       2.9169310 *  3.9919087    3.2203879    3.4080338    4.9230508  
  40 H       2.7457898 *  1.0725808 *  1.9610222 *  2.0263680 *  1.6797409 *
  41 O       0.0000000    2.5374934 *  2.8852659 *  1.0352543 *  3.5214476  
  42 O       2.5374934 *  0.0000000    1.4822433 *  1.5816588 *  1.0338336 *
  43 H       2.8852659 *  1.4822433 *  0.0000000    2.2437765 *  2.0012875 *
  44 H       1.0352543 *  1.5816588 *  2.2437765 *  0.0000000    2.5153586 *
  45 H       3.5214476    1.0338336 *  2.0012875 *  2.5153586 *  0.0000000  
  46 H       3.8863215    3.0125584    1.9482920 *  3.6150033    3.5177874  
  47 H       3.2092586    4.5507363    3.6461772    3.7323387    5.4199664  
  48 H       1.0500675 *  2.8775336 *  2.6592419 *  1.6748015 *  3.8635949  

               46 H         47 H         48 H     

   1 O       5.1079876    8.7516903    8.1939786  
   2 H       4.2142300    7.9097430    7.4181769  
   3 H       5.1006305    8.5170898    8.0159372  
   4 O       3.9398575    6.5690250    5.2826828  
   5 H       3.3276090    6.0937860    5.1353741  
   6 H       4.8446193    7.5661803    6.3182449  
   7 O       5.8082705    9.3307208    8.1894731  
   8 H       6.7322502   10.2629412    9.0567774  
   9 H       5.3960718    9.0587112    8.2513101  
  10 O       3.8425577    7.2020934    5.9011297  
  11 H       3.7123071    6.8303385    5.4797899  
  12 H       4.7381852    8.1915668    6.9257694  
  13 O       5.8882055    8.8868563    7.7711367  
  14 H       5.8468546    9.1458713    7.9905190  
  15 H       6.8332928    9.6982480    8.5307387  
  16 O       2.7144299 *  6.4656370    5.9317526  
  17 H       2.0513375 *  5.7562227    5.3589669  
  18 H       3.0169711    6.7011111    5.8120102  
  19 O       2.8385559 *  5.7463234    5.3187916  
  20 H       2.4958422 *  5.9296161    5.4794833  
  21 H       2.2730047 *  4.7543880    4.5010143  
  22 O       5.1945223    8.2733539    7.7763666  
  23 H       4.3414423    7.2695659    6.8633627  
  24 H       5.4826601    8.5306551    7.7773529  
  25 H       3.3509699    6.2941453    4.8333655  
  26 O       3.7840562    4.3165437    2.7958821 *
  27 H       3.6158283    3.4374132    3.7651338  
  28 H       3.4755823    4.8851102    3.2916888  
  29 O       2.8284172 *  5.3821086    3.9035426  
  30 H       3.3155650    3.7528945    2.7541967 *
  31 O       2.7760105 *  3.0591477    3.0100062  
  32 H       3.8000037    3.7047476    1.8107983 *
  33 H       1.9304416 *  4.8833062    3.8125788  
  34 O       1.4743822 *  3.2656360    2.9714403 *
  35 H       1.6753798 *  3.8424501    3.6528777  
  36 O       1.0726064 *  4.3604649    3.9729955  
  37 H       1.9472297 *  2.2196664 *  2.3193782 *
  38 O       2.9049431 *  0.9901537 *  1.5367516 *
  39 H       2.6566570 *  1.8524515 *  2.1197238 *
  40 H       2.7539792 *  4.8175486    3.1358913  
  41 O       3.8863215    3.2092586    1.0500675 *
  42 O       3.0125584    4.5507363    2.8775336 *
  43 H       1.9482920 *  3.6461772    2.6592419 *
  44 H       3.6150033    3.7323387    1.6748015 *
  45 H       3.5177874    5.4199664    3.8635949  
  46 H       0.0000000    3.7615946    3.4421893  
  47 H       3.7615946    0.0000000    2.1681810 *
  48 H       3.4421893    2.1681810 *  0.0000000  

  * ... LESS THAN  3.000


     ATOMIC BASIS SET
     ----------------
 THE CONTRACTED PRIMITIVE FUNCTIONS HAVE BEEN UNNORMALIZED
 THE CONTRACTED BASIS FUNCTIONS ARE NOW NORMALIZED TO UNITY

  SHELL TYPE  PRIMITIVE        EXPONENT          CONTRACTION COEFFICIENT(S)

 O         

      1   S       1           322.0370000    0.059239393389
      1   S       2            48.4308000    0.351499960776
      1   S       3            10.4206000    0.707657921031

      2   L       4             7.4029400   -0.404453583190    0.244586106967
      2   L       5             1.5762000    1.221561761397    0.853955373466

      3   L       6             0.3736840    1.000000000000    1.000000000000

 H         

      4   S       7             5.4471780    0.156284978695
      4   S       8             0.8245472    0.904690876670

      5   S       9             0.1831916    1.000000000000

 H         

      6   S      10             5.4471780    0.156284978695
      6   S      11             0.8245472    0.904690876670

      7   S      12             0.1831916    1.000000000000

 O         

      8   S      13           322.0370000    0.059239393389
      8   S      14            48.4308000    0.351499960776
      8   S      15            10.4206000    0.707657921031

      9   L      16             7.4029400   -0.404453583190    0.244586106967
      9   L      17             1.5762000    1.221561761397    0.853955373466

     10   L      18             0.3736840    1.000000000000    1.000000000000

 H         

     11   S      19             5.4471780    0.156284978695
     11   S      20             0.8245472    0.904690876670

     12   S      21             0.1831916    1.000000000000

 H         

     13   S      22             5.4471780    0.156284978695
     13   S      23             0.8245472    0.904690876670

     14   S      24             0.1831916    1.000000000000

 O         

     15   S      25           322.0370000    0.059239393389
     15   S      26            48.4308000    0.351499960776
     15   S      27            10.4206000    0.707657921031

     16   L      28             7.4029400   -0.404453583190    0.244586106967
     16   L      29             1.5762000    1.221561761397    0.853955373466

     17   L      30             0.3736840    1.000000000000    1.000000000000

 H         

     18   S      31             5.4471780    0.156284978695
     18   S      32             0.8245472    0.904690876670

     19   S      33             0.1831916    1.000000000000

 H         

     20   S      34             5.4471780    0.156284978695
     20   S      35             0.8245472    0.904690876670

     21   S      36             0.1831916    1.000000000000

 O         

     22   S      37           322.0370000    0.059239393389
     22   S      38            48.4308000    0.351499960776
     22   S      39            10.4206000    0.707657921031

     23   L      40             7.4029400   -0.404453583190    0.244586106967
     23   L      41             1.5762000    1.221561761397    0.853955373466

     24   L      42             0.3736840    1.000000000000    1.000000000000

 H         

     25   S      43             5.4471780    0.156284978695
     25   S      44             0.8245472    0.904690876670

     26   S      45             0.1831916    1.000000000000

 H         

     27   S      46             5.4471780    0.156284978695
     27   S      47             0.8245472    0.904690876670

     28   S      48             0.1831916    1.000000000000

 O         

     29   S      49           322.0370000    0.059239393389
     29   S      50            48.4308000    0.351499960776
     29   S      51            10.4206000    0.707657921031

     30   L      52             7.4029400   -0.404453583190    0.244586106967
     30   L      53             1.5762000    1.221561761397    0.853955373466

     31   L      54             0.3736840    1.000000000000    1.000000000000

 H         

     32   S      55             5.4471780    0.156284978695
     32   S      56             0.8245472    0.904690876670

     33   S      57             0.1831916    1.000000000000

 H         

     34   S      58             5.4471780    0.156284978695
     34   S      59             0.8245472    0.904690876670

     35   S      60             0.1831916    1.000000000000

 O         

     36   S      61           322.0370000    0.059239393389
     36   S      62            48.4308000    0.351499960776
     36   S      63            10.4206000    0.707657921031

     37   L      64             7.4029400   -0.404453583190    0.244586106967
     37   L      65             1.5762000    1.221561761397    0.853955373466

     38   L      66             0.3736840    1.000000000000    1.000000000000

 H         

     39   S      67             5.4471780    0.156284978695
     39   S      68             0.8245472    0.904690876670

     40   S      69             0.1831916    1.000000000000

 H         

     41   S      70             5.4471780    0.156284978695
     41   S      71             0.8245472    0.904690876670

     42   S      72             0.1831916    1.000000000000

 O         

     43   S      73           322.0370000    0.059239393389
     43   S      74            48.4308000    0.351499960776
     43   S      75            10.4206000    0.707657921031

     44   L      76             7.4029400   -0.404453583190    0.244586106967
     44   L      77             1.5762000    1.221561761397    0.853955373466

     45   L      78             0.3736840    1.000000000000    1.000000000000

 H         

     46   S      79             5.4471780    0.156284978695
     46   S      80             0.8245472    0.904690876670

     47   S      81             0.1831916    1.000000000000

 H         

     48   S      82             5.4471780    0.156284978695
     48   S      83             0.8245472    0.904690876670

     49   S      84             0.1831916    1.000000000000

 O         

     50   S      85           322.0370000    0.059239393389
     50   S      86            48.4308000    0.351499960776
     50   S      87            10.4206000    0.707657921031

     51   L      88             7.4029400   -0.404453583190    0.244586106967
     51   L      89             1.5762000    1.221561761397    0.853955373466

     52   L      90             0.3736840    1.000000000000    1.000000000000

 H         

     53   S      91             5.4471780    0.156284978695
     53   S      92             0.8245472    0.904690876670

     54   S      93             0.1831916    1.000000000000

 H         

     55   S      94             5.4471780    0.156284978695
     55   S      95             0.8245472    0.904690876670

     56   S      96             0.1831916    1.000000000000

 H         

     57   S      97             5.4471780    0.156284978695
     57   S      98             0.8245472    0.904690876670

     58   S      99             0.1831916    1.000000000000

 O         

     59   S     100           322.0370000    0.059239393389
     59   S     101            48.4308000    0.351499960776
     59   S     102            10.4206000    0.707657921031

     60   L     103             7.4029400   -0.404453583190    0.244586106967
     60   L     104             1.5762000    1.221561761397    0.853955373466

     61   L     105             0.3736840    1.000000000000    1.000000000000

 H         

     62   S     106             5.4471780    0.156284978695
     62   S     107             0.8245472    0.904690876670

     63   S     108             0.1831916    1.000000000000

 H         

     64   S     109             5.4471780    0.156284978695
     64   S     110             0.8245472    0.904690876670

     65   S     111             0.1831916    1.000000000000

 O         

     66   S     112           322.0370000    0.059239393389
     66   S     113            48.4308000    0.351499960776
     66   S     114            10.4206000    0.707657921031

     67   L     115             7.4029400   -0.404453583190    0.244586106967
     67   L     116             1.5762000    1.221561761397    0.853955373466

     68   L     117             0.3736840    1.000000000000    1.000000000000

 H         

     69   S     118             5.4471780    0.156284978695
     69   S     119             0.8245472    0.904690876670

     70   S     120             0.1831916    1.000000000000

 O         

     71   S     121           322.0370000    0.059239393389
     71   S     122            48.4308000    0.351499960776
     71   S     123            10.4206000    0.707657921031

     72   L     124             7.4029400   -0.404453583190    0.244586106967
     72   L     125             1.5762000    1.221561761397    0.853955373466

     73   L     126             0.3736840    1.000000000000    1.000000000000

 H         

     74   S     127             5.4471780    0.156284978695
     74   S     128             0.8245472    0.904690876670

     75   S     129             0.1831916    1.000000000000

 H         

     76   S     130             5.4471780    0.156284978695
     76   S     131             0.8245472    0.904690876670

     77   S     132             0.1831916    1.000000000000

 O         

     78   S     133           322.0370000    0.059239393389
     78   S     134            48.4308000    0.351499960776
     78   S     135            10.4206000    0.707657921031

     79   L     136             7.4029400   -0.404453583190    0.244586106967
     79   L     137             1.5762000    1.221561761397    0.853955373466

     80   L     138             0.3736840    1.000000000000    1.000000000000

 H         

     81   S     139             5.4471780    0.156284978695
     81   S     140             0.8245472    0.904690876670

     82   S     141             0.1831916    1.000000000000

 O         

     83   S     142           322.0370000    0.059239393389
     83   S     143            48.4308000    0.351499960776
     83   S     144            10.4206000    0.707657921031

     84   L     145             7.4029400   -0.404453583190    0.244586106967
     84   L     146             1.5762000    1.221561761397    0.853955373466

     85   L     147             0.3736840    1.000000000000    1.000000000000

 H         

     86   S     148             5.4471780    0.156284978695
     86   S     149             0.8245472    0.904690876670

     87   S     150             0.1831916    1.000000000000

 O         

     88   S     151           322.0370000    0.059239393389
     88   S     152            48.4308000    0.351499960776
     88   S     153            10.4206000    0.707657921031

     89   L     154             7.4029400   -0.404453583190    0.244586106967
     89   L     155             1.5762000    1.221561761397    0.853955373466

     90   L     156             0.3736840    1.000000000000    1.000000000000

 H         

     91   S     157             5.4471780    0.156284978695
     91   S     158             0.8245472    0.904690876670

     92   S     159             0.1831916    1.000000000000

 H         

     93   S     160             5.4471780    0.156284978695
     93   S     161             0.8245472    0.904690876670

     94   S     162             0.1831916    1.000000000000

 O         

     95   S     163           322.0370000    0.059239393389
     95   S     164            48.4308000    0.351499960776
     95   S     165            10.4206000    0.707657921031

     96   L     166             7.4029400   -0.404453583190    0.244586106967
     96   L     167             1.5762000    1.221561761397    0.853955373466

     97   L     168             0.3736840    1.000000000000    1.000000000000

 O         

     98   S     169           322.0370000    0.059239393389
     98   S     170            48.4308000    0.351499960776
     98   S     171            10.4206000    0.707657921031

     99   L     172             7.4029400   -0.404453583190    0.244586106967
     99   L     173             1.5762000    1.221561761397    0.853955373466

    100   L     174             0.3736840    1.000000000000    1.000000000000

 H         

    101   S     175             5.4471780    0.156284978695
    101   S     176             0.8245472    0.904690876670

    102   S     177             0.1831916    1.000000000000

 H         

    103   S     178             5.4471780    0.156284978695
    103   S     179             0.8245472    0.904690876670

    104   S     180             0.1831916    1.000000000000

 H         

    105   S     181             5.4471780    0.156284978695
    105   S     182             0.8245472    0.904690876670

    106   S     183             0.1831916    1.000000000000

 H         

    107   S     184             5.4471780    0.156284978695
    107   S     185             0.8245472    0.904690876670

    108   S     186             0.1831916    1.000000000000

 H         

    109   S     187             5.4471780    0.156284978695
    109   S     188             0.8245472    0.904690876670

    110   S     189             0.1831916    1.000000000000

 H         

    111   S     190             5.4471780    0.156284978695
    111   S     191             0.8245472    0.904690876670

    112   S     192             0.1831916    1.000000000000

 TOTAL NUMBER OF BASIS SET SHELLS             =  112
 NUMBER OF CARTESIAN GAUSSIAN BASIS FUNCTIONS =  208
 NUMBER OF ELECTRONS                          =  159
 CHARGE OF MOLECULE                           =    1
 SPIN MULTIPLICITY                            =    2
 NUMBER OF OCCUPIED ORBITALS (ALPHA)          =   80
 NUMBER OF OCCUPIED ORBITALS (BETA )          =   79
 TOTAL NUMBER OF ATOMS                        =   48
 THE NUCLEAR REPULSION ENERGY IS     1770.4398617875

     $CONTRL OPTIONS
     ---------------
 SCFTYP=UHF          RUNTYP=ENERGY       EXETYP=RUN     
 MPLEVL=       0     CITYP =NONE         CCTYP =NONE         VBTYP =NONE    
 DFTTYP=NONE         TDDFT =NONE    
 MULT  =       2     ICHARG=       1     NZVAR =       0     COORD =UNIQUE  
 PP    =NONE         RELWFN=NONE         LOCAL =NONE         NUMGRD=       F
 ISPHER=      -1     NOSYM =       0     MAXIT =      60     UNITS =ANGS    
 PLTORB=       F     MOLPLT=       F     AIMPAC=       F     FRIEND=        
 NPRINT=       7     IREST =       0     GEOM  =INPUT   
 NORMF =       0     NORMP =       0     ITOL  =      20     ICUT  =       9
 INTTYP=BEST         GRDTYP=BEST         QMTTOL= 1.0E-06

     $SYSTEM OPTIONS
     ---------------
  REPLICATED MEMORY=    30000000 WORDS (ON EVERY NODE).
 DISTRIBUTED MEMDDI=        1000 MILLION WORDS IN AGGREGATE,
 MEMDDI DISTRIBUTED OVER   6 PROCESSORS IS   166666666 WORDS/PROCESSOR.
 TOTAL MEMORY REQUESTED ON EACH PROCESSOR=   196666666 WORDS.
 TIMLIM=      525600.00 MINUTES, OR     365.0 DAYS.
 PARALL= T  BALTYP=  DLB     KDIAG=    0  COREFL= F
 MXSEQ2=     300 MXSEQ3=     150  mem10=         0

          ----------------
          PROPERTIES INPUT
          ----------------

     MOMENTS            FIELD           POTENTIAL          DENSITY
 IEMOM =       1   IEFLD =       0   IEPOT =       0   IEDEN =       0
 WHERE =COMASS     WHERE =NUCLEI     WHERE =NUCLEI     WHERE =NUCLEI  
 OUTPUT=BOTH       OUTPUT=BOTH       OUTPUT=BOTH       OUTPUT=BOTH    
 IEMINT=       0   IEFINT=       0                     IEDINT=       0
                                                       MORB  =       0
          EXTRAPOLATION IN EFFECT
          SOSCF IN EFFECT
          DIIS or SOSCF will be reset if energy rises
 ORBITAL PRINTING OPTION: NPREO=     1   208     2     1

     -------------------------------
     INTEGRAL TRANSFORMATION OPTIONS
     -------------------------------
     NWORD  =            0
     CUTOFF = 1.0E-09     MPTRAN =       0
     DIRTRF =       T     AOINTS =DUP     

          ----------------------
          INTEGRAL INPUT OPTIONS
          ----------------------
 NOPK  =       1 NORDER=       0 SCHWRZ=       T

     ------------------------------------------
     THE POINT GROUP IS C1 , NAXIS= 0, ORDER= 1
     ------------------------------------------

     DIMENSIONS OF THE SYMMETRY SUBSPACES ARE
 A   =  208

 ..... DONE SETTING UP THE RUN .....
 CPU     0: STEP CPU TIME=     0.03 TOTAL CPU TIME=          0.0 (      0.0 MIN)
 TOTAL WALL CLOCK TIME=          0.1 SECONDS, CPU UTILIZATION IS    50.00%

          ********************
          1 ELECTRON INTEGRALS
          ********************
 ...... END OF ONE-ELECTRON INTEGRALS ......
 CPU     0: STEP CPU TIME=     0.02 TOTAL CPU TIME=          0.0 (      0.0 MIN)
 TOTAL WALL CLOCK TIME=          0.1 SECONDS, CPU UTILIZATION IS    50.00%

          -------------
          GUESS OPTIONS
          -------------
          GUESS =HUCKEL            NORB  =       0          NORDER=       0
          MIX   =       F          PRTMO =       F          PUNMO =       F
          TOLZ  = 1.0E-08          TOLE  = 1.0E-05
          SYMDEN=       F          PURIFY=       F

 INITIAL GUESS ORBITALS GENERATED BY HUCKEL   ROUTINE.
 HUCKEL GUESS REQUIRES    398416 WORDS.

 SYMMETRIES FOR INITIAL GUESS ORBITALS FOLLOW.  ALPHA SET(S).
    80 ORBITALS ARE OCCUPIED (   16 CORE ORBITALS).
    17=A       18=A       19=A       20=A       21=A       22=A       23=A   
    24=A       25=A       26=A       27=A       28=A       29=A       30=A   
    31=A       32=A       33=A       34=A       35=A       36=A       37=A   
    38=A       39=A       40=A       41=A       42=A       43=A       44=A   
    45=A       46=A       47=A       48=A       49=A       50=A       51=A   
    52=A       53=A       54=A       55=A       56=A       57=A       58=A   
    59=A       60=A       61=A       62=A       63=A       64=A       65=A   
    66=A       67=A       68=A       69=A       70=A       71=A       72=A   
    73=A       74=A       75=A       76=A       77=A       78=A       79=A   
    80=A       81=A       82=A       83=A       84=A       85=A       86=A   
    87=A       88=A       89=A       90=A   

 SYMMETRIES FOR INITIAL GUESS ORBITALS FOLLOW.   BETA SET(S).
    79 ORBITALS ARE OCCUPIED (   16 CORE ORBITALS).
    17=A       18=A       19=A       20=A       21=A       22=A       23=A   
    24=A       25=A       26=A       27=A       28=A       29=A       30=A   
    31=A       32=A       33=A       34=A       35=A       36=A       37=A   
    38=A       39=A       40=A       41=A       42=A       43=A       44=A   
    45=A       46=A       47=A       48=A       49=A       50=A       51=A   
    52=A       53=A       54=A       55=A       56=A       57=A       58=A   
    59=A       60=A       61=A       62=A       63=A       64=A       65=A   
    66=A       67=A       68=A       69=A       70=A       71=A       72=A   
    73=A       74=A       75=A       76=A       77=A       78=A       79=A   
    80=A       81=A       82=A       83=A       84=A       85=A       86=A   
    87=A       88=A       89=A   
 ...... END OF INITIAL ORBITAL SELECTION ......
 CPU     0: STEP CPU TIME=     0.09 TOTAL CPU TIME=          0.1 (      0.0 MIN)
 TOTAL WALL CLOCK TIME=          0.3 SECONDS, CPU UTILIZATION IS    53.85%

                    ----------------------
                    AO INTEGRAL TECHNOLOGY
                    ----------------------
     S,P,L SHELL ROTATED AXIS INTEGRALS, REPROGRAMMED BY
        KAZUYA ISHIMURA (IMS) AND JOSE SIERRA (SYNSTAR).
     S,P,D,L SHELL ROTATED AXIS INTEGRALS PROGRAMMED BY
        KAZUYA ISHIMURA (INSTITUTE FOR MOLECULAR SCIENCE).
     S,P,D,F,G SHELL TO TOTAL QUARTET ANGULAR MOMENTUM SUM 5,
        ERIC PROGRAM BY GRAHAM FLETCHER (ELORET AND NASA ADVANCED
        SUPERCOMPUTING DIVISION, AMES RESEARCH CENTER).
     S,P,D,F,G,L SHELL GENERAL RYS QUADRATURE PROGRAMMED BY
        MICHEL DUPUIS (PACIFIC NORTHWEST NATIONAL LABORATORY).

          --------------------
          2 ELECTRON INTEGRALS
          --------------------

 DIRECT SCF METHOD SKIPS INTEGRAL STORAGE ON DISK.
 DIRECT TRANSFORMATION SKIPS AO INTEGRAL STORAGE ON DISK.
  ...... END OF TWO-ELECTRON INTEGRALS .....
 CPU     0: STEP CPU TIME=     0.02 TOTAL CPU TIME=          0.2 (      0.0 MIN)
 TOTAL WALL CLOCK TIME=          0.3 SECONDS, CPU UTILIZATION IS    57.14%

          ---------------------------
                  UHF SCF CALCULATION
          ---------------------------

     NUCLEAR ENERGY =      1770.4398617875
     MAXIT = 60     NPUNCH=  2     MULT=  2
     EXTRAP=T  DAMP=F  SHIFT=F  RSTRCT=F  DIIS=F  SOSCF=T
     DENSITY MATRIX CONV=  2.00E-05
     SOSCF WILL OPTIMIZE   10240 ALPHA AND   10191 BETA ROTATION ANGLES.
     SOGTOL= 2.500E-01
     MEMORY REQUIRED FOR UHF/ROHF ITERS=    635997 WORDS.

 DIRECT SCF CALCULATION, SCHWRZ=T   FDIFF=T
 SCHWARZ INEQUALITY OVERHEAD:     16656 INTEGRALS, T=        0.00

                                                                                NONZERO     BLOCKS
 ITER EX      TOTAL ENERGY        E CHANGE  DENSITY CHANGE    ORB. GRAD       INTEGRALS    SKIPPED
   1  0    -1205.8205331348 -1205.8205331348   0.560855826   0.000000000       49912783   15180475
          ---------------START SECOND ORDER SCF---------------
   2  1    -1209.2833789274    -3.4628457926   0.117960924   0.061424571       49461215   15245254
   3  2    -1209.4186037996    -0.1352248722   0.038690709   0.016805153       46552187   15727142
   4  3    -1209.4302659197    -0.0116621201   0.011430187   0.007699625       45329479   15942933
   5  4    -1209.4335554231    -0.0032895034   0.021486201   0.010433666       42257173   16349000
   6  5    -1209.4370176925    -0.0034622694   0.027427560   0.007558166       44755153   16119608
   7  6    -1209.4390545333    -0.0020368407   0.022529231   0.005540172       44735397   16118214
   8  7    -1209.4423299103    -0.0032753770   0.494192934   0.012082718       42678820   16295227
   9  8    -1208.2441410385     1.1981888718   0.473354827   0.187484589       49632794   15241818
  10  9    -1209.3925108241    -1.1483697857   0.069646527   0.032052625       49627660   15241834
  11 10    -1209.4281106282    -0.0355998040   0.035031607   0.021630255       46917054   15769787
  12 11    -1209.4363473225    -0.0082366944   0.015725794   0.009638525       44680423   16029504
  13 12    -1209.4384909792    -0.0021436567   0.109574687   0.005759277       41538839   16352156
  14 13    -1209.4380643031     0.0004266761   0.062161750   0.029198021       47051196   15702056
  15 14    -1209.4467118322    -0.0086475290   0.037238978   0.014041084       45825980   15865799
  16 15    -1209.4572405426    -0.0105287104   0.167973217   0.021539973       44188494   16099183
  17 16    -1209.2448395773     0.2124009653   0.158861130   0.057319730       48128986   15525134
  18 17    -1209.4433505938    -0.1985110165   0.032175205   0.026917999       48073818   15541813
  19 18    -1209.4524231023    -0.0090725085   0.011784251   0.032280268       46006273   15916699
  20 19    -1209.4494246211     0.0029984812   0.019076535   0.032295502       42778319   16252048
  21 20    -1209.4536957228    -0.0042711017   0.010249486   0.031903491       43595904   16158862
  22 21    -1209.4551983674    -0.0015026446   0.101099104   0.031555930       39379551   16583624
  23 22    -1209.4592464895    -0.0040481221   0.056216222   0.022653465       46251715   15841233
  24 23    -1209.4671599874    -0.0079134979   0.015773320   0.026094876       44518126   16046855
  25 24    -1209.4744286112    -0.0072686238   0.038399259   0.017588642       42366494   16339195
  26 25    -1209.4814125635    -0.0069839523   0.017625258   0.006142842       44861788   15999422
  27 26    -1209.4834114099    -0.0019988465   0.012214041   0.006470848       40583686   16439829
  28 27    -1209.4845195279    -0.0011081179   0.029060273   0.005246497       38715332   16615112
  29 28    -1209.4859806890    -0.0014611611   0.008218943   0.002637937       40836505   16376537
  30 29    -1209.4863525259    -0.0003718369   0.011655003   0.002067415       38128011   16648932
  31 30    -1209.4867003660    -0.0003478401   0.012690127   0.001109507       38139400   16638332
  32 31    -1209.4869619187    -0.0002615527   0.010134477   0.000722520       37610998   16687381
  33 32    -1209.4871154538    -0.0001535351   0.004926996   0.000572527       36787734   16778422
  34 33    -1209.4871800515    -0.0000645977   0.002047688   0.000435115       35826663   16876383
  35 34    -1209.4871992078    -0.0000191563   0.001083440   0.000236537       33961560   17063819
  36 35    -1209.4872055114    -0.0000063036   0.001193514   0.000139299       31602991   17286698
  37 36    -1209.4872090108    -0.0000034994   0.001183974   0.000138137       30682131   17371362
  38 37    -1209.4872113509    -0.0000023401   0.001077232   0.000073966       29976245   17452595
  39 38    -1209.4872126512    -0.0000013003   0.000436910   0.000036512       28905285   17557606
  40 39    -1209.4872130860    -0.0000004349   0.000122580   0.000018415       27560282   17671652
  41 40    -1209.4872131935    -0.0000001074   0.000053501   0.000010304       25603160   17840122
  42 41    -1209.4872132199    -0.0000000265   0.000018917   0.000004753       23367698   18033238
  43 42    -1209.4872132268    -0.0000000069   0.000009345   0.000001734       20838454   18253016

          -----------------
          DENSITY CONVERGED
          -----------------
     TIME TO FORM FOCK OPERATORS=      58.3 SECONDS (       1.4 SEC/ITER)
     FOCK TIME ON FIRST ITERATION=       1.5, LAST ITERATION=       0.6
     TIME TO SOLVE SCF EQUATIONS=       1.7 SECONDS (       0.0 SEC/ITER)

 FINAL UHF ENERGY IS    -1209.4872132268 AFTER  43 ITERATIONS

          --------------------
          SPIN SZ   =    0.500
          S-SQUARED =    0.820
          --------------------

  ----- ALPHA SET ----- 

          ------------
          EIGENVECTORS
          ------------

                      1          2          3          4          5
                  -20.8203   -20.7960   -20.6357   -20.6274   -20.6162
                     A          A          A          A          A   
    1  O  1  S   -0.000012  -0.000002   0.000001   0.000010   0.000089
    2  O  1  S   -0.000014  -0.000002   0.000001   0.000005   0.000033
    3  O  1  X    0.000002   0.000001   0.000001  -0.000002  -0.000018
    4  O  1  Y    0.000004   0.000001   0.000000  -0.000001   0.000005
    5  O  1  Z    0.000002   0.000001   0.000000  -0.000001  -0.000002
    6  O  1  S    0.000052   0.000007   0.000001  -0.000019  -0.000135
    7  O  1  X   -0.000004  -0.000003  -0.000003   0.000003   0.000079
    8  O  1  Y   -0.000013  -0.000002   0.000001   0.000002  -0.000058
    9  O  1  Z   -0.000002   0.000002  -0.000003   0.000002  -0.000020
   10  H  2  S    0.000033   0.000012   0.000006  -0.000012  -0.000201
   11  H  2  S   -0.000086  -0.000018  -0.000006   0.000027   0.000114
   12  H  3  S    0.000013   0.000012  -0.000004  -0.000004  -0.000085
   13  H  3  S   -0.000028  -0.000026   0.000012   0.000009   0.000241
   14  O  4  S   -0.000035   0.000037   0.000058   0.000076   0.000379
   15  O  4  S   -0.000044   0.000042   0.000033   0.000034   0.000177
   16  O  4  X   -0.000001  -0.000001   0.000004  -0.000010  -0.000003
   17  O  4  Y    0.000000  -0.000003   0.000008  -0.000024  -0.000005
   18  O  4  Z   -0.000003   0.000013  -0.000002  -0.000014   0.000009
   19  O  4  S    0.000138  -0.000141  -0.000084  -0.000083  -0.000508
   20  O  4  X    0.000015  -0.000006  -0.000039   0.000050   0.000009
   21  O  4  Y   -0.000031   0.000050  -0.000016   0.000085   0.000132
   22  O  4  Z    0.000001  -0.000068   0.000030   0.000055   0.000010
   23  H  5  S    0.000024  -0.000067   0.000024  -0.000028  -0.000103
   24  H  5  S   -0.000153   0.000302  -0.000088   0.000196   0.000716
   25  H  6  S   -0.000025   0.000016   0.000019   0.000028   0.000096
   26  H  6  S    0.000069  -0.000059  -0.000026  -0.000109  -0.000268
   27  O  7  S   -0.000002   0.000008  -0.000028  -0.000004   0.000074
   28  O  7  S   -0.000003   0.000010  -0.000017  -0.000002   0.000040
   29  O  7  X   -0.000002   0.000001  -0.000004   0.000000   0.000011
   30  O  7  Y   -0.000000  -0.000000   0.000002  -0.000001  -0.000001
   31  O  7  Z    0.000001  -0.000001   0.000002   0.000001  -0.000007
   32  O  7  S    0.000009  -0.000029   0.000041   0.000009  -0.000095
   33  O  7  X    0.000008  -0.000007   0.000020   0.000003  -0.000053
   34  O  7  Y   -0.000004   0.000004  -0.000011   0.000002   0.000037
   35  O  7  Z   -0.000004   0.000002  -0.000003  -0.000001   0.000030
   36  H  8  S   -0.000002   0.000007  -0.000008  -0.000003   0.000024
   37  H  8  S    0.000003  -0.000010   0.000015   0.000003  -0.000031
   38  H  9  S    0.000009  -0.000005   0.000006  -0.000005  -0.000051
   39  H  9  S   -0.000013   0.000019  -0.000015   0.000012   0.000130
   40  O 10  S    0.000029  -0.000039   0.000080   0.000062  -0.000632
   41  O 10  S    0.000037  -0.000045   0.000039   0.000032  -0.000283
   42  O 10  X   -0.000001  -0.000003  -0.000007   0.000003   0.000012
   43  O 10  Y   -0.000008  -0.000001  -0.000010   0.000009   0.000083
[...]
   39    0.0000001  -0.0000048  -0.0000000   0.0000001  -0.0000006
   40   -0.0000260  -0.0000199   0.0000117  -0.0000182  -0.0000000
   41   -0.0000000   0.0000000   0.0000000  -0.0000000   0.0000000
   42    0.0000000  -0.0000016  -0.0000223  -0.0001041  -0.0000116
   43   -0.0000176  -0.0000176   0.0000008   0.0027145   0.0000843
   44    0.0000000   0.0000000   0.0000001  -0.0000001   0.0000002
   45   -0.0000003   0.0000035  -0.0000194   0.0002357  -0.0000420
   46    0.0024949  -0.0049294   0.0001878   0.0010171   0.0016070
   47    0.0000000   0.0000000  -0.0000000   0.0000000  -0.0000000
   48    0.0000000   0.0000000  -0.0000000   0.0000000   0.0000000

            21          22          23          24          25

   21    0.2918857
   22    0.0002514   8.4033765
   23    0.0002219   0.2194200   0.2935179
   24   -0.0000333   0.1946314  -0.0173227   0.3024573
   25    0.0000036   0.0000000   0.0000001   0.0000000   0.2617469
   26    0.0000000  -0.0000000  -0.0000000   0.0000000   0.0001537
   27    0.0000000   0.0000000  -0.0000000  -0.0000000   0.0000000
   28    0.0000000  -0.0000000  -0.0000000  -0.0000000   0.0001595
   29   -0.0000016  -0.0000000   0.0000000   0.0000000   0.2053856
   30    0.0000000  -0.0000000  -0.0000000   0.0000000  -0.0000273
   31    0.0000000  -0.0000000  -0.0000000   0.0000000   0.0000002
   32    0.0000001   0.0000000  -0.0000000  -0.0000000  -0.0000206
   33   -0.0000123   0.0000000   0.0000001  -0.0000000  -0.0170662
   34    0.0468900  -0.0000000   0.0000162   0.0000000  -0.0000026
   35   -0.0000045   0.0000000   0.0000000  -0.0000000  -0.0000088
   36    0.0001294  -0.0000000  -0.0000000   0.0000000   0.0006350
   37    0.0003561   0.0000000  -0.0000010  -0.0000000   0.0000003
   38    0.0000106  -0.0000000   0.0000000   0.0000000   0.0000000
   39   -0.0000055   0.0000000  -0.0000000  -0.0000000   0.0000001
   40   -0.0000235   0.0000000   0.0000001   0.0000000  -0.0065495
   41   -0.0000002  -0.0000000   0.0000000   0.0000000  -0.0000012
   42    0.0000961  -0.0000000  -0.0000001   0.0000000   0.0012170
   43   -0.0054239   0.0000002  -0.0000127  -0.0000004  -0.0000333
   44   -0.0000011   0.0000000   0.0000000   0.0000000  -0.0000036
   45    0.0000961  -0.0000001  -0.0000017  -0.0000034   0.0000719
   46   -0.0009731   0.0000000  -0.0000049   0.0000000  -0.0000458
   47   -0.0000017   0.0000000  -0.0000000  -0.0000000  -0.0000000
   48   -0.0000028   0.0000000   0.0000000  -0.0000000   0.0000002

            26          27          28          29          30

   26    8.3490803
   27    0.0006756   0.2778036
   28    0.2006831  -0.0000243   0.2680725
   29   -0.0213781  -0.0000000   0.0755006   8.4541870
   30    0.2282705  -0.0014092  -0.0180099   0.0013384   0.3375937
   31   -0.0205527   0.2339620   0.0007120  -0.0000506   0.0321760
   32    0.1356807  -0.0000288  -0.0100391   0.0006361  -0.0143031
   33    0.0026133  -0.0000061  -0.0063094   0.1786180   0.0009161
   34   -0.0000000  -0.0000006  -0.0000016  -0.0000897  -0.0000092
   35    0.0002669  -0.0004970   0.0001868   0.0016220   0.0000759
   36   -0.0000983   0.0006787   0.0003818  -0.0327925   0.0005142
   37   -0.0000060  -0.0000076   0.0000060  -0.0000050   0.0000133
   38   -0.0000801   0.0008144  -0.0000014  -0.0000000   0.0002121
   39    0.0018129  -0.0045031  -0.0000175  -0.0000075  -0.0054157
   40    0.0008587   0.0000002  -0.0010333   0.0925990   0.0000238
   41   -0.0443409  -0.0000016   0.0017574  -0.0000820   0.0030762
   42   -0.0000883   0.0000000   0.0002586  -0.0315358  -0.0000081
   43   -0.0000155   0.0000001  -0.0000216   0.0006394   0.0000077
   44    0.0018743   0.0000002   0.0001323   0.0001839  -0.0000955
   45   -0.0000016  -0.0000000  -0.0000037   0.0007586   0.0000003
   46   -0.0000179  -0.0000294  -0.0000588   0.0021752  -0.0000135
   47   -0.0000019  -0.0000569   0.0000001   0.0000000  -0.0000103
   48    0.0030847  -0.0000140  -0.0000795   0.0000007   0.0004267

            31          32          33          34          35

   31    8.2131753
   32    0.0009553   0.2741183
   33    0.0004217  -0.0000246   0.3399654
   34   -0.0000610  -0.0000116   0.0005139   8.4237406
   35    0.0266446  -0.0000213  -0.0078479   0.0013714   0.3360254
   36   -0.0202132  -0.0000062   0.0860695  -0.0309262   0.2325660
   37    0.0002089  -0.0000211  -0.0000431   0.2306053   0.0002149
   38   -0.0164200   0.0008905  -0.0000042  -0.0200615   0.0001790
   39    0.0779799   0.0003695   0.0000238   0.0020573  -0.0050785
   40   -0.0000031   0.0010234  -0.0084682   0.0020648  -0.0000203
   41   -0.0000876   0.1370966  -0.0000175  -0.0000992  -0.0000065
   42   -0.0000000   0.0008137   0.0022100  -0.0308159  -0.0000054
   43   -0.0000016  -0.0000371   0.0008893   0.1655865  -0.0000832
   44   -0.0000008  -0.0103742  -0.0000314   0.0003676   0.0000060
   45    0.0000000  -0.0000222  -0.0000520   0.0010096   0.0000002
   46    0.0014058   0.0000073  -0.0082102   0.0958316  -0.0203598
   47    0.0007769  -0.0000277   0.0000002   0.0006730  -0.0000068
   48    0.0002747  -0.0140968   0.0000069   0.0005461   0.0000182

            36          37          38          39          40

   36    8.4223812
   37    0.0019374   0.3286007
   38   -0.0000736   0.0320298   8.2130556
   39    0.0021632  -0.0050130   0.1092000   0.4658267
   40    0.0006398  -0.0000505   0.0000005   0.0000085   0.3309759
   41   -0.0000000   0.0002546  -0.0198691   0.0019802   0.0024120
   42   -0.0000903   0.0009011  -0.0000362  -0.0000016   0.1741957
   43    0.0019598  -0.0188450   0.0008738   0.0000588  -0.0084091
   44   -0.0000016   0.0001749   0.0005904  -0.0000089  -0.0061325
   45   -0.0000035  -0.0000161   0.0000003  -0.0000001  -0.0173712
   46    0.1705512  -0.0085177   0.0007761   0.0005374   0.0008950
   47   -0.0000017  -0.0006569   0.2376412  -0.0069434   0.0000001
   48   -0.0000138   0.0000203   0.0377528  -0.0058516   0.0000512

            41          42          43          44          45

   41    8.3489552
   42   -0.0208194   8.4511236
   43    0.0010247   0.1014849   0.3308130
   44    0.2028806   0.0737917  -0.0010617   0.2705872
   45    0.0001541   0.2055503  -0.0064649   0.0001705   0.2620081
   46   -0.0000133   0.0005761  -0.0080787  -0.0000398  -0.0000167
   47    0.0006490   0.0000005  -0.0000125  -0.0000191   0.0000000
   48    0.2269129   0.0010432   0.0010252  -0.0179459  -0.0000259

            46          47          48

   46    0.3387493
   47   -0.0000184   0.2843542
   48   -0.0000331  -0.0015613   0.3347161

          TOTAL MULLIKEN AND LOWDIN ATOMIC POPULATIONS
       ATOM         MULL.POP.    CHARGE          LOW.POP.     CHARGE
    1 O             8.877015   -0.877015         8.519398   -0.519398
    2 H             0.536765    0.463235         0.708630    0.291370
    3 H             0.510475    0.489525         0.666801    0.333199
    4 O             8.916584   -0.916584         8.593514   -0.593514
    5 H             0.568961    0.431039         0.723115    0.276885
    6 H             0.531659    0.468341         0.704377    0.295623
    7 O             8.866079   -0.866079         8.597490   -0.597490
    8 H             0.612337    0.387663         0.745473    0.254527
    9 H             0.544423    0.455577         0.708707    0.291293
   10 O             8.921127   -0.921127         8.597784   -0.597784
   11 H             0.568694    0.431306         0.720370    0.279630
   12 H             0.530770    0.469230         0.702881    0.297119
   13 O             8.864524   -0.864524         8.591760   -0.591760
   14 H             0.525036    0.474964         0.685612    0.314388
   15 H             0.611146    0.388854         0.744305    0.255695
   16 O             8.897494   -0.897494         8.568943   -0.568943
   17 H             0.538134    0.461866         0.713291    0.286709
   18 H             0.558802    0.441198         0.712658    0.287342
   19 O             8.893426   -0.893426         8.564456   -0.564456
   20 H             0.562115    0.437885         0.717777    0.282223
   21 H             0.536694    0.463306         0.712212    0.287788
   22 O             8.875195   -0.875195         8.520971   -0.520971
   23 H             0.538041    0.461959         0.709775    0.290225
   24 H             0.548426    0.451574         0.712344    0.287656
   25 H             0.509867    0.490133         0.690837    0.309163
   26 O             8.838474   -0.838474         8.482943   -0.482943
   27 H             0.507354    0.492646         0.665128    0.334872
   28 H             0.512258    0.487742         0.690310    0.309690
   29 O             8.911038   -0.911038         8.578586   -0.578586
   30 H             0.565340    0.434660         0.728052    0.271948
   31 O             8.531312   -0.531312         8.230433   -0.230433
   32 H             0.502557    0.497443         0.662163    0.337837
   33 H             0.566827    0.433173         0.719606    0.280394
   34 O             8.872669   -0.872669         8.555262   -0.555262
   35 H             0.565899    0.434101         0.733036    0.266964
   36 O             8.865175   -0.865175         8.549556   -0.549556
   37 H             0.562408    0.437592         0.730995    0.269005
   38 O             8.577481   -0.577481         8.280494   -0.280494
   39 H             0.629167    0.370833         0.756580    0.243420
   40 H             0.561022    0.438978         0.717429    0.282571
   41 O             8.841815   -0.841815         8.489747   -0.489747
   42 O             8.912815   -0.912815         8.578900   -0.578900
   43 H             0.560682    0.439318         0.715851    0.284149
   44 H             0.515052    0.484948         0.692564    0.307436
   45 H             0.510388    0.489612         0.691264    0.308736
   46 H             0.565444    0.434556         0.717730    0.282270
   47 H             0.514777    0.485223         0.670642    0.329358
   48 H             0.566255    0.433745         0.729247    0.270753

          -------------------------------
          BOND ORDER AND VALENCE ANALYSIS     BOND ORDER THRESHOLD=0.050
          -------------------------------

                   BOND                       BOND                       BOND
  ATOM PAIR DIST  ORDER      ATOM PAIR DIST  ORDER      ATOM PAIR DIST  ORDER
    1   2  1.037  0.639        1   3  1.222  0.380        1   9  1.056  0.577
    2  16  1.576  0.143        3  22  1.242  0.365        4   5  1.068  0.581
    4   6  1.049  0.579        4  11  1.474  0.240        4  45  1.599  0.166
    5  19  1.483  0.223        6  13  1.535  0.203        7   8  0.990  0.812
    7   9  1.515  0.213        7  12  1.524  0.210        7  14  1.239  0.363
   10  11  1.073  0.565       10  12  1.052  0.571       10  18  1.445  0.260
   10  25  1.605  0.165       13  14  1.216  0.382       13  15  0.990  0.811
   13  24  1.537  0.205       16  17  1.033  0.665       16  18  1.082  0.533
   16  20  1.467  0.237       17  36  1.606  0.114       19  20  1.073  0.559
   19  21  1.034  0.660       19  23  1.582  0.141       21  34  1.599  0.118
   22  23  1.035  0.642       22  24  1.050  0.590       25  29  1.033  0.597
   26  28  1.037  0.586       26  30  1.056  0.683       26  32  1.221  0.370
   27  31  0.990  0.726       28  29  1.575  0.177       29  33  1.082  0.571
   29  40  1.467  0.235       30  31  1.515  0.105       31  35  1.524  0.092
   31  38  2.440  0.160       31  39  1.239  0.326       32  41  1.243  0.364
   33  36  1.445  0.225       34  37  1.048  0.689       34  43  1.068  0.545
   34  46  1.474  0.242       35  36  1.052  0.696       36  46  1.073  0.557
   37  38  1.536  0.099       38  39  1.215  0.419       38  47  0.990  0.733
   38  48  1.537  0.111       40  42  1.073  0.561       41  44  1.035  0.592
   41  48  1.050  0.680       42  43  1.482  0.253       42  44  1.582  0.173
   42  45  1.034  0.597

                       TOTAL       BONDED        FREE
      ATOM            VALENCE     VALENCE     VALENCE
    1 O                 1.714       1.714       0.000
    2 H                 0.788       0.788       0.000
    3 H                 0.748       0.748       0.000
    4 O                 1.702       1.702       0.000
    5 H                 0.815       0.815       0.000
    6 H                 0.789       0.789       0.000
    7 O                 1.707       1.707       0.000
    8 H                 0.825       0.825       0.000
    9 H                 0.799       0.799       0.000
   10 O                 1.701       1.701       0.000
   11 H                 0.815       0.815       0.000
   12 H                 0.788       0.788       0.000
   13 O                 1.707       1.707       0.000
   14 H                 0.758       0.758       0.000
   15 H                 0.825       0.825       0.000
   16 O                 1.713       1.713       0.000
   17 H                 0.786       0.786       0.000
   18 H                 0.805       0.805       0.000
   19 O                 1.715       1.715       0.000
   20 H                 0.809       0.809       0.000
   21 H                 0.786       0.786       0.000
   22 O                 1.714       1.714       0.000
   23 H                 0.789       0.789       0.000
   24 H                 0.803       0.803       0.000
   25 H                 0.769       0.769       0.000
   26 O                 1.753       1.753       0.000
   27 H                 0.738       0.737       0.002
   28 H                 0.770       0.770       0.000
   29 O                 1.715       1.715       0.000
   30 H                 0.801       0.801       0.000
   31 O                 1.930       1.472       0.458
   32 H                 0.740       0.740       0.000
   33 H                 0.810       0.810       0.000
   34 O                 1.731       1.730       0.000
   35 H                 0.800       0.800       0.000
   36 O                 1.729       1.729       0.000
   37 H                 0.800       0.799       0.000
   38 O                 1.919       1.582       0.337
   39 H                 0.836       0.764       0.072
   40 H                 0.808       0.808       0.000
   41 O                 1.749       1.749       0.000
   42 O                 1.717       1.717       0.000
   43 H                 0.811       0.811       0.000
   44 H                 0.773       0.773       0.000
   45 H                 0.769       0.769       0.000
   46 H                 0.813       0.813       0.000
   47 H                 0.745       0.744       0.001
   48 H                 0.804       0.804       0.000

          -----------------------------------------
          ATOMIC SPIN DENSITY AT THE NUCLEUS (A.U.)
          -----------------------------------------
                            SPIN DENS    ALPHA DENS     BETA DENS
    1  O            8.0    -0.0000040     116.60960     116.60960
    2  H            1.0    -0.0000160       0.13438       0.13439
    3  H            1.0    -0.0000023       0.10165       0.10166
    4  O            8.0    -0.0000174     116.61680     116.61681
    5  H            1.0     0.0000014       0.12614       0.12614
    6  H            1.0    -0.0000002       0.12514       0.12514
    7  O            8.0     0.0000094     116.61436     116.61435
    8  H            1.0    -0.0000045       0.16210       0.16210
    9  H            1.0    -0.0000023       0.12563       0.12563
   10  O            8.0    -0.0000255     116.61980     116.61982
   11  H            1.0     0.0000008       0.12401       0.12401
   12  H            1.0    -0.0000006       0.12378       0.12378
   13  O            8.0    -0.0000054     116.61250     116.61250
   14  H            1.0    -0.0000015       0.10206       0.10206
   15  H            1.0     0.0000011       0.16204       0.16204
   16  O            8.0    -0.0000466     116.62511     116.62516
   17  H            1.0    -0.0001711       0.13705       0.13722
   18  H            1.0    -0.0000188       0.12036       0.12038
   19  O            8.0    -0.0000458     116.62437     116.62442
   20  H            1.0    -0.0000178       0.12389       0.12391
   21  H            1.0    -0.0001516       0.13639       0.13654
   22  O            8.0     0.0000008     116.60960     116.60960
   23  H            1.0    -0.0000148       0.13500       0.13501
   24  H            1.0    -0.0000029       0.12797       0.12797
   25  H            1.0    -0.0000033       0.12802       0.12803
   26  O            8.0    -0.0035675     116.62123     116.62479
   27  H            1.0    -0.0157328       0.14419       0.15992
   28  H            1.0    -0.0002040       0.12832       0.12853
   29  O            8.0    -0.0005396     116.60502     116.60556
   30  H            1.0    -0.0020013       0.13704       0.13904
   31  O            8.0     0.0719155     116.89125     116.81933
   32  H            1.0    -0.0004912       0.10141       0.10190
   33  H            1.0     0.0000122       0.12374       0.12373
   34  O            8.0    -0.0027584     116.65127     116.65403
   35  H            1.0    -0.0032358       0.13783       0.14106
   36  O            8.0    -0.0024823     116.66012     116.66260
   37  H            1.0    -0.0026526       0.13773       0.14039
   38  O            8.0     0.0611301     116.84573     116.78460
   39  H            1.0    -0.0856663       0.08412       0.16978
   40  H            1.0     0.0000068       0.12388       0.12387
   41  O            8.0    -0.0035737     116.61907     116.62265
   42  O            8.0    -0.0004731     116.60135     116.60182
   43  H            1.0    -0.0002704       0.12321       0.12348
   44  H            1.0    -0.0001450       0.12930       0.12944
   45  H            1.0    -0.0000006       0.12797       0.12797
   46  H            1.0    -0.0004083       0.12384       0.12425
   47  H            1.0    -0.0129239       0.14618       0.15910
   48  H            1.0    -0.0013142       0.13823       0.13955

          ---------------------
          ELECTROSTATIC MOMENTS
          ---------------------

 POINT   1           X           Y           Z (BOHR)    CHARGE
               -16.937240    5.466109    0.615883        1.00 (A.U.)
         DX          DY          DZ         /D/  (DEBYE)
    10.136475  -12.214403    2.583481   16.081484
 ...... END OF PROPERTY EVALUATION ......
 CPU     0: STEP CPU TIME=     0.07 TOTAL CPU TIME=         60.5 (      1.0 MIN)
 TOTAL WALL CLOCK TIME=         92.0 SECONDS, CPU UTILIZATION IS    65.77%
               636621  WORDS OF DYNAMIC MEMORY USED
 EXECUTION OF GAMESS TERMINATED NORMALLY Sun May 24 20:34:04 2020
 DDI: 263640 bytes (0.3 MB / 0 MWords) used by master data server.
Note: The following floating-point exceptions are signalling: IEEE_DENORMALNote: The following floating-point exceptions are signalling: IEEE_DENORMALNote: The following floating-point exceptions are signalling:
 ----------------------------------------
 CPU timing information for all processes
 ========================================
 0: 59.712 + 0.776 = 60.489
 1: 59.939 + 0.454 = 60.393
 2: 59.943 + 0.426 = 60.369
 3: 59.797 + 0.372 = 60.169
 4: 59.488 + 0.464 = 59.953
 5: 59.339 + 0.430 = 59.770
 ----------------------------------------


 IEEE_DENORMAL
Note: The following floating-point exceptions are signalling: IEEE_DENORMALNote: The following floating-point exceptions are signalling: IEEE_DENORMALNote: The following floating-point exceptions are signalling:

 IEEE_DENORMAL
 ddikick.x: exited gracefully.
unset echo
----- accounting info -----
Files used on the master node pietdev were:
-rwxr-xr-x 1 piet piet     2740 mei 24 20:32 /home/piet/scr/16H2O_fukui_base.F05*
-rw-r--r-- 1 piet piet 68812800 mei 24 20:34 /home/piet/scr/16H2O_fukui_base.F10
ls: No match.
ls: No match.
ls: No match.
zo 24 mei 2020 20:34:07 CEST
0.127u 0.027s 1:35.13 0.1%	0+0k 0+8io 0pf+0w
