----- GAMESS execution script 'rungms' -----
This job is running on host pietdev
under operating system Linux at zo 24 mei 2020 20:28:59 CEST
Available scratch disk space (Kbyte units) at beginning of the job is
Filesystem     1K-blocks     Used Available Use% Mounted on
/dev/sda2      244568380 31203464 200871860  14% /
GAMESS temporary binary files will be written to /home/piet/scr
GAMESS supplementary output files will be written to /home/piet/gamess/scr
Copying input file 16H2O_charge_geodisk.inp to your run's scratch directory...
cp 16H2O_charge_geodisk.inp /home/piet/scr/16H2O_charge_geodisk.F05
unset echo
 
Assuming a single but multicore node.
 
/home/piet/gamess/ddikick.x /home/piet/gamess/gamess.03.x 16H2O_charge_geodisk -ddi 1 6 pietdev:cpus=6 -scr /home/piet/scr

 Distributed Data Interface kickoff program.
 Initiating 6 compute processes on 1 nodes to run the following command:
 /home/piet/gamess/gamess.03.x 16H2O_charge_geodisk 

          ******************************************************
          *         GAMESS VERSION = 30 SEP 2019 (R2)          *
          *             FROM IOWA STATE UNIVERSITY             *
          * M.W.SCHMIDT, K.K.BALDRIDGE, J.A.BOATZ, S.T.ELBERT, *
          *   M.S.GORDON, J.H.JENSEN, S.KOSEKI, N.MATSUNAGA,   *
          *          K.A.NGUYEN, S.J.SU, T.L.WINDUS,           *
          *       TOGETHER WITH M.DUPUIS, J.A.MONTGOMERY       *
          *         J.COMPUT.CHEM.  14, 1347-1363(1993)        *
          **************** 64 BIT LINUX VERSION ****************

  SINCE 1993, STUDENTS AND POSTDOCS WORKING AT IOWA STATE UNIVERSITY
  AND ALSO IN THEIR VARIOUS JOBS AFTER LEAVING ISU HAVE MADE IMPORTANT
  CONTRIBUTIONS TO THE CODE:
     IVANA ADAMOVIC, CHRISTINE AIKENS, YURI ALEXEEV, POOJA ARORA,
     ANDREY ASADCHEV, ROB BELL, PRADIPTA BANDYOPADHYAY, JONATHAN BENTZ,
     COLLEEN BERTONI, BRETT BODE, KURT BRORSEN, CALEB CARLIN, GALINA CHABAN,
     WEI CHEN, CHEOL HO CHOI, PAUL DAY, ALBERT DEFUSCO, NUWAN DESILVA,
     TIM DUDLEY, DMITRI FEDOROV, ALEX FINDLATER, GRAHAM FLETCHER, 
     MARK FREITAG, KURT GLAESEMANN, EMILIE B GUIDEZ, ANASTASIA GUNINA, 
     DAN KEMP, SAROM SOK LEANG, GRANT MERRILL,
     NORIYUKI MINEZAWA, JONATHAN MULLIN,
     TAKESHI NAGATA, SEAN NEDD, HEATHER NETZLOFF, BOSILJKA NJEGIC, RYAN OLSON,
     MIKE PAK, BUU PHAM, DAVID POOLE,
     SPENCER PRUITT, LUKE ROSKOP, TOSAPORN SATTASATHUCHANA,
     JIM SHOEMAKER, LYUDMILA SLIPCHENKO,
     TONY SMITH, JIE SONG, TETSUYA TAKETSUGU, SIMON WEBB,
     JORGE LUIS GALVEZ VALLEJO, PENG XU, SOOHAENG YOO,
     FEDERICO ZAHARIEV

  ADDITIONAL CODE HAS BEEN PROVIDED BY COLLABORATORS IN OTHER GROUPS:
     IOWA STATE UNIVERSITY:
          JOE IVANIC, AARON WEST, LAIMUTIS BYTAUTAS, KLAUS RUEDENBERG
     UNIVERSITY OF TOKYO: KIMIHIKO HIRAO, TAKAHITO NAKAJIMA,
          TAKAO TSUNEDA, MUNEAKI KAMIYA, SUSUMU YANAGISAWA,
          KIYOSHI YAGI, MAHITO CHIBA, SEIKEN TOKURA, NAOAKI KAWAKAMI
     UNIVERSITY OF AARHUS: FRANK JENSEN
     UNIVERSITY OF IOWA: VISVALDAS KAIRYS, HUI LI
     NATIONAL INST. OF STANDARDS AND TECHNOLOGY: WALT STEVENS, DAVID GARMER
     UNIVERSITY OF PISA: BENEDETTA MENNUCCI, JACOPO TOMASI
     UNIVERSITY OF MEMPHIS: HENRY KURTZ, PRAKASHAN KORAMBATH
     UNIVERSITY OF ALBERTA: TOBY ZENG, MARIUSZ KLOBUKOWSKI
     UNIVERSITY OF NEW ENGLAND: MARK SPACKMAN
     MIE UNIVERSITY: HIROAKI UMEDA
     NAT. INST. OF ADVANCED INDUSTRIAL SCIENCE AND TECHNOLOGY: KAZUO KITAURA
     MICHIGAN STATE UNIVERSITY:
          KAROL KOWALSKI, MARTA WLOCH, JEFFREY GOUR, JESSE LUTZ,
          WEI LI, JUN SHEN, J. EMILIANO DEUSTUA, PIOTR PIECUCH
     UNIVERSITY OF MINNESOTA:
          ANDREW SAND, PRACHI SHARMA, YINAN SHU
     UNIVERSITY OF SILESIA: MONIKA MUSIAL, STANISLAW KUCHARSKI
     FACULTES UNIVERSITAIRES NOTRE-DAME DE LA PAIX:
          OLIVIER QUINET, BENOIT CHAMPAGNE
     UNIVERSITY OF CALIFORNIA - SANTA BARBARA: BERNARD KIRTMAN
     INSTITUTE FOR MOLECULAR SCIENCE:
          KAZUYA ISHIMURA, MICHIO KATOUDA, AND SHIGERU NAGASE
     UNIVERSITY OF NOTRE DAME: ANNA POMOGAEVA, DAN CHIPMAN
     KYUSHU UNIVERSITY:
          HARUYUKI NAKANO,
          FENG LONG GU, JACEK KORCHOWIEC, MARCIN MAKOWSKI, AND YURIKO AOKI,
          HIROTOSHI MORI AND EISAKU MIYOSHI
     PENNSYLVANIA STATE UNIVERSITY:
          TZVETELIN IORDANOV, CHET SWALINA, JONATHAN SKONE,
          SHARON HAMMES-SCHIFFER
     WASEDA UNIVERSITY:
          MASATO KOBAYASHI, TOMOKO AKAMA, TSUGUKI TOUMA,
          TAKESHI YOSHIKAWA, YASUHIRO IKABATA, JUNJI SEINO,
          YUYA NAKAJIMA, HIROMI NAKAI
     NANJING UNIVERSITY: SHUHUA LI
     UNIVERSITY OF NEBRASKA:
          PEIFENG SU, DEJUN SI, NANDUN THELLAMUREGE, YALI WANG, HUI LI
     UNIVERSITY OF ZURICH: ROBERTO PEVERATI, KIM BALDRIDGE
     N. COPERNICUS UNIVERSITY AND JACKSON STATE UNIVERSITY:
          MARIA BARYSZ
     UNIVERSITY OF COPENHAGEN: Jimmy Kromann, CASPER STEINMANN
     TOKYO INSTITUTE OF TECHNOLOGY: HIROYA NAKATA
     NAGOYA UNIVERSITY: YOSHIO NISHIMOTO, STEPHAN IRLE
     MOSCOW STATE UNIVERSITY: VLADIMIR MIRONOV
     A.N.NESMEYANOV INSTITUTE OF ORGANOELEMENT COMPOUNDS OF RUSSIAN ACADEMY OF SCIENCES:
          IGOR S. GERASIMOV
     JOHANNES KEPLER UNIVERSITY LINZ:
          CHRISTIAN FRIEDL


 PARALLEL VERSION RUNNING ON        6 PROCESSORS IN        1 NODES.

 EXECUTION OF GAMESS BEGUN Sun May 24 20:28:59 2020

            ECHO OF THE FIRST FEW INPUT CARDS -
 INPUT CARD> $BASIS GBASIS=N21 NGAUSS=3 $END                                                
 INPUT CARD> $CONTRL SCFTYP=RHF DFTTYP=B3LYP MAXIT=60 MULT=1 ICHARG=0 $END                  
 INPUT CARD> $SYSTEM MEMDDI=1000 MWORDS=30 $END                                             
 INPUT CARD> $SCF DIRSCF=.TRUE. $END                                                        
 INPUT CARD> $ELPOT  IEPOT=1 WHERE=PDC $END                                                 
 INPUT CARD> $PDC PTSEL=GEODESIC CONSTR=CHARGE $END                                         
 INPUT CARD> $DATA                                                                          
 INPUT CARD>                                                                                
 INPUT CARD>C1                                                                              
 INPUT CARD>O 8.0000000 -12.7695180518 3.6536855721 -1.1082344879                           
 INPUT CARD>H 1.0000000 -12.0840465305 2.8772459863 -1.1505645677                           
 INPUT CARD>H 1.0000000 -12.9153466336 3.9239445476 0.0742703567                            
 INPUT CARD>O 8.0000000 -9.3053993861 4.9376825381 1.1259829044                             
 INPUT CARD>H 1.0000000 -9.8763694709 4.0906532662 1.4367718334                             
 INPUT CARD>H 1.0000000 -9.9976799604 5.7242920044 1.0869649149                             
 INPUT CARD>O 8.0000000 -11.3634683068 5.6897422850 -1.6894569062                           
 INPUT CARD>H 1.0000000 -11.6068127001 6.3444860186 -2.3912050651                           
 INPUT CARD>H 1.0000000 -12.2884732102 4.5036274125 -1.5105762992                           
 INPUT CARD>O 8.0000000 -9.2947008367 4.3159570070 -1.3336221515                            
 INPUT CARD>H 1.0000000 -9.2018612529 4.6264011968 -0.3109267443                            
 INPUT CARD>H 1.0000000 -10.0268892309 4.9594752126 -1.7301337322                           
 INPUT CARD>O 8.0000000 -11.3318138816 6.3508126417 0.6588455381                            
 INPUT CARD>H 1.0000000 -11.3663984978 6.1513024105 -0.5398241929                           
 INPUT CARD>H 1.0000000 -11.5793903373 7.2735438985 0.9189037319                            
 INPUT CARD>O 8.0000000 -10.6679233542 2.2641521484 -0.8302729942                           
 INPUT CARD>H 1.0000000 -10.0535703803 1.4351031429 -0.8770775848                           
 INPUT CARD>H 1.0000000 -10.0631452426 3.1078865835 -1.1350127326                           
 INPUT CARD>O 8.0000000 -10.6911305388 2.8668377001 1.6281411887                            
 INPUT CARD>H 1.0000000 -10.7439948650 2.5388187194 0.6082898420                            
 INPUT CARD>H 1.0000000 -10.0472114587 2.2101236164 2.1005195250                            
 INPUT CARD>O 8.0000000 -12.7476128564 4.3030179010 1.2446318531                            
 INPUT CARD>H 1.0000000 -12.0646325594 3.6499940996 1.6675616104                            
 INPUT CARD>H 1.0000000 -12.2630333475 5.2295064278 1.1461818012                            
 INPUT CARD>H 1.0000000 -7.8943494310 3.5417200302 -1.4613576769                            
 INPUT CARD>O 8.0000000 -5.1714414397 1.5031624946 -0.5799688759                            
 INPUT CARD>H 1.0000000 -6.3368686988 -1.4650256470 -0.3242419863                           
 INPUT CARD>H 1.0000000 -5.8609190249 2.1547140347 -0.9982503851                            
 INPUT CARD>O 8.0000000 -7.2758952171 2.8464518049 -1.0127382564                            
 INPUT CARD>H 1.0000000 -5.6535479205 0.5669119581 -0.4962598479                            
 INPUT CARD>O 8.0000000 -6.5766855106 -0.5461912463 -0.0438527767                           
 INPUT CARD>H 1.0000000 -5.0098822526 1.8618554332 0.5756798999                             
 INPUT CARD>H 1.0000000 -7.8813200636 1.9659779238 -0.8434539177                            
 INPUT CARD>O 8.0000000 -8.6033607108 1.5254158168 2.0407764374                             
 INPUT CARD>H 1.0000000 -7.9180141398 0.0667765422 -0.4270295062                            
 INPUT CARD>O 8.0000000 -8.6475054537 0.8247310054 -0.3974271908                            
 INPUT CARD>H 1.0000000 -7.9092029162 0.8234451841 2.3939403305                             
 INPUT CARD>O 8.0000000 -6.5781053476 0.0615099305 2.3190755710                             
 INPUT CARD>H 1.0000000 -6.5582607329 -0.3676899741 1.1822419833                            
 INPUT CARD>H 1.0000000 -7.1802431123 3.3331093463 0.3674657476                             
 INPUT CARD>O 8.0000000 -5.1617628879 2.1221854605 1.7812417724                             
   30000000 WORDS OF MEMORY AVAILABLE

     BASIS OPTIONS
     -------------
     GBASIS=N21          IGAUSS=       3      POLAR=NONE    
     NDFUNC=       0     NFFUNC=       0     DIFFSP=       F
     NPFUNC=       0      DIFFS=       F     BASNAM=        


     RUN TITLE
     ---------
                                                                                 

 THE POINT GROUP OF THE MOLECULE IS C1      
 THE ORDER OF THE PRINCIPAL AXIS IS     0

 ATOM      ATOMIC                      COORDINATES (BOHR)
           CHARGE         X                   Y                   Z
 O           8.0   -24.1308901132        6.9044645766       -2.0942595123
 H           1.0   -22.8355367655        5.4372065134       -2.1742517641
 H           1.0   -24.4064661740        7.4151799860        0.1403506232
 O           8.0   -17.5846550460        9.3308670114        2.1277991562
 H           1.0   -18.6636320535        7.7302137839        2.7151050720
 H           1.0   -18.8928756381       10.8173433620        2.0540658474
 O           8.0   -21.4738413700       10.7520538594       -3.1926106208
 H           1.0   -21.9336955940       11.9893401081       -4.5187223535
 H           1.0   -23.2218471747        8.5106217604       -2.8545752890
 O           8.0   -17.5644377192        8.1559761180       -2.5201804375
 H           1.0   -17.3889963450        8.7426305712       -0.5875663490
 H           1.0   -18.9480731556        9.3720491947       -3.2694786760
 O           8.0   -21.4140231801       12.0012956922        1.2450375352
 H           1.0   -21.4793786281       11.6242760235       -1.0201198061
 H           1.0   -21.8818748424       13.7450049278        1.7364762624
 O           8.0   -20.1594519975        4.2786271550       -1.5689884540
 H           1.0   -18.9984932170        2.7119517042       -1.6574363052
 H           1.0   -19.0165870832        5.8730540437       -2.1448630572
 O           8.0   -20.2033072173        5.4175377045        3.0767407160
 H           1.0   -20.3032063083        4.7976717122        1.1495011225
 H           1.0   -18.9864765976        4.1765280340        3.9694063341
 O           8.0   -24.0894952962        8.1315247532        2.3520131579
 H           1.0   -22.7988496798        6.8974887050        3.1512345113
 H           1.0   -23.1737728051        9.8823341996        2.1659695364
 H           1.0   -14.9181572759        6.6928803823       -2.7615655794
 O           8.0    -9.7726072826        2.8405652298       -1.0959822569
 H           1.0   -11.9749454609       -2.7684970378       -0.6127285078
 H           1.0   -11.0755309933        4.0718191075       -1.8864196950
 O           8.0   -13.7494482757        5.3790139485       -1.9137978019
 H           1.0   -10.6836564282        1.0713082600       -0.9377951312
 O           8.0   -12.4281335225       -1.0321517924       -0.0828697318
 H           1.0    -9.4673046882        3.5183965975        1.0878772675
 H           1.0   -14.8935353417        3.7151595739       -1.5938967877
 O           8.0   -16.2579943169        2.8826179111        3.8565082689
 H           1.0   -14.9628770911        0.1261893672       -0.8069687554
 O           8.0   -16.3414157848        1.5585156138       -0.7510284907
 H           1.0   -14.9462262929        1.5560857639        4.5238912556
 O           8.0   -12.4308166253        0.1162369142        4.3824173740
 H           1.0   -12.3933157412       -0.6948332995        2.2341133996
 H           1.0   -13.5686920075        6.2986633516        0.6944095728
 O           8.0    -9.7543174717        4.0103490155        3.3660588677
 O           8.0   -13.6410327565        6.7319141638        2.6731259264
 H           1.0   -15.1763717088        4.5565549779        3.5428017034
 H           1.0   -11.0396464069        5.4827354811        3.4515055232
 H           1.0   -14.8497510488        8.2578602704        2.8383075498
 H           1.0   -16.4897070047        2.0231932369        1.2163399757
 H           1.0   -11.9535858450       -1.1472112903        5.6774217906
 H           1.0   -10.6680584489        2.4058400822        4.0928554400

          INTERNUCLEAR DISTANCES (ANGS.)
          ------------------------------

                1 O          2 H          3 H          4 O          5 H     

   1 O       0.0000000    1.0365913 *  1.2217298 *  4.3174638    3.8779256  
   2 H       1.0365913 *  0.0000000    1.8129695 *  4.1411287    3.6111639  
   3 H       1.2217298 *  1.8129695 *  0.0000000    3.8942885    3.3346041  
   4 O       4.3174638    4.1411287    3.8942885    0.0000000    1.0677337 *
   5 H       3.8779256    3.6111639    3.3346041    1.0677337 *  0.0000000  
   6 H       4.0974868    4.1791309    3.5748539    1.0485844 *  1.6750691 *
   7 O       2.5417164 *  2.9529262 *  2.9388947 *  3.5676243    3.8133784  
   8 H       3.1997350    3.7133131    3.6945705    4.4324046    4.7673476  
   9 H       1.0562595 *  1.6782477 *  1.8002059 *  4.0048193    3.8308815  
  10 O       3.5445391    3.1438589    3.9044732    2.5369892 *  2.8397505 *
  11 H       3.7828627    3.4744104    3.7989203    1.4738811 *  1.9484449 *
  12 H       3.1006222    2.9838692 *  3.5596888    2.9459166 *  3.2873696  
  13 O       3.5304475    3.9881680    2.9561788 *  2.5142613 *  2.7985368 *
  14 H       2.9206035 *  3.4069734    2.7816318 *  2.9147048 *  3.2207753  
  15 H       4.3161404    4.8851625    3.7037819    3.2665218    3.6468151  
  16 O       2.5347122 *  1.5760316 *  2.9366683 *  3.5820627    3.0169780  
  17 H       3.5145289    2.5054749 *  3.9101353    4.1036659    3.5266479  
  18 H       2.7609903 *  2.0340794 *  3.2036493    3.0057334    2.7594911 *
  19 O       3.5251349    3.1083000    2.9118940 *  2.5418128 *  1.4826268 *
  20 H       2.8796055 *  2.2369265 *  2.6303078 *  2.8446635 *  1.9614654 *
  21 H       4.4486994    3.8940079    3.9075654    2.9899138 *  2.0015343 *
  22 O       2.4409204 *  2.8653293 *  1.2416027 *  3.5022436    2.8854904 *
  23 H       2.8638996 *  2.9222169 *  1.8268389 *  3.0927038    2.2440900 *
  24 H       2.7968073 *  3.2924473    1.8108005 *  2.9720646 *  2.6603747 *
  25 H       4.8892230    4.2534315    5.2644717    3.2609975    3.5537144  
  26 O       7.9142013    7.0709118    8.1397962    5.6387771    5.7357388  
  27 H       8.2580159    7.2503921    8.5132945    7.2048594    6.8187098  
  28 H       7.0702017    6.2667829    7.3515594    4.9113874    5.0794720  
  29 O       5.5534348    4.8102249    5.8434571    3.6147284    3.7829358  
  30 H       7.7807272    6.8641875    8.0205295    5.9221049    5.8297158  
  31 O       7.5579791    6.5784313    7.7572348    6.2359656    5.8805179  
  32 H       8.1399122    7.3521927    8.1853522    5.3117806    5.4214128  
  33 H       5.1781218    4.3113381    5.4788023    3.8389727    3.7005266  
  34 O       5.6393855    4.9119524    5.3116202    3.6018425    2.9267415 *
  35 H       6.0718240    5.0772106    6.3326439    5.2973966    4.8477309  
  36 O       5.0496751    4.0730637    5.2954784    4.4350843    3.9421620  
  37 H       6.6255681    5.8490112    6.3289367    4.5259286    3.9319924  
  38 O       7.9362316    7.0909915    7.7535913    5.7130257    5.2811932  
  39 H       7.7458028    6.8195238    7.7497270    5.9746894    5.5634032  
  40 H       5.7896852    5.1535925    5.7729076    2.7688071 *  2.9977301 *
  41 O       8.2808517    7.5553700    8.1411392    5.0523372    5.1206484  
  42 O       6.0980611    5.5427936    5.8635218    2.5159078 *  2.7099284 *
  43 H       5.7354743    5.0790833    5.4209826    2.9270781 *  2.5333267 *
  44 H       7.5610797    6.9157261    7.3586080    4.0783555    4.2241009  
  45 H       5.6078169    5.2078842    5.2737467    1.5994697 *  2.0384851 *
  46 H       5.1079876    4.2142300    5.1006305    3.9398575    3.3276090  
  47 H       8.7516903    7.9097430    8.5170898    6.5690250    6.0937860  
  48 H       8.1939786    7.4181769    8.0159372    5.2826828    5.1353741  

                6 H          7 O          8 H          9 H         10 O     

   1 O       4.0974868    2.5417164 *  3.1997350    1.0562595 *  3.5445391  
   2 H       4.1791309    2.9529262 *  3.7133131    1.6782477 *  3.1438589  
   3 H       3.5748539    2.9388947 *  3.6945705    1.8002059 *  3.9044732  
   4 O       1.0485844 *  3.5676243    4.4324046    4.0048193    2.5369892 *
   5 H       1.6750691 *  3.8133784    4.7673476    3.8308815    2.8397505 *
   6 H       0.0000000    3.0943642    3.8822178    3.6721896    2.8873567 *
   7 O       3.0943642    0.0000000    0.9901295 *  1.5147610 *  2.5087254 *
   8 H       3.8822178    0.9901295 *  0.0000000    2.1514945 *  3.2525794  
   9 H       3.6721896    1.5147610 *  2.1514945 *  0.0000000    3.0048637  
  10 O       2.8873567 *  2.5087254 *  3.2525794    3.0048637    0.0000000  
  11 H       1.9475094 *  2.7755332 *  3.6143000    3.3138204    1.0728004 *
  12 H       2.9192195 *  1.5236103 *  2.2025958 *  2.3174911 *  1.0523483 *
  13 O       1.5348380 *  2.4397829 *  3.0624293    3.0056083    3.5014846  
  14 H       2.1684490 *  1.2388308 *  1.8768937 *  2.1230672 *  2.8793296 *
  15 H       2.2204130 *  3.0591821    3.4381275    3.7520140    4.3635993  
  16 O       4.0121809    3.5995344    4.4684613    2.8467954 *  2.5197229 *
  17 H       4.7178096    4.5252345    5.3672324    3.8486299    3.0139069  
  18 H       3.4332270    2.9435059 *  3.7995400    2.6535307 *  1.4454711 *
  19 O       2.9897810 *  4.4076394    5.3932973    3.8835720    3.5807827  
  20 H       3.3065625    3.9486335    4.9218419    3.2765043    3.0049452  
  21 H       3.6577487    5.3107626    6.3008649    4.8294334    4.0980649  
  22 O       3.0995177    3.5281351    4.3229998    2.8003974 *  4.3093111  
  23 H       2.9853136 *  3.9902102    4.8932068    3.2983867    4.1380107  
  24 H       2.3195140 *  3.0102959    3.7665516    2.7542533 *  3.9742921  
  25 H       3.9599959    4.0866630    4.7436797    4.4984455    1.6052238 *
  26 O       6.6248910    7.5564284    8.2542712    7.7795219    5.0478782  
  27 H       8.1901973    8.8499277    9.6453677    8.5119801    6.5717106  
  28 H       5.8483161    6.5766435    7.2463650    6.8624576    4.0711550  
  29 O       4.4831718    5.0249878    5.7352646    5.3028306    2.5175361 *
  30 H       6.9265181    7.7633949    8.5095559    7.7813109    5.2928734  
  31 O       7.2319369    8.0316978    8.8483713    7.7637919    5.7176567  
  32 H       6.3291354    7.7557474    8.5097517    8.0193086    5.2941212  
  33 H       4.7255075    5.1679298    5.9536680    5.1291048    2.7857336 *
  34 O       4.5259744    6.2349378    7.2032369    5.9213094    4.4330167  
  35 H       6.2148749    6.7143593    7.5415421    6.3214422    4.5577090  
  36 O       5.2945339    5.7196267    6.5726969    5.2943390    3.6720542  
  37 H       5.4852731    7.2309702    8.1885180    6.9258212    5.2926331  
  38 O       6.7289440    8.4050598    9.3247214    8.1857768    6.2307633  
  39 H       6.9964939    8.2479791    9.1274699    7.9885129    5.9794837  
  40 H       3.7647555    5.2234110    6.0227213    5.5669713    2.8862815 *
  41 O       6.0698670    7.9520036    8.7621802    8.2034951    5.6210486  
  42 O       3.5362275    5.5983171    6.4405777    5.9284690    3.5257460  
  43 H       3.9325457    5.8785879    6.8158336    5.8279392    3.9393841  
  44 H       5.0780089    7.1150714    7.9295537    7.4337777    4.8896708  
  45 H       2.5659829 *  4.9208234    5.7539869    5.3592045    3.1791751  
  46 H       4.8446193    5.8082705    6.7322502    5.3960718    3.8425577  
  47 H       7.5661803    9.3307208   10.2629412    9.0587112    7.2020934  
  48 H       6.3182449    8.1894731    9.0567774    8.2513101    5.9011297  

               11 H         12 H         13 O         14 H         15 H     

   1 O       3.7828627    3.1006222    3.5304475    2.9206035 *  4.3161404  
   2 H       3.4744104    2.9838692 *  3.9881680    3.4069734    4.8851625  
   3 H       3.7989203    3.5596888    2.9561788 *  2.7816318 *  3.7037819  
   4 O       1.4738811 *  2.9459166 *  2.5142613 *  2.9147048 *  3.2665218  
   5 H       1.9484449 *  3.2873696    2.7985368 *  3.2207753    3.6468151  
   6 H       1.9475094 *  2.9192195 *  1.5348380 *  2.1684490 *  2.2204130 *
   7 O       2.7755332 *  1.5236103 *  2.4397829 *  1.2388308 *  3.0591821  
   8 H       3.6143000    2.2025958 *  3.0624293    1.8768937 *  3.4381275  
   9 H       3.3138204    2.3174911 *  3.0056083    2.1230672 *  3.7520140  
  10 O       1.0728004 *  1.0523483 *  3.5014846    2.8793296 *  4.3635993  
  11 H       0.0000000    1.6750397 *  2.9070176 *  2.6576191 *  3.7646370  
  12 H       1.6750397 *  0.0000000    3.0571016    2.1521092 *  3.8448112  
  13 O       2.9070176 *  3.0571016    0.0000000    1.2156519 *  0.9901300 *
  14 H       2.6576191 *  2.1521092 *  1.2156519 *  0.0000000    1.8527489 *
  15 H       3.7646370    3.8448112    0.9901300 *  1.8527489 *  0.0000000  
  16 O       2.8282997 *  2.9129779 *  4.3998885    3.9600714    5.3837159  
  17 H       3.3511667    3.6262398    5.3063326    4.9071166    6.2961151  
  18 H       1.9304959 *  1.9452157 *  3.9171440    3.3637923    4.8857213  
  19 O       3.0123033    4.0122760    3.6726136    3.9929650    4.5509431  
  20 H       2.7533862 *  3.4412270    3.8573806    3.8413006    4.8178822  
  21 H       3.5168292    4.7152149    4.5687999    4.9238765    5.4205178  
  22 O       3.8854464    4.0844221    2.5575566 *  2.9168805 *  3.2085616  
  23 H       3.6143114    4.1727056    2.9747188 *  3.4083172    3.7317639  
  24 H       3.4434976    3.6532791    1.5368780 *  2.1204429 *  2.1672822 *
  25 H       2.0517338 *  2.5748779 *  4.9195960    4.4400753    5.7594861  
  26 O       5.1060050    6.0699547    7.9362814    7.7449538    8.7524699  
  27 H       6.7315556    7.5410208    9.3275542    9.1296823   10.2660626  
  28 H       4.2123089    5.0751991    7.0911142    6.8185906    7.9106772  
  29 O       2.7147936 *  3.5422440    5.6147318    5.2799529    6.4691928  
  30 H       5.3948428    6.3200610    8.1872144    7.9889909    9.0607510  
  31 O       5.8067709    6.7126606    8.4067647    8.2488641    9.3328567  
  32 H       5.0991639    6.3310650    7.7539972    7.7491292    8.5183690  
  33 H       3.0174934    3.7882310    5.7783723    5.4548056    6.7046167  
  34 O       3.9376162    5.2951828    5.7130241    5.9743371    6.5693475  
  35 H       4.7383457    5.4848824    7.2334130    6.9946789    8.1947976  
  36 O       3.8428491    4.5579509    6.2336829    5.9820581    7.2052664  
  37 H       4.8424938    6.2128356    6.7287897    6.9960873    7.5663586  
  38 O       5.8855110    7.2305097    8.0566393    8.2575197    8.8874500  
  39 H       5.8445807    6.9922818    8.2582705    8.2813624    9.1471058  
  40 H       2.4939447 *  3.8920924    5.1407174    5.1273077    5.9315769  
  41 O       5.1933284    6.6369741    7.5637683    7.7536207    8.2744222  
  42 O       2.8360309 *  4.4416082    5.0264931    5.2656443    5.7476599  
  43 H       3.3249381    4.8448447    5.2815013    5.5626782    6.0948309  
  44 H       4.3397459    5.8650795    6.5879448    6.8323723    7.2703704  
  45 H       2.2711127 *  3.9366916    4.0867248    4.4328562    4.7559333  
  46 H       3.7123071    4.7381852    5.8882055    5.8468546    6.8332928  
  47 H       6.8303385    8.1915668    8.8868563    9.1458713    9.6982480  
  48 H       5.4797899    6.9257694    7.7711367    7.9905190    8.5307387  

               16 O         17 H         18 H         19 O         20 H     

   1 O       2.5347122 *  3.5145289    2.7609903 *  3.5251349    2.8796055 *
   2 H       1.5760316 *  2.5054749 *  2.0340794 *  3.1083000    2.2369265 *
   3 H       2.9366683 *  3.9101353    3.2036493    2.9118940 *  2.6303078 *
   4 O       3.5820627    4.1036659    3.0057334    2.5418128 *  2.8446635 *
   5 H       3.0169780    3.5266479    2.7594911 *  1.4826268 *  1.9614654 *
   6 H       4.0121809    4.7178096    3.4332270    2.9897810 *  3.3065625  
   7 O       3.5995344    4.5252345    2.9435059 *  4.4076394    3.9486335  
   8 H       4.4684613    5.3672324    3.7995400    5.3932973    4.9218419  
   9 H       2.8467954 *  3.8486299    2.6535307 *  3.8835720    3.2765043  
  10 O       2.5197229 *  3.0139069    1.4454711 *  3.5807827    3.0049452  
  11 H       2.8282997 *  3.3511667    1.9304959 *  3.0123033    2.7533862 *
  12 H       2.9129779 *  3.6262398    1.9452157 *  4.0122760    3.4412270  
  13 O       4.3998885    5.3063326    3.9171440    3.6726136    3.8573806  
  14 H       3.9600714    4.9071166    3.3637923    3.9929650    3.8413006  
  15 H       5.3837159    6.2961151    4.8857213    4.5509431    4.8178822  
  16 O       0.0000000    1.0329291 *  1.0819014 *  2.5313176 *  1.4665237 *
  17 H       1.0329291 *  0.0000000    1.6925799 *  2.9550749 *  1.9751431 *
  18 H       1.0819014 *  1.6925799 *  0.0000000    2.8438512 *  1.9561437 *
  19 O       2.5313176 *  2.9550749 *  2.8438512 *  0.0000000    1.0726080 *
  20 H       1.4665237 *  1.9751431 *  1.9561437 *  1.0726080 *  0.0000000  
  21 H       2.9962889 *  3.0768136    3.3578120    1.0339470 *  1.6793740 *
  22 O       3.5759351    4.4703972    3.7811921    2.5374815 *  2.7444152 *
  23 H       3.1797063    3.9275058    3.4862953    1.5815801 *  2.0250559 *
  24 H       3.9043662    4.8345425    3.8137419    2.8784313 *  3.1363364  
  25 H       3.1181982    3.0726948    2.2357074 *  4.2216648    3.6619300  
  26 O       5.5545541    4.8916346    5.1780285    6.0993711    5.7911911  
  27 H       5.7376710    4.7466036    5.9543272    6.4448767    6.0268687  
  28 H       4.8111832    4.2556842    4.3111422    5.5440054    5.1548945  
  29 O       3.4464796    3.1186196    2.8021531 *  4.3172320    3.8405840  
  30 H       5.3043520    4.5009972    5.1292403    5.9312711    5.5696586  
  31 O       5.0254068    4.0876056    5.1670413    5.6011595    5.2258056  
  32 H       5.8439691    5.2660623    5.4785518    5.8646608    5.7740272  
  33 H       2.8025416 *  2.2364324 *  2.4797829 *  3.8490733    3.2604622  
  34 O       3.6126272    3.2596221    3.8367723    2.5156437 *  2.7679086 *
  35 H       3.5430306    2.5759389 *  3.7882949    4.4445746    3.8947459  
  36 O       2.5182091 *  1.6061249 *  2.7858334 *  3.5283892    2.8887422 *
  37 H       4.4812639    3.9587871    4.7235209    3.5356785    3.7639208  
  38 O       5.6121868    4.9174191    5.7755207    5.0263536    5.1398913  
  39 H       5.2788385    4.4393749    5.4528449    5.2670303    5.1281170  
  40 H       3.8394220    3.6616015    3.2587255    3.7593939    3.6591284  
  41 O       6.0957335    5.6096813    5.7878922    5.5813845    5.7193281  
  42 O       4.3154377    4.2207069    3.8469127    3.5480116    3.7585476  
  43 H       3.7805162    3.5519443    3.6978077    2.7101204 *  2.9967723 *
  44 H       5.5456688    5.2150618    5.1605845    4.8533770    5.0641483  
  45 H       4.2152374    4.3695071    3.6617312    3.2094871    3.5326355  
  46 H       2.7144299 *  2.0513375 *  3.0169711    2.8385559 *  2.4958422 *
  47 H       6.4656370    5.7562227    6.7011111    5.7463234    5.9296161  
  48 H       5.9317526    5.3589669    5.8120102    5.3187916    5.4794833  

               21 H         22 O         23 H         24 H         25 H     

   1 O       4.4486994    2.4409204 *  2.8638996 *  2.7968073 *  4.8892230  
   2 H       3.8940079    2.8653293 *  2.9222169 *  3.2924473    4.2534315  
   3 H       3.9075654    1.2416027 *  1.8268389 *  1.8108005 *  5.2644717  
   4 O       2.9899138 *  3.5022436    3.0927038    2.9720646 *  3.2609975  
   5 H       2.0015343 *  2.8854904 *  2.2440900 *  2.6603747 *  3.5537144  
   6 H       3.6577487    3.0995177    2.9853136 *  2.3195140 *  3.9599959  
   7 O       5.3107626    3.5281351    3.9902102    3.0102959    4.0866630  
   8 H       6.3008649    4.3229998    4.8932068    3.7665516    4.7436797  
   9 H       4.8294334    2.8003974 *  3.2983867    2.7542533 *  4.4984455  
  10 O       4.0980649    4.3093111    4.1380107    3.9742921    1.6052238 *
  11 H       3.5168292    3.8854464    3.6143114    3.4434976    2.0517338 *
  12 H       4.7152149    4.0844221    4.1727056    3.6532791    2.5748779 *
  13 O       4.5687999    2.5575566 *  2.9747188 *  1.5368780 *  4.9195960  
  14 H       4.9238765    2.9168805 *  3.4083172    2.1204429 *  4.4400753  
  15 H       5.4205178    3.2085616    3.7317639    2.1672822 *  5.7594861  
  16 O       2.9962889 *  3.5759351    3.1797063    3.9043662    3.1181982  
  17 H       3.0768136    4.4703972    3.9275058    4.8345425    3.0726948  
  18 H       3.3578120    3.7811921    3.4862953    3.8137419    2.2357074 *
  19 O       1.0339470 *  2.5374815 *  1.5815801 *  2.8784313 *  4.2216648  
  20 H       1.6793740 *  2.7444152 *  2.0250559 *  3.1363364    3.6619300  
  21 H       0.0000000    3.5220616    2.5160818 *  3.8648803    4.3697750  
  22 O       3.5220616    0.0000000    1.0352641 *  1.0501860 *  5.6085755  
  23 H       2.5160818 *  1.0352641 *  0.0000000    1.6751295 *  5.2147023  
  24 H       3.8648803    1.0501860 *  1.6751295 *  0.0000000    5.3603437  
  25 H       4.3697750    5.6085755    5.2147023    5.3603437    0.0000000  
  26 O       5.6087383    8.2805031    7.5615053    8.1948710    3.5138001  
  27 H       5.7578498    8.7652343    7.9333465    9.0608131    5.3652848  
  28 H       5.2086936    7.5546199    6.9158136    7.4188952    2.5046144 *
  29 O       4.2163351    6.0956541    5.5463225    5.9339221    1.0330261 *
  30 H       5.3616870    8.2045688    7.4356926    8.2536476    3.8473482  
  31 O       4.9234291    7.9533242    7.1171956    8.1920338    4.5228948  
  32 H       5.2745722    8.1412067    7.3592899    8.0171533    3.9104499  
  33 H       3.6630141    5.7881485    5.1615127    5.8145232    1.6926128 *
  34 O       1.5990932 *  5.0521031    4.0784219    5.2833503    4.1028189  
  35 H       3.9390255    6.6381636    5.8669587    6.9287781    3.6256899  
  36 O       3.1809161    5.6218963    4.8911193    5.9039662    3.0135065  
  37 H       2.5651615 *  6.0694767    5.0778539    6.3187116    4.7172621  
  38 O       4.0864416    7.5635734    6.5881462    7.7718900    5.3043413  
  39 H       4.4340877    7.7541914    6.8335533    7.9921423    4.9048179  
  40 H       3.5332817    5.7188940    5.0643781    5.4806457    1.9743509 *
  41 O       4.8966600    7.9113273    7.0708367    7.7773252    4.4717512  
  42 O       3.2094550    5.5810614    4.8534992    5.3196262    2.9543280 *
  43 H       2.0387621 *  5.1207889    4.2246598    5.1365100    3.5251153  
  44 H       4.2705132    7.0704799    6.2695904    6.8639429    3.9283900  
  45 H       3.1328525    4.8966860    4.2708474    4.5020605    3.0770836  
  46 H       2.2730047 *  5.1945223    4.3414423    5.4826601    3.3509699  
  47 H       4.7543880    8.2733539    7.2695659    8.5306551    6.2941453  
  48 H       4.5010143    7.7763666    6.8633627    7.7773529    4.8333655  

               26 O         27 H         28 H         29 O         30 H     

   1 O       7.9142013    8.2580159    7.0702017    5.5534348    7.7807272  
   2 H       7.0709118    7.2503921    6.2667829    4.8102249    6.8641875  
   3 H       8.1397962    8.5132945    7.3515594    5.8434571    8.0205295  
   4 O       5.6387771    7.2048594    4.9113874    3.6147284    5.9221049  
   5 H       5.7357388    6.8187098    5.0794720    3.7829358    5.8297158  
   6 H       6.6248910    8.1901973    5.8483161    4.4831718    6.9265181  
   7 O       7.5564284    8.8499277    6.5766435    5.0249878    7.7633949  
   8 H       8.2542712    9.6453677    7.2463650    5.7352646    8.5095559  
   9 H       7.7795219    8.5119801    6.8624576    5.3028306    7.7813109  
  10 O       5.0478782    6.5717106    4.0711550    2.5175361 *  5.2928734  
  11 H       5.1060050    6.7315556    4.2123089    2.7147936 *  5.3948428  
  12 H       6.0699547    7.5410208    5.0751991    3.5422440    6.3200610  
  13 O       7.9362814    9.3275542    7.0911142    5.6147318    8.1872144  
  14 H       7.7449538    9.1296823    6.8185906    5.2799529    7.9889909  
  15 H       8.7524699   10.2660626    7.9106772    6.4691928    9.0607510  
  16 O       5.5545541    5.7376710    4.8111832    3.4464796    5.3043520  
  17 H       4.8916346    4.7466036    4.2556842    3.1186196    4.5009972  
  18 H       5.1780285    5.9543272    4.3111422    2.8021531 *  5.1292403  
  19 O       6.0993711    6.4448767    5.5440054    4.3172320    5.9312711  
  20 H       5.7911911    6.0268687    5.1548945    3.8405840    5.5696586  
  21 H       5.6087383    5.7578498    5.2086936    4.2163351    5.3616870  
  22 O       8.2805031    8.7652343    7.5546199    6.0956541    8.2045688  
  23 H       7.5615053    7.9333465    6.9158136    5.5463225    7.4356926  
  24 H       8.1948710    9.0608131    7.4188952    5.9339221    8.2536476  
  25 H       3.5138001    5.3652848    2.5046144 *  1.0330261 *  3.8473482  
  26 O       0.0000000    3.1990245    1.0367537 *  2.5338590 *  1.0564085 *
  27 H       3.1990245    0.0000000    3.7125908    4.4659418    2.1506482 *
  28 H       1.0367537 *  3.7125908    0.0000000    1.5750774 *  1.6781277 *
  29 O       2.5338590 *  4.4659418    1.5750774 *  0.0000000    2.8451824 *
  30 H       1.0564085 *  2.1506482 *  1.6781277 *  2.8451824 *  0.0000000  
  31 O       2.5420429 *  0.9901449 *  2.9526405 *  3.5968959    1.5152075 *
  32 H       1.2207727 *  3.6930868    1.8130875 *  2.9372295 *  1.8000664 *
  33 H       2.7617141 *  3.7982491    2.0350930 *  1.0818644 *  2.6534691 *
  34 O       4.3182023    4.4354299    4.1415802    3.5820738    4.0070785  
  35 H       3.1032655    2.2038612 *  2.9862044 *  2.9123815 *  2.3200723 *
  36 O       3.5463519    3.2538260    3.1456172    2.5193803 *  3.0066626  
  37 H       4.0989620    3.8855950    4.1802753    4.0123676    3.6751933  
  38 O       3.5300884    3.0619657    3.9875445    4.3981582    3.0060524  
  39 H       2.9204013 *  1.8768735 *  3.4063697    3.9577323    2.1235241 *
  40 H       2.8777807 *  4.9205528    2.2348181 *  1.4666111 *  3.2754646  
  41 O       2.4410241 *  4.3222701    2.8662613 *  3.5777705    2.8013821 *
  42 O       3.5226471    5.3921707    3.1058405    2.5313243 *  3.8824190  
  43 H       3.8765117    4.7677064    3.6096060    3.0161723    3.8308626  
  44 H       2.8627509 *  4.8924038    2.9217782 *  3.1812429    3.2984930  
  45 H       4.4464466    6.3004260    3.8919080    2.9972614 *  4.8286322  
  46 H       3.7840562    3.6158283    3.4755823    2.8284172 *  3.3155650  
  47 H       4.3165437    3.4374132    4.8851102    5.3821086    3.7528945  
  48 H       2.7958821 *  3.7651338    3.2916888    3.9035426    2.7541967 *

               31 O         32 H         33 H         34 O         35 H     

   1 O       7.5579791    8.1399122    5.1781218    5.6393855    6.0718240  
   2 H       6.5784313    7.3521927    4.3113381    4.9119524    5.0772106  
   3 H       7.7572348    8.1853522    5.4788023    5.3116202    6.3326439  
   4 O       6.2359656    5.3117806    3.8389727    3.6018425    5.2973966  
   5 H       5.8805179    5.4214128    3.7005266    2.9267415 *  4.8477309  
   6 H       7.2319369    6.3291354    4.7255075    4.5259744    6.2148749  
   7 O       8.0316978    7.7557474    5.1679298    6.2349378    6.7143593  
   8 H       8.8483713    8.5097517    5.9536680    7.2032369    7.5415421  
   9 H       7.7637919    8.0193086    5.1291048    5.9213094    6.3214422  
  10 O       5.7176567    5.2941212    2.7857336 *  4.4330167    4.5577090  
  11 H       5.8067709    5.0991639    3.0174934    3.9376162    4.7383457  
  12 H       6.7126606    6.3310650    3.7882310    5.2951828    5.4848824  
  13 O       8.4067647    7.7539972    5.7783723    5.7130241    7.2334130  
  14 H       8.2488641    7.7491292    5.4548056    5.9743371    6.9946789  
  15 H       9.3328567    8.5183690    6.7046167    6.5693475    8.1947976  
  16 O       5.0254068    5.8439691    2.8025416 *  3.6126272    3.5430306  
  17 H       4.0876056    5.2660623    2.2364324 *  3.2596221    2.5759389 *
  18 H       5.1670413    5.4785518    2.4797829 *  3.8367723    3.7882949  
  19 O       5.6011595    5.8646608    3.8490733    2.5156437 *  4.4445746  
  20 H       5.2258056    5.7740272    3.2604622    2.7679086 *  3.8947459  
  21 H       4.9234291    5.2745722    3.6630141    1.5990932 *  3.9390255  
  22 O       7.9533242    8.1412067    5.7881485    5.0521031    6.6381636  
  23 H       7.1171956    7.3592899    5.1615127    4.0784219    5.8669587  
  24 H       8.1920338    8.0171533    5.8145232    5.2833503    6.9287781  
  25 H       4.5228948    3.9104499    1.6926128 *  4.1028189    3.6256899  
  26 O       2.5420429 *  1.2207727 *  2.7617141 *  4.3182023    3.1032655  
  27 H       0.9901449 *  3.6930868    3.7982491    4.4354299    2.2038612 *
  28 H       2.9526405 *  1.8130875 *  2.0350930 *  4.1415802    2.9862044 *
  29 O       3.5968959    2.9372295 *  1.0818644 *  3.5820738    2.9123815 *
  30 H       1.5152075 *  1.8000664 *  2.6534691 *  4.0070785    2.3200723 *
  31 O       0.0000000    2.9389423 *  2.9415008 *  3.5699646    1.5237180 *
  32 H       2.9389423 *  0.0000000    3.2046743    3.8952262    3.5615959  
  33 H       2.9415008 *  3.2046743    0.0000000    3.0056983    1.9446649 *
  34 O       3.5699646    3.8952262    3.0056983    0.0000000    2.9474387 *
  35 H       1.5237180 *  3.5615959    1.9446649 *  2.9474387 *  0.0000000  
  36 O       2.5085330 *  3.9057479    1.4451382 *  2.5372712 *  1.0523920 *
  37 H       3.0974735    3.5763707    3.4332026    1.0484954 *  2.9207013 *
  38 O       2.4398224 *  2.9563484 *  3.9149661    2.5143846 *  3.0555648  
  39 H       1.2391572 *  2.7814144 *  3.3615377    2.9160530 *  2.1511497 *
  40 H       3.9474597    2.6302866 *  1.9562422 *  2.8448178 *  3.4415779  
  41 O       3.5289107    1.2426660 *  3.7827793    3.5025830    4.0863295  
  42 O       4.4067267    2.9109422 *  2.8436596 *  2.5414816 *  4.0124734  
  43 H       3.8134537    3.3341473    2.7585119 *  1.0676254 *  3.2874739  
  44 H       3.9904127    1.8268211 *  3.4874695    3.0926684    4.1740960  
  45 H       5.3103097    3.9065057    3.3586077    2.9894118 *  4.7160622  
  46 H       2.7760105 *  3.8000037    1.9304416 *  1.4743822 *  1.6753798 *
  47 H       3.0591477    3.7047476    4.8833062    3.2656360    3.8424501  
  48 H       3.0100062    1.8107983 *  3.8125788    2.9714403 *  3.6528777  

               36 O         37 H         38 O         39 H         40 H     

   1 O       5.0496751    6.6255681    7.9362316    7.7458028    5.7896852  
   2 H       4.0730637    5.8490112    7.0909915    6.8195238    5.1535925  
   3 H       5.2954784    6.3289367    7.7535913    7.7497270    5.7729076  
   4 O       4.4350843    4.5259286    5.7130257    5.9746894    2.7688071 *
   5 H       3.9421620    3.9319924    5.2811932    5.5634032    2.9977301 *
   6 H       5.2945339    5.4852731    6.7289440    6.9964939    3.7647555  
   7 O       5.7196267    7.2309702    8.4050598    8.2479791    5.2234110  
   8 H       6.5726969    8.1885180    9.3247214    9.1274699    6.0227213  
   9 H       5.2943390    6.9258212    8.1857768    7.9885129    5.5669713  
  10 O       3.6720542    5.2926331    6.2307633    5.9794837    2.8862815 *
  11 H       3.8428491    4.8424938    5.8855110    5.8445807    2.4939447 *
  12 H       4.5579509    6.2128356    7.2305097    6.9922818    3.8920924  
  13 O       6.2336829    6.7287897    8.0566393    8.2582705    5.1407174  
  14 H       5.9820581    6.9960873    8.2575197    8.2813624    5.1273077  
  15 H       7.2052664    7.5663586    8.8874500    9.1471058    5.9315769  
  16 O       2.5182091 *  4.4812639    5.6121868    5.2788385    3.8394220  
  17 H       1.6061249 *  3.9587871    4.9174191    4.4393749    3.6616015  
  18 H       2.7858334 *  4.7235209    5.7755207    5.4528449    3.2587255  
  19 O       3.5283892    3.5356785    5.0263536    5.2670303    3.7593939  
  20 H       2.8887422 *  3.7639208    5.1398913    5.1281170    3.6591284  
  21 H       3.1809161    2.5651615 *  4.0864416    4.4340877    3.5332817  
  22 O       5.6218963    6.0694767    7.5635734    7.7541914    5.7188940  
  23 H       4.8911193    5.0778539    6.5881462    6.8335533    5.0643781  
  24 H       5.9039662    6.3187116    7.7718900    7.9921423    5.4806457  
  25 H       3.0135065    4.7172621    5.3043413    4.9048179    1.9743509 *
  26 O       3.5463519    4.0989620    3.5300884    2.9204013 *  2.8777807 *
  27 H       3.2538260    3.8855950    3.0619657    1.8768735 *  4.9205528  
  28 H       3.1456172    4.1802753    3.9875445    3.4063697    2.2348181 *
  29 O       2.5193803 *  4.0123676    4.3981582    3.9577323    1.4666111 *
  30 H       3.0066626    3.6751933    3.0060524    2.1235241 *  3.2754646  
  31 O       2.5085330 *  3.0974735    2.4398224 *  1.2391572 *  3.9474597  
  32 H       3.9057479    3.5763707    2.9563484 *  2.7814144 *  2.6302866 *
  33 H       1.4451382 *  3.4332026    3.9149661    3.3615377    1.9562422 *
  34 O       2.5372712 *  1.0484954 *  2.5143846 *  2.9160530 *  2.8448178 *
  35 H       1.0523920 *  2.9207013 *  3.0555648    2.1511497 *  3.4415779  
  36 O       0.0000000    2.8873560 *  3.4991871    2.8778753 *  3.0049762  
  37 H       2.8873560 *  0.0000000    1.5355686 *  2.1707281 *  3.3070222  
  38 O       3.4991871    1.5355686 *  0.0000000    1.2153176 *  3.8567750  
  39 H       2.8778753 *  2.1707281 *  1.2153176 *  0.0000000    3.8401352  
  40 H       3.0049762    3.3070222    3.8567750    3.8401352    0.0000000  
  41 O       4.3104974    3.1000891    2.5576698 *  2.9169310 *  2.7457898 *
  42 O       3.5804992    2.9896436 *  3.6721045    3.9919087    1.0725808 *
  43 H       2.8390024 *  1.6749375 *  2.7981145 *  3.2203879    1.9610222 *
  44 H       4.1387464    2.9855145 *  2.9747697 *  3.4080338    2.0263680 *
  45 H       4.0986346    3.6572343    4.5681684    4.9230508    1.6797409 *
  46 H       1.0726064 *  1.9472297 *  2.9049431 *  2.6566570 *  2.7539792 *
  47 H       4.3604649    2.2196664 *  0.9901537 *  1.8524515 *  4.8175486  
  48 H       3.9729955    2.3193782 *  1.5367516 *  2.1197238 *  3.1358913  

               41 O         42 O         43 H         44 H         45 H     

   1 O       8.2808517    6.0980611    5.7354743    7.5610797    5.6078169  
   2 H       7.5553700    5.5427936    5.0790833    6.9157261    5.2078842  
   3 H       8.1411392    5.8635218    5.4209826    7.3586080    5.2737467  
   4 O       5.0523372    2.5159078 *  2.9270781 *  4.0783555    1.5994697 *
   5 H       5.1206484    2.7099284 *  2.5333267 *  4.2241009    2.0384851 *
   6 H       6.0698670    3.5362275    3.9325457    5.0780089    2.5659829 *
   7 O       7.9520036    5.5983171    5.8785879    7.1150714    4.9208234  
   8 H       8.7621802    6.4405777    6.8158336    7.9295537    5.7539869  
   9 H       8.2034951    5.9284690    5.8279392    7.4337777    5.3592045  
  10 O       5.6210486    3.5257460    3.9393841    4.8896708    3.1791751  
  11 H       5.1933284    2.8360309 *  3.3249381    4.3397459    2.2711127 *
  12 H       6.6369741    4.4416082    4.8448447    5.8650795    3.9366916  
  13 O       7.5637683    5.0264931    5.2815013    6.5879448    4.0867248  
  14 H       7.7536207    5.2656443    5.5626782    6.8323723    4.4328562  
  15 H       8.2744222    5.7476599    6.0948309    7.2703704    4.7559333  
  16 O       6.0957335    4.3154377    3.7805162    5.5456688    4.2152374  
  17 H       5.6096813    4.2207069    3.5519443    5.2150618    4.3695071  
  18 H       5.7878922    3.8469127    3.6978077    5.1605845    3.6617312  
  19 O       5.5813845    3.5480116    2.7101204 *  4.8533770    3.2094871  
  20 H       5.7193281    3.7585476    2.9967723 *  5.0641483    3.5326355  
  21 H       4.8966600    3.2094550    2.0387621 *  4.2705132    3.1328525  
  22 O       7.9113273    5.5810614    5.1207889    7.0704799    4.8966860  
  23 H       7.0708367    4.8534992    4.2246598    6.2695904    4.2708474  
  24 H       7.7773252    5.3196262    5.1365100    6.8639429    4.5020605  
  25 H       4.4717512    2.9543280 *  3.5251153    3.9283900    3.0770836  
  26 O       2.4410241 *  3.5226471    3.8765117    2.8627509 *  4.4464466  
  27 H       4.3222701    5.3921707    4.7677064    4.8924038    6.3004260  
  28 H       2.8662613 *  3.1058405    3.6096060    2.9217782 *  3.8919080  
  29 O       3.5777705    2.5313243 *  3.0161723    3.1812429    2.9972614 *
  30 H       2.8013821 *  3.8824190    3.8308626    3.2984930    4.8286322  
  31 O       3.5289107    4.4067267    3.8134537    3.9904127    5.3103097  
  32 H       1.2426660 *  2.9109422 *  3.3341473    1.8268211 *  3.9065057  
  33 H       3.7827793    2.8436596 *  2.7585119 *  3.4874695    3.3586077  
  34 O       3.5025830    2.5414816 *  1.0676254 *  3.0926684    2.9894118 *
  35 H       4.0863295    4.0124734    3.2874739    4.1740960    4.7160622  
  36 O       4.3104974    3.5804992    2.8390024 *  4.1387464    4.0986346  
  37 H       3.1000891    2.9896436 *  1.6749375 *  2.9855145 *  3.6572343  
  38 O       2.5576698 *  3.6721045    2.7981145 *  2.9747697 *  4.5681684  
  39 H       2.9169310 *  3.9919087    3.2203879    3.4080338    4.9230508  
  40 H       2.7457898 *  1.0725808 *  1.9610222 *  2.0263680 *  1.6797409 *
  41 O       0.0000000    2.5374934 *  2.8852659 *  1.0352543 *  3.5214476  
  42 O       2.5374934 *  0.0000000    1.4822433 *  1.5816588 *  1.0338336 *
  43 H       2.8852659 *  1.4822433 *  0.0000000    2.2437765 *  2.0012875 *
  44 H       1.0352543 *  1.5816588 *  2.2437765 *  0.0000000    2.5153586 *
  45 H       3.5214476    1.0338336 *  2.0012875 *  2.5153586 *  0.0000000  
  46 H       3.8863215    3.0125584    1.9482920 *  3.6150033    3.5177874  
  47 H       3.2092586    4.5507363    3.6461772    3.7323387    5.4199664  
  48 H       1.0500675 *  2.8775336 *  2.6592419 *  1.6748015 *  3.8635949  

               46 H         47 H         48 H     

   1 O       5.1079876    8.7516903    8.1939786  
   2 H       4.2142300    7.9097430    7.4181769  
   3 H       5.1006305    8.5170898    8.0159372  
   4 O       3.9398575    6.5690250    5.2826828  
   5 H       3.3276090    6.0937860    5.1353741  
   6 H       4.8446193    7.5661803    6.3182449  
   7 O       5.8082705    9.3307208    8.1894731  
   8 H       6.7322502   10.2629412    9.0567774  
   9 H       5.3960718    9.0587112    8.2513101  
  10 O       3.8425577    7.2020934    5.9011297  
  11 H       3.7123071    6.8303385    5.4797899  
  12 H       4.7381852    8.1915668    6.9257694  
  13 O       5.8882055    8.8868563    7.7711367  
  14 H       5.8468546    9.1458713    7.9905190  
  15 H       6.8332928    9.6982480    8.5307387  
  16 O       2.7144299 *  6.4656370    5.9317526  
  17 H       2.0513375 *  5.7562227    5.3589669  
  18 H       3.0169711    6.7011111    5.8120102  
  19 O       2.8385559 *  5.7463234    5.3187916  
  20 H       2.4958422 *  5.9296161    5.4794833  
  21 H       2.2730047 *  4.7543880    4.5010143  
  22 O       5.1945223    8.2733539    7.7763666  
  23 H       4.3414423    7.2695659    6.8633627  
  24 H       5.4826601    8.5306551    7.7773529  
  25 H       3.3509699    6.2941453    4.8333655  
  26 O       3.7840562    4.3165437    2.7958821 *
  27 H       3.6158283    3.4374132    3.7651338  
  28 H       3.4755823    4.8851102    3.2916888  
  29 O       2.8284172 *  5.3821086    3.9035426  
  30 H       3.3155650    3.7528945    2.7541967 *
  31 O       2.7760105 *  3.0591477    3.0100062  
  32 H       3.8000037    3.7047476    1.8107983 *
  33 H       1.9304416 *  4.8833062    3.8125788  
  34 O       1.4743822 *  3.2656360    2.9714403 *
  35 H       1.6753798 *  3.8424501    3.6528777  
  36 O       1.0726064 *  4.3604649    3.9729955  
  37 H       1.9472297 *  2.2196664 *  2.3193782 *
  38 O       2.9049431 *  0.9901537 *  1.5367516 *
  39 H       2.6566570 *  1.8524515 *  2.1197238 *
  40 H       2.7539792 *  4.8175486    3.1358913  
  41 O       3.8863215    3.2092586    1.0500675 *
  42 O       3.0125584    4.5507363    2.8775336 *
  43 H       1.9482920 *  3.6461772    2.6592419 *
  44 H       3.6150033    3.7323387    1.6748015 *
  45 H       3.5177874    5.4199664    3.8635949  
  46 H       0.0000000    3.7615946    3.4421893  
  47 H       3.7615946    0.0000000    2.1681810 *
  48 H       3.4421893    2.1681810 *  0.0000000  

  * ... LESS THAN  3.000


     ATOMIC BASIS SET
     ----------------
 THE CONTRACTED PRIMITIVE FUNCTIONS HAVE BEEN UNNORMALIZED
 THE CONTRACTED BASIS FUNCTIONS ARE NOW NORMALIZED TO UNITY

  SHELL TYPE  PRIMITIVE        EXPONENT          CONTRACTION COEFFICIENT(S)

 O         

      1   S       1           322.0370000    0.059239393389
      1   S       2            48.4308000    0.351499960776
      1   S       3            10.4206000    0.707657921031

      2   L       4             7.4029400   -0.404453583190    0.244586106967
      2   L       5             1.5762000    1.221561761397    0.853955373466

      3   L       6             0.3736840    1.000000000000    1.000000000000

 H         

      4   S       7             5.4471780    0.156284978695
      4   S       8             0.8245472    0.904690876670

      5   S       9             0.1831916    1.000000000000

 H         

      6   S      10             5.4471780    0.156284978695
      6   S      11             0.8245472    0.904690876670

      7   S      12             0.1831916    1.000000000000

 O         

      8   S      13           322.0370000    0.059239393389
      8   S      14            48.4308000    0.351499960776
      8   S      15            10.4206000    0.707657921031

      9   L      16             7.4029400   -0.404453583190    0.244586106967
      9   L      17             1.5762000    1.221561761397    0.853955373466

     10   L      18             0.3736840    1.000000000000    1.000000000000

 H         

     11   S      19             5.4471780    0.156284978695
     11   S      20             0.8245472    0.904690876670

     12   S      21             0.1831916    1.000000000000

 H         

     13   S      22             5.4471780    0.156284978695
     13   S      23             0.8245472    0.904690876670

     14   S      24             0.1831916    1.000000000000

 O         

     15   S      25           322.0370000    0.059239393389
     15   S      26            48.4308000    0.351499960776
     15   S      27            10.4206000    0.707657921031

     16   L      28             7.4029400   -0.404453583190    0.244586106967
     16   L      29             1.5762000    1.221561761397    0.853955373466

     17   L      30             0.3736840    1.000000000000    1.000000000000

 H         

     18   S      31             5.4471780    0.156284978695
     18   S      32             0.8245472    0.904690876670

     19   S      33             0.1831916    1.000000000000

 H         

     20   S      34             5.4471780    0.156284978695
     20   S      35             0.8245472    0.904690876670

     21   S      36             0.1831916    1.000000000000

 O         

     22   S      37           322.0370000    0.059239393389
     22   S      38            48.4308000    0.351499960776
     22   S      39            10.4206000    0.707657921031

     23   L      40             7.4029400   -0.404453583190    0.244586106967
     23   L      41             1.5762000    1.221561761397    0.853955373466

     24   L      42             0.3736840    1.000000000000    1.000000000000

 H         

     25   S      43             5.4471780    0.156284978695
     25   S      44             0.8245472    0.904690876670

     26   S      45             0.1831916    1.000000000000

 H         

     27   S      46             5.4471780    0.156284978695
     27   S      47             0.8245472    0.904690876670

     28   S      48             0.1831916    1.000000000000

 O         

     29   S      49           322.0370000    0.059239393389
     29   S      50            48.4308000    0.351499960776
     29   S      51            10.4206000    0.707657921031

     30   L      52             7.4029400   -0.404453583190    0.244586106967
     30   L      53             1.5762000    1.221561761397    0.853955373466

     31   L      54             0.3736840    1.000000000000    1.000000000000

 H         

     32   S      55             5.4471780    0.156284978695
     32   S      56             0.8245472    0.904690876670

     33   S      57             0.1831916    1.000000000000

 H         

     34   S      58             5.4471780    0.156284978695
     34   S      59             0.8245472    0.904690876670

     35   S      60             0.1831916    1.000000000000

 O         

     36   S      61           322.0370000    0.059239393389
     36   S      62            48.4308000    0.351499960776
     36   S      63            10.4206000    0.707657921031

     37   L      64             7.4029400   -0.404453583190    0.244586106967
     37   L      65             1.5762000    1.221561761397    0.853955373466

     38   L      66             0.3736840    1.000000000000    1.000000000000

 H         

     39   S      67             5.4471780    0.156284978695
     39   S      68             0.8245472    0.904690876670

     40   S      69             0.1831916    1.000000000000

 H         

     41   S      70             5.4471780    0.156284978695
     41   S      71             0.8245472    0.904690876670

     42   S      72             0.1831916    1.000000000000

 O         

     43   S      73           322.0370000    0.059239393389
     43   S      74            48.4308000    0.351499960776
     43   S      75            10.4206000    0.707657921031

     44   L      76             7.4029400   -0.404453583190    0.244586106967
     44   L      77             1.5762000    1.221561761397    0.853955373466

     45   L      78             0.3736840    1.000000000000    1.000000000000

 H         

     46   S      79             5.4471780    0.156284978695
     46   S      80             0.8245472    0.904690876670

     47   S      81             0.1831916    1.000000000000

 H         

     48   S      82             5.4471780    0.156284978695
     48   S      83             0.8245472    0.904690876670

     49   S      84             0.1831916    1.000000000000

 O         

     50   S      85           322.0370000    0.059239393389
     50   S      86            48.4308000    0.351499960776
     50   S      87            10.4206000    0.707657921031

     51   L      88             7.4029400   -0.404453583190    0.244586106967
     51   L      89             1.5762000    1.221561761397    0.853955373466

     52   L      90             0.3736840    1.000000000000    1.000000000000

 H         

     53   S      91             5.4471780    0.156284978695
     53   S      92             0.8245472    0.904690876670

     54   S      93             0.1831916    1.000000000000

 H         

     55   S      94             5.4471780    0.156284978695
     55   S      95             0.8245472    0.904690876670

     56   S      96             0.1831916    1.000000000000

 H         

     57   S      97             5.4471780    0.156284978695
     57   S      98             0.8245472    0.904690876670

     58   S      99             0.1831916    1.000000000000

 O         

     59   S     100           322.0370000    0.059239393389
     59   S     101            48.4308000    0.351499960776
     59   S     102            10.4206000    0.707657921031

     60   L     103             7.4029400   -0.404453583190    0.244586106967
     60   L     104             1.5762000    1.221561761397    0.853955373466

     61   L     105             0.3736840    1.000000000000    1.000000000000

 H         

     62   S     106             5.4471780    0.156284978695
     62   S     107             0.8245472    0.904690876670

     63   S     108             0.1831916    1.000000000000

 H         

     64   S     109             5.4471780    0.156284978695
     64   S     110             0.8245472    0.904690876670

     65   S     111             0.1831916    1.000000000000

 O         

     66   S     112           322.0370000    0.059239393389
     66   S     113            48.4308000    0.351499960776
     66   S     114            10.4206000    0.707657921031

     67   L     115             7.4029400   -0.404453583190    0.244586106967
     67   L     116             1.5762000    1.221561761397    0.853955373466

     68   L     117             0.3736840    1.000000000000    1.000000000000

 H         

     69   S     118             5.4471780    0.156284978695
     69   S     119             0.8245472    0.904690876670

     70   S     120             0.1831916    1.000000000000

 O         

     71   S     121           322.0370000    0.059239393389
     71   S     122            48.4308000    0.351499960776
     71   S     123            10.4206000    0.707657921031

     72   L     124             7.4029400   -0.404453583190    0.244586106967
     72   L     125             1.5762000    1.221561761397    0.853955373466

     73   L     126             0.3736840    1.000000000000    1.000000000000

 H         

     74   S     127             5.4471780    0.156284978695
     74   S     128             0.8245472    0.904690876670

     75   S     129             0.1831916    1.000000000000

 H         

     76   S     130             5.4471780    0.156284978695
     76   S     131             0.8245472    0.904690876670

     77   S     132             0.1831916    1.000000000000

 O         

     78   S     133           322.0370000    0.059239393389
     78   S     134            48.4308000    0.351499960776
     78   S     135            10.4206000    0.707657921031

     79   L     136             7.4029400   -0.404453583190    0.244586106967
     79   L     137             1.5762000    1.221561761397    0.853955373466

     80   L     138             0.3736840    1.000000000000    1.000000000000

 H         

     81   S     139             5.4471780    0.156284978695
     81   S     140             0.8245472    0.904690876670

     82   S     141             0.1831916    1.000000000000

 O         

     83   S     142           322.0370000    0.059239393389
     83   S     143            48.4308000    0.351499960776
     83   S     144            10.4206000    0.707657921031

     84   L     145             7.4029400   -0.404453583190    0.244586106967
     84   L     146             1.5762000    1.221561761397    0.853955373466

     85   L     147             0.3736840    1.000000000000    1.000000000000

 H         

     86   S     148             5.4471780    0.156284978695
     86   S     149             0.8245472    0.904690876670

     87   S     150             0.1831916    1.000000000000

 O         

     88   S     151           322.0370000    0.059239393389
     88   S     152            48.4308000    0.351499960776
     88   S     153            10.4206000    0.707657921031

     89   L     154             7.4029400   -0.404453583190    0.244586106967
     89   L     155             1.5762000    1.221561761397    0.853955373466

     90   L     156             0.3736840    1.000000000000    1.000000000000

 H         

     91   S     157             5.4471780    0.156284978695
     91   S     158             0.8245472    0.904690876670

     92   S     159             0.1831916    1.000000000000

 H         

     93   S     160             5.4471780    0.156284978695
     93   S     161             0.8245472    0.904690876670

     94   S     162             0.1831916    1.000000000000

 O         

     95   S     163           322.0370000    0.059239393389
     95   S     164            48.4308000    0.351499960776
     95   S     165            10.4206000    0.707657921031

     96   L     166             7.4029400   -0.404453583190    0.244586106967
     96   L     167             1.5762000    1.221561761397    0.853955373466

     97   L     168             0.3736840    1.000000000000    1.000000000000

 O         

     98   S     169           322.0370000    0.059239393389
     98   S     170            48.4308000    0.351499960776
     98   S     171            10.4206000    0.707657921031

     99   L     172             7.4029400   -0.404453583190    0.244586106967
     99   L     173             1.5762000    1.221561761397    0.853955373466

    100   L     174             0.3736840    1.000000000000    1.000000000000

 H         

    101   S     175             5.4471780    0.156284978695
    101   S     176             0.8245472    0.904690876670

    102   S     177             0.1831916    1.000000000000

 H         

    103   S     178             5.4471780    0.156284978695
    103   S     179             0.8245472    0.904690876670

    104   S     180             0.1831916    1.000000000000

 H         

    105   S     181             5.4471780    0.156284978695
    105   S     182             0.8245472    0.904690876670

    106   S     183             0.1831916    1.000000000000

 H         

    107   S     184             5.4471780    0.156284978695
    107   S     185             0.8245472    0.904690876670

    108   S     186             0.1831916    1.000000000000

 H         

    109   S     187             5.4471780    0.156284978695
    109   S     188             0.8245472    0.904690876670

    110   S     189             0.1831916    1.000000000000

 H         

    111   S     190             5.4471780    0.156284978695
    111   S     191             0.8245472    0.904690876670

    112   S     192             0.1831916    1.000000000000

 TOTAL NUMBER OF BASIS SET SHELLS             =  112
 NUMBER OF CARTESIAN GAUSSIAN BASIS FUNCTIONS =  208
 NUMBER OF ELECTRONS                          =  160
 CHARGE OF MOLECULE                           =    0
 SPIN MULTIPLICITY                            =    1
 NUMBER OF OCCUPIED ORBITALS (ALPHA)          =   80
 NUMBER OF OCCUPIED ORBITALS (BETA )          =   80
 TOTAL NUMBER OF ATOMS                        =   48
 THE NUCLEAR REPULSION ENERGY IS     1770.4398617875

 SELECTED MURRAY-HANDY-LAMING RADIAL GRID

 LEGACY BECKE'S FUZZY CELL METHOD

 SELECTED ORIGINAL BECKE'S PARTITION FUNCTION

     LEBEDEV GRID-BASED DFT OPTIONS
     ------------------------------
     DFTTYP=B3LYP   
     NRAD  =      96     NLEB  =     302
     NRAD0 =      24     NLEB0 =     110
     SWOFF =    5.00E-03 (PURE SCF -> DFT)
     SWITCH=    3.00E-04 (COARSE -> TIGHT GRID)
     THRESH=    0.00E+00 GTHRE=    1.00E+00

 GRIMME'S EMPIRICAL DISPERSION CORRECTION= F

     $CONTRL OPTIONS
     ---------------
 SCFTYP=RHF          RUNTYP=ENERGY       EXETYP=RUN     
 MPLEVL=       0     CITYP =NONE         CCTYP =NONE         VBTYP =NONE    
 DFTTYP=B3LYP        TDDFT =NONE    
 MULT  =       1     ICHARG=       0     NZVAR =       0     COORD =UNIQUE  
 PP    =NONE         RELWFN=NONE         LOCAL =NONE         NUMGRD=       F
 ISPHER=      -1     NOSYM =       0     MAXIT =      60     UNITS =ANGS    
 PLTORB=       F     MOLPLT=       F     AIMPAC=       F     FRIEND=        
 NPRINT=       7     IREST =       0     GEOM  =INPUT   
 NORMF =       0     NORMP =       0     ITOL  =      20     ICUT  =       9
 INTTYP=BEST         GRDTYP=BEST         QMTTOL= 1.0E-06

     $SYSTEM OPTIONS
     ---------------
  REPLICATED MEMORY=    30000000 WORDS (ON EVERY NODE).
 DISTRIBUTED MEMDDI=        1000 MILLION WORDS IN AGGREGATE,
 MEMDDI DISTRIBUTED OVER   6 PROCESSORS IS   166666666 WORDS/PROCESSOR.
 TOTAL MEMORY REQUESTED ON EACH PROCESSOR=   196666666 WORDS.
 TIMLIM=      525600.00 MINUTES, OR     365.0 DAYS.
 PARALL= T  BALTYP=  DLB     KDIAG=    0  COREFL= F
 MXSEQ2=     300 MXSEQ3=     150  mem10=         0

     INPUT FOR POTENTIAL-DERIVED CHARGES 
     -----------------------------------
     VDWSCL=    1.40   RMAX=    3.00   DELR=    0.80
     VDWINC=    0.20 PTDENS=    0.28
     LAYER =       4  NFREQ=      30 MAXPDC=   10000
     CONSTR=CHARGE    UNITS=ANGS      PTSEL=GEODESIC
     CENTER=  0.0000  0.0000  0.0000
     DPOLE =  0.0000  0.0000  0.0000
     QPOLE =  0.0000  0.0000  0.0000  0.0000  0.0000  0.0000


          ----------------
          PROPERTIES INPUT
          ----------------

     MOMENTS            FIELD           POTENTIAL          DENSITY
 IEMOM =       1   IEFLD =       0   IEPOT =       1   IEDEN =       0
 WHERE =COMASS     WHERE =NUCLEI     WHERE =PDC        WHERE =NUCLEI  
 OUTPUT=BOTH       OUTPUT=BOTH       OUTPUT=BOTH       OUTPUT=BOTH    
 IEMINT=       0   IEFINT=       0                     IEDINT=       0
                                                       MORB  =       0
          EXTRAPOLATION IN EFFECT
          DIIS IN EFFECT
 ORBITAL PRINTING OPTION: NPREO=     1   208     2     1

     -------------------------------
     INTEGRAL TRANSFORMATION OPTIONS
     -------------------------------
     NWORD  =            0
     CUTOFF = 1.0E-09     MPTRAN =       0
     DIRTRF =       T     AOINTS =DUP     

          ----------------------
          INTEGRAL INPUT OPTIONS
          ----------------------
 NOPK  =       1 NORDER=       0 SCHWRZ=       T

     ------------------------------------------
     THE POINT GROUP IS C1 , NAXIS= 0, ORDER= 1
     ------------------------------------------

     DIMENSIONS OF THE SYMMETRY SUBSPACES ARE
 A   =  208

 ..... DONE SETTING UP THE RUN .....
 CPU     0: STEP CPU TIME=     0.03 TOTAL CPU TIME=          0.0 (      0.0 MIN)
 TOTAL WALL CLOCK TIME=          0.0 SECONDS, CPU UTILIZATION IS    75.00%

          ********************
          1 ELECTRON INTEGRALS
          ********************
 ...... END OF ONE-ELECTRON INTEGRALS ......
 CPU     0: STEP CPU TIME=     0.01 TOTAL CPU TIME=          0.0 (      0.0 MIN)
 TOTAL WALL CLOCK TIME=          0.1 SECONDS, CPU UTILIZATION IS    66.67%

          -------------
          GUESS OPTIONS
          -------------
          GUESS =HUCKEL            NORB  =       0          NORDER=       0
          MIX   =       F          PRTMO =       F          PUNMO =       F
          TOLZ  = 1.0E-08          TOLE  = 1.0E-05
          SYMDEN=       F          PURIFY=       F

 INITIAL GUESS ORBITALS GENERATED BY HUCKEL   ROUTINE.
 HUCKEL GUESS REQUIRES    398416 WORDS.

 SYMMETRIES FOR INITIAL GUESS ORBITALS FOLLOW.   BOTH SET(S).
    80 ORBITALS ARE OCCUPIED (   16 CORE ORBITALS).
    17=A       18=A       19=A       20=A       21=A       22=A       23=A   
    24=A       25=A       26=A       27=A       28=A       29=A       30=A   
    31=A       32=A       33=A       34=A       35=A       36=A       37=A   
    38=A       39=A       40=A       41=A       42=A       43=A       44=A   
    45=A       46=A       47=A       48=A       49=A       50=A       51=A   
    52=A       53=A       54=A       55=A       56=A       57=A       58=A   
    59=A       60=A       61=A       62=A       63=A       64=A       65=A   
    66=A       67=A       68=A       69=A       70=A       71=A       72=A   
    73=A       74=A       75=A       76=A       77=A       78=A       79=A   
    80=A       81=A       82=A       83=A       84=A       85=A       86=A   
    87=A       88=A       89=A       90=A   
 ...... END OF INITIAL ORBITAL SELECTION ......
 CPU     0: STEP CPU TIME=     0.06 TOTAL CPU TIME=          0.1 (      0.0 MIN)
 TOTAL WALL CLOCK TIME=          0.2 SECONDS, CPU UTILIZATION IS    62.50%

                    ----------------------
                    AO INTEGRAL TECHNOLOGY
                    ----------------------
     S,P,L SHELL ROTATED AXIS INTEGRALS, REPROGRAMMED BY
        KAZUYA ISHIMURA (IMS) AND JOSE SIERRA (SYNSTAR).
     S,P,D,L SHELL ROTATED AXIS INTEGRALS PROGRAMMED BY
        KAZUYA ISHIMURA (INSTITUTE FOR MOLECULAR SCIENCE).
     S,P,D,F,G SHELL TO TOTAL QUARTET ANGULAR MOMENTUM SUM 5,
        ERIC PROGRAM BY GRAHAM FLETCHER (ELORET AND NASA ADVANCED
        SUPERCOMPUTING DIVISION, AMES RESEARCH CENTER).
     S,P,D,F,G,L SHELL GENERAL RYS QUADRATURE PROGRAMMED BY
        MICHEL DUPUIS (PACIFIC NORTHWEST NATIONAL LABORATORY).

          --------------------
          2 ELECTRON INTEGRALS
          --------------------

 DIRECT SCF METHOD SKIPS INTEGRAL STORAGE ON DISK.
 DIRECT TRANSFORMATION SKIPS AO INTEGRAL STORAGE ON DISK.
  ...... END OF TWO-ELECTRON INTEGRALS .....
 CPU     0: STEP CPU TIME=     0.02 TOTAL CPU TIME=          0.1 (      0.0 MIN)
 TOTAL WALL CLOCK TIME=          0.2 SECONDS, CPU UTILIZATION IS    66.67%

          --------------------------
             R-B3LYP SCF CALCULATION
          --------------------------

     NUCLEAR ENERGY =      1770.4398617875
     MAXIT =   60     NPUNCH=    2
     EXTRAP=T  DAMP=F  SHIFT=F  RSTRCT=F  DIIS=T  DEM=F  SOSCF=F
         DENSITY MATRIX CONVERGENCE THRESHOLD=  2.00E-05
     COARSE -> FINE DFT GRID SWITCH THRESHOLD=  3.00E-04 (SWITCH IN $DFT)
                   HF -> DFT SWITCH THRESHOLD=  5.00E-03 (SWOFF IN $DFT)
     MEMORY REQUIRED FOR RHF ITERS=   1896345 WORDS.

 DIRECT SCF CALCULATION, SCHWRZ=T   FDIFF=T,  DIRTHR=  0.00E+00 NITDIR=10
 SCHWARZ INEQUALITY OVERHEAD:     16656 INTEGRALS, T=        0.00

 DFT CODE IS SWITCHING FROM THE FINE GRID NRAD= 96,  NLEB=  302
                      TO THE COARSE GRID NRAD0= 24, NLEB0=  110

     EXCHANGE FUNCTIONAL   =B88&HFX   
     CORRELATION FUNCTIONAL=LYP88&VWN5
     DFT THRESHOLD         =.287E-08
     GRID CHANGE THRESHOLD =.300E-03
 FOR AN EULER-MACLAURIN QUADRATURE USING  96 RADIAL POINTS:
 SMALLEST GAUSSIAN PRIMITIVE EXPONENT=        0.1831915800 OF TYPE -S-
 ON ATOM NUMBER   2 HAS RADIAL NORMALIZATION=  1.000000
  LARGEST GAUSSIAN PRIMITIVE EXPONENT=      322.0370000000 OF TYPE -S-
 ON ATOM NUMBER   1 HAS RADIAL NORMALIZATION=  1.000000
 DFT IS SWITCHED OFF, PERFORMING PURE SCF UNTIL SWOFF THRESHOLD IS REACHED.

                                                                                   NONZERO     BLOCKS
 ITER EX DEM     TOTAL ENERGY        E CHANGE  DENSITY CHANGE    DIIS ERROR      INTEGRALS    SKIPPED
   1  0  0    -1206.2551971547 -1206.2551971547   0.565344487   1.047030420       50356948   14989030
          * * *   INITIATING DIIS PROCEDURE   * * *
   2  1  0    -1209.7066177439    -3.4514205893   0.116188859   0.097857462       50271962   15041369
   3  2  0    -1209.8406271374    -0.1340093934   0.032021919   0.021171861       47877633   15536926
   4  3  0    -1209.8506893939    -0.0100622565   0.006566764   0.010622616       44997501   15898496
   5  4  0    -1209.8523279010    -0.0016385072   0.001349595   0.001342621       41147964   16295075
 CONVERGED TO SWOFF, SO DFT CALCULATION IS NOW SWITCHED ON.
          * * *   INITIATING DIIS PROCEDURE   * * *
   6  5  0    -1215.6881059594    -5.8357780584   0.075703489   0.097194149       50509207   14926785
   7  6  0    -1215.8185023226    -0.1303963631   0.014345610   0.013025908       48773768   15387434
   8  7  0    -1215.8181843893     0.0003179333   0.008195735   0.017491604       43955383   16007068
   9  8  0    -1215.8204649476    -0.0022805584   0.001055017   0.001012024       40786663   16320542
  10  9  0    -1215.8204769430    -0.0000119954   0.000479551   0.000693233       35182173   16866805
  11 10  0    -1215.8204840329    -0.0000070899   0.000094711   0.000076673       32602557   17147028
 DFT CODE IS SWITCHING BACK TO THE FINE GRID
          * * *   INITIATING DIIS PROCEDURE   * * *
  12 11  0    -1215.8131706083     0.0073134246   0.001405367   0.000905802       50716858   14855879
  13 12  0    -1215.8132043894    -0.0000337811   0.000771165   0.000613117       37689555   16624750
  14 13  0    -1215.8132065129    -0.0000021235   0.000365105   0.000511377       33337191   17073478
  15 14  0    -1215.8132103107    -0.0000037978   0.000051963   0.000039802       30713016   17336074
  16 15  0    -1215.8132103314    -0.0000000207   0.000020235   0.000026435       25331927   17834244
  17 16  0    -1215.8132103460    -0.0000000146   0.000003352   0.000004524       22718144   18066286
  18 17  0    -1215.8132103470    -0.0000000010   0.000001179   0.000001421       17282767   18549508

          -----------------
          DENSITY CONVERGED
          -----------------
     TIME TO FORM FOCK OPERATORS=     118.0 SECONDS (       6.6 SEC/ITER)
     FOCK TIME ON FIRST ITERATION=       1.2, LAST ITERATION=      13.7
     TIME TO SOLVE SCF EQUATIONS=       0.5 SECONDS (       0.0 SEC/ITER)

 FINAL R-B3LYP ENERGY IS    -1215.8132103470 AFTER  18 ITERATIONS
 DFT EXCHANGE + CORRELATION ENERGY =      -120.0575722330
 TOTAL ELECTRON NUMBER             =       159.9999583844

          ------------
          EIGENVECTORS
          ------------

                      1          2          3          4          5
                  -19.0255   -19.0254   -19.0238   -19.0237   -19.0132
                     A          A          A          A          A   
    1  O  1  S    0.000053  -0.000062   0.023947   0.000089   0.109956
    2  O  1  S   -0.000000  -0.000010   0.003793   0.000015   0.012404
    3  O  1  X    0.000116   0.000001   0.000223   0.000005   0.000536
    4  O  1  Y    0.000118   0.000002   0.000574   0.000012  -0.000347
    5  O  1  Z   -0.000056   0.000000  -0.000388  -0.000004   0.000031
    6  O  1  S    0.000346   0.000018  -0.004877  -0.000007  -0.007064
    7  O  1  X   -0.000447  -0.000006  -0.001236  -0.000021  -0.001978
    8  O  1  Y   -0.000386  -0.000007  -0.002919  -0.000056   0.001809
    9  O  1  Z    0.000474   0.000006   0.001822   0.000024   0.000081
   10  H  2  S   -0.000018   0.000021   0.000496   0.000039   0.000978
   11  H  2  S    0.000184  -0.000037  -0.001495  -0.000113   0.004907
   12  H  3  S    0.000586   0.000016   0.000387   0.000016   0.000766
   13  H  3  S   -0.002237  -0.000041  -0.001402  -0.000045  -0.000805
   14  O  4  S    0.011086   0.000380  -0.006515  -0.000773   0.010002
   15  O  4  S    0.002011   0.000068  -0.001135  -0.000135   0.001266
   16  O  4  X   -0.000286  -0.000005   0.000021   0.000003  -0.000179
   17  O  4  Y    0.000591  -0.000004  -0.000191  -0.000003  -0.000136
   18  O  4  Z    0.000093   0.000012   0.000013  -0.000005  -0.000024
   19  O  4  S   -0.003077  -0.000124   0.001796   0.000221  -0.000884
   20  O  4  X    0.001605   0.000012  -0.000298  -0.000004   0.000681
   21  O  4  Y   -0.002877   0.000044   0.000943  -0.000023   0.000538
   22  O  4  Z   -0.000339  -0.000068  -0.000287   0.000010  -0.000047
   23  H  5  S    0.000360  -0.000063  -0.000205   0.000038   0.000674
   24  H  5  S   -0.001996   0.000286   0.001097  -0.000217   0.000550
   25  H  6  S    0.000687   0.000014   0.000111  -0.000030   0.000161
   26  H  6  S    0.006559  -0.000040  -0.002877   0.000025  -0.000048
   27  O  7  S    0.216049   0.001148   0.957807   0.014292   0.000675
   28  O  7  S    0.024507   0.000130   0.101607   0.001510   0.000022
   29  O  7  X   -0.000097  -0.000000  -0.000421  -0.000008  -0.000037
   30  O  7  Y    0.000700   0.000002   0.001058   0.000015  -0.000049
   31  O  7  Z    0.000808  -0.000001  -0.000140  -0.000002   0.000018
   32  O  7  S   -0.014473  -0.000081  -0.044062  -0.000639   0.000206
   33  O  7  X    0.000158  -0.000003   0.000691   0.000017   0.000180
   34  O  7  Y   -0.002400  -0.000000  -0.001224  -0.000022   0.000032
   35  O  7  Z   -0.004300  -0.000003  -0.000642  -0.000010  -0.000098
   36  H  8  S    0.001140   0.000010   0.002707   0.000036  -0.000092
   37  H  8  S   -0.000279  -0.000004   0.005177   0.000084   0.000094
   38  H  9  S    0.000564  -0.000003   0.000732   0.000021   0.000688
   39  H  9  S    0.000055   0.000025   0.008007   0.000098  -0.000519
   40  O 10  S   -0.000473  -0.000422   0.014963   0.000834   0.054909
   41  O 10  S   -0.000078  -0.000075   0.002552   0.000144   0.006741
   42  O 10  X   -0.000137  -0.000002  -0.000307  -0.000010  -0.000774
   43  O 10  Y    0.000061  -0.000003   0.000445  -0.000000  -0.000598
   44  O 10  Z   -0.000086  -0.000003  -0.000414  -0.000017   0.000213
   45  O 10  S    0.000462   0.000131  -0.003750  -0.000204  -0.004595
   46  O 10  X    0.000550   0.000017   0.001796   0.000039   0.003038
   47  O 10  Y   -0.000179  -0.000000  -0.002245   0.000044   0.002559
   48  O 10  Z    0.000555   0.000034   0.001876   0.000065  -0.000753
   49  H 11  S    0.000511   0.000038   0.000339   0.000035   0.000656
   50  H 11  S   -0.002320  -0.000200  -0.001665  -0.000137  -0.000476
   51  H 12  S    0.000491  -0.000021   0.000642   0.000041   0.001076
   52  H 12  S    0.000297   0.000063   0.007256   0.000054  -0.001304
   53  O 13  S    0.958204   0.000360  -0.215363  -0.004171  -0.000644
   54  O 13  S    0.102333   0.000038  -0.021408  -0.000412  -0.000034
   55  O 13  X   -0.000478  -0.000002   0.000085   0.000003  -0.000005
   56  O 13  Y    0.000983  -0.000000  -0.000267  -0.000004   0.000001
   57  O 13  Z   -0.000933  -0.000002  -0.000736  -0.000009  -0.000005
   58  O 13  S   -0.046083  -0.000017   0.005755   0.000102  -0.000083
   59  O 13  X    0.000848   0.000006  -0.000078  -0.000009   0.000017
   60  O 13  Y   -0.000635  -0.000000   0.000511   0.000010   0.000004
   61  O 13  Z    0.003426   0.000013   0.003877   0.000052   0.000052
   62  H 14  S    0.002508  -0.000004   0.001531   0.000016  -0.000073
   63  H 14  S    0.012910   0.000040   0.007968   0.000124   0.000304
   64  H 15  S    0.002944  -0.000000  -0.000132   0.000003   0.000024
   65  H 15  S    0.004549   0.000002  -0.002485  -0.000053  -0.000047
[...]
   2234  -13.80517   -6.64498   -2.09342       -12.900894      12.923358       0.022464
   2235  -14.59343   -5.38698   -3.23121       -13.773888      13.791810       0.017922
   2236  -12.89006   -7.21056   -0.61273       -12.583371      12.608920       0.025549
   2237  -11.97495   -7.00529   -2.23104       -12.267868      12.292374       0.024506
   2238  -11.05983   -7.21056   -0.61273       -12.206681      12.233289       0.026608
   2239  -14.59343   -5.38698    2.00575       -14.915331      14.938889       0.023558
   2240  -13.80517   -6.64498    0.86796       -13.405209      13.430425       0.025216
   2241  -12.89006   -6.07941    2.34864       -13.901030      13.929917       0.028887
   2242  -11.97495   -7.00529    1.00558       -12.766864      12.794746       0.027882
   2243   -9.59484    5.90205   -5.76291       -15.705663      15.691049      -0.014613
   2244  -11.07553    3.15670   -6.32848       -16.329575      16.318912      -0.010664
   2245   -9.24530    7.94831   -3.36711       -16.617478      16.603157      -0.014320
   2246   -8.45705    6.69030   -4.50490       -15.576220      15.559201      -0.017018
   2247   -9.88671    8.83395   -0.84616       -18.132287      18.120495      -0.011792
   2248  -10.96768    9.88001   -1.91380       -17.696298      17.686926      -0.009372
   2249   -9.88671    8.83395   -2.98143       -16.879929      16.867478      -0.012450
   2250  -13.74945    2.59725   -6.41479       -17.381593      17.375146      -0.006447
   2251  -12.02198    3.24375   -6.43637       -16.773281      16.763820      -0.009461
   2252  -12.68181    1.51628   -5.36873       -18.066620      18.062733      -0.003886
   2253  -12.02198    7.51428   -6.43637       -16.228302      16.218651      -0.009652
   2254  -10.29451    6.44665   -5.77653       -16.117791      16.104032      -0.013759
   2255  -11.86142    5.37901   -6.85672       -16.180110      16.169028      -0.011083
   2256  -13.74945    4.31138   -7.09620       -16.805048      16.797180      -0.007869
   2257  -11.61418    9.90158   -3.64127       -17.133591      17.125193      -0.008398
   2258  -10.69455    8.43391   -4.96869       -16.284391      16.272889      -0.011501
   2259  -12.68181   10.56142   -1.91380       -18.716808      18.710784      -0.006023
   2260  -15.47692    3.24375   -6.43637       -18.058583      18.053162      -0.005422
   2261   -7.37274   -1.89006   -1.85291       -14.665938      14.668027       0.002089
   2262   -8.06518   -1.54717   -3.55628       -14.601889      14.600850      -0.001039
   2263   -7.90556   -2.75962    2.05240       -15.024291      15.040958       0.016668
   2264   -9.37324   -4.08705    2.97202       -14.736216      14.766287       0.030071
   2265  -12.42813    0.03548   -5.26527       -17.067615      17.067179      -0.000436
   2266  -10.54010   -1.03215   -5.02579       -15.557238      15.558736       0.001498
   2267  -12.42813   -2.09979   -5.26527       -15.264573      15.271827       0.007253
   2268  -14.15560   -3.16742   -4.60544       -15.205701      15.216564       0.010863
   2269  -16.29087   -4.48709    0.98476       -15.891826      15.905484       0.013657
   2270  -16.29087   -4.48709   -1.15050       -15.559274      15.572061       0.012788
   2271  -15.48303   -4.08705    2.97202       -16.378622      16.396430       0.017808
   2272  -16.25799    1.81498    9.03891       -16.166399      16.165223      -0.001176
   2273  -16.25799    3.95025    9.03891       -16.686108      16.680508      -0.005600
   2274  -14.53053    5.01789    8.37908       -17.607157      17.602271      -0.004886
   2275  -16.25799    5.66438    8.35750       -17.696888      17.690196      -0.006692
   2276  -17.98546    5.01789    8.37908       -17.516952      17.509452      -0.007500
   2277  -19.03976   -1.61837    3.85651       -17.548058      17.546737      -0.001321
   2278  -20.12073   -0.57232    4.92414       -17.259795      17.254587      -0.005208
   2279  -20.12073   -0.57232    2.78887       -18.692221      18.687475      -0.004746
   2280  -17.32563   -2.29979    3.85651       -17.771105      17.777302       0.006197
   2281  -19.31289   -0.17228    6.91140       -16.367878      16.363270      -0.004608
   2282  -18.39326   -1.63995    5.58398       -16.683665      16.684567       0.000902
   2283  -17.98546    0.74735    8.37908       -16.021955      16.018657      -0.003298
   2284  -18.14602    2.88262    8.79943       -16.437577      16.430571      -0.007005
   2285  -14.96288   -2.25818   -4.66496       -16.132707      16.138060       0.005353
   2286  -17.34725   -3.73180   -0.80697       -16.314735      16.320494       0.005759
   2287  -15.87799   -3.18473   -3.76834       -15.821646      15.828741       0.007094
   2288  -16.79311   -3.75030   -2.28766       -15.887054      15.894025       0.006972
   2289  -16.34142   -1.22325   -5.25202       -16.431546      16.429332      -0.002214
   2290  -16.34142    2.62615   -5.93343       -18.673485      18.668292      -0.005193
   2291  -14.45339    1.55852   -5.69395       -18.169692      18.165179      -0.004514
   2292  -16.34142    0.49088   -5.93343       -17.124856      17.119789      -0.005068
   2293  -18.06888   -0.57675   -5.27360       -16.643011      16.636999      -0.006012
   2294  -19.12318   -2.94248   -0.75103       -16.444551      16.441899      -0.002653
   2295  -20.20415   -1.89642    0.31661       -17.260350      17.255190      -0.005160
   2296  -20.86398   -0.16895    1.38424       -19.059264      19.053776      -0.005488
   2297  -20.20415   -1.89642   -1.81866       -16.747113      16.740593      -0.006520
   2298  -17.40905   -2.30422   -4.20596       -16.086211      16.084401      -0.001810
   2299  -18.47668   -2.96405   -2.47850       -16.089469      16.087233      -0.002236
   2300  -19.39631   -1.49638   -3.80592       -16.504115      16.497609      -0.006506
   2301  -19.39631   -1.49638    2.30387       -18.208053      18.205325      -0.002728
   2302  -18.47668   -2.96405    0.97644       -17.000261      17.001424       0.001163
   2303  -17.40905   -2.30422    2.70391       -18.334056      18.339615       0.005559
   2304  -17.33060   -2.30191    4.52389       -17.311463      17.317845       0.006382
   2305  -17.56471   -1.06240    7.14237       -16.225960      16.228930       0.002971
   2306  -16.42691   -0.27414    8.40038       -15.814589      15.820148       0.005558
   2307   -8.97588    1.18387    8.24515       -14.704053      14.709565       0.005512
   2308  -12.43082    1.18387    9.56482       -14.939544      14.949382       0.009838
   2309  -10.70335    2.25150    8.90499       -15.333682      15.337171       0.003489
   2310  -12.43082    2.89800    8.88341       -16.271968      16.273828       0.001861
   2311   -8.56808   -3.33870    3.31478       -14.774889      14.798944       0.024055
   2312   -7.48789   -1.77179    4.38242       -14.715072      14.728047       0.012975
   2313  -15.21258   -4.38475    4.38242       -15.374915      15.394837       0.019922
   2314  -16.29355   -3.33870    5.45005       -15.752799      15.766462       0.013663
   2315  -16.29355   -3.33870    3.31478       -17.057589      17.070148       0.012559
   2316  -15.88575   -0.95140    8.24515       -15.626046      15.636679       0.010633
   2317   -8.02685    1.87508    7.88863       -14.473065      14.468666      -0.004400
   2318   -6.29938    2.94272    7.22879       -13.607330      13.590607      -0.016723
   2319   -5.25333    4.01035    6.14782       -13.312940      13.289466      -0.023475
   2320   -9.75432    2.94272    8.54846       -15.275184      15.271956      -0.003229
   2321   -7.86629    4.01035    8.30898       -14.082300      14.067982      -0.014318
   2322   -6.29938    5.07798    7.22879       -13.509860      13.487478      -0.022382
   2323   -9.75432    5.07798    8.54846       -15.112034      15.101261      -0.010773
   2324   -8.02685    6.14562    7.88863       -14.212866      14.194486      -0.018380
   2325   -9.75432    6.79211    7.86705       -15.331938      15.318157      -0.013781
   2326   -6.97255   -0.49064    3.36606       -15.555671      15.556629       0.000958
   2327   -5.89158    0.55541    4.43369       -14.321018      14.311885      -0.009134
   2328   -5.23175    2.28288    5.50133       -13.544714      13.526138      -0.018575
   2329   -6.69942    0.95545    6.42095       -14.193553      14.187333      -0.006220
   2330   -5.23175    5.73782    5.50133       -13.390473      13.364139      -0.026334
   2331   -5.89158    7.46528    4.43369       -13.937093      13.912207      -0.024886
   2332   -6.97255    8.51134    3.36606       -14.869594      14.848743      -0.020851
   2333   -6.69942    7.06524    6.42095       -13.864349      13.841134      -0.023215
   2334   -7.61905    8.53292    5.09353       -14.774377      14.754323      -0.020054
   2335   -8.68668    7.87308    6.82099       -14.946756      14.929214      -0.017542
   2336   -5.89158    7.46528    2.29843       -14.533904      14.510132      -0.023772
   2337   -4.81139    5.89838    3.36606       -13.704981      13.677963      -0.027018
   2338   -4.57191    4.01035    4.43369       -13.402866      13.377447      -0.025419
   2339   -5.23175    5.73782    1.23079       -14.584660      14.558043      -0.026617
   2340   -4.57191    4.01035    2.29843       -13.981919      13.955758      -0.026161
   2341   -5.89158    0.55541    2.29843       -15.054861      15.043282      -0.011579
   2342   -4.81139    2.12232    3.36606       -13.910167      13.889961      -0.020206
   2343   -7.61905    8.53292    1.63859       -15.947329      15.929487      -0.017842
   2344   -6.69942    7.06524    0.31116       -15.834837      15.812822      -0.022015
   2345  -11.64235    4.01035    8.30898       -16.796825      16.794106      -0.002718
   2346  -13.64103    5.66428    7.85553       -18.080668      18.074745      -0.005923
   2347  -13.64103    7.79955    7.85553       -17.073858      17.065377      -0.008481
   2348  -11.91357    8.86718    7.19570       -16.310225      16.298977      -0.011248
   2349  -13.64103    9.51368    7.17412       -16.785467      16.777002      -0.008465
   2350   -9.77830   10.18685    3.74076       -16.216337      16.202082      -0.014255
   2351  -10.85927   11.23291    2.67313       -16.523310      16.512583      -0.010728
   2352  -10.58614    9.78681    5.72802       -16.040020      16.026539      -0.013481
   2353  -11.50577   11.25448    4.40059       -16.275208      16.264906      -0.010302
   2354  -12.57340   10.59465    6.12806       -16.373929      16.364586      -0.009344
   2355   -9.77830   10.18685    1.60549       -16.823862      16.811151      -0.012711
   2356   -9.11846    8.45938    0.53786       -17.941599      17.928255      -0.013343
   2357  -11.50577   11.25448    0.94566       -17.397366      17.389122      -0.008244
   2358  -10.58614    9.78681   -0.38177       -18.039280      18.029145      -0.010135
   2359  -12.57340   10.59465   -0.78181       -19.126056      19.120402      -0.005653
   2360  -15.52906    6.73191    7.61605       -18.573842      18.567217      -0.006625
   2361  -11.03965    7.86711    7.30950       -16.304572      16.292529      -0.012043
   2362   -8.65528    9.34073    3.45151       -16.010556      15.994261      -0.016295
   2363   -9.20942    9.35922    4.93219       -15.784287      15.768701      -0.015586
   2364  -10.12453    8.79365    6.41288       -15.893951      15.879911      -0.014040
   2365  -14.84975    9.17297    7.28037       -17.416105      17.408784      -0.007321
   2366  -14.84975   10.64223    6.69630       -16.916103      16.908634      -0.007469
   2367  -12.46538   12.11585    2.83831       -16.819727      16.812524      -0.007203
   2368  -13.01952   12.13435    4.31899       -16.465627      16.458507      -0.007120
   2369  -13.93464   11.56878    5.79968       -16.502530      16.495275      -0.007255
   2370  -13.01952   12.13435    1.35762       -17.644759      17.638511      -0.006248
   2371  -11.95359   -3.53158    9.53541       -12.330232      12.353866       0.023634
   2372  -10.47290   -2.97744    9.55391       -12.238825      12.261707       0.022882
   2373   -8.99221   -2.06233    8.98834       -12.535800      12.555749       0.019949
   2374   -8.09559   -1.14721    8.06179       -13.186191      13.201519       0.015327
   2375  -11.95359   -2.06233   10.11948       -12.714321      12.734880       0.020558
   2376  -10.33528   -1.14721    9.91421       -12.837543      12.855868       0.018325
   2377   -8.99221   -0.23210    8.98834       -13.409028      13.422747       0.013719
   2378  -11.95359   -0.23210   10.11948       -13.602518      13.618035       0.015517
   2379  -10.47290    0.68302    9.55391       -14.003366      14.015211       0.011845
   2380  -11.95359    1.23716    9.53541       -14.839438      14.849303       0.009865
   2381   -9.56922   -5.00520    5.67742       -12.805934      12.833623       0.027689
   2382   -8.64267   -4.10858    6.59254       -12.592838      12.617387       0.024549
   2383   -8.07710   -2.62790    7.50765       -12.728230      12.748335       0.020105
   2384  -10.12336   -5.02370    7.15811       -12.282287      12.309300       0.027013
   2385   -9.33510   -3.76569    8.29590       -12.182923      12.207120       0.024197
   2386  -11.03847   -4.45813    8.63880       -12.118489      12.144172       0.025683
   2387   -8.07710    0.33348    7.50765       -14.375665      14.382824       0.007158
   2388   -7.51153   -1.14721    6.59254       -13.830213      13.842889       0.012676
   2389   -8.64267   -4.10858    4.76231       -13.487146      13.512653       0.025508
   2390   -7.71679   -2.76552    5.67742       -13.469585      13.488869       0.019284
   2391  -10.12336   -5.02370    4.19674       -13.709480      13.740279       0.030799
   2392  -13.43427    0.68302    9.55391       -14.997817      15.008825       0.011008
   2393  -14.33796   -5.00520    5.67742       -14.000601      14.024727       0.024126
   2394  -15.26450   -4.10858    6.59254       -14.298110      14.318201       0.020091
   2395  -15.83007   -2.62790    7.50765       -14.936617      14.952240       0.015622
   2396  -13.78382   -5.02370    4.19674       -14.765026      14.792385       0.027359
   2397  -12.86870   -5.58927    5.67742       -13.295507      13.323183       0.027677
   2398  -11.95359   -5.38400    4.05911       -14.090550      14.122491       0.031941
   2399  -11.03847   -5.58927    5.67742       -12.867938      12.896976       0.029037
   2400  -14.91496   -2.06233    8.98834       -14.084713      14.101656       0.016943
   2401  -14.57207   -3.76569    8.29590       -13.384740      13.405912       0.021172
   2402  -13.78382   -5.02370    7.15811       -13.086570      13.111241       0.024671
   2403  -13.43427   -2.97744    9.55391       -12.899146      12.920492       0.021347
   2404  -12.86870   -4.45813    8.63880       -12.496185      12.520832       0.024647
   2405  -11.95359   -5.38400    7.29573       -12.453449      12.480547       0.027099
   2406  -13.57190   -1.14721    9.91421       -13.687058      13.703928       0.016870
   2407  -10.66806    3.32095    8.53492       -15.923046      15.920747      -0.002300

 NET CHARGES:
 -------------------------------------
 ATOM                CHARGE    E.S.D.
 -------------------------------------
 O                  -0.9968    0.0279
 H                   0.5061    0.0219
 H                   0.5634    0.0110
 O                  -1.0079    0.1259
 H                   0.4977    0.0215
 H                   0.5025    0.0538
 O                  -0.9802    0.1534
 H                   0.4289    0.0129
 H                   0.5147    0.0237
 O                  -0.9991    0.1306
 H                   0.4895    0.0208
 H                   0.4962    0.0559
 O                  -0.9872    0.1420
 H                   0.5348    0.0355
 H                   0.4341    0.0122
 O                  -0.9982    0.1327
 H                   0.4851    0.0532
 H                   0.5013    0.0229
 O                  -0.9945    0.1305
 H                   0.5103    0.0226
 H                   0.4845    0.0553
 O                  -0.9873    0.0255
 H                   0.4988    0.0216
 H                   0.5058    0.0206
 H                   0.4802    0.0530
 O                  -0.9926    0.0268
 H                   0.4319    0.0125
 H                   0.5040    0.0220
 O                  -0.9834    0.1310
 H                   0.5129    0.0228
 O                  -0.9848    0.1461
 H                   0.5634    0.0110
 H                   0.4886    0.0227
 O                  -0.9843    0.1314
 H                   0.5009    0.0531
 O                  -0.9947    0.1229
 H                   0.4889    0.0538
 O                  -0.9679    0.1491
 H                   0.5291    0.0353
 H                   0.4964    0.0226
 O                  -0.9882    0.0262
 O                  -0.9878    0.1257
 H                   0.4861    0.0230
 H                   0.5019    0.0207
 H                   0.4891    0.0521
 H                   0.4762    0.0200
 H                   0.4294    0.0128
 H                   0.5021    0.0209
 -------------------------------------

 RMS DEVIATION IS            0.561 KCAL/MOLE
 RELATIVE RMS DEVIATION IS   4.169 %

 MULTIPOLE MOMENTS:
 ---------------------------------------------------------
 STATUS  ACTUAL VALUE       QUANTITY        FITTED VALUE 
 ---------------------------------------------------------
 FIXED       0.0000       TOTAL CHARGE         0.0000
             0.1271 D    DIPOLE MOMENT         0.1281 D
 FREE       -0.0032 D          DX             -0.0007 D
 FREE       -0.0300 D          DY             -0.0296 D
 FREE       -0.1235 D          DZ             -0.1246 D
 FREE        0.0000 BU         QXX           -50.1961 BU
 FREE        0.0000 BU         QYY            55.1735 BU
 FREE        0.0000 BU         QZZ            -4.9775 BU
 FREE        0.0000 BU         QXY           -32.7624 BU
 FREE        0.0000 BU         QXZ             9.0794 BU
 FREE        0.0000 BU         QYZ           -17.1696 BU
 ---------------------------------------------------------
 ...... END OF PROPERTY EVALUATION ......
 CPU     0: STEP CPU TIME=     3.96 TOTAL CPU TIME=        131.6 (      2.2 MIN)
 TOTAL WALL CLOCK TIME=        192.7 SECONDS, CPU UTILIZATION IS    68.30%
              1896969  WORDS OF DYNAMIC MEMORY USED
 EXECUTION OF GAMESS TERMINATED NORMALLY Sun May 24 20:32:12 2020
 DDI: 263640 bytes (0.3 MB / 0 MWords) used by master data server.
Note: The following floating-point exceptions are signalling: IEEE_UNDERFLOW_FLAG IEEE_DENORMAL
Note: The following floating-point exceptions are signalling: IEEE_UNDERFLOW_FLAGNote: The following floating-point exceptions are signalling: IEEE_UNDERFLOW_FLAGNote: The following floating-point exceptions are signalling:
 ----------------------------------------
 CPU timing information for all processes
 ========================================
 0: 131.23 + 0.583 = 131.607
 1: 128.200 + 0.326 = 128.526
 2: 124.478 + 0.260 = 124.739
 3: 128.658 + 0.337 = 128.995
 4: 126.57 + 0.280 = 126.338
 5: 125.804 + 0.244 = 126.49
 ----------------------------------------
 IEEE_DENORMALNote: The following floating-point exceptions are signalling: IEEE_DENORMAL
 IEEE_UNDERFLOW_FLAG IEEE_DENORMALNote: The following floating-point exceptions are signalling: IEEE_UNDERFLOW_FLAG
 IEEE_UNDERFLOW_FLAG IEEE_DENORMAL
 IEEE_DENORMAL

 ddikick.x: exited gracefully.
unset echo
----- accounting info -----
Files used on the master node pietdev were:
-rwxr-xr-x 1 piet piet     2787 mei 24 20:28 /home/piet/scr/16H2O_charge_geodisk.F05*
-rw-r--r-- 1 piet piet 50790400 mei 24 20:32 /home/piet/scr/16H2O_charge_geodisk.F10
ls: No match.
ls: No match.
ls: No match.
zo 24 mei 2020 20:32:15 CEST
0.112u 0.020s 3:15.91 0.0%	0+0k 0+8io 0pf+0w
