----- GAMESS execution script 'rungms' -----
This job is running on host pietdev
under operating system Linux at zo 17 mei 2020 16:17:03 CEST
Available scratch disk space (Kbyte units) at beginning of the job is
Filesystem     1K-blocks     Used Available Use% Mounted on
/dev/sda2      244568380 30392184 201683140  14% /
GAMESS temporary binary files will be written to /home/piet/scr
GAMESS supplementary output files will be written to /home/piet/gamess/scr
Copying input file serine_fukui_neu.inp to your run's scratch directory...
cp serine_fukui_neu.inp /home/piet/scr/serine_fukui_neu.F05
unset echo
 
Assuming a single but multicore node.
 
/home/piet/gamess/ddikick.x /home/piet/gamess/gamess.03.x serine_fukui_neu -ddi 1 6 pietdev:cpus=6 -scr /home/piet/scr

 Distributed Data Interface kickoff program.
 Initiating 6 compute processes on 1 nodes to run the following command:
 /home/piet/gamess/gamess.03.x serine_fukui_neu 

          ******************************************************
          *         GAMESS VERSION = 30 SEP 2019 (R2)          *
          *             FROM IOWA STATE UNIVERSITY             *
          * M.W.SCHMIDT, K.K.BALDRIDGE, J.A.BOATZ, S.T.ELBERT, *
          *   M.S.GORDON, J.H.JENSEN, S.KOSEKI, N.MATSUNAGA,   *
          *          K.A.NGUYEN, S.J.SU, T.L.WINDUS,           *
          *       TOGETHER WITH M.DUPUIS, J.A.MONTGOMERY       *
          *         J.COMPUT.CHEM.  14, 1347-1363(1993)        *
          **************** 64 BIT LINUX VERSION ****************

  SINCE 1993, STUDENTS AND POSTDOCS WORKING AT IOWA STATE UNIVERSITY
  AND ALSO IN THEIR VARIOUS JOBS AFTER LEAVING ISU HAVE MADE IMPORTANT
  CONTRIBUTIONS TO THE CODE:
     IVANA ADAMOVIC, CHRISTINE AIKENS, YURI ALEXEEV, POOJA ARORA,
     ANDREY ASADCHEV, ROB BELL, PRADIPTA BANDYOPADHYAY, JONATHAN BENTZ,
     COLLEEN BERTONI, BRETT BODE, KURT BRORSEN, CALEB CARLIN, GALINA CHABAN,
     WEI CHEN, CHEOL HO CHOI, PAUL DAY, ALBERT DEFUSCO, NUWAN DESILVA,
     TIM DUDLEY, DMITRI FEDOROV, ALEX FINDLATER, GRAHAM FLETCHER, 
     MARK FREITAG, KURT GLAESEMANN, EMILIE B GUIDEZ, ANASTASIA GUNINA, 
     DAN KEMP, SAROM SOK LEANG, GRANT MERRILL,
     NORIYUKI MINEZAWA, JONATHAN MULLIN,
     TAKESHI NAGATA, SEAN NEDD, HEATHER NETZLOFF, BOSILJKA NJEGIC, RYAN OLSON,
     MIKE PAK, BUU PHAM, DAVID POOLE,
     SPENCER PRUITT, LUKE ROSKOP, TOSAPORN SATTASATHUCHANA,
     JIM SHOEMAKER, LYUDMILA SLIPCHENKO,
     TONY SMITH, JIE SONG, TETSUYA TAKETSUGU, SIMON WEBB,
     JORGE LUIS GALVEZ VALLEJO, PENG XU, SOOHAENG YOO,
     FEDERICO ZAHARIEV

  ADDITIONAL CODE HAS BEEN PROVIDED BY COLLABORATORS IN OTHER GROUPS:
     IOWA STATE UNIVERSITY:
          JOE IVANIC, AARON WEST, LAIMUTIS BYTAUTAS, KLAUS RUEDENBERG
     UNIVERSITY OF TOKYO: KIMIHIKO HIRAO, TAKAHITO NAKAJIMA,
          TAKAO TSUNEDA, MUNEAKI KAMIYA, SUSUMU YANAGISAWA,
          KIYOSHI YAGI, MAHITO CHIBA, SEIKEN TOKURA, NAOAKI KAWAKAMI
     UNIVERSITY OF AARHUS: FRANK JENSEN
     UNIVERSITY OF IOWA: VISVALDAS KAIRYS, HUI LI
     NATIONAL INST. OF STANDARDS AND TECHNOLOGY: WALT STEVENS, DAVID GARMER
     UNIVERSITY OF PISA: BENEDETTA MENNUCCI, JACOPO TOMASI
     UNIVERSITY OF MEMPHIS: HENRY KURTZ, PRAKASHAN KORAMBATH
     UNIVERSITY OF ALBERTA: TOBY ZENG, MARIUSZ KLOBUKOWSKI
     UNIVERSITY OF NEW ENGLAND: MARK SPACKMAN
     MIE UNIVERSITY: HIROAKI UMEDA
     NAT. INST. OF ADVANCED INDUSTRIAL SCIENCE AND TECHNOLOGY: KAZUO KITAURA
     MICHIGAN STATE UNIVERSITY:
          KAROL KOWALSKI, MARTA WLOCH, JEFFREY GOUR, JESSE LUTZ,
          WEI LI, JUN SHEN, J. EMILIANO DEUSTUA, PIOTR PIECUCH
     UNIVERSITY OF MINNESOTA:
          ANDREW SAND, PRACHI SHARMA, YINAN SHU
     UNIVERSITY OF SILESIA: MONIKA MUSIAL, STANISLAW KUCHARSKI
     FACULTES UNIVERSITAIRES NOTRE-DAME DE LA PAIX:
          OLIVIER QUINET, BENOIT CHAMPAGNE
     UNIVERSITY OF CALIFORNIA - SANTA BARBARA: BERNARD KIRTMAN
     INSTITUTE FOR MOLECULAR SCIENCE:
          KAZUYA ISHIMURA, MICHIO KATOUDA, AND SHIGERU NAGASE
     UNIVERSITY OF NOTRE DAME: ANNA POMOGAEVA, DAN CHIPMAN
     KYUSHU UNIVERSITY:
          HARUYUKI NAKANO,
          FENG LONG GU, JACEK KORCHOWIEC, MARCIN MAKOWSKI, AND YURIKO AOKI,
          HIROTOSHI MORI AND EISAKU MIYOSHI
     PENNSYLVANIA STATE UNIVERSITY:
          TZVETELIN IORDANOV, CHET SWALINA, JONATHAN SKONE,
          SHARON HAMMES-SCHIFFER
     WASEDA UNIVERSITY:
          MASATO KOBAYASHI, TOMOKO AKAMA, TSUGUKI TOUMA,
          TAKESHI YOSHIKAWA, YASUHIRO IKABATA, JUNJI SEINO,
          YUYA NAKAJIMA, HIROMI NAKAI
     NANJING UNIVERSITY: SHUHUA LI
     UNIVERSITY OF NEBRASKA:
          PEIFENG SU, DEJUN SI, NANDUN THELLAMUREGE, YALI WANG, HUI LI
     UNIVERSITY OF ZURICH: ROBERTO PEVERATI, KIM BALDRIDGE
     N. COPERNICUS UNIVERSITY AND JACKSON STATE UNIVERSITY:
          MARIA BARYSZ
     UNIVERSITY OF COPENHAGEN: Jimmy Kromann, CASPER STEINMANN
     TOKYO INSTITUTE OF TECHNOLOGY: HIROYA NAKATA
     NAGOYA UNIVERSITY: YOSHIO NISHIMOTO, STEPHAN IRLE
     MOSCOW STATE UNIVERSITY: VLADIMIR MIRONOV
     A.N.NESMEYANOV INSTITUTE OF ORGANOELEMENT COMPOUNDS OF RUSSIAN ACADEMY OF SCIENCES:
          IGOR S. GERASIMOV
     JOHANNES KEPLER UNIVERSITY LINZ:
          CHRISTIAN FRIEDL


 PARALLEL VERSION RUNNING ON        6 PROCESSORS IN        1 NODES.

 EXECUTION OF GAMESS BEGUN Sun May 17 16:17:03 2020

            ECHO OF THE FIRST FEW INPUT CARDS -
 INPUT CARD> $BASIS GBASIS=N21 NGAUSS=3 $END                                                
 INPUT CARD> $CONTRL SCFTYP=RHF MAXIT=60 MULT=1 ICHARG=0 $END                               
 INPUT CARD> $SYSTEM MEMDDI=1000 MWORDS=30 $END                                             
 INPUT CARD> $SCF DIRSCF=.TRUE. $END                                                        
 INPUT CARD> $DATA                                                                          
 INPUT CARD>                                                                                
 INPUT CARD>C1                                                                              
 INPUT CARD>C 6.0000000 0.2805690038 0.1438665882 -0.4388404043                             
 INPUT CARD>H 1.0000000 0.3825655519 -0.2345775192 -1.4601278082                            
 INPUT CARD>C 6.0000000 1.2157968055 -0.6319726227 0.4894628367                             
 INPUT CARD>O 8.0000000 2.5648039133 -0.4036035406 -0.0281432026                            
 INPUT CARD>H 1.0000000 1.1018531151 -0.2654062752 1.5220733357                             
 INPUT CARD>H 1.0000000 0.9455256931 -1.6998167023 0.4812035085                             
 INPUT CARD>H 1.0000000 3.2009217625 -0.8942086388 0.5599140712                             
 INPUT CARD>H 1.0000000 -0.7606856703 0.0408134079 -0.1161437476                            
 INPUT CARD>H 1.0000000 0.5585298251 1.2018753027 -0.4323485893                             
 INPUT CARD> $END                                                                           
   30000000 WORDS OF MEMORY AVAILABLE

     BASIS OPTIONS
     -------------
     GBASIS=N21          IGAUSS=       3      POLAR=NONE    
     NDFUNC=       0     NFFUNC=       0     DIFFSP=       F
     NPFUNC=       0      DIFFS=       F     BASNAM=        


     RUN TITLE
     ---------
                                                                                 

 THE POINT GROUP OF THE MOLECULE IS C1      
 THE ORDER OF THE PRINCIPAL AXIS IS     0

 ATOM      ATOMIC                      COORDINATES (BOHR)
           CHARGE         X                   Y                   Z
 C           6.0     0.5301985378        0.2718684305       -0.8292881165
 H           1.0     0.7229440654       -0.4432872342       -2.7592414646
 C           6.0     2.2975228191       -1.1942550886        0.9249506425
 O           8.0     4.8467766084       -0.7627000994       -0.0531829413
 H           1.0     2.0822004663       -0.5015451355        2.8763015377
 H           1.0     1.7867844743       -3.2121877967        0.9093427754
 H           1.0     6.0488650393       -1.6898093032        1.0580841712
 H           1.0    -1.4374874797        0.0771261576       -0.2194798582
 H           1.0     1.0554683254        2.2712149935       -0.8170203650

          INTERNUCLEAR DISTANCES (ANGS.)
          ------------------------------

                1 C          2 H          3 C          4 O          5 H     

   1 C       0.0000000    1.0939155 *  1.5291581 *  2.3845597 *  2.1649930 *
   2 H       1.0939155 *  0.0000000    2.1571047 *  2.6155906 *  3.0678736  
   3 C       1.5291581 *  2.1571047 *  0.0000000    1.4628358 *  1.1016526 *
   4 O       2.3845597 *  2.6155906 *  1.4628358 *  0.0000000    2.1359997 *
   5 H       2.1649930 *  3.0678736    1.1016526 *  2.1359997 *  0.0000000  
   6 H       2.1651365 *  2.4965210 *  1.1015469 *  2.1358054 *  1.7791519 *
   7 H       3.2563125    3.5297045    2.0036098 *  0.9955655 *  2.3931636 *
   8 H       1.0949723 *  1.7858210 *  2.1739097 *  3.3562079    2.4993152 *
   9 H       1.0939318 *  1.7750184 *  2.1551646 *  2.6011690 *  2.5035735 *

                6 H          7 H          8 H          9 H     

   1 C       2.1651365 *  3.2563125    1.0949723 *  1.0939318 *
   2 H       2.4965210 *  3.5297045    1.7858210 *  1.7750184 *
   3 C       1.1015469 *  2.0036098 *  2.1739097 *  2.1551646 *
   4 O       2.1358054 *  0.9955655 *  3.3562079    2.6011690 *
   5 H       1.7791519 *  2.3931636 *  2.4993152 *  2.5035735 *
   6 H       0.0000000    2.3962494 *  2.5095366 *  3.0666202  
   7 H       2.3962494 *  0.0000000    4.1262154    3.5157344  
   8 H       2.5095366 *  4.1262154    0.0000000    1.7856035 *
   9 H       3.0666202    3.5157344    1.7856035 *  0.0000000  

  * ... LESS THAN  3.000


     ATOMIC BASIS SET
     ----------------
 THE CONTRACTED PRIMITIVE FUNCTIONS HAVE BEEN UNNORMALIZED
 THE CONTRACTED BASIS FUNCTIONS ARE NOW NORMALIZED TO UNITY

  SHELL TYPE  PRIMITIVE        EXPONENT          CONTRACTION COEFFICIENT(S)

 C         

      1   S       1           172.2560000    0.061766907377
      1   S       2            25.9109000    0.358794042852
      1   S       3             5.5333500    0.700713083689

      2   L       4             3.6649800   -0.395895162119    0.236459946619
      2   L       5             0.7705450    1.215834355681    0.860618805716

      3   L       6             0.1958570    1.000000000000    1.000000000000

 H         

      4   S       7             5.4471780    0.156284978695
      4   S       8             0.8245472    0.904690876670

      5   S       9             0.1831916    1.000000000000

 C         

      6   S      10           172.2560000    0.061766907377
      6   S      11            25.9109000    0.358794042852
      6   S      12             5.5333500    0.700713083689

      7   L      13             3.6649800   -0.395895162119    0.236459946619
      7   L      14             0.7705450    1.215834355681    0.860618805716

      8   L      15             0.1958570    1.000000000000    1.000000000000

 O         

      9   S      16           322.0370000    0.059239393389
      9   S      17            48.4308000    0.351499960776
      9   S      18            10.4206000    0.707657921031

     10   L      19             7.4029400   -0.404453583190    0.244586106967
     10   L      20             1.5762000    1.221561761397    0.853955373466

     11   L      21             0.3736840    1.000000000000    1.000000000000

 H         

     12   S      22             5.4471780    0.156284978695
     12   S      23             0.8245472    0.904690876670

     13   S      24             0.1831916    1.000000000000

 H         

     14   S      25             5.4471780    0.156284978695
     14   S      26             0.8245472    0.904690876670

     15   S      27             0.1831916    1.000000000000

 H         

     16   S      28             5.4471780    0.156284978695
     16   S      29             0.8245472    0.904690876670

     17   S      30             0.1831916    1.000000000000

 H         

     18   S      31             5.4471780    0.156284978695
     18   S      32             0.8245472    0.904690876670

     19   S      33             0.1831916    1.000000000000

 H         

     20   S      34             5.4471780    0.156284978695
     20   S      35             0.8245472    0.904690876670

     21   S      36             0.1831916    1.000000000000

 TOTAL NUMBER OF BASIS SET SHELLS             =   21
 NUMBER OF CARTESIAN GAUSSIAN BASIS FUNCTIONS =   39
 NUMBER OF ELECTRONS                          =   26
 CHARGE OF MOLECULE                           =    0
 SPIN MULTIPLICITY                            =    1
 NUMBER OF OCCUPIED ORBITALS (ALPHA)          =   13
 NUMBER OF OCCUPIED ORBITALS (BETA )          =   13
 TOTAL NUMBER OF ATOMS                        =    9
 THE NUCLEAR REPULSION ENERGY IS       80.8150726764

     $CONTRL OPTIONS
     ---------------
 SCFTYP=RHF          RUNTYP=ENERGY       EXETYP=RUN     
 MPLEVL=       0     CITYP =NONE         CCTYP =NONE         VBTYP =NONE    
 DFTTYP=NONE         TDDFT =NONE    
 MULT  =       1     ICHARG=       0     NZVAR =       0     COORD =UNIQUE  
 PP    =NONE         RELWFN=NONE         LOCAL =NONE         NUMGRD=       F
 ISPHER=      -1     NOSYM =       0     MAXIT =      60     UNITS =ANGS    
 PLTORB=       F     MOLPLT=       F     AIMPAC=       F     FRIEND=        
 NPRINT=       7     IREST =       0     GEOM  =INPUT   
 NORMF =       0     NORMP =       0     ITOL  =      20     ICUT  =       9
 INTTYP=BEST         GRDTYP=BEST         QMTTOL= 1.0E-06

     $SYSTEM OPTIONS
     ---------------
  REPLICATED MEMORY=    30000000 WORDS (ON EVERY NODE).
 DISTRIBUTED MEMDDI=        1000 MILLION WORDS IN AGGREGATE,
 MEMDDI DISTRIBUTED OVER   6 PROCESSORS IS   166666666 WORDS/PROCESSOR.
 TOTAL MEMORY REQUESTED ON EACH PROCESSOR=   196666666 WORDS.
 TIMLIM=      525600.00 MINUTES, OR     365.0 DAYS.
 PARALL= T  BALTYP=  DLB     KDIAG=    0  COREFL= F
 MXSEQ2=     300 MXSEQ3=     150  mem10=         0

          ----------------
          PROPERTIES INPUT
          ----------------

     MOMENTS            FIELD           POTENTIAL          DENSITY
 IEMOM =       1   IEFLD =       0   IEPOT =       0   IEDEN =       0
 WHERE =COMASS     WHERE =NUCLEI     WHERE =NUCLEI     WHERE =NUCLEI  
 OUTPUT=BOTH       OUTPUT=BOTH       OUTPUT=BOTH       OUTPUT=BOTH    
 IEMINT=       0   IEFINT=       0                     IEDINT=       0
                                                       MORB  =       0
          EXTRAPOLATION IN EFFECT
          SOSCF IN EFFECT
 ORBITAL PRINTING OPTION: NPREO=     1    39     2     1

     -------------------------------
     INTEGRAL TRANSFORMATION OPTIONS
     -------------------------------
     NWORD  =            0
     CUTOFF = 1.0E-09     MPTRAN =       0
     DIRTRF =       T     AOINTS =DUP     

          ----------------------
          INTEGRAL INPUT OPTIONS
          ----------------------
 NOPK  =       1 NORDER=       0 SCHWRZ=       T

     ------------------------------------------
     THE POINT GROUP IS C1 , NAXIS= 0, ORDER= 1
     ------------------------------------------

     DIMENSIONS OF THE SYMMETRY SUBSPACES ARE
 A   =   39

 ..... DONE SETTING UP THE RUN .....
 CPU     0: STEP CPU TIME=     0.02 TOTAL CPU TIME=          0.0 (      0.0 MIN)
 TOTAL WALL CLOCK TIME=          0.0 SECONDS, CPU UTILIZATION IS    66.67%

          ********************
          1 ELECTRON INTEGRALS
          ********************
 ...... END OF ONE-ELECTRON INTEGRALS ......
 CPU     0: STEP CPU TIME=     0.01 TOTAL CPU TIME=          0.0 (      0.0 MIN)
 TOTAL WALL CLOCK TIME=          0.0 SECONDS, CPU UTILIZATION IS   100.00%

          -------------
          GUESS OPTIONS
          -------------
          GUESS =HUCKEL            NORB  =       0          NORDER=       0
          MIX   =       F          PRTMO =       F          PUNMO =       F
          TOLZ  = 1.0E-08          TOLE  = 1.0E-05
          SYMDEN=       F          PURIFY=       F

 INITIAL GUESS ORBITALS GENERATED BY HUCKEL   ROUTINE.
 HUCKEL GUESS REQUIRES     19284 WORDS.

 SYMMETRIES FOR INITIAL GUESS ORBITALS FOLLOW.   BOTH SET(S).
    13 ORBITALS ARE OCCUPIED (    3 CORE ORBITALS).
     4=A        5=A        6=A        7=A        8=A        9=A       10=A   
    11=A       12=A       13=A       14=A       15=A       16=A       17=A   
    18=A       19=A       20=A       21=A       22=A       23=A   
 ...... END OF INITIAL ORBITAL SELECTION ......
 CPU     0: STEP CPU TIME=     0.01 TOTAL CPU TIME=          0.0 (      0.0 MIN)
 TOTAL WALL CLOCK TIME=          0.1 SECONDS, CPU UTILIZATION IS    80.00%

                    ----------------------
                    AO INTEGRAL TECHNOLOGY
                    ----------------------
     S,P,L SHELL ROTATED AXIS INTEGRALS, REPROGRAMMED BY
        KAZUYA ISHIMURA (IMS) AND JOSE SIERRA (SYNSTAR).
     S,P,D,L SHELL ROTATED AXIS INTEGRALS PROGRAMMED BY
        KAZUYA ISHIMURA (INSTITUTE FOR MOLECULAR SCIENCE).
     S,P,D,F,G SHELL TO TOTAL QUARTET ANGULAR MOMENTUM SUM 5,
        ERIC PROGRAM BY GRAHAM FLETCHER (ELORET AND NASA ADVANCED
        SUPERCOMPUTING DIVISION, AMES RESEARCH CENTER).
     S,P,D,F,G,L SHELL GENERAL RYS QUADRATURE PROGRAMMED BY
        MICHEL DUPUIS (PACIFIC NORTHWEST NATIONAL LABORATORY).

          --------------------
          2 ELECTRON INTEGRALS
          --------------------

 DIRECT SCF METHOD SKIPS INTEGRAL STORAGE ON DISK.
 DIRECT TRANSFORMATION SKIPS AO INTEGRAL STORAGE ON DISK.
  ...... END OF TWO-ELECTRON INTEGRALS .....
 CPU     0: STEP CPU TIME=     0.01 TOTAL CPU TIME=          0.0 (      0.0 MIN)
 TOTAL WALL CLOCK TIME=          0.1 SECONDS, CPU UTILIZATION IS    83.33%

          --------------------------
                 RHF SCF CALCULATION
          --------------------------

     NUCLEAR ENERGY =        80.8150726764
     MAXIT =   60     NPUNCH=    2
     EXTRAP=T  DAMP=F  SHIFT=F  RSTRCT=F  DIIS=F  DEM=F  SOSCF=T
     DENSITY MATRIX CONV=  2.00E-05
     SOSCF WILL OPTIMIZE     338 ORBITAL ROTATIONS, SOGTOL=   0.250
     MEMORY REQUIRED FOR RHF ITERS=     57363 WORDS.

 DIRECT SCF CALCULATION, SCHWRZ=T   FDIFF=T,  DIRTHR=  0.00E+00 NITDIR=10
 SCHWARZ INEQUALITY OVERHEAD:       779 INTEGRALS, T=        0.00

                                                                                   NONZERO     BLOCKS
 ITER EX DEM     TOTAL ENERGY        E CHANGE  DENSITY CHANGE     ORB. GRAD      INTEGRALS    SKIPPED
   1  0  0     -152.8446365799  -152.8446365799   0.595092472   0.000000000         289060       2347
          ---------------START SECOND ORDER SCF---------------
   2  1  0     -153.2006708160    -0.3560342360   0.138217870   0.054024745         288772       2526
   3  2  0     -153.2185177438    -0.0178469279   0.058802774   0.010941095         287442       2902
   4  3  0     -153.2206050614    -0.0020873176   0.007192413   0.004662636         286365       3248
   5  4  0     -153.2207113278    -0.0001062664   0.001753824   0.001217056         284174       3815
   6  5  0     -153.2207279802    -0.0000166524   0.001557432   0.000528942         282493       4119
   7  6  0     -153.2207294660    -0.0000014858   0.000330757   0.000080715         279643       4701
   8  7  0     -153.2207295411    -0.0000000751   0.000030706   0.000014390         274403       5491
   9  8  0     -153.2207295453    -0.0000000042   0.000011136   0.000006114         267862       6406
  10  9  0     -153.2207295457    -0.0000000004   0.000002665   0.000000818         260864       7457

          -----------------
          DENSITY CONVERGED
          -----------------
     TIME TO FORM FOCK OPERATORS=       0.0 SECONDS (       0.0 SEC/ITER)
     FOCK TIME ON FIRST ITERATION=       0.0, LAST ITERATION=       0.0
     TIME TO SOLVE SCF EQUATIONS=       0.0 SECONDS (       0.0 SEC/ITER)

 FINAL RHF ENERGY IS     -153.2207295457 AFTER  10 ITERATIONS

          ------------
          EIGENVECTORS
          ------------

                      1          2          3          4          5
                  -20.4407   -11.2226   -11.1558    -1.3265    -1.0087
                     A          A          A          A          A   
    1  C  1  S    0.000178  -0.002456   0.987489  -0.018170  -0.166319
    2  C  1  S    0.000616  -0.002795   0.101613   0.016993   0.162706
    3  C  1  X   -0.000721   0.000023   0.000113   0.015210   0.026918
    4  C  1  Y    0.000285  -0.000025  -0.000080  -0.007794  -0.026970
    5  C  1  Z   -0.000270   0.000034   0.000098   0.008481   0.033225
    6  C  1  S   -0.005838   0.021463  -0.080641   0.036624   0.447916
    7  C  1  X   -0.002280   0.008270  -0.003641   0.013799  -0.006201
    8  C  1  Y    0.000754  -0.006910   0.002428   0.001833  -0.005311
    9  C  1  Z   -0.000772   0.008258  -0.002835  -0.004662   0.008714
   10  H  2  S    0.000418  -0.001432   0.000255   0.005215   0.083907
   11  H  2  S    0.000136   0.001241   0.014298  -0.002003   0.001569
   12  C  3  S   -0.000801   0.987621   0.001707  -0.073445  -0.130832
   13  C  3  S   -0.003259   0.100859  -0.002023   0.079321   0.131664
   14  C  3  X    0.001830  -0.000337  -0.000185   0.064970  -0.082635
   15  C  3  Y   -0.000017   0.000018   0.000019   0.010988   0.030178
   16  C  3  Z   -0.000253   0.000027   0.000002  -0.024873  -0.029134
   17  C  3  S    0.017796  -0.077614   0.019438   0.127198   0.342595
   18  C  3  X    0.006652   0.007174  -0.007031  -0.004260  -0.035645
   19  C  3  Y    0.002732  -0.003202   0.006028  -0.004815   0.001102
   20  C  3  Z   -0.004738   0.003335  -0.007242   0.007316   0.003869
   21  O  4  S    0.983423  -0.000193   0.000039  -0.222211   0.058809
   22  O  4  S    0.097170  -0.000498   0.000009   0.207084  -0.052320
   23  O  4  X   -0.001403  -0.000498   0.000556  -0.019701  -0.074555
   24  O  4  Y   -0.001905  -0.000226  -0.000227  -0.037124   0.017475
   25  O  4  Z    0.002858   0.000388   0.000236   0.054582  -0.013126
   26  O  4  S   -0.042408   0.007729  -0.001412   0.695747  -0.223583
   27  O  4  X    0.005210  -0.003105  -0.000831  -0.034667  -0.045746
   28  O  4  Y    0.003822   0.000264   0.000659  -0.047845   0.016574
   29  O  4  Z   -0.006095   0.000095  -0.000808   0.071706  -0.016151
   30  H  5  S   -0.001192   0.000222  -0.001205   0.022460   0.070961
   31  H  5  S   -0.000903   0.014549   0.000884  -0.006506  -0.000866
   32  H  6  S   -0.001191   0.000220  -0.001205   0.022455   0.070943
   33  H  6  S   -0.000888   0.014553   0.000888  -0.006521  -0.000891
   34  H  7  S    0.002983  -0.000314   0.000582   0.100434  -0.061296
   35  H  7  S    0.005223   0.002209   0.001180   0.020390  -0.036466
   36  H  8  S   -0.000156  -0.001270   0.000119   0.005867   0.087084
   37  H  8  S    0.000952   0.000952   0.013922   0.000400   0.000001
   38  H  9  S    0.000412  -0.001435   0.000265   0.005275   0.083919
   39  H  9  S    0.000213   0.001264   0.014315  -0.001986   0.001252

                      6          7          8          9         10
                   -0.8303    -0.6692    -0.6383    -0.5495    -0.5201
                     A          A          A          A          A   
    1  C  1  S    0.124237  -0.014859   0.000110   0.006419  -0.006050
    2  C  1  S   -0.110163   0.010261  -0.000082  -0.002989   0.009047
    3  C  1  X    0.057282  -0.139317   0.017503  -0.073755   0.310794
    4  C  1  Y   -0.058492  -0.004733   0.153479  -0.158098  -0.013334
    5  C  1  Z    0.071851   0.027957   0.111612   0.232203  -0.044337
    6  C  1  S   -0.446278   0.074029  -0.000517  -0.082584  -0.005240
    7  C  1  X    0.009551  -0.101282   0.012513  -0.056082   0.251145
    8  C  1  Y   -0.015216  -0.013950   0.109254  -0.114876   0.004451
    9  C  1  Z    0.019528   0.035053   0.079319   0.168880  -0.059363
   10  H  2  S   -0.098565  -0.012000  -0.100037  -0.124125   0.063632
   11  H  2  S   -0.037292  -0.012245  -0.079233  -0.106170   0.051414
   12  C  3  S   -0.142601   0.002746  -0.000032  -0.000185  -0.013876
   13  C  3  S    0.133161  -0.002077   0.000014  -0.003740   0.011656
   14  C  3  X    0.010499  -0.115522   0.026461  -0.194762  -0.205735
   15  C  3  Y   -0.066969  -0.104873   0.241369   0.072522   0.044842
   16  C  3  Z    0.090604   0.163397   0.174204  -0.072079  -0.025765
   17  C  3  S    0.506830  -0.012399   0.000096   0.023638   0.062889
   18  C  3  X   -0.023891  -0.059737   0.022017  -0.164489  -0.167819
   19  C  3  Y   -0.033045  -0.086248   0.201637   0.088889   0.050065
   20  C  3  Z    0.049113   0.128816   0.145541  -0.099673  -0.036305
   21  O  4  S    0.044164   0.027875   0.000070  -0.051240   0.003419
   22  O  4  S   -0.040751  -0.024713  -0.000073   0.051321   0.005316
   23  O  4  X   -0.106769   0.270652   0.015866   0.099430   0.226177
   24  O  4  Y   -0.010752  -0.124577   0.153849   0.136343   0.031899
   25  O  4  Z    0.030465   0.133089   0.110789  -0.205808  -0.064821
   26  O  4  S   -0.185056  -0.121249  -0.000292   0.223350  -0.031372
   27  O  4  X   -0.089448   0.266200   0.015982   0.120010   0.264777
   28  O  4  Y   -0.008142  -0.120732   0.155368   0.151393   0.040359
   29  O  4  Z    0.024289   0.128410   0.111869  -0.229975  -0.080745
   30  H  5  S    0.123935   0.078330   0.153725  -0.017247   0.024153
   31  H  5  S    0.041892   0.058407   0.118313  -0.012483   0.021296
   32  H  6  S    0.123990   0.077440  -0.154217  -0.016360   0.020751
   33  H  6  S    0.041870   0.057505  -0.118669  -0.011910   0.018696
   34  H  7  S   -0.053197   0.200097  -0.000231  -0.051294   0.081427
   35  H  7  S   -0.042367   0.159080  -0.000206  -0.027040   0.095342
   36  H  8  S   -0.092433   0.097778   0.001090   0.107566  -0.230183
   37  H  8  S   -0.038673   0.069406   0.000972   0.114540  -0.235117
   38  H  9  S   -0.098537  -0.013542   0.098539  -0.124962   0.056674
   39  H  9  S   -0.037429  -0.013542   0.077996  -0.106184   0.045826

                     11         12         13         14         15
                   -0.5159    -0.4727    -0.4303     0.2569     0.2954
                     A          A          A          A          A   
    1  C  1  S   -0.000234  -0.022962   0.000174  -0.042304  -0.106908
    2  C  1  S    0.000220   0.019561  -0.000081   0.021062   0.020742
    3  C  1  X    0.037407   0.113900   0.005958  -0.060128  -0.029992
    4  C  1  Y    0.255552  -0.134467   0.064444   0.014540   0.042818
    5  C  1  Z    0.181911   0.168894   0.046082  -0.010808  -0.057516
    6  C  1  S    0.000874   0.125435  -0.001227   0.517799   1.562224
    7  C  1  X    0.035630   0.053257   0.001528  -0.349788   0.067542
    8  C  1  Y    0.252616  -0.124623   0.027538   0.111180   0.261513
    9  C  1  Z    0.179357   0.165528   0.019923  -0.102053  -0.385014
   10  H  2  S   -0.190514  -0.060020  -0.058618   0.024948  -0.029307
   11  H  2  S   -0.164348  -0.086437  -0.102284  -0.158244  -0.888621
   12  C  3  S   -0.000311  -0.018808   0.000055  -0.058502  -0.080598
   13  C  3  S    0.000277   0.025688  -0.000059  -0.001235   0.048639
   14  C  3  X   -0.015508  -0.019142  -0.018294  -0.114717   0.081453
   15  C  3  Y   -0.097062   0.167044  -0.172996  -0.065514  -0.045579
   16  C  3  Z   -0.070551  -0.229151  -0.124303   0.109530   0.047448
   17  C  3  S    0.001290   0.030333  -0.000134   0.985664   0.906416
   18  C  3  X   -0.017869  -0.002231  -0.007428  -0.343628   0.210597
   19  C  3  Y   -0.127442   0.104624  -0.070788  -0.205155  -0.299327
   20  C  3  Z   -0.092513  -0.145438  -0.050810   0.343319   0.370787
   21  O  4  S    0.000316   0.054105  -0.000003  -0.080423   0.055721
   22  O  4  S   -0.000070  -0.050694  -0.000019   0.035152  -0.019304
   23  O  4  X   -0.013904  -0.042285   0.036533   0.061928   0.019858
   24  O  4  Y   -0.189270  -0.175898   0.344865  -0.086646   0.092584
   25  O  4  Z   -0.137660   0.250704   0.248214   0.110750  -0.130238
   26  O  4  S   -0.001809  -0.259311   0.000073   0.707163  -0.509440
   27  O  4  X   -0.015334  -0.057694   0.044853   0.162376   0.012870
   28  O  4  Y   -0.211679  -0.211512   0.423732  -0.194228   0.204059
   29  O  4  Z   -0.154327   0.302523   0.304968   0.244860  -0.282643
   30  H  5  S   -0.070291  -0.107731  -0.164282  -0.002637  -0.000209
   31  H  5  S   -0.063466  -0.137605  -0.218841  -0.672152  -0.636044
   32  H  6  S    0.072187  -0.106257   0.164940  -0.002389  -0.000919
   33  H  6  S    0.064960  -0.136013   0.219715  -0.662564  -0.650930
   34  H  7  S    0.002557   0.120495  -0.000043  -0.062192   0.025066
   35  H  7  S    0.002935   0.111190  -0.000091  -0.921741   0.548269
   36  H  8  S   -0.004491  -0.014046   0.001452  -0.046527   0.051265
   37  H  8  S   -0.004765  -0.052376   0.001447  -0.646094  -0.344300
   38  H  9  S    0.193026  -0.059865   0.057836   0.025774  -0.029398
   39  H  9  S    0.165815  -0.087290   0.102467  -0.150182  -0.876983

                     16         17         18         19         20
                    0.3309     0.3401     0.3577     0.3779     0.4072
                     A          A          A          A          A   
    1  C  1  S   -0.004636  -0.127800  -0.006333   0.000743  -0.037667
    2  C  1  S    0.000910   0.025584   0.007379  -0.000001   0.008945
    3  C  1  X    0.011972  -0.060581   0.249446   0.009731   0.071175
    4  C  1  Y    0.157695   0.014862   0.077493   0.161110  -0.122120
    5  C  1  Z    0.115425  -0.021802  -0.131231   0.121931   0.154556
    6  C  1  S    0.066620   1.811467   0.072598  -0.010766   0.589095
    7  C  1  X    0.046306  -0.297917   1.139708   0.072698   0.389888
    8  C  1  Y    0.654089  -0.063224   0.376440   1.017800  -0.740162
    9  C  1  Z    0.488115   0.091531  -0.614334   0.758393   0.950534
   10  H  2  S    0.057007   0.001034  -0.014230   0.035609   0.019245
   11  H  2  S    0.969637  -0.666037  -0.721298   1.141862   0.415526
   12  C  3  S    0.002359   0.118758   0.013245  -0.001975   0.001635
   13  C  3  S   -0.000287  -0.032398   0.002066   0.000567   0.018421
   14  C  3  X    0.024826   0.039181   0.028905  -0.021921   0.257600
   15  C  3  Y    0.198960   0.046922   0.013712  -0.199679  -0.086917
   16  C  3  Z    0.140764  -0.085219  -0.028531  -0.144574   0.079908
   17  C  3  S   -0.038190  -1.637419  -0.212760   0.024769  -0.429087
   18  C  3  X    0.100499   0.406913  -0.053367  -0.100055   1.372178
   19  C  3  Y    0.707271   0.174988  -0.087619  -0.956858  -0.444384
   20  C  3  Z    0.492576  -0.354390   0.094661  -0.710134   0.402678
   21  O  4  S    0.000383  -0.025688  -0.020119   0.000792   0.027082
   22  O  4  S    0.000602   0.020247  -0.004684   0.000339  -0.009529
   23  O  4  X   -0.002661  -0.004640   0.101021   0.006681   0.215327
   24  O  4  Y   -0.028459  -0.024500  -0.054624   0.068352   0.006681
   25  O  4  Z   -0.023347   0.037249   0.065340   0.045822  -0.041170
   26  O  4  S   -0.008200   0.175690   0.283879  -0.011645  -0.267917
   27  O  4  X   -0.006631   0.029759   0.181825   0.018644   0.544674
   28  O  4  Y   -0.098324  -0.069711  -0.120487   0.155019   0.029298
   29  O  4  Z   -0.075696   0.100376   0.147576   0.105227  -0.120272
   30  H  5  S   -0.042639   0.021612   0.010816  -0.007679  -0.011808
   31  H  5  S   -1.005288   1.044792   0.130536   1.052228  -0.124743
   32  H  6  S    0.044445   0.018839   0.012483   0.008436  -0.012257
   33  H  6  S    1.060084   0.973185   0.104027  -1.065111  -0.131128
   34  H  7  S   -0.001526  -0.037422   0.002138  -0.000410  -0.059253
   35  H  7  S    0.000651  -0.290932  -0.515395   0.008900  -0.597182
   36  H  8  S   -0.000913  -0.012056   0.048566  -0.001144   0.063944
   37  H  8  S   -0.069765  -1.027833   1.600752  -0.064796  -0.072905
   38  H  9  S   -0.056502   0.004724  -0.019075  -0.035382   0.019668
   39  H  9  S   -0.988543  -0.599874  -0.840989  -1.078595   0.435530

                     21         22         23         24         25
                    0.4415     0.9296     0.9635     0.9784     1.0339
                     A          A          A          A          A   
    1  C  1  S    0.072542   0.000003   0.001323  -0.013082   0.019627
    2  C  1  S    0.014325   0.000155   0.017672  -0.006352  -0.078389
    3  C  1  X   -0.081095  -0.049239  -0.276449   0.393909  -0.639417
    4  C  1  Y    0.055760  -0.456553  -0.145220  -0.383120  -0.057066
    5  C  1  Z   -0.070997  -0.330320   0.236610   0.471307   0.175517
    6  C  1  S   -1.135978   0.001353   0.061535   0.536898   0.259369
    7  C  1  X   -1.091174   0.077017   0.542960  -0.413831   1.369429
    8  C  1  Y    0.516029   0.697990   0.172981   0.470505   0.152707
    9  C  1  Z   -0.573908   0.506582  -0.314593  -0.589030  -0.412071
   10  H  2  S   -0.053395   0.483870  -0.205376  -0.173054  -0.096945
   11  H  2  S    0.020612  -0.073472   0.021962  -0.069423  -0.055707
   12  C  3  S   -0.129102  -0.000042   0.041143   0.011916  -0.022979
   13  C  3  S    0.054764   0.000316  -0.123135  -0.081967   0.140995
   14  C  3  X    0.086894  -0.027152  -0.678489  -0.368307   0.370059
   15  C  3  Y    0.131100  -0.239629  -0.113113   0.322898   0.352388
   16  C  3  Z   -0.192471  -0.175384   0.262880  -0.388168  -0.534301
   17  C  3  S    1.501991  -0.000414  -0.111372   0.445406  -0.231613
   18  C  3  X    0.227020   0.041118   0.689984   0.364766  -0.735636
   19  C  3  Y    0.870929   0.367717   0.132282  -0.529043  -0.718992
   20  C  3  Z   -1.225499   0.270661  -0.292547   0.671092   1.091361
   21  O  4  S    0.054610  -0.000102   0.001513  -0.021187   0.007305
   22  O  4  S   -0.015134   0.000173   0.036958   0.044493  -0.083069
   23  O  4  X    0.221004  -0.008970  -0.119182  -0.008373   0.175439
   24  O  4  Y   -0.008283  -0.080522  -0.066363   0.006454  -0.011800
   25  O  4  Z   -0.022634  -0.058662   0.109743  -0.006175  -0.009219
   26  O  4  S   -0.565399   0.000385  -0.250444   0.027924   0.469059
   27  O  4  X    0.677116  -0.005402   0.027932   0.003152  -0.244335
   28  O  4  Y   -0.051011  -0.051701   0.016594   0.038432   0.048822
   29  O  4  Z   -0.032087  -0.037133  -0.026763  -0.052545  -0.030208
   30  H  5  S    0.070659  -0.383214   0.241409  -0.220318  -0.111426
   31  H  5  S    0.254092   0.073112   0.032789  -0.053158  -0.256221
   32  H  6  S    0.069899   0.381106   0.240957  -0.222092  -0.111434
   33  H  6  S    0.260217  -0.073564   0.031813  -0.053601  -0.259237
   34  H  7  S   -0.002987  -0.001645   0.219847  -0.231514   0.239155
   35  H  7  S   -0.320113   0.000652  -0.256358  -0.001683  -0.120476
   36  H  8  S    0.004593  -0.007065   0.484174  -0.205751   0.381832
   37  H  8  S   -0.265876   0.001295  -0.022133   0.014508   0.287065
   38  H  9  S   -0.052808  -0.476666  -0.215549  -0.171486  -0.107666
   39  H  9  S    0.058591   0.072073   0.022311  -0.069644  -0.060565

                     26         27         28         29         30
                    1.0684     1.1300     1.2547     1.2913     1.3204
                     A          A          A          A          A   
    1  C  1  S    0.050631   0.000053   0.042755  -0.051592  -0.000003
    2  C  1  S   -0.133930   0.000136  -0.025559  -0.015486  -0.000151
    3  C  1  X   -0.220821   0.057613   0.345784  -0.079528  -0.024706
    4  C  1  Y    0.407897   0.516656  -0.079497   0.076421  -0.213892
    5  C  1  Z   -0.524337   0.378262   0.051980  -0.090494  -0.154678
    6  C  1  S    0.377520   0.000200   0.201379   0.424805  -0.001618
    7  C  1  X    0.264680  -0.130896  -0.442526  -0.050326   0.050251
    8  C  1  Y   -0.707079  -1.222408  -0.190762  -0.156124   0.406809
    9  C  1  Z    0.926111  -0.895312   0.343626   0.221339   0.288673
   10  H  2  S    0.213103  -0.130639   0.421089  -0.267065   0.055011
   11  H  2  S    0.160644  -0.421245  -0.055432   0.120835   0.222982
   12  C  3  S   -0.042882   0.000402   0.041976  -0.023857  -0.000194
   13  C  3  S    0.082626  -0.000650  -0.001619  -0.030080   0.000535
   14  C  3  X   -0.690007  -0.067384  -0.023542  -0.146014  -0.065992
   15  C  3  Y    0.285670  -0.627409   0.270735  -0.054221  -0.619625
   16  C  3  Z   -0.294654  -0.457929  -0.371353   0.092088  -0.447733
   17  C  3  S   -0.365776   0.001027   0.045305  -0.075143  -0.000417
   18  C  3  X    1.059351   0.161092   0.359051   0.565016   0.065636
   19  C  3  Y   -0.482660   1.499157  -0.274504  -0.161024   0.661008
   20  C  3  Z    0.513823   1.090538   0.318560   0.143366   0.479591
   21  O  4  S   -0.002265   0.000073   0.005398   0.039427  -0.000148
   22  O  4  S    0.019788  -0.000290   0.033889  -0.072638  -0.000040
   23  O  4  X    0.018899  -0.016353  -0.147190  -0.047794   0.010441
   24  O  4  Y   -0.009523  -0.158612   0.130765   0.154831   0.088225
   25  O  4  Z    0.010051  -0.113553  -0.157419  -0.207329   0.065479
   26  O  4  S   -0.177858   0.001413  -0.027556  -0.080808   0.001653
   27  O  4  X    0.098779  -0.014668  -0.063263  -0.089639  -0.011542
   28  O  4  Y    0.028776  -0.120395   0.074087   0.099072  -0.102099
   29  O  4  Z   -0.054584  -0.088569  -0.093366  -0.125240  -0.072868
   30  H  5  S   -0.191445  -0.288163   0.534270  -0.290830   0.766573
   31  H  5  S   -0.050585  -0.463526  -0.424474   0.169320  -1.133227
   32  H  6  S   -0.191487   0.294787   0.525151  -0.294972  -0.771573
   33  H  6  S   -0.048103   0.459863  -0.419086   0.176264   1.135605
   34  H  7  S   -0.154974   0.003493   0.627591   1.067913  -0.004817
   35  H  7  S   -0.125880  -0.002615  -0.425576  -0.875407   0.004647
   36  H  8  S    0.013884   0.006993   0.152208  -0.557926   0.003117
   37  H  8  S    0.036609   0.006430  -0.296771   0.249407  -0.001708
   38  H  9  S    0.217029   0.125464   0.422261  -0.267948  -0.058527
   39  H  9  S    0.164439   0.412831  -0.056978   0.123557  -0.221677

                     31         32         33         34         35
                    1.3625     1.3674     1.4075     1.8874     1.9278
                     A          A          A          A          A   
    1  C  1  S    0.004533  -0.000067   0.080314   0.011134   0.000106
    2  C  1  S    0.026552  -0.000807  -0.292183  -1.356940  -0.013614
    3  C  1  X   -0.653053  -0.059032   0.153822   0.061173  -0.004277
    4  C  1  Y   -0.240385  -0.585016  -0.227322   0.011418  -0.042807
    5  C  1  Z    0.419072  -0.430131   0.293710  -0.026584  -0.030473
    6  C  1  S   -0.127814   0.004009   0.100435   2.217493   0.023665
    7  C  1  X    0.671077   0.052922  -0.305400  -0.362472   0.035305
    8  C  1  Y    0.260716   0.506453   0.440116   0.133845   0.356810
    9  C  1  Z   -0.457159   0.372029  -0.569584  -0.129820   0.255208
   10  H  2  S    0.455783  -0.812497   0.490145   0.023114   0.058226
   11  H  2  S   -0.628986   1.084266  -0.569357  -0.586395   0.136401
   12  C  3  S    0.005669  -0.000251  -0.063169   0.000023  -0.000074
   13  C  3  S   -0.017595   0.000927   0.383499  -1.199364  -0.013501
   14  C  3  X   -0.111273  -0.013639  -0.054500   0.109128   0.012035
   15  C  3  Y   -0.050425  -0.136315  -0.226609  -0.016773   0.101732
   16  C  3  Z    0.076985  -0.102131   0.321014   0.004476   0.073833
   17  C  3  S    0.007471  -0.000628  -0.289945   1.831932   0.021996
   18  C  3  X    0.193631   0.040249  -0.225250   0.059215  -0.074568
   19  C  3  Y    0.176509   0.401528   0.468533  -0.181840  -0.700471
   20  C  3  Z   -0.246883   0.302079  -0.609582   0.256366  -0.502794
   21  O  4  S    0.006625  -0.000243   0.007463   0.034821   0.000351
   22  O  4  S   -0.004791   0.000536  -0.032120  -0.119969  -0.001120
   23  O  4  X   -0.000781  -0.006851   0.006921   0.122955  -0.086393
   24  O  4  Y   -0.040733  -0.059360   0.082368  -0.188242  -0.817092
   25  O  4  Z    0.057214  -0.047251  -0.115209   0.261035  -0.584418
   26  O  4  S   -0.146607   0.003709   0.031952  -0.199433  -0.002532
   27  O  4  X    0.123102  -0.004758  -0.027531   0.003949   0.099519
   28  O  4  Y   -0.022055  -0.015313  -0.061080   0.251309   0.922930
   29  O  4  Z    0.009030  -0.010875   0.088274  -0.369100   0.659178
   30  H  5  S    0.114127  -0.193461  -0.532874  -0.054599   0.231070
   31  H  5  S    0.038156  -0.097162   0.751735  -0.543819   0.174563
   32  H  6  S    0.116994   0.187471  -0.531303  -0.049174  -0.233109
   33  H  6  S    0.052399   0.094802   0.750945  -0.541032  -0.187085
   34  H  7  S   -0.135490   0.004642   0.202107   0.169324   0.001381
   35  H  7  S    0.057811  -0.002870  -0.144220  -0.098375  -0.001289
   36  H  8  S   -0.850101   0.019893   0.508752  -0.039502  -0.002736
   37  H  8  S    1.299567  -0.026391  -0.406383  -0.685680  -0.007120
   38  H  9  S    0.491829   0.790853   0.488759   0.026113  -0.054319
   39  H  9  S   -0.676278  -1.058286  -0.564135  -0.588739  -0.150887

                     36         37         38         39
                    2.0061     2.1536     2.3371     3.3506
                     A          A          A          A   
    1  C  1  S    0.000729   0.039581  -0.069568  -0.024687
    2  C  1  S   -0.258892   0.430324  -1.504954  -0.150143
    3  C  1  X   -0.099839  -0.208968  -0.106463   0.077012
    4  C  1  Y   -0.000622   0.027358   0.009847  -0.026922
    5  C  1  Z    0.017978  -0.003003   0.004260   0.024037
    6  C  1  S    0.206790  -1.788668   3.697694   0.795076
    7  C  1  X    0.159622   0.059907   0.742852   0.211876
    8  C  1  Y    0.119642   0.394740  -0.372315  -0.136229
    9  C  1  Z   -0.192971  -0.563896   0.397293   0.161860
   10  H  2  S   -0.043345   0.089083  -0.312776  -0.070216
   11  H  2  S   -0.128317   0.007895  -0.423251  -0.007858
   12  C  3  S    0.023076  -0.057107   0.055027   0.075918
   13  C  3  S   -0.429941  -1.117834   1.128685   0.493834
   14  C  3  X   -0.124660   0.156755   0.069613  -0.185687
   15  C  3  Y   -0.058013   0.019357  -0.002600  -0.002189
   16  C  3  Z    0.098997  -0.050918  -0.007203   0.031073
   17  C  3  S    0.163638   2.899111  -2.970387  -1.876971
   18  C  3  X   -0.330577  -0.393647   0.622760  -0.301291
   19  C  3  Y    0.139438   0.344602  -0.379377  -0.214085
   20  C  3  Z   -0.144257  -0.412832   0.429118   0.337681
   21  O  4  S   -0.042078   0.029166  -0.032757   0.066525
   22  O  4  S    0.210696  -0.192231   0.121997  -1.658534
   23  O  4  X    0.552010  -0.742900  -0.470602   0.162435
   24  O  4  Y    0.426602   0.295025   0.174701   0.094723
   25  O  4  Z   -0.674414  -0.298343  -0.173331  -0.156103
   26  O  4  S   -0.035654  -0.033625   0.252812   2.261248
   27  O  4  X   -0.596136   1.288800   0.480948  -0.490738
   28  O  4  Y   -0.528538  -0.423487  -0.281655  -0.272626
   29  O  4  Z    0.822584   0.394997   0.320883   0.452742
   30  H  5  S    0.117175  -0.216815   0.231071   0.172899
   31  H  5  S   -0.117942  -0.312034   0.293170   0.142086
   32  H  6  S    0.116053  -0.216721   0.230531   0.172565
   33  H  6  S   -0.117702  -0.310932   0.293716   0.140936
   34  H  7  S   -0.294613  -0.266337  -0.252965  -0.309051
   35  H  7  S    0.210868  -0.442952  -0.109298  -0.161471
   36  H  8  S    0.024754   0.201372  -0.243431  -0.019783
   37  H  8  S    0.027951   0.341708  -0.245173  -0.099668
   38  H  9  S   -0.046769   0.086375  -0.315532  -0.069777
   39  H  9  S   -0.124503   0.012796  -0.420271  -0.012922
 ...... END OF RHF CALCULATION ......
 CPU     0: STEP CPU TIME=     0.07 TOTAL CPU TIME=          0.1 (      0.0 MIN)
 TOTAL WALL CLOCK TIME=          0.2 SECONDS, CPU UTILIZATION IS    70.59%

     ----------------------------------------------------------------
     PROPERTY VALUES FOR THE RHF   SELF-CONSISTENT FIELD WAVEFUNCTION
     ----------------------------------------------------------------

          -----------------
          ENERGY COMPONENTS
          -----------------

         WAVEFUNCTION NORMALIZATION =       1.0000000000

                ONE ELECTRON ENERGY =    -368.5104496421
                TWO ELECTRON ENERGY =     134.4746474201
           NUCLEAR REPULSION ENERGY =      80.8150726764
                                      ------------------
                       TOTAL ENERGY =    -153.2207295457

 ELECTRON-ELECTRON POTENTIAL ENERGY =     134.4746474201
  NUCLEUS-ELECTRON POTENTIAL ENERGY =    -521.1970943568
   NUCLEUS-NUCLEUS POTENTIAL ENERGY =      80.8150726764
                                      ------------------
             TOTAL POTENTIAL ENERGY =    -305.9073742603
               TOTAL KINETIC ENERGY =     152.6866447147
                 VIRIAL RATIO (V/T) =       2.0034979145

          ---------------------------------------
          MULLIKEN AND LOWDIN POPULATION ANALYSES
          ---------------------------------------

     ATOMIC MULLIKEN POPULATION IN EACH MOLECULAR ORBITAL

                      1          2          3          4          5

                  2.000000   2.000000   2.000000   2.000000   2.000000

    1            -0.000094   0.005013   1.987007   0.021724   0.969622
    2             0.000000   0.000028   0.002857  -0.000101   0.047627
    3             0.002517   1.988272   0.004460   0.207610   0.644598
    4             1.996692   0.000823   0.000003   1.661145   0.142997
    5            -0.000014   0.002868   0.000020   0.000628   0.031659
    6            -0.000014   0.002869   0.000020   0.000619   0.031623
    7             0.000911   0.000076   0.000001   0.108243   0.034327
    8             0.000000   0.000021   0.002771   0.000229   0.050228
    9             0.000001   0.000029   0.002861  -0.000096   0.047320

                      6          7          8          9         10

                  2.000000   2.000000   2.000000   2.000000   2.000000

    1             0.577189   0.195664   0.315179   0.603822   0.714458
    2             0.089279   0.001782   0.094954   0.132422   0.031317
    3             0.723481   0.400665   0.780538   0.366501   0.259882
    4             0.161355   0.882703   0.289143   0.637790   0.428963
    5             0.128668   0.059670   0.213306   0.002163   0.004961
    6             0.128744   0.058221   0.214743   0.001945   0.003717
    7             0.021652   0.309054   0.000000   0.016637   0.054971
    8             0.080199   0.090013   0.000012   0.104996   0.476977
    9             0.089432   0.002227   0.092125   0.133725   0.024751

                     11         12         13

                  2.000000   2.000000   2.000000

    1             0.792852   0.382231   0.028525
    2             0.299374   0.044020   0.037562
    3             0.116325   0.414067   0.194208
    4             0.399879   0.800483   1.257050
    5             0.041273   0.111219   0.221836
    6             0.043479   0.108455   0.223673
    7             0.000054   0.089352   0.000000
    8             0.000183   0.005860   0.000015
    9             0.306581   0.044313   0.037130

               ----- POPULATIONS IN EACH AO -----
                             MULLIKEN      LOWDIN
              1  C  1  S      1.98826     1.97652
              2  C  1  S      0.35449     0.41655
              3  C  1  X      0.54102     0.50970
              4  C  1  Y      0.54424     0.51499
              5  C  1  Z      0.53974     0.51132
              6  C  1  S      1.12645     0.58449
              7  C  1  X      0.46904     0.57007
              8  C  1  Y      0.52850     0.59665
              9  C  1  Z      0.50145     0.58857
             10  H  2  S      0.46520     0.46660
             11  H  2  S      0.31592     0.43398
             12  C  3  S      1.98816     1.97575
             13  C  3  S      0.36115     0.41698
             14  C  3  X      0.43030     0.42239
             15  C  3  Y      0.55949     0.52278
             16  C  3  Z      0.54810     0.51449
             17  C  3  S      1.01454     0.57554
             18  C  3  X      0.25420     0.41862
             19  C  3  Y      0.49535     0.57354
             20  C  3  Z      0.45184     0.55518
             21  O  4  S      1.98590     1.98053
             22  O  4  S      0.41617     0.57540
             23  O  4  X      0.53763     0.52004
             24  O  4  Y      0.79741     0.80351
             25  O  4  Z      0.73706     0.73806
             26  O  4  S      1.51046     1.06029
             27  O  4  X      0.70554     0.75002
             28  O  4  Y      1.00759     1.00790
             29  O  4  Z      0.96125     0.96658
             30  H  5  S      0.48077     0.48816
             31  H  5  S      0.33749     0.45136
             32  H  6  S      0.48081     0.48817
             33  H  6  S      0.33729     0.45128
             34  H  7  S      0.41657     0.43341
             35  H  7  S      0.21871     0.32591
             36  H  8  S      0.46764     0.46850
             37  H  8  S      0.34387     0.44604
             38  H  9  S      0.46505     0.46644
             39  H  9  S      0.31535     0.43371

          ----- MULLIKEN ATOMIC OVERLAP POPULATIONS -----
          (OFF-DIAGONAL ELEMENTS NEED TO BE MULTIPLIED BY 2)

             1           2           3           4           5

    1    5.3897914
    2    0.3738350   0.4961941
    3    0.2382231  -0.0433314   5.0938604
    4   -0.0476683   0.0021414   0.2281291   8.2763066
    5   -0.0496233   0.0036134   0.3584454  -0.0312155   0.5882302
    6   -0.0496341  -0.0039103   0.3583106  -0.0312897  -0.0457905
    7    0.0053996  -0.0000938  -0.0447194   0.2589029  -0.0023289
    8    0.3594881  -0.0227042  -0.0422731   0.0014755   0.0006999
    9    0.3733817  -0.0246207  -0.0435205   0.0022428  -0.0037726

             6           7           8           9

    6    0.5882208
    7   -0.0022524   0.4206088
    8    0.0007991  -0.0001457   0.5367488
    9    0.0036418  -0.0000929  -0.0225839   0.4957224

          TOTAL MULLIKEN AND LOWDIN ATOMIC POPULATIONS
       ATOM         MULL.POP.    CHARGE          LOW.POP.     CHARGE
    1 C             6.593193   -0.593193         6.268857   -0.268857
    2 H             0.781123    0.218877         0.900572    0.099428
    3 C             6.103124   -0.103124         5.975259    0.024741
    4 O             8.659025   -0.659025         8.402322   -0.402322
    5 H             0.818258    0.181742         0.939525    0.060475
    6 H             0.818095    0.181905         0.939443    0.060557
    7 H             0.635278    0.364722         0.759322    0.240678
    8 H             0.811504    0.188496         0.914541    0.085459
    9 H             0.780398    0.219602         0.900159    0.099841

          -------------------------------
          BOND ORDER AND VALENCE ANALYSIS     BOND ORDER THRESHOLD=0.050
          -------------------------------

                   BOND                       BOND                       BOND
  ATOM PAIR DIST  ORDER      ATOM PAIR DIST  ORDER      ATOM PAIR DIST  ORDER
    1   2  1.094  0.922        1   3  1.529  0.912        1   8  1.095  0.924
    1   9  1.094  0.921        3   4  1.463  0.870        3   5  1.102  0.900
    3   6  1.102  0.899        4   7  0.996  0.825

                       TOTAL       BONDED        FREE
      ATOM            VALENCE     VALENCE     VALENCE
    1 C                 3.658       3.658       0.000
    2 H                 0.912       0.912      -0.000
    3 C                 3.564       3.564      -0.000
    4 O                 1.737       1.737      -0.000
    5 H                 0.909       0.909      -0.000
    6 H                 0.909       0.909      -0.000
    7 H                 0.839       0.839       0.000
    8 H                 0.920       0.920       0.000
    9 H                 0.912       0.912      -0.000

          ---------------------
          ELECTROSTATIC MOMENTS
          ---------------------

 POINT   1           X           Y           Z (BOHR)    CHARGE
                 2.645320   -0.581945    0.029397       -0.00 (A.U.)
         DX          DY          DZ         /D/  (DEBYE)
    -0.543544   -1.081214    1.587112    1.995843
 ...... END OF PROPERTY EVALUATION ......
 CPU     0: STEP CPU TIME=     0.02 TOTAL CPU TIME=          0.1 (      0.0 MIN)
 TOTAL WALL CLOCK TIME=          0.2 SECONDS, CPU UTILIZATION IS    70.00%
               580000  WORDS OF DYNAMIC MEMORY USED
 EXECUTION OF GAMESS TERMINATED NORMALLY Sun May 17 16:17:03 2020
 DDI: 263640 bytes (0.3 MB / 0 MWords) used by master data server.
Note: The following floating-point exceptions are signalling: IEEE_DENORMALNote: The following floating-point exceptions are signalling: IEEE_DENORMALNote: The following floating-point exceptions are signalling: IEEE_DENORMAL
 ----------------------------------------
 CPU timing information for all processes
 ========================================
 0: 0.77 + 0.73 = 0.151
 1: 0.63 + 0.14 = 0.77
 2: 0.67 + 0.04 = 0.71
 3: 0.80 + 0.08 = 0.89
 4: 0.69 + 0.08 = 0.77
 5: 0.64 + 0.09 = 0.74
 ----------------------------------------



Note: The following floating-point exceptions are signalling: IEEE_DENORMALNote: The following floating-point exceptions are signalling: IEEE_DENORMALNote: The following floating-point exceptions are signalling: IEEE_DENORMAL


 ddikick.x: exited gracefully.
unset echo
----- accounting info -----
Files used on the master node pietdev were:
-rwxr-xr-x 1 piet piet      632 mei 17 16:17 /home/piet/scr/serine_fukui_neu.F05*
-rw-r--r-- 1 piet piet 49152000 mei 17 16:17 /home/piet/scr/serine_fukui_neu.F10
ls: No match.
ls: No match.
ls: No match.
zo 17 mei 2020 16:17:06 CEST
0.101u 0.029s 0:03.34 3.5%	0+0k 0+8io 0pf+0w
