----- GAMESS execution script 'rungms' -----
This job is running on host pietdev
under operating system Linux at zo 17 mei 2020 16:16:41 CEST
Available scratch disk space (Kbyte units) at beginning of the job is
Filesystem     1K-blocks     Used Available Use% Mounted on
/dev/sda2      244568380 30392184 201683140  14% /
GAMESS temporary binary files will be written to /home/piet/scr
GAMESS supplementary output files will be written to /home/piet/gamess/scr
Copying input file serine_charge_chelpg.inp to your run's scratch directory...
cp serine_charge_chelpg.inp /home/piet/scr/serine_charge_chelpg.F05
unset echo
 
Assuming a single but multicore node.
 
/home/piet/gamess/ddikick.x /home/piet/gamess/gamess.03.x serine_charge_chelpg -ddi 1 6 pietdev:cpus=6 -scr /home/piet/scr

 Distributed Data Interface kickoff program.
 Initiating 6 compute processes on 1 nodes to run the following command:
 /home/piet/gamess/gamess.03.x serine_charge_chelpg 

          ******************************************************
          *         GAMESS VERSION = 30 SEP 2019 (R2)          *
          *             FROM IOWA STATE UNIVERSITY             *
          * M.W.SCHMIDT, K.K.BALDRIDGE, J.A.BOATZ, S.T.ELBERT, *
          *   M.S.GORDON, J.H.JENSEN, S.KOSEKI, N.MATSUNAGA,   *
          *          K.A.NGUYEN, S.J.SU, T.L.WINDUS,           *
          *       TOGETHER WITH M.DUPUIS, J.A.MONTGOMERY       *
          *         J.COMPUT.CHEM.  14, 1347-1363(1993)        *
          **************** 64 BIT LINUX VERSION ****************

  SINCE 1993, STUDENTS AND POSTDOCS WORKING AT IOWA STATE UNIVERSITY
  AND ALSO IN THEIR VARIOUS JOBS AFTER LEAVING ISU HAVE MADE IMPORTANT
  CONTRIBUTIONS TO THE CODE:
     IVANA ADAMOVIC, CHRISTINE AIKENS, YURI ALEXEEV, POOJA ARORA,
     ANDREY ASADCHEV, ROB BELL, PRADIPTA BANDYOPADHYAY, JONATHAN BENTZ,
     COLLEEN BERTONI, BRETT BODE, KURT BRORSEN, CALEB CARLIN, GALINA CHABAN,
     WEI CHEN, CHEOL HO CHOI, PAUL DAY, ALBERT DEFUSCO, NUWAN DESILVA,
     TIM DUDLEY, DMITRI FEDOROV, ALEX FINDLATER, GRAHAM FLETCHER, 
     MARK FREITAG, KURT GLAESEMANN, EMILIE B GUIDEZ, ANASTASIA GUNINA, 
     DAN KEMP, SAROM SOK LEANG, GRANT MERRILL,
     NORIYUKI MINEZAWA, JONATHAN MULLIN,
     TAKESHI NAGATA, SEAN NEDD, HEATHER NETZLOFF, BOSILJKA NJEGIC, RYAN OLSON,
     MIKE PAK, BUU PHAM, DAVID POOLE,
     SPENCER PRUITT, LUKE ROSKOP, TOSAPORN SATTASATHUCHANA,
     JIM SHOEMAKER, LYUDMILA SLIPCHENKO,
     TONY SMITH, JIE SONG, TETSUYA TAKETSUGU, SIMON WEBB,
     JORGE LUIS GALVEZ VALLEJO, PENG XU, SOOHAENG YOO,
     FEDERICO ZAHARIEV

  ADDITIONAL CODE HAS BEEN PROVIDED BY COLLABORATORS IN OTHER GROUPS:
     IOWA STATE UNIVERSITY:
          JOE IVANIC, AARON WEST, LAIMUTIS BYTAUTAS, KLAUS RUEDENBERG
     UNIVERSITY OF TOKYO: KIMIHIKO HIRAO, TAKAHITO NAKAJIMA,
          TAKAO TSUNEDA, MUNEAKI KAMIYA, SUSUMU YANAGISAWA,
          KIYOSHI YAGI, MAHITO CHIBA, SEIKEN TOKURA, NAOAKI KAWAKAMI
     UNIVERSITY OF AARHUS: FRANK JENSEN
     UNIVERSITY OF IOWA: VISVALDAS KAIRYS, HUI LI
     NATIONAL INST. OF STANDARDS AND TECHNOLOGY: WALT STEVENS, DAVID GARMER
     UNIVERSITY OF PISA: BENEDETTA MENNUCCI, JACOPO TOMASI
     UNIVERSITY OF MEMPHIS: HENRY KURTZ, PRAKASHAN KORAMBATH
     UNIVERSITY OF ALBERTA: TOBY ZENG, MARIUSZ KLOBUKOWSKI
     UNIVERSITY OF NEW ENGLAND: MARK SPACKMAN
     MIE UNIVERSITY: HIROAKI UMEDA
     NAT. INST. OF ADVANCED INDUSTRIAL SCIENCE AND TECHNOLOGY: KAZUO KITAURA
     MICHIGAN STATE UNIVERSITY:
          KAROL KOWALSKI, MARTA WLOCH, JEFFREY GOUR, JESSE LUTZ,
          WEI LI, JUN SHEN, J. EMILIANO DEUSTUA, PIOTR PIECUCH
     UNIVERSITY OF MINNESOTA:
          ANDREW SAND, PRACHI SHARMA, YINAN SHU
     UNIVERSITY OF SILESIA: MONIKA MUSIAL, STANISLAW KUCHARSKI
     FACULTES UNIVERSITAIRES NOTRE-DAME DE LA PAIX:
          OLIVIER QUINET, BENOIT CHAMPAGNE
     UNIVERSITY OF CALIFORNIA - SANTA BARBARA: BERNARD KIRTMAN
     INSTITUTE FOR MOLECULAR SCIENCE:
          KAZUYA ISHIMURA, MICHIO KATOUDA, AND SHIGERU NAGASE
     UNIVERSITY OF NOTRE DAME: ANNA POMOGAEVA, DAN CHIPMAN
     KYUSHU UNIVERSITY:
          HARUYUKI NAKANO,
          FENG LONG GU, JACEK KORCHOWIEC, MARCIN MAKOWSKI, AND YURIKO AOKI,
          HIROTOSHI MORI AND EISAKU MIYOSHI
     PENNSYLVANIA STATE UNIVERSITY:
          TZVETELIN IORDANOV, CHET SWALINA, JONATHAN SKONE,
          SHARON HAMMES-SCHIFFER
     WASEDA UNIVERSITY:
          MASATO KOBAYASHI, TOMOKO AKAMA, TSUGUKI TOUMA,
          TAKESHI YOSHIKAWA, YASUHIRO IKABATA, JUNJI SEINO,
          YUYA NAKAJIMA, HIROMI NAKAI
     NANJING UNIVERSITY: SHUHUA LI
     UNIVERSITY OF NEBRASKA:
          PEIFENG SU, DEJUN SI, NANDUN THELLAMUREGE, YALI WANG, HUI LI
     UNIVERSITY OF ZURICH: ROBERTO PEVERATI, KIM BALDRIDGE
     N. COPERNICUS UNIVERSITY AND JACKSON STATE UNIVERSITY:
          MARIA BARYSZ
     UNIVERSITY OF COPENHAGEN: Jimmy Kromann, CASPER STEINMANN
     TOKYO INSTITUTE OF TECHNOLOGY: HIROYA NAKATA
     NAGOYA UNIVERSITY: YOSHIO NISHIMOTO, STEPHAN IRLE
     MOSCOW STATE UNIVERSITY: VLADIMIR MIRONOV
     A.N.NESMEYANOV INSTITUTE OF ORGANOELEMENT COMPOUNDS OF RUSSIAN ACADEMY OF SCIENCES:
          IGOR S. GERASIMOV
     JOHANNES KEPLER UNIVERSITY LINZ:
          CHRISTIAN FRIEDL


 PARALLEL VERSION RUNNING ON        6 PROCESSORS IN        1 NODES.

 EXECUTION OF GAMESS BEGUN Sun May 17 16:16:41 2020

            ECHO OF THE FIRST FEW INPUT CARDS -
 INPUT CARD> $BASIS GBASIS=N21 NGAUSS=3 $END                                                
 INPUT CARD> $CONTRL SCFTYP=RHF DFTTYP=B3LYP MAXIT=60 MULT=1 ICHARG=0 $END                  
 INPUT CARD> $SYSTEM MEMDDI=1000 MWORDS=30 $END                                             
 INPUT CARD> $SCF DIRSCF=.TRUE. $END                                                        
 INPUT CARD> $ELPOT  IEPOT=1 WHERE=PDC $END                                                 
 INPUT CARD> $PDC PTSEL=CHELPG CONSTR=CHARGE $END                                           
 INPUT CARD> $DATA                                                                          
 INPUT CARD>                                                                                
 INPUT CARD>C1                                                                              
 INPUT CARD>C 6.0000000 0.2805690038 0.1438665882 -0.4388404043                             
 INPUT CARD>H 1.0000000 0.3825655519 -0.2345775192 -1.4601278082                            
 INPUT CARD>C 6.0000000 1.2157968055 -0.6319726227 0.4894628367                             
 INPUT CARD>O 8.0000000 2.5648039133 -0.4036035406 -0.0281432026                            
 INPUT CARD>H 1.0000000 1.1018531151 -0.2654062752 1.5220733357                             
 INPUT CARD>H 1.0000000 0.9455256931 -1.6998167023 0.4812035085                             
 INPUT CARD>H 1.0000000 3.2009217625 -0.8942086388 0.5599140712                             
 INPUT CARD>H 1.0000000 -0.7606856703 0.0408134079 -0.1161437476                            
 INPUT CARD>H 1.0000000 0.5585298251 1.2018753027 -0.4323485893                             
 INPUT CARD> $END                                                                           
   30000000 WORDS OF MEMORY AVAILABLE

     BASIS OPTIONS
     -------------
     GBASIS=N21          IGAUSS=       3      POLAR=NONE    
     NDFUNC=       0     NFFUNC=       0     DIFFSP=       F
     NPFUNC=       0      DIFFS=       F     BASNAM=        


     RUN TITLE
     ---------
                                                                                 

 THE POINT GROUP OF THE MOLECULE IS C1      
 THE ORDER OF THE PRINCIPAL AXIS IS     0

 ATOM      ATOMIC                      COORDINATES (BOHR)
           CHARGE         X                   Y                   Z
 C           6.0     0.5301985378        0.2718684305       -0.8292881165
 H           1.0     0.7229440654       -0.4432872342       -2.7592414646
 C           6.0     2.2975228191       -1.1942550886        0.9249506425
 O           8.0     4.8467766084       -0.7627000994       -0.0531829413
 H           1.0     2.0822004663       -0.5015451355        2.8763015377
 H           1.0     1.7867844743       -3.2121877967        0.9093427754
 H           1.0     6.0488650393       -1.6898093032        1.0580841712
 H           1.0    -1.4374874797        0.0771261576       -0.2194798582
 H           1.0     1.0554683254        2.2712149935       -0.8170203650

          INTERNUCLEAR DISTANCES (ANGS.)
          ------------------------------

                1 C          2 H          3 C          4 O          5 H     

   1 C       0.0000000    1.0939155 *  1.5291581 *  2.3845597 *  2.1649930 *
   2 H       1.0939155 *  0.0000000    2.1571047 *  2.6155906 *  3.0678736  
   3 C       1.5291581 *  2.1571047 *  0.0000000    1.4628358 *  1.1016526 *
   4 O       2.3845597 *  2.6155906 *  1.4628358 *  0.0000000    2.1359997 *
   5 H       2.1649930 *  3.0678736    1.1016526 *  2.1359997 *  0.0000000  
   6 H       2.1651365 *  2.4965210 *  1.1015469 *  2.1358054 *  1.7791519 *
   7 H       3.2563125    3.5297045    2.0036098 *  0.9955655 *  2.3931636 *
   8 H       1.0949723 *  1.7858210 *  2.1739097 *  3.3562079    2.4993152 *
   9 H       1.0939318 *  1.7750184 *  2.1551646 *  2.6011690 *  2.5035735 *

                6 H          7 H          8 H          9 H     

   1 C       2.1651365 *  3.2563125    1.0949723 *  1.0939318 *
   2 H       2.4965210 *  3.5297045    1.7858210 *  1.7750184 *
   3 C       1.1015469 *  2.0036098 *  2.1739097 *  2.1551646 *
   4 O       2.1358054 *  0.9955655 *  3.3562079    2.6011690 *
   5 H       1.7791519 *  2.3931636 *  2.4993152 *  2.5035735 *
   6 H       0.0000000    2.3962494 *  2.5095366 *  3.0666202  
   7 H       2.3962494 *  0.0000000    4.1262154    3.5157344  
   8 H       2.5095366 *  4.1262154    0.0000000    1.7856035 *
   9 H       3.0666202    3.5157344    1.7856035 *  0.0000000  

  * ... LESS THAN  3.000


     ATOMIC BASIS SET
     ----------------
 THE CONTRACTED PRIMITIVE FUNCTIONS HAVE BEEN UNNORMALIZED
 THE CONTRACTED BASIS FUNCTIONS ARE NOW NORMALIZED TO UNITY

  SHELL TYPE  PRIMITIVE        EXPONENT          CONTRACTION COEFFICIENT(S)

 C         

      1   S       1           172.2560000    0.061766907377
      1   S       2            25.9109000    0.358794042852
      1   S       3             5.5333500    0.700713083689

      2   L       4             3.6649800   -0.395895162119    0.236459946619
      2   L       5             0.7705450    1.215834355681    0.860618805716

      3   L       6             0.1958570    1.000000000000    1.000000000000

 H         

      4   S       7             5.4471780    0.156284978695
      4   S       8             0.8245472    0.904690876670

      5   S       9             0.1831916    1.000000000000

 C         

      6   S      10           172.2560000    0.061766907377
      6   S      11            25.9109000    0.358794042852
      6   S      12             5.5333500    0.700713083689

      7   L      13             3.6649800   -0.395895162119    0.236459946619
      7   L      14             0.7705450    1.215834355681    0.860618805716

      8   L      15             0.1958570    1.000000000000    1.000000000000

 O         

      9   S      16           322.0370000    0.059239393389
      9   S      17            48.4308000    0.351499960776
      9   S      18            10.4206000    0.707657921031

     10   L      19             7.4029400   -0.404453583190    0.244586106967
     10   L      20             1.5762000    1.221561761397    0.853955373466

     11   L      21             0.3736840    1.000000000000    1.000000000000

 H         

     12   S      22             5.4471780    0.156284978695
     12   S      23             0.8245472    0.904690876670

     13   S      24             0.1831916    1.000000000000

 H         

     14   S      25             5.4471780    0.156284978695
     14   S      26             0.8245472    0.904690876670

     15   S      27             0.1831916    1.000000000000

 H         

     16   S      28             5.4471780    0.156284978695
     16   S      29             0.8245472    0.904690876670

     17   S      30             0.1831916    1.000000000000

 H         

     18   S      31             5.4471780    0.156284978695
     18   S      32             0.8245472    0.904690876670

     19   S      33             0.1831916    1.000000000000

 H         

     20   S      34             5.4471780    0.156284978695
     20   S      35             0.8245472    0.904690876670

     21   S      36             0.1831916    1.000000000000

 TOTAL NUMBER OF BASIS SET SHELLS             =   21
 NUMBER OF CARTESIAN GAUSSIAN BASIS FUNCTIONS =   39
 NUMBER OF ELECTRONS                          =   26
 CHARGE OF MOLECULE                           =    0
 SPIN MULTIPLICITY                            =    1
 NUMBER OF OCCUPIED ORBITALS (ALPHA)          =   13
 NUMBER OF OCCUPIED ORBITALS (BETA )          =   13
 TOTAL NUMBER OF ATOMS                        =    9
 THE NUCLEAR REPULSION ENERGY IS       80.8150726764

 SELECTED MURRAY-HANDY-LAMING RADIAL GRID

 LEGACY BECKE'S FUZZY CELL METHOD

 SELECTED ORIGINAL BECKE'S PARTITION FUNCTION

     LEBEDEV GRID-BASED DFT OPTIONS
     ------------------------------
     DFTTYP=B3LYP   
     NRAD  =      96     NLEB  =     302
     NRAD0 =      24     NLEB0 =     110
     SWOFF =    5.00E-03 (PURE SCF -> DFT)
     SWITCH=    3.00E-04 (COARSE -> TIGHT GRID)
     THRESH=    0.00E+00 GTHRE=    1.00E+00

 GRIMME'S EMPIRICAL DISPERSION CORRECTION= F

     $CONTRL OPTIONS
     ---------------
 SCFTYP=RHF          RUNTYP=ENERGY       EXETYP=RUN     
 MPLEVL=       0     CITYP =NONE         CCTYP =NONE         VBTYP =NONE    
 DFTTYP=B3LYP        TDDFT =NONE    
 MULT  =       1     ICHARG=       0     NZVAR =       0     COORD =UNIQUE  
 PP    =NONE         RELWFN=NONE         LOCAL =NONE         NUMGRD=       F
 ISPHER=      -1     NOSYM =       0     MAXIT =      60     UNITS =ANGS    
 PLTORB=       F     MOLPLT=       F     AIMPAC=       F     FRIEND=        
 NPRINT=       7     IREST =       0     GEOM  =INPUT   
 NORMF =       0     NORMP =       0     ITOL  =      20     ICUT  =       9
 INTTYP=BEST         GRDTYP=BEST         QMTTOL= 1.0E-06

     $SYSTEM OPTIONS
     ---------------
  REPLICATED MEMORY=    30000000 WORDS (ON EVERY NODE).
 DISTRIBUTED MEMDDI=        1000 MILLION WORDS IN AGGREGATE,
 MEMDDI DISTRIBUTED OVER   6 PROCESSORS IS   166666666 WORDS/PROCESSOR.
 TOTAL MEMORY REQUESTED ON EACH PROCESSOR=   196666666 WORDS.
 TIMLIM=      525600.00 MINUTES, OR     365.0 DAYS.
 PARALL= T  BALTYP=  DLB     KDIAG=    0  COREFL= F
 MXSEQ2=     300 MXSEQ3=     150  mem10=         0

     INPUT FOR POTENTIAL-DERIVED CHARGES 
     -----------------------------------
     VDWSCL=    1.00   RMAX=    3.00   DELR=    0.80
     VDWINC=    0.20 PTDENS=    0.28
     LAYER =       4  NFREQ=      30 MAXPDC=   10000
     CONSTR=CHARGE    UNITS=ANGS      PTSEL=CHELPG  
     CENTER=  0.0000  0.0000  0.0000
     DPOLE =  0.0000  0.0000  0.0000
     QPOLE =  0.0000  0.0000  0.0000  0.0000  0.0000  0.0000


          ----------------
          PROPERTIES INPUT
          ----------------

     MOMENTS            FIELD           POTENTIAL          DENSITY
 IEMOM =       1   IEFLD =       0   IEPOT =       1   IEDEN =       0
 WHERE =COMASS     WHERE =NUCLEI     WHERE =PDC        WHERE =NUCLEI  
 OUTPUT=BOTH       OUTPUT=BOTH       OUTPUT=BOTH       OUTPUT=BOTH    
 IEMINT=       0   IEFINT=       0                     IEDINT=       0
                                                       MORB  =       0
          EXTRAPOLATION IN EFFECT
          DIIS IN EFFECT
 ORBITAL PRINTING OPTION: NPREO=     1    39     2     1

     -------------------------------
     INTEGRAL TRANSFORMATION OPTIONS
     -------------------------------
     NWORD  =            0
     CUTOFF = 1.0E-09     MPTRAN =       0
     DIRTRF =       T     AOINTS =DUP     

          ----------------------
          INTEGRAL INPUT OPTIONS
          ----------------------
 NOPK  =       1 NORDER=       0 SCHWRZ=       T

     ------------------------------------------
     THE POINT GROUP IS C1 , NAXIS= 0, ORDER= 1
     ------------------------------------------

     DIMENSIONS OF THE SYMMETRY SUBSPACES ARE
 A   =   39

 ..... DONE SETTING UP THE RUN .....
 CPU     0: STEP CPU TIME=     0.02 TOTAL CPU TIME=          0.0 (      0.0 MIN)
 TOTAL WALL CLOCK TIME=          0.0 SECONDS, CPU UTILIZATION IS    66.67%

          ********************
          1 ELECTRON INTEGRALS
          ********************
 ...... END OF ONE-ELECTRON INTEGRALS ......
 CPU     0: STEP CPU TIME=     0.01 TOTAL CPU TIME=          0.0 (      0.0 MIN)
 TOTAL WALL CLOCK TIME=          0.0 SECONDS, CPU UTILIZATION IS    75.00%

          -------------
          GUESS OPTIONS
          -------------
          GUESS =HUCKEL            NORB  =       0          NORDER=       0
          MIX   =       F          PRTMO =       F          PUNMO =       F
          TOLZ  = 1.0E-08          TOLE  = 1.0E-05
          SYMDEN=       F          PURIFY=       F

 INITIAL GUESS ORBITALS GENERATED BY HUCKEL   ROUTINE.
 HUCKEL GUESS REQUIRES     19284 WORDS.

 SYMMETRIES FOR INITIAL GUESS ORBITALS FOLLOW.   BOTH SET(S).
    13 ORBITALS ARE OCCUPIED (    3 CORE ORBITALS).
     4=A        5=A        6=A        7=A        8=A        9=A       10=A   
    11=A       12=A       13=A       14=A       15=A       16=A       17=A   
    18=A       19=A       20=A       21=A       22=A       23=A   
 ...... END OF INITIAL ORBITAL SELECTION ......
 CPU     0: STEP CPU TIME=     0.01 TOTAL CPU TIME=          0.0 (      0.0 MIN)
 TOTAL WALL CLOCK TIME=          0.0 SECONDS, CPU UTILIZATION IS    80.00%

                    ----------------------
                    AO INTEGRAL TECHNOLOGY
                    ----------------------
     S,P,L SHELL ROTATED AXIS INTEGRALS, REPROGRAMMED BY
        KAZUYA ISHIMURA (IMS) AND JOSE SIERRA (SYNSTAR).
     S,P,D,L SHELL ROTATED AXIS INTEGRALS PROGRAMMED BY
        KAZUYA ISHIMURA (INSTITUTE FOR MOLECULAR SCIENCE).
     S,P,D,F,G SHELL TO TOTAL QUARTET ANGULAR MOMENTUM SUM 5,
        ERIC PROGRAM BY GRAHAM FLETCHER (ELORET AND NASA ADVANCED
        SUPERCOMPUTING DIVISION, AMES RESEARCH CENTER).
     S,P,D,F,G,L SHELL GENERAL RYS QUADRATURE PROGRAMMED BY
        MICHEL DUPUIS (PACIFIC NORTHWEST NATIONAL LABORATORY).

          --------------------
          2 ELECTRON INTEGRALS
          --------------------

 DIRECT SCF METHOD SKIPS INTEGRAL STORAGE ON DISK.
 DIRECT TRANSFORMATION SKIPS AO INTEGRAL STORAGE ON DISK.
  ...... END OF TWO-ELECTRON INTEGRALS .....
 CPU     0: STEP CPU TIME=     0.02 TOTAL CPU TIME=          0.1 (      0.0 MIN)
 TOTAL WALL CLOCK TIME=          0.1 SECONDS, CPU UTILIZATION IS   100.00%

          --------------------------
             R-B3LYP SCF CALCULATION
          --------------------------

     NUCLEAR ENERGY =        80.8150726764
     MAXIT =   60     NPUNCH=    2
     EXTRAP=T  DAMP=F  SHIFT=F  RSTRCT=F  DIIS=T  DEM=F  SOSCF=F
         DENSITY MATRIX CONVERGENCE THRESHOLD=  2.00E-05
     COARSE -> FINE DFT GRID SWITCH THRESHOLD=  3.00E-04 (SWITCH IN $DFT)
                   HF -> DFT SWITCH THRESHOLD=  5.00E-03 (SWOFF IN $DFT)
     MEMORY REQUIRED FOR RHF ITERS=    374227 WORDS.

 DIRECT SCF CALCULATION, SCHWRZ=T   FDIFF=T,  DIRTHR=  0.00E+00 NITDIR=10
 SCHWARZ INEQUALITY OVERHEAD:       779 INTEGRALS, T=        0.00

 DFT CODE IS SWITCHING FROM THE FINE GRID NRAD= 96,  NLEB=  302
                      TO THE COARSE GRID NRAD0= 24, NLEB0=  110

     EXCHANGE FUNCTIONAL   =B88&HFX   
     CORRELATION FUNCTIONAL=LYP88&VWN5
     DFT THRESHOLD         =.153E-07
     GRID CHANGE THRESHOLD =.300E-03
 FOR AN EULER-MACLAURIN QUADRATURE USING  96 RADIAL POINTS:
 SMALLEST GAUSSIAN PRIMITIVE EXPONENT=        0.1831915800 OF TYPE -S-
 ON ATOM NUMBER   2 HAS RADIAL NORMALIZATION=  1.000000
  LARGEST GAUSSIAN PRIMITIVE EXPONENT=      322.0370000000 OF TYPE -S-
 ON ATOM NUMBER   4 HAS RADIAL NORMALIZATION=  1.000000
 DFT IS SWITCHED OFF, PERFORMING PURE SCF UNTIL SWOFF THRESHOLD IS REACHED.

                                                                                   NONZERO     BLOCKS
 ITER EX DEM     TOTAL ENERGY        E CHANGE  DENSITY CHANGE    DIIS ERROR      INTEGRALS    SKIPPED
   1  0  0     -152.8446365799  -152.8446365799   0.595092472   0.616741453         289060       2347
          * * *   INITIATING DIIS PROCEDURE   * * *
   2  1  0     -153.2006708160    -0.3560342360   0.129703949   0.086280011         288772       2526
   3  2  0     -153.2183455419    -0.0176747259   0.040338059   0.025017876         287455       2896
   4  3  0     -153.2203464066    -0.0020008648   0.014889933   0.011712755         286059       3354
   5  4  0     -153.2206996274    -0.0003532207   0.004501731   0.003726786         284728       3650
 CONVERGED TO SWOFF, SO DFT CALCULATION IS NOW SWITCHED ON.
          * * *   INITIATING DIIS PROCEDURE   * * *
   6  5  0     -154.0714013197    -0.8507016923   0.065560530   0.079222877         289102       2314
   7  6  0     -154.0803171066    -0.0089157870   0.049452656   0.036768325         287868       2834
   8  7  0     -154.0814014625    -0.0010843559   0.022446601   0.030491343         286834       3051
   9  8  0     -154.0830794903    -0.0016780278   0.001613255   0.003249271         285623       3393
  10  9  0     -154.0830899783    -0.0000104880   0.000483595   0.001188249         281586       4345
  11 10  0     -154.0830917330    -0.0000017547   0.000064103   0.000083293         279496       4619
 DFT CODE IS SWITCHING BACK TO THE FINE GRID
          * * *   INITIATING DIIS PROCEDURE   * * *
  12 11  0     -154.0855742686    -0.0024825357   0.002614537   0.000730758         289125       2292
  13 12  0     -154.0855785098    -0.0000042411   0.000369220   0.000155901         282017       4205
  14 13  0     -154.0855785287    -0.0000000190   0.000194035   0.000226824         277149       5116
  15 14  0     -154.0855786184    -0.0000000897   0.000023807   0.000047466         272009       5930
  16 15  0     -154.0855786210    -0.0000000025   0.000009125   0.000013435         263838       7021
  17 16  0     -154.0855786214    -0.0000000004   0.000000969   0.000000904         258847       7669

          -----------------
          DENSITY CONVERGED
          -----------------
     TIME TO FORM FOCK OPERATORS=       1.8 SECONDS (       0.1 SEC/ITER)
     FOCK TIME ON FIRST ITERATION=       0.0, LAST ITERATION=       0.3
     TIME TO SOLVE SCF EQUATIONS=       0.1 SECONDS (       0.0 SEC/ITER)

 FINAL R-B3LYP ENERGY IS     -154.0855786214 AFTER  17 ITERATIONS
 DFT EXCHANGE + CORRELATION ENERGY =       -17.3941720882
 TOTAL ELECTRON NUMBER             =        26.0000755668

          ------------
          EIGENVECTORS
          ------------

                      1          2          3          4          5
                  -19.0113   -10.1606   -10.1015    -0.9882    -0.7398
                     A          A          A          A          A   
    1  C  1  S    0.000194  -0.006964   0.986260  -0.019116  -0.166692
    2  C  1  S    0.000669  -0.003717   0.112151   0.016759   0.164176
    3  C  1  X   -0.000808  -0.000165   0.000094   0.016012   0.027033
    4  C  1  Y    0.000313   0.000129  -0.000029  -0.007842  -0.027812
    5  C  1  Z   -0.000294  -0.000150   0.000032   0.008432   0.034373
    6  C  1  S   -0.006432   0.024140  -0.090866   0.039566   0.436024
    7  C  1  X   -0.002459   0.009261  -0.004003   0.016844  -0.007087
    8  C  1  Y    0.000845  -0.007740   0.002640   0.001484  -0.004567
    9  C  1  Z   -0.000879   0.009250  -0.003077  -0.004669   0.007779
   10  H  2  S    0.000457  -0.001579  -0.000111   0.005177   0.083015
   11  H  2  S    0.000135   0.001389   0.016080  -0.002049   0.001633
   12  C  3  S   -0.000874   0.986365   0.006294  -0.078025  -0.132568
   13  C  3  S   -0.003641   0.111429  -0.001838   0.083369   0.132866
   14  C  3  X    0.001930  -0.000451  -0.000042   0.073269  -0.082624
   15  C  3  Y   -0.000036  -0.000008  -0.000128   0.011334   0.031641
   16  C  3  Z   -0.000242   0.000080   0.000184  -0.026579  -0.031162
   17  C  3  S    0.019545  -0.087530   0.021104   0.138392   0.344456
   18  C  3  X    0.007284   0.008098  -0.007828  -0.000719  -0.035806
   19  C  3  Y    0.003038  -0.003566   0.006717  -0.006354   0.003468
   20  C  3  Z   -0.005252   0.003699  -0.008071   0.008896   0.000642
   21  O  4  S    0.982398  -0.000130   0.000036  -0.218339   0.059077
   22  O  4  S    0.104206  -0.000622  -0.000006   0.205765  -0.055142
   23  O  4  X   -0.001425  -0.000339   0.000626  -0.024526  -0.081644
   24  O  4  Y   -0.001906  -0.000210  -0.000256  -0.055630   0.028888
   25  O  4  Z    0.002863   0.000343   0.000266   0.081007  -0.027952
   26  O  4  S   -0.047362   0.008513  -0.001461   0.666091  -0.216204
   27  O  4  X    0.005695  -0.003341  -0.001020  -0.035158  -0.049538
   28  O  4  Y    0.004103   0.000339   0.000754  -0.057577   0.024832
   29  O  4  Z   -0.006558   0.000026  -0.000914   0.085280  -0.027085
   30  H  5  S   -0.001297  -0.000161  -0.001328   0.022954   0.070153
   31  H  5  S   -0.000980   0.016349   0.001127  -0.007375  -0.000545
   32  H  6  S   -0.001295  -0.000163  -0.001328   0.022947   0.070141
   33  H  6  S   -0.000964   0.016354   0.001132  -0.007403  -0.000569
   34  H  7  S    0.003137  -0.000314   0.000655   0.110810  -0.071596
   35  H  7  S    0.005742   0.002506   0.001349   0.026043  -0.042647
   36  H  8  S   -0.000169  -0.001405  -0.000251   0.006113   0.086498
   37  H  8  S    0.001082   0.001077   0.015633   0.001726   0.000576
   38  H  9  S    0.000450  -0.001582  -0.000100   0.005237   0.083033
   39  H  9  S    0.000220   0.001416   0.016099  -0.002011   0.001340

                      6          7          8          9         10
                   -0.6002    -0.4931    -0.4548    -0.3820    -0.3708
                     A          A          A          A          A   
    1  C  1  S    0.128036  -0.012097   0.000105   0.001660  -0.007828
    2  C  1  S   -0.118264   0.008777  -0.000087   0.001998   0.010956
    3  C  1  X    0.061564  -0.133667   0.019754  -0.045307   0.339800
    4  C  1  Y   -0.060331  -0.016442   0.175148  -0.191729  -0.022563
    5  C  1  Z    0.073739   0.043252   0.127466   0.273787  -0.022953
    6  C  1  S   -0.442983   0.058698  -0.000465  -0.055408   0.009352
    7  C  1  X    0.012066  -0.095679   0.013991  -0.028152   0.244313
    8  C  1  Y   -0.017866  -0.020640   0.123534  -0.131707  -0.006972
    9  C  1  Z    0.022800   0.043490   0.089780   0.187173  -0.029359
   10  H  2  S   -0.100701  -0.017380  -0.109279  -0.136642   0.053737
   11  H  2  S   -0.036125  -0.015485  -0.086810  -0.126422   0.042576
   12  C  3  S   -0.142698  -0.005508  -0.000015  -0.000664  -0.016573
   13  C  3  S    0.137824   0.005232   0.000009   0.000235   0.016830
   14  C  3  X    0.016521  -0.152556   0.028102  -0.189115  -0.208454
   15  C  3  Y   -0.065403  -0.111746   0.256285   0.123491   0.068205
   16  C  3  Z    0.087495   0.178375   0.185009  -0.144144  -0.061672
   17  C  3  S    0.494233   0.008038   0.000048   0.007517   0.054523
   18  C  3  X   -0.017174  -0.085303   0.021341  -0.162876  -0.151380
   19  C  3  Y   -0.031112  -0.084896   0.195334   0.114109   0.060375
   20  C  3  Z    0.045397   0.130695   0.141043  -0.134972  -0.059150
   21  O  4  S    0.043373   0.028547   0.000052  -0.046143   0.008579
   22  O  4  S   -0.040927  -0.024970  -0.000050   0.041572  -0.003737
   23  O  4  X   -0.120525   0.295533   0.010608   0.062858   0.217371
   24  O  4  Y    0.004708  -0.104429   0.104773   0.091027   0.012471
   25  O  4  Z    0.011036   0.101399   0.075395  -0.136785  -0.047293
   26  O  4  S   -0.174827  -0.117024  -0.000201   0.199421  -0.056297
   27  O  4  X   -0.093059   0.257272   0.010014   0.067428   0.221883
   28  O  4  Y    0.004075  -0.089971   0.098958   0.088065   0.020011
   29  O  4  Z    0.007854   0.086977   0.071206  -0.133423  -0.058350
   30  H  5  S    0.120854   0.088557   0.156399  -0.053119   0.009363
   31  H  5  S    0.038775   0.065595   0.125057  -0.050532   0.005499
   32  H  6  S    0.120920   0.087742  -0.156925  -0.051586   0.008787
   33  H  6  S    0.038750   0.064768  -0.125462  -0.049199   0.005265
   34  H  7  S   -0.070378   0.190315  -0.000264  -0.030774   0.091003
   35  H  7  S   -0.053714   0.164706  -0.000245  -0.016261   0.110068
   36  H  8  S   -0.097010   0.089323   0.001373   0.102838  -0.237838
   37  H  8  S   -0.038950   0.059036   0.001217   0.110805  -0.247918
   38  H  9  S   -0.100650  -0.018911   0.107541  -0.137818   0.056120
   39  H  9  S   -0.036243  -0.016764   0.085373  -0.126823   0.044889

                     11         12         13         14         15
                   -0.3532    -0.3034    -0.2404     0.0997     0.1441
                     A          A          A          A          A   
    1  C  1  S   -0.000031   0.026204   0.000209   0.025508  -0.109296
    2  C  1  S   -0.000029  -0.022456  -0.000086  -0.022365   0.048771
    3  C  1  X    0.030227  -0.092405   0.000853   0.045945  -0.060832
    4  C  1  Y    0.261440   0.093290   0.016543  -0.009961   0.051345
    5  C  1  Z    0.187026  -0.115454   0.011759   0.006401  -0.064024
    6  C  1  S    0.000562  -0.180837  -0.001807  -0.250128   1.469823
    7  C  1  X    0.025996  -0.027441  -0.006844   0.265766  -0.077094
    8  C  1  Y    0.224499   0.093127  -0.047435  -0.061176   0.245876
    9  C  1  Z    0.160711  -0.126528  -0.033935   0.044066  -0.336898
   10  H  2  S   -0.197748   0.033440  -0.023896  -0.031136  -0.039601
   11  H  2  S   -0.186423   0.070241  -0.087885   0.033586  -0.789347
   12  C  3  S    0.000025   0.021025   0.000012   0.028914  -0.107994
   13  C  3  S   -0.000027  -0.031352  -0.000016   0.004914   0.072934
   14  C  3  X   -0.017336  -0.052451  -0.012304   0.162368   0.088404
   15  C  3  Y   -0.158838  -0.129842  -0.116019   0.060750  -0.073433
   16  C  3  Z   -0.113545   0.188325  -0.083490  -0.110205   0.086364
   17  C  3  S   -0.000181  -0.042246   0.000065  -0.593485   1.204289
   18  C  3  X   -0.015586  -0.068932   0.003360   0.365742   0.170328
   19  C  3  Y   -0.144105  -0.045528   0.031109   0.129758  -0.302726
   20  C  3  Z   -0.102898   0.074179   0.022339  -0.240599   0.388481
   21  O  4  S    0.000158  -0.081203   0.000006   0.096967   0.039937
   22  O  4  S   -0.000140   0.069537  -0.000015  -0.058042  -0.019969
   23  O  4  X   -0.010772   0.077842   0.042423  -0.062029   0.064720
   24  O  4  Y   -0.111354   0.217491   0.400050   0.132232   0.087321
   25  O  4  Z   -0.080143  -0.313424   0.288006  -0.173883  -0.129756
   26  O  4  S   -0.000732   0.373397   0.000024  -0.807591  -0.358349
   27  O  4  X   -0.011118   0.096847   0.048624  -0.132806   0.109101
   28  O  4  Y   -0.114101   0.234204   0.458598   0.238901   0.152303
   29  O  4  Z   -0.082273  -0.339467   0.330142  -0.311291  -0.225949
   30  H  5  S   -0.119694   0.093905  -0.134637   0.008871  -0.019907
   31  H  5  S   -0.122644   0.139030  -0.222447   0.435941  -0.789173
   32  H  6  S    0.120807   0.092615   0.135105   0.008466  -0.020469
   33  H  6  S    0.123596   0.137496   0.223251   0.428268  -0.795106
   34  H  7  S    0.000489  -0.137780  -0.000001   0.116269   0.021396
   35  H  7  S    0.000618  -0.124020  -0.000098   0.993025   0.272002
   36  H  8  S    0.001332   0.009796   0.000827   0.068201   0.027899
   37  H  8  S    0.001270   0.065211   0.000811   0.480778  -0.503405
   38  H  9  S    0.197140   0.033033   0.023453  -0.032248  -0.039597
   39  H  9  S    0.185495   0.071474   0.088824   0.027907  -0.780652

                     16         17         18         19         20
                    0.1795     0.1885     0.1992     0.2235     0.2251
                     A          A          A          A          A   
    1  C  1  S   -0.002882  -0.138188   0.006521   0.000634  -0.009379
    2  C  1  S    0.001199   0.054053   0.004086   0.000215   0.009564
    3  C  1  X    0.015041  -0.041318   0.302007   0.013049  -0.035164
    4  C  1  Y    0.187135   0.030512   0.068307   0.206068  -0.146554
    5  C  1  Z    0.138115  -0.042509  -0.126686   0.162867   0.183291
    6  C  1  S    0.038921   1.852881  -0.102972  -0.009289   0.120059
    7  C  1  X    0.043321  -0.122484   1.012683   0.061759  -0.256560
    8  C  1  Y    0.588181  -0.015589   0.255602   0.941819  -0.608014
    9  C  1  Z    0.440810   0.022258  -0.449376   0.732914   0.779310
   10  H  2  S    0.079324  -0.022930  -0.030486   0.059244   0.017897
   11  H  2  S    0.906428  -0.749979  -0.532661   1.116649   0.525117
   12  C  3  S    0.001111   0.124213  -0.013897  -0.002942  -0.029304
   13  C  3  S   -0.000220  -0.054203   0.020534   0.002009   0.034840
   14  C  3  X    0.030154   0.055746   0.121062  -0.015777   0.329228
   15  C  3  Y    0.241433   0.058516   0.009222  -0.238433  -0.031014
   16  C  3  Z    0.171798  -0.100685  -0.034470  -0.173846   0.007519
   17  C  3  S   -0.020183  -1.622955   0.022069   0.022762  -0.033035
   18  C  3  X    0.091302   0.383401   0.201980  -0.054760   1.182865
   19  C  3  Y    0.665286   0.131472  -0.078640  -0.860780  -0.054897
   20  C  3  Z    0.466401  -0.271432   0.058183  -0.645465  -0.044659
   21  O  4  S    0.000463  -0.023339  -0.000695   0.001766   0.037138
   22  O  4  S    0.000280   0.021064  -0.010244  -0.000335  -0.017197
   23  O  4  X   -0.002543  -0.004168   0.197935   0.018063   0.285897
   24  O  4  Y   -0.037737  -0.025039  -0.052943   0.082430   0.004114
   25  O  4  Z   -0.030290   0.038056   0.048356   0.054815  -0.054741
   26  O  4  S   -0.007730   0.160350   0.098520  -0.020424  -0.364057
   27  O  4  X   -0.005324   0.012624   0.336054   0.039193   0.616201
   28  O  4  Y   -0.100044  -0.058168  -0.094120   0.149225   0.006975
   29  O  4  Z   -0.076559   0.084722   0.086100   0.100143  -0.111282
   30  H  5  S   -0.068636   0.047332   0.014413   0.011479  -0.002050
   31  H  5  S   -0.976061   0.979355   0.038959   0.969072   0.010500
   32  H  6  S    0.070646   0.044582   0.015822  -0.010910  -0.002889
   33  H  6  S    1.010021   0.934754   0.025836  -0.972323   0.064397
   34  H  7  S   -0.001375  -0.044754  -0.032088  -0.002862  -0.086100
   35  H  7  S   -0.000669  -0.234689  -0.544039  -0.013117  -0.550360
   36  H  8  S   -0.002137  -0.022819   0.101083  -0.001485   0.029512
   37  H  8  S   -0.054300  -0.818446   1.523514  -0.073325  -0.531672
   38  H  9  S   -0.078786  -0.020241  -0.036936  -0.056696   0.024888
   39  H  9  S   -0.904563  -0.718981  -0.627478  -1.026633   0.649668

                     21         22         23         24         25
                    0.2599     0.7150     0.7176     0.7512     0.7816
                     A          A          A          A          A   
    1  C  1  S    0.083995  -0.000003   0.000255   0.017822   0.037883
    2  C  1  S   -0.007736   0.000554   0.020044  -0.010753  -0.135460
    3  C  1  X   -0.160529  -0.052550  -0.057079  -0.531483  -0.597099
    4  C  1  Y    0.117323  -0.483846  -0.168739   0.384170   0.096462
    5  C  1  Z   -0.145831  -0.342990   0.256033  -0.453303  -0.040466
    6  C  1  S   -1.209487   0.004008   0.133858  -0.414904   0.617302
    7  C  1  X   -1.129435   0.085531   0.108394   0.713898   1.337681
    8  C  1  Y    0.647416   0.767658   0.170901  -0.520749  -0.235390
    9  C  1  Z   -0.752032   0.549726  -0.278890   0.615670   0.122713
   10  H  2  S   -0.051962   0.455440  -0.194690   0.113315   0.029608
   11  H  2  S   -0.060602  -0.001842   0.021648   0.117494   0.006044
   12  C  3  S   -0.120795   0.000615   0.033631  -0.008994  -0.027317
   13  C  3  S    0.064522  -0.002540  -0.143473   0.071113   0.118852
   14  C  3  X    0.002116  -0.043241  -0.826718   0.137656  -0.240476
   15  C  3  Y    0.195628  -0.238975  -0.083413  -0.271555   0.483438
   16  C  3  Z   -0.266975  -0.168240   0.253304   0.354013  -0.626161
   17  C  3  S    1.422075   0.001466   0.088397  -0.570387  -0.417804
   18  C  3  X   -0.264144   0.060532   1.071712  -0.080809   0.197552
   19  C  3  Y    0.899465   0.353387   0.159029   0.392603  -1.005220
   20  C  3  Z   -1.186604   0.249211  -0.401521  -0.529100   1.350156
   21  O  4  S    0.039886  -0.000064   0.003220   0.022477  -0.002609
   22  O  4  S   -0.017317   0.001329   0.054590  -0.043214  -0.035517
   23  O  4  X    0.159755  -0.012815  -0.134957   0.001262   0.140081
   24  O  4  Y   -0.017315  -0.091349  -0.063722  -0.026745  -0.022815
   25  O  4  Z   -0.001837  -0.063532   0.112704   0.035379   0.011479
   26  O  4  S   -0.381953  -0.008004  -0.416897  -0.060649   0.264364
   27  O  4  X    0.411464  -0.000702   0.175928  -0.000254  -0.166729
   28  O  4  Y   -0.062033  -0.041174   0.023011  -0.022702   0.066016
   29  O  4  Z    0.021484  -0.030867  -0.055719   0.030871  -0.065524
   30  H  5  S    0.064822  -0.372377   0.197328   0.205890  -0.185853
   31  H  5  S    0.281345   0.073513   0.087641   0.052111  -0.291934
   32  H  6  S    0.064223   0.377681   0.181836   0.207395  -0.185421
   33  H  6  S    0.292539  -0.070248   0.088775   0.051520  -0.294195
   34  H  7  S    0.012465  -0.000492   0.069620   0.297546   0.049120
   35  H  7  S   -0.111013  -0.003973  -0.244856  -0.127542  -0.164039
   36  H  8  S   -0.023592  -0.000154   0.340113   0.320245   0.281930
   37  H  8  S   -0.302227  -0.001868  -0.089235   0.037141   0.344556
   38  H  9  S   -0.050106  -0.455692  -0.182926   0.109402   0.023087
   39  H  9  S   -0.019930   0.002200   0.022163   0.116272   0.002506

                     26         27         28         29         30
                    0.7999     0.8829     0.9685     1.0109     1.0415
                     A          A          A          A          A   
    1  C  1  S    0.024615   0.000145   0.045273  -0.048241   0.000011
    2  C  1  S   -0.063237   0.000081  -0.041285   0.002828  -0.000221
    3  C  1  X    0.260210   0.059231   0.385509  -0.045682  -0.038220
    4  C  1  Y    0.389285   0.528920  -0.047559   0.067873  -0.322326
    5  C  1  Z   -0.571012   0.386881  -0.001441  -0.085055  -0.231773
    6  C  1  S    0.172130   0.000607   0.232839   0.374586  -0.001197
    7  C  1  X   -0.696573  -0.134018  -0.531663  -0.047242   0.070723
    8  C  1  Y   -0.721850  -1.250368  -0.225329  -0.155808   0.570644
    9  C  1  Z    1.088214  -0.914278   0.410527   0.220950   0.405663
   10  H  2  S    0.217000  -0.029389   0.430238  -0.283288  -0.050877
   11  H  2  S    0.218939  -0.554436  -0.042911   0.163081   0.423124
   12  C  3  S   -0.031167   0.000480   0.034084  -0.023254  -0.000167
   13  C  3  S    0.019388  -0.000766   0.002343  -0.013708   0.000584
   14  C  3  X   -0.593801  -0.070846  -0.047127  -0.172767  -0.059172
   15  C  3  Y    0.037687  -0.653323   0.247280  -0.032531  -0.557052
   16  C  3  Z    0.028260  -0.477326  -0.332074   0.066595  -0.402962
   17  C  3  S   -0.193334   0.001296   0.094855  -0.118011  -0.000694
   18  C  3  X    1.157553   0.167425   0.404232   0.596234   0.063624
   19  C  3  Y   -0.006296   1.544434  -0.247794  -0.181116   0.645822
   20  C  3  Z   -0.150984   1.124072   0.268650   0.166369   0.469896
   21  O  4  S   -0.004682   0.000107   0.002197   0.033559  -0.000149
   22  O  4  S    0.049826  -0.000254   0.034493  -0.069866   0.000040
   23  O  4  X   -0.046841  -0.018129  -0.161769  -0.048501   0.011604
   24  O  4  Y    0.010054  -0.172452   0.148075   0.173925   0.100127
   25  O  4  Z   -0.007562  -0.123487  -0.178755  -0.233853   0.073730
   26  O  4  S   -0.369890   0.001034  -0.019287  -0.028154   0.001752
   27  O  4  X    0.232924  -0.013423  -0.001479  -0.053770  -0.012897
   28  O  4  Y   -0.008791  -0.109806   0.042199   0.054994  -0.109845
   29  O  4  Z   -0.023234  -0.081290  -0.057827  -0.069214  -0.078755
   30  H  5  S   -0.180747  -0.186772   0.503744  -0.311387   0.755230
   31  H  5  S    0.140869  -0.609321  -0.414698   0.204074  -1.175193
   32  H  6  S   -0.182064   0.196131   0.495647  -0.315324  -0.759678
   33  H  6  S    0.146765   0.603326  -0.413343   0.211084   1.176723
   34  H  7  S   -0.351084   0.004580   0.602332   1.040842  -0.004119
   35  H  7  S    0.047951  -0.003564  -0.482219  -0.957908   0.004736
   36  H  8  S   -0.252043   0.006709   0.222995  -0.507658   0.002751
   37  H  8  S   -0.227541   0.007477  -0.429060   0.240416  -0.001203
   38  H  9  S    0.226895   0.026822   0.433247  -0.283927   0.048013
   39  H  9  S    0.227606   0.544213  -0.047525   0.165679  -0.422437

                     31         32         33         34         35
                    1.0757     1.0866     1.1179     1.5827     1.6146
                     A          A          A          A          A   
    1  C  1  S    0.006506  -0.000050   0.078398  -0.000137   0.008511
    2  C  1  S    0.017021  -0.000307  -0.281524   0.015162  -1.099993
    3  C  1  X   -0.572468  -0.052465   0.127660  -0.006664   0.120714
    4  C  1  Y   -0.211676  -0.465598  -0.212787  -0.047740   0.011197
    5  C  1  Z    0.381223  -0.337300   0.277862  -0.033147  -0.038344
    6  C  1  S   -0.109303   0.002173   0.107888  -0.024675   1.979403
    7  C  1  X    0.590585   0.042872  -0.287081   0.048229  -0.445928
    8  C  1  Y    0.234244   0.350137   0.475608   0.388993   0.053385
    9  C  1  Z   -0.422360   0.251148  -0.622580   0.282309   0.013397
   10  H  2  S    0.501114  -0.828008   0.468237   0.066989   0.039135
   11  H  2  S   -0.686693   1.059426  -0.599954   0.156863  -0.464881
   12  C  3  S    0.004133  -0.000160  -0.063765  -0.000050  -0.008001
   13  C  3  S   -0.015209   0.000581   0.356803   0.011516  -0.853069
   14  C  3  X   -0.134338  -0.012810  -0.041432   0.011160   0.135064
   15  C  3  Y   -0.058015  -0.118971  -0.221190   0.116773   0.012162
   16  C  3  Z    0.095477  -0.088372   0.311334   0.084629  -0.034335
   17  C  3  S    0.017639  -0.000463  -0.288719  -0.017119   1.480349
   18  C  3  X    0.281638   0.046629  -0.291111  -0.083225   0.226756
   19  C  3  Y    0.202458   0.449129   0.497088  -0.755105  -0.269045
   20  C  3  Z   -0.305033   0.332732  -0.638254  -0.552114   0.318129
   21  O  4  S    0.010033  -0.000255   0.005077  -0.000546   0.051688
   22  O  4  S   -0.005706   0.000576  -0.031741   0.001969  -0.188274
   23  O  4  X   -0.016945  -0.010867   0.021903  -0.087239  -0.051493
   24  O  4  Y   -0.025057  -0.099122   0.077920  -0.797602  -0.382064
   25  O  4  Z    0.038918  -0.074807  -0.111468  -0.581819   0.518270
   26  O  4  S   -0.185052   0.002568   0.053716   0.001914  -0.182592
   27  O  4  X    0.140364  -0.001371  -0.030418   0.100797   0.139832
   28  O  4  Y   -0.016740   0.002800  -0.078367   0.925255   0.520540
   29  O  4  Z   -0.000488   0.003043   0.112719   0.677056  -0.719869
   30  H  5  S    0.120142  -0.305635  -0.556252   0.255134  -0.095884
   31  H  5  S    0.057280   0.005281   0.802482   0.196368  -0.429981
   32  H  6  S    0.121844   0.302071  -0.554471  -0.254285  -0.100642
   33  H  6  S    0.066777  -0.006692   0.801818  -0.185594  -0.435567
   34  H  7  S   -0.069869   0.001931   0.156253  -0.004052   0.349415
   35  H  7  S    0.002639  -0.001712  -0.122859   0.001247  -0.171382
   36  H  8  S   -0.880480   0.011621   0.537928  -0.001871  -0.066395
   37  H  8  S    1.343340  -0.012451  -0.441642   0.008552  -0.671924
   38  H  9  S    0.521660   0.814979   0.466312  -0.064115   0.041378
   39  H  9  S   -0.711653  -1.046888  -0.593847  -0.146550  -0.475783

                     36         37         38         39
                    1.6559     1.8149     2.0512     2.9808
                     A          A          A          A   
    1  C  1  S    0.002363   0.025866  -0.074000  -0.026079
    2  C  1  S   -0.765453  -0.087230  -1.596079  -0.168411
    3  C  1  X   -0.029569  -0.235994  -0.063639   0.076656
    4  C  1  Y    0.001624   0.031877   0.002476  -0.027206
    5  C  1  Z    0.002188  -0.004935   0.007320   0.024490
    6  C  1  S    1.168475  -0.697598   4.047543   0.856781
    7  C  1  X   -0.050341   0.199808   0.714491   0.227162
    8  C  1  Y    0.125768   0.347630  -0.436560  -0.146183
    9  C  1  Z   -0.162008  -0.520203   0.492098   0.173391
   10  H  2  S   -0.032861   0.013040  -0.318435  -0.074393
   11  H  2  S   -0.333628  -0.168400  -0.443012  -0.011578
   12  C  3  S    0.031612  -0.042101   0.062581   0.077717
   13  C  3  S   -0.772027  -1.065512   1.290718   0.531421
   14  C  3  X   -0.108259   0.174172   0.044572  -0.181877
   15  C  3  Y   -0.066956   0.009374  -0.010494  -0.002182
   16  C  3  Z    0.109656  -0.039716   0.007582   0.030468
   17  C  3  S    0.599137   2.503559  -3.433222  -1.968455
   18  C  3  X   -0.262424  -0.302476   0.695249  -0.299378
   19  C  3  Y    0.019917   0.251034  -0.439249  -0.225517
   20  C  3  Z    0.005104  -0.298351   0.500356   0.353183
   21  O  4  S   -0.028028   0.021743  -0.039258   0.067664
   22  O  4  S    0.144994  -0.167080   0.185112  -1.655299
   23  O  4  X    0.662695  -0.712917  -0.296707   0.151200
   24  O  4  Y    0.247834   0.322495   0.108484   0.087458
   25  O  4  Z   -0.447441  -0.341638  -0.107129  -0.144328
   26  O  4  S   -0.090749   0.010210   0.211576   2.281820
   27  O  4  X   -0.770525   1.302480   0.218414  -0.493570
   28  O  4  Y   -0.298219  -0.495427  -0.187191  -0.273179
   29  O  4  Z    0.534599   0.493874   0.228731   0.453931
   30  H  5  S    0.116908  -0.160390   0.259743   0.175579
   31  H  5  S   -0.305185  -0.336005   0.344770   0.153360
   32  H  6  S    0.114684  -0.160626   0.259262   0.175263
   33  H  6  S   -0.306601  -0.334951   0.345135   0.152218
   34  H  7  S   -0.157519  -0.354571  -0.191957  -0.311663
   35  H  7  S    0.238887  -0.442393  -0.015810  -0.163881
   36  H  8  S   -0.015536   0.144462  -0.272421  -0.022613
   37  H  8  S   -0.294525   0.211703  -0.328651  -0.105233
   38  H  9  S   -0.035131   0.009438  -0.320662  -0.073936
   39  H  9  S   -0.333996  -0.163101  -0.440876  -0.016788
 ...... END OF RHF CALCULATION ......
 CPU     0: STEP CPU TIME=     1.97 TOTAL CPU TIME=          2.0 (      0.0 MIN)
 TOTAL WALL CLOCK TIME=          2.8 SECONDS, CPU UTILIZATION IS    71.48%

     ---------------------------------------------------------------------
     PROPERTIES FOR THE B3LYP    DFT FUNCTIONAL (RHF  TYPE) DENSITY MATRIX
     ---------------------------------------------------------------------

          -----------------
          ENERGY COMPONENTS
          -----------------

         WAVEFUNCTION NORMALIZATION =       1.0000000000

                ONE ELECTRON ENERGY =    -368.9287653905
                TWO ELECTRON ENERGY =     134.0281140927
           NUCLEAR REPULSION ENERGY =      80.8150726764
                                      ------------------
                       TOTAL ENERGY =    -154.0855786214

 ELECTRON-ELECTRON POTENTIAL ENERGY =     134.0281140927
  NUCLEUS-ELECTRON POTENTIAL ENERGY =    -521.7846210081
   NUCLEUS-NUCLEUS POTENTIAL ENERGY =      80.8150726764
                                      ------------------
             TOTAL POTENTIAL ENERGY =    -306.9414342390
               TOTAL KINETIC ENERGY =     152.8558556176
                 VIRIAL RATIO (V/T) =       2.0080449846

          ---------------------------------------
          MULLIKEN AND LOWDIN POPULATION ANALYSES
          ---------------------------------------

     ATOMIC MULLIKEN POPULATION IN EACH MOLECULAR ORBITAL

                      1          2          3          4          5

                  2.000000   2.000000   2.000000   2.000000   2.000000

    1            -0.000103   0.005713   1.985298   0.024555   0.944742
    2             0.000000   0.000031   0.003222  -0.000105   0.046551
    3             0.002772   1.986754   0.005075   0.235153   0.648569
    4             1.996362   0.000897   0.000003   1.611611   0.156655
    5            -0.000015   0.003231   0.000027   0.000366   0.031236
    6            -0.000015   0.003232   0.000027   0.000351   0.031205
    7             0.000997   0.000087   0.000001   0.127778   0.044844
    8             0.000000   0.000023   0.003120   0.000387   0.049925
    9             0.000001   0.000032   0.003226  -0.000096   0.046274

                      6          7          8          9         10

                  2.000000   2.000000   2.000000   2.000000   2.000000

    1             0.600187   0.188620   0.389964   0.741989   0.770024
    2             0.090550   0.003515   0.113330   0.164405   0.021406
    3             0.691687   0.486472   0.797257   0.486399   0.282508
    4             0.166048   0.806956   0.140727   0.294378   0.327251
    5             0.119573   0.077288   0.223694   0.024442   0.000569
    6             0.119670   0.075769   0.225261   0.023109   0.000505
    7             0.036370   0.282314   0.000000   0.006147   0.065009
    8             0.085264   0.074937   0.000019   0.092368   0.509200
    9             0.090651   0.004129   0.109747   0.166763   0.023527

                     11         12         13

                  2.000000   2.000000   2.000000

    1             0.727901   0.180100  -0.000481
    2             0.323755   0.019268   0.010246
    3             0.245634   0.231937   0.048087
    4             0.141323   1.266643   1.639106
    5             0.118789   0.086956   0.145834
    6             0.120973   0.084842   0.146890
    7             0.000002   0.105602   0.000000
    8             0.000015   0.005199   0.000004
    9             0.321608   0.019453   0.010313

               ----- POPULATIONS IN EACH AO -----
                             MULLIKEN      LOWDIN
              1  C  1  S      1.98644     1.97437
              2  C  1  S      0.37062     0.42547
              3  C  1  X      0.56298     0.52533
              4  C  1  Y      0.56639     0.53078
              5  C  1  Z      0.56194     0.52726
              6  C  1  S      1.10191     0.58139
              7  C  1  X      0.44293     0.55667
              8  C  1  Y      0.49484     0.57955
              9  C  1  Z      0.47047     0.57194
             10  H  2  S      0.46969     0.46864
             11  H  2  S      0.32649     0.43394
             12  C  3  S      1.98636     1.97366
             13  C  3  S      0.37786     0.42676
             14  C  3  X      0.46123     0.44613
             15  C  3  Y      0.58217     0.53868
             16  C  3  Z      0.57057     0.53024
             17  C  3  S      1.00039     0.57376
             18  C  3  X      0.26063     0.41608
             19  C  3  Y      0.47467     0.56252
             20  C  3  Z      0.43444     0.54443
             21  O  4  S      1.98464     1.97935
             22  O  4  S      0.42603     0.58471
             23  O  4  X      0.56263     0.53592
             24  O  4  Y      0.80970     0.80921
             25  O  4  Z      0.74931     0.74289
             26  O  4  S      1.51015     1.06506
             27  O  4  X      0.63861     0.70963
             28  O  4  Y      0.96090     0.97931
             29  O  4  Z      0.90598     0.93241
             30  H  5  S      0.48248     0.48824
             31  H  5  S      0.34951     0.45379
             32  H  6  S      0.48252     0.48824
             33  H  6  S      0.34930     0.45369
             34  H  7  S      0.43286     0.44199
             35  H  7  S      0.23630     0.33411
             36  H  8  S      0.47095     0.46876
             37  H  8  S      0.34951     0.44286
             38  H  9  S      0.46954     0.46849
             39  H  9  S      0.32609     0.43376

          ----- MULLIKEN ATOMIC OVERLAP POPULATIONS -----
          (OFF-DIAGONAL ELEMENTS NEED TO BE MULTIPLIED BY 2)

             1           2           3           4           5

    1    5.3726469
    2    0.3617557   0.5246202
    3    0.2587934  -0.0391573   5.1262424
    4   -0.0478033   0.0028029   0.2584372   8.1578418
    5   -0.0485664   0.0046118   0.3306807  -0.0339249   0.6427032
    6   -0.0486189  -0.0057095   0.3305110  -0.0340219  -0.0559030
    7    0.0061143  -0.0000933  -0.0423706   0.2399713  -0.0029774
    8    0.3432291  -0.0242776  -0.0355601   0.0016735   0.0008958
    9    0.3609591  -0.0283787  -0.0392725   0.0029826  -0.0055286

             6           7           8           9

    6    0.6427682
    7   -0.0028879   0.4716872
    8    0.0010261  -0.0001977   0.5577740
    9    0.0046549  -0.0000929  -0.0241012   0.5244053

          TOTAL MULLIKEN AND LOWDIN ATOMIC POPULATIONS
       ATOM         MULL.POP.    CHARGE          LOW.POP.     CHARGE
    1 C             6.558510   -0.558510         6.272751   -0.272751
    2 H             0.796174    0.203826         0.902579    0.097421
    3 C             6.148304   -0.148304         6.012259   -0.012259
    4 O             8.547959   -0.547959         8.338480   -0.338480
    5 H             0.831991    0.168009         0.942027    0.057973
    6 H             0.831819    0.168181         0.941938    0.058062
    7 H             0.669153    0.330847         0.776104    0.223896
    8 H             0.820462    0.179538         0.911615    0.088385
    9 H             0.795628    0.204372         0.902247    0.097753

          -------------------------------
          BOND ORDER AND VALENCE ANALYSIS     BOND ORDER THRESHOLD=0.050
          -------------------------------

                   BOND                       BOND                       BOND
  ATOM PAIR DIST  ORDER      ATOM PAIR DIST  ORDER      ATOM PAIR DIST  ORDER
    1   2  1.094  0.919        1   3  1.529  0.942        1   8  1.095  0.918
    1   9  1.094  0.918        3   4  1.463  0.940        3   5  1.102  0.881
    3   6  1.102  0.881        4   7  0.996  0.837

                       TOTAL       BONDED        FREE
      ATOM            VALENCE     VALENCE     VALENCE
    1 C                 3.689       3.689       0.000
    2 H                 0.917       0.917      -0.000
    3 C                 3.637       3.637      -0.000
    4 O                 1.856       1.856      -0.000
    5 H                 0.908       0.908      -0.000
    6 H                 0.908       0.908      -0.000
    7 H                 0.859       0.859       0.000
    8 H                 0.922       0.922       0.000
    9 H                 0.918       0.918      -0.000

          ---------------------
          ELECTROSTATIC MOMENTS
          ---------------------

 POINT   1           X           Y           Z (BOHR)    CHARGE
                 2.645320   -0.581945    0.029397       -0.00 (A.U.)
         DX          DY          DZ         /D/  (DEBYE)
    -0.297504   -0.945739    1.361895    1.684544

          -----------------------
          ELECTROSTATIC POTENTIAL
          -----------------------

   POINT      X          Y          Z           ELECTRONIC      NUCLEAR         TOTAL
                       (BOHR)                                    (A.U.)
 BRENEMAN (CHELPG) RADII USED FOR CHARGE FITTING
 NUMBER OF POINTS SELECTED FOR FITTING =     495
      1   -6.76500   -1.22638   -0.69736        -2.862623       2.864849       0.002226
      2   -6.76500   -1.22638    0.81442        -2.847792       2.850656       0.002864
      3   -6.76500    0.28540   -0.69736        -2.875346       2.877337       0.001991
      4   -6.76500    0.28540    0.81442        -2.858055       2.860672       0.002616
      5   -6.76500    1.79718   -0.69736        -2.800676       2.801999       0.001323
      6   -5.25322   -2.73816   -2.20914        -3.176229       3.177717       0.001488
      7   -5.25322   -2.73816   -0.69736        -3.280869       3.283817       0.002949
      8   -5.25322   -2.73816    0.81442        -3.261247       3.265215       0.003968
      9   -5.25322   -2.73816    2.32620        -3.127863       3.132017       0.004155
     10   -5.25322   -1.22638   -3.72092        -3.102167       3.102303       0.000136
     11   -5.25322   -1.22638   -2.20914        -3.330781       3.332399       0.001618
     12   -5.25322   -1.22638   -0.69736        -3.451612       3.455419       0.003807
     13   -5.25322   -1.22638    0.81442        -3.420164       3.425091       0.004927
     14   -5.25322   -1.22638    2.32620        -3.255904       3.260484       0.004580
     15   -5.25322    0.28540   -3.72092        -3.123221       3.122974      -0.000248
     16   -5.25322    0.28540   -2.20914        -3.359782       3.361123       0.001341
     17   -5.25322    0.28540   -0.69736        -3.483435       3.487217       0.003781
     18   -5.25322    0.28540    0.81442        -3.444902       3.449744       0.004842
     19   -5.25322    0.28540    2.32620        -3.268958       3.273189       0.004231
     20   -5.25322    0.28540    3.83798        -3.022128       3.025650       0.003521
     21   -5.25322    1.79718   -3.72092        -3.030312       3.029597      -0.000715
     22   -5.25322    1.79718   -2.20914        -3.243264       3.243680       0.000416
     23   -5.25322    1.79718   -0.69736        -3.351513       3.353581       0.002068
     24   -5.25322    1.79718    0.81442        -3.315753       3.318753       0.003000
     25   -5.25322    1.79718    2.32620        -3.157113       3.160037       0.002924
     26   -5.25322    3.30897   -2.20914        -3.022863       3.022459      -0.000404
     27   -5.25322    3.30897   -0.69736        -3.107722       3.108218       0.000497
     28   -5.25322    3.30897    0.81442        -3.080541       3.081764       0.001223
     29   -5.25322    3.30897    2.32620        -2.954998       2.956567       0.001570
     30   -3.74143   -4.24994   -2.20914        -3.431817       3.433129       0.001313
     31   -3.74143   -4.24994   -0.69736        -3.568574       3.571417       0.002843
     32   -3.74143   -4.24994    0.81442        -3.555232       3.559472       0.004241
     33   -3.74143   -4.24994    2.32620        -3.398828       3.403666       0.004837
     34   -3.74143   -2.73816   -5.23270        -3.111967       3.111357      -0.000610
     35   -3.74143   -2.73816   -3.72092        -3.481312       3.481123      -0.000189
     36   -3.74143   -2.73816   -2.20914        -3.809201       3.810253       0.001052
     37   -3.74143   -2.73816   -0.69736        -3.994146       3.997941       0.003795
     38   -3.74143   -2.73816    0.81442        -3.956368       3.962146       0.005778
     39   -3.74143   -2.73816    2.32620        -3.724162       3.729986       0.005825
     40   -3.74143   -2.73816    3.83798        -3.393033       3.398266       0.005233
     41   -3.74143   -1.22638   -5.23270        -3.252322       3.251226      -0.001096
     42   -3.74143   -1.22638   -3.72092        -3.694556       3.693693      -0.000863
     43   -3.74143   -1.22638   -2.20914        -4.111396       4.112875       0.001478
     44   -3.74143   -1.22638    0.81442        -4.274332       4.285224       0.010892
     45   -3.74143   -1.22638    2.32620        -3.948808       3.955934       0.007126
     46   -3.74143   -1.22638    3.83798        -3.542333       3.547700       0.005367
     47   -3.74143    0.28540   -5.23270        -3.276533       3.274844      -0.001689
     48   -3.74143    0.28540   -3.72092        -3.739970       3.738417      -0.001553
     49   -3.74143    0.28540   -2.20914        -4.188869       4.190589       0.001720
     50   -3.74143    0.28540    2.32620        -3.976451       3.983292       0.006842
     51   -3.74143    0.28540    3.83798        -3.547243       3.551904       0.004661
     52   -3.74143    1.79718   -5.23270        -3.170245       3.168097      -0.002147
     53   -3.74143    1.79718   -3.72092        -3.582958       3.580879      -0.002079
     54   -3.74143    1.79718   -2.20914        -3.965045       3.964508      -0.000537
     55   -3.74143    1.79718   -0.69736        -4.174340       4.178403       0.004063
     56   -3.74143    1.79718    0.81442        -4.085528       4.090941       0.005413
     57   -3.74143    1.79718    2.32620        -3.777327       3.781126       0.003799
     58   -3.74143    1.79718    3.83798        -3.401554       3.404743       0.003190
     59   -3.74143    3.30897   -3.72092        -3.291766       3.289573      -0.002193
     60   -3.74143    3.30897   -2.20914        -3.569955       3.568348      -0.001608
     61   -3.74143    3.30897   -0.69736        -3.711304       3.710928      -0.000375
     62   -3.74143    3.30897    0.81442        -3.655182       3.655979       0.000797
     63   -3.74143    3.30897    2.32620        -3.440762       3.442205       0.001443
     64   -3.74143    4.82075   -2.20914        -3.151662       3.150084      -0.001578
     65   -3.74143    4.82075   -0.69736        -3.245658       3.244738      -0.000920
     66   -3.74143    4.82075    0.81442        -3.213330       3.213130      -0.000200
     67   -2.22965   -5.76172   -0.69736        -3.602249       3.605447       0.003198
     68   -2.22965   -5.76172    0.81442        -3.605966       3.610751       0.004785
     69   -2.22965   -5.76172    2.32620        -3.458794       3.464292       0.005498
     70   -2.22965   -5.76172    3.83798        -3.207532       3.212935       0.005402
     71   -2.22965   -4.24994   -5.23270        -3.229170       3.228545      -0.000625
     72   -2.22965   -4.24994   -3.72092        -3.635769       3.635620      -0.000149
     73   -2.22965   -4.24994   -2.20914        -4.005488       4.006332       0.000844
     74   -2.22965   -4.24994   -0.69736        -4.232913       4.236053       0.003140
     75   -2.22965   -4.24994    0.81442        -4.225020       4.230670       0.005650
     76   -2.22965   -4.24994    2.32620        -3.983232       3.989822       0.006590
     77   -2.22965   -4.24994    3.83798        -3.606716       3.612974       0.006257
     78   -2.22965   -2.73816   -6.74448        -3.042170       3.040910      -0.001259
     79   -2.22965   -2.73816   -5.23270        -3.526551       3.525707      -0.000844
     80   -2.22965   -2.73816   -3.72092        -4.091280       4.090220      -0.001060
     81   -2.22965   -2.73816   -2.20914        -4.646527       4.645437      -0.001090
     82   -2.22965   -2.73816   -0.69736        -4.989148       4.992526       0.003379
     83   -2.22965   -2.73816    0.81442        -4.924144       4.931649       0.007505
     84   -2.22965   -2.73816    2.32620        -4.515040       4.522854       0.007814
     85   -2.22965   -2.73816    3.83798        -3.973678       3.980614       0.006936
     86   -2.22965   -2.73816    5.34976        -3.445993       3.451909       0.005917
     87   -2.22965   -1.22638   -6.74448        -3.166444       3.164845      -0.001599
     88   -2.22965   -1.22638   -5.23270        -3.741413       3.740169      -0.001245
     89   -2.22965   -1.22638   -3.72092        -4.473125       4.470904      -0.002222
     90   -2.22965   -1.22638    2.32620        -4.912063       4.922107       0.010045
     91   -2.22965   -1.22638    3.83798        -4.205430       4.212473       0.007043
     92   -2.22965   -1.22638    5.34976        -3.586201       3.592031       0.005830
     93   -2.22965    0.28540   -6.74448        -3.184366       3.182111      -0.002255
     94   -2.22965    0.28540   -5.23270        -3.782372       3.779959      -0.002413
     95   -2.22965    0.28540   -3.72092        -4.571400       4.567697      -0.003702
     96   -2.22965    0.28540    3.83798        -4.201948       4.207675       0.005727
     97   -2.22965    0.28540    5.34976        -3.575553       3.580520       0.004968
     98   -2.22965    1.79718   -6.74448        -3.086036       3.083128      -0.002908
     99   -2.22965    1.79718   -5.23270        -3.619468       3.615987      -0.003481
    100   -2.22965    1.79718   -3.72092        -4.288155       4.283476      -0.004679
    101   -2.22965    1.79718   -2.20914        -5.019933       5.017932      -0.002001
    102   -2.22965    1.79718    2.32620        -4.584635       4.587772       0.003137
    103   -2.22965    1.79718    3.83798        -3.959607       3.963009       0.003402
    104   -2.22965    1.79718    5.34976        -3.417979       3.421497       0.003518
    105   -2.22965    3.30897   -5.23270        -3.323997       3.320431      -0.003566
    106   -2.22965    3.30897   -3.72092        -3.805809       3.801764      -0.004045
    107   -2.22965    3.30897   -2.20914        -4.264975       4.260983      -0.003992
    108   -2.22965    3.30897   -0.69736        -4.508859       4.505873      -0.002986
    109   -2.22965    3.30897    0.81442        -4.387163       4.385676      -0.001487
    110   -2.22965    3.30897    2.32620        -4.017617       4.017973       0.000355
    111   -2.22965    3.30897    3.83798        -3.582038       3.583648       0.001610
    112   -2.22965    4.82075   -3.72092        -3.313635       3.310584      -0.003051
    113   -2.22965    4.82075   -2.20914        -3.591307       3.588788      -0.002520
    114   -2.22965    4.82075   -0.69736        -3.730225       3.728480      -0.001745
    115   -2.22965    4.82075    0.81442        -3.674537       3.673559      -0.000978
    116   -2.22965    4.82075    2.32620        -3.463809       3.463688      -0.000121
    117   -2.22965    6.33253   -2.20914        -3.059877       3.057898      -0.001980
    118   -2.22965    6.33253   -0.69736        -3.144832       3.143445      -0.001387
    119   -2.22965    6.33253    0.81442        -3.118257       3.117381      -0.000876
    120   -0.71787   -7.27350   -0.69736        -3.380917       3.384321       0.003404
    121   -0.71787   -7.27350    0.81442        -3.393401       3.398396       0.004995
    122   -0.71787   -7.27350    2.32620        -3.276998       3.282692       0.005694
    123   -0.71787   -7.27350    3.83798        -3.065199       3.070802       0.005603
    124   -0.71787   -5.76172   -3.72092        -3.508966       3.508838      -0.000128
    125   -0.71787   -5.76172   -2.20914        -3.844718       3.846201       0.001483
    126   -0.71787   -5.76172   -0.69736        -4.069490       4.073861       0.004371
    127   -0.71787   -5.76172    0.81442        -4.095797       4.103084       0.007287
    128   -0.71787   -5.76172    2.32620        -3.895290       3.903086       0.007797
    129   -0.71787   -5.76172    3.83798        -3.549360       3.556359       0.006999
    130   -0.71787   -4.24994   -5.23270        -3.533563       3.532401      -0.001162
    131   -0.71787   -4.24994   -3.72092        -4.080154       4.079481      -0.000673
    132   -0.71787   -4.24994   -2.20914        -4.621596       4.622032       0.000436
    133   -0.71787   -4.24994   -0.69736        -5.008619       5.013583       0.004964
    134   -0.71787   -4.24994    2.32620        -4.684968       4.695461       0.010493
    135   -0.71787   -4.24994    3.83798        -4.110191       4.118441       0.008250
    136   -0.71787   -4.24994    5.34976        -3.541015       3.547973       0.006958
    137   -0.71787   -2.73816   -6.74448        -3.293032       3.291327      -0.001706
    138   -0.71787   -2.73816   -5.23270        -3.928454       3.928127      -0.000327
    139   -0.71787   -2.73816   -3.72092        -4.745632       4.746467       0.000835
    140   -0.71787   -2.73816   -2.20914        -5.637611       5.636777      -0.000834
    141   -0.71787   -2.73816   -0.69736        -6.270177       6.276375       0.006197
    142   -0.71787   -2.73816    2.32620        -5.559591       5.572695       0.013103
    143   -0.71787   -2.73816    3.83798        -4.663434       4.672774       0.009339
    144   -0.71787   -2.73816    5.34976        -3.875191       3.882820       0.007629
    145   -0.71787   -2.73816    6.86154        -3.260003       3.266171       0.006168
    146   -0.71787   -1.22638   -6.74448        -3.450155       3.448347      -0.001808
    147   -0.71787   -1.22638   -5.23270        -4.235663       4.237545       0.001883
    148   -0.71787   -1.22638    2.32620        -6.218714       6.235717       0.017003
    149   -0.71787   -1.22638    3.83798        -5.019938       5.030592       0.010654
    150   -0.71787   -1.22638    5.34976        -4.069434       4.077428       0.007994
    151   -0.71787   -1.22638    6.86154        -3.371076       3.377183       0.006106
    152   -0.71787    0.28540   -6.74448        -3.471741       3.468952      -0.002790
    153   -0.71787    0.28540   -5.23270        -4.294386       4.293863      -0.000523
    154   -0.71787    0.28540    3.83798        -4.973856       4.982420       0.008563
    155   -0.71787    0.28540    5.34976        -4.039716       4.046617       0.006901
    156   -0.71787    0.28540    6.86154        -3.353885       3.359197       0.005312
    157   -0.71787    1.79718   -6.74448        -3.344178       3.340169      -0.004009
    158   -0.71787    1.79718   -5.23270        -4.053264       4.048424      -0.004841
    159   -0.71787    1.79718   -3.72092        -5.071885       5.066286      -0.005599
    160   -0.71787    1.79718    2.32620        -5.511872       5.513064       0.001192
    161   -0.71787    1.79718    3.83798        -4.560494       4.564426       0.003932
    162   -0.71787    1.79718    5.34976        -3.803552       3.807969       0.004416
    163   -0.71787    1.79718    6.86154        -3.215738       3.219626       0.003888
    164   -0.71787    3.30897   -6.74448        -3.112418       3.108070      -0.004347
    165   -0.71787    3.30897   -5.23270        -3.649553       3.644318      -0.005235
    166   -0.71787    3.30897   -3.72092        -4.318732       4.312662      -0.006070
    167   -0.71787    3.30897    2.32620        -4.614981       4.614041      -0.000940
    168   -0.71787    3.30897    3.83798        -4.004723       4.006056       0.001333
    169   -0.71787    3.30897    5.34976        -3.458780       3.461062       0.002282
    170   -0.71787    4.82075   -5.23270        -3.219912       3.215557      -0.004356
    171   -0.71787    4.82075   -3.72092        -3.637503       3.633437      -0.004066
    172   -0.71787    4.82075   -2.20914        -4.017838       4.015724      -0.002114
    173   -0.71787    4.82075   -0.69736        -4.214761       4.214794       0.000033
    174   -0.71787    4.82075    0.81442        -4.126881       4.126214      -0.000666
    175   -0.71787    4.82075    2.32620        -3.835220       3.834602      -0.000618
    176   -0.71787    4.82075    3.83798        -3.465475       3.465734       0.000258
    177   -0.71787    6.33253   -3.72092        -3.095534       3.092296      -0.003238
    178   -0.71787    6.33253   -2.20914        -3.311582       3.309240      -0.002342
    179   -0.71787    6.33253   -0.69736        -3.419593       3.418142      -0.001451
    180   -0.71787    6.33253    0.81442        -3.385057       3.383955      -0.001103
    181   -0.71787    6.33253    2.32620        -3.229219       3.228416      -0.000802
    182    0.79391   -8.78528    0.81442        -3.022542       3.026788       0.004246
    183    0.79391   -7.27350   -2.20914        -3.445383       3.446777       0.001394
    184    0.79391   -7.27350   -0.69736        -3.611652       3.615522       0.003870
    185    0.79391   -7.27350    0.81442        -3.635195       3.641408       0.006213
    186    0.79391   -7.27350    2.32620        -3.497705       3.504785       0.007080
    187    0.79391   -7.27350    3.83798        -3.244872       3.251665       0.006793
    188    0.79391   -5.76172   -3.72092        -3.741548       3.740274      -0.001273
    189    0.79391   -5.76172   -2.20914        -4.164440       4.165282       0.000842
    190    0.79391   -5.76172   -0.69736        -4.480307       4.486407       0.006099
    191    0.79391   -5.76172    2.32620        -4.288924       4.300388       0.011464
    192    0.79391   -5.76172    3.83798        -3.838220       3.847031       0.008811
    193    0.79391   -5.76172    5.34976        -3.364595       3.372009       0.007414
    194    0.79391   -4.24994   -6.74448        -3.202029       3.199160      -0.002869
    195    0.79391   -4.24994   -5.23270        -3.755844       3.753191      -0.002653
    196    0.79391   -4.24994   -3.72092        -4.424332       4.422027      -0.002305
    197    0.79391   -4.24994   -2.20914        -5.147459       5.146874      -0.000585
    198    0.79391   -4.24994    3.83798        -4.580654       4.591234       0.010581
    199    0.79391   -4.24994    5.34976        -3.826082       3.834575       0.008493
    200    0.79391   -4.24994    6.86154        -3.232065       3.239044       0.006979
    201    0.79391   -2.73816   -6.74448        -3.466861       3.463792      -0.003069
    202    0.79391   -2.73816   -5.23270        -4.216220       4.215075      -0.001146
    203    0.79391   -2.73816    3.83798        -5.386659       5.400401       0.013742
    204    0.79391   -2.73816    5.34976        -4.257875       4.267560       0.009684
    205    0.79391   -2.73816    6.86154        -3.476254       3.483764       0.007510
    206    0.79391   -1.22638   -8.25626        -3.022017       3.018201      -0.003815
    207    0.79391   -1.22638   -6.74448        -3.642296       3.639159      -0.003136
    208    0.79391   -1.22638    5.34976        -4.517943       4.530505       0.012562
    209    0.79391   -1.22638    6.86154        -3.608789       3.616422       0.007633
    210    0.79391    0.28540   -8.25626        -3.029692       3.025294      -0.004397
    211    0.79391    0.28540   -6.74448        -3.661847       3.657512      -0.004335
    212    0.79391    0.28540    5.34976        -4.457577       4.469077       0.011500
    213    0.79391    0.28540    6.86154        -3.581299       3.587915       0.006615
    214    0.79391    1.79718   -6.74448        -3.512022       3.506209      -0.005812
    215    0.79391    1.79718   -5.23270        -4.335157       4.328062      -0.007096
    216    0.79391    1.79718    3.83798        -5.091748       5.098692       0.006945
    217    0.79391    1.79718    5.34976        -4.121247       4.127000       0.005753
    218    0.79391    1.79718    6.86154        -3.407281       3.411812       0.004531
    219    0.79391    3.30897   -6.74448        -3.248670       3.242688      -0.005983
    220    0.79391    3.30897   -5.23270        -3.858904       3.851400      -0.007504
    221    0.79391    3.30897   -3.72092        -4.652841       4.644881      -0.007960
    222    0.79391    3.30897    2.32620        -5.070632       5.069562      -0.001069
    223    0.79391    3.30897    3.83798        -4.332793       4.333741       0.000947
    224    0.79391    3.30897    5.34976        -3.682071       3.684341       0.002270
    225    0.79391    3.30897    6.86154        -3.148026       3.150593       0.002567
    226    0.79391    4.82075   -5.23270        -3.368563       3.362622      -0.005941
    227    0.79391    4.82075   -3.72092        -3.846783       3.841429      -0.005354
    228    0.79391    4.82075   -2.20914        -4.301419       4.301254      -0.000165
    229    0.79391    4.82075    0.81442        -4.443027       4.444091       0.001064
    230    0.79391    4.82075    2.32620        -4.100232       4.099002      -0.001230
    231    0.79391    4.82075    3.83798        -3.673106       3.672698      -0.000408
    232    0.79391    6.33253   -3.72092        -3.229906       3.225582      -0.004325
    233    0.79391    6.33253   -2.20914        -3.475505       3.472476      -0.003029
    234    0.79391    6.33253   -0.69736        -3.601650       3.599873      -0.001777
    235    0.79391    6.33253    0.81442        -3.565164       3.563529      -0.001635
    236    0.79391    6.33253    2.32620        -3.390883       3.389362      -0.001522
    237    0.79391    7.84431   -0.69736        -2.986801       2.984236      -0.002565
    238    2.30569   -8.78528    0.81442        -3.092473       3.097122       0.004649
    239    2.30569   -7.27350   -2.20914        -3.541376       3.542083       0.000707
    240    2.30569   -7.27350   -0.69736        -3.727188       3.730909       0.003720
    241    2.30569   -7.27350    0.81442        -3.756978       3.763747       0.006769
    242    2.30569   -7.27350    2.32620        -3.608261       3.616375       0.008114
    243    2.30569   -7.27350    3.83798        -3.333757       3.341687       0.007929
    244    2.30569   -5.76172   -3.72092        -3.850640       3.847290      -0.003349
    245    2.30569   -5.76172   -2.20914        -4.325461       4.324230      -0.001231
    246    2.30569   -5.76172   -0.69736        -4.696068       4.701180       0.005112
    247    2.30569   -5.76172    2.32620        -4.494222       4.507434       0.013212
    248    2.30569   -5.76172    3.83798        -3.986019       3.996563       0.010543
    249    2.30569   -5.76172    5.34976        -3.463758       3.472607       0.008849
    250    2.30569   -4.24994   -5.23270        -3.846153       3.840353      -0.005800
    251    2.30569   -4.24994   -3.72092        -4.576252       4.569280      -0.006972
    252    2.30569   -4.24994   -2.20914        -5.413958       5.407957      -0.006001
    253    2.30569   -4.24994    3.83798        -4.833873       4.846607       0.012734
    254    2.30569   -4.24994    5.34976        -3.971780       3.982108       0.010328
    255    2.30569   -4.24994    6.86154        -3.318719       3.326942       0.008223
    256    2.30569   -2.73816   -6.74448        -3.526995       3.521038      -0.005958
    257    2.30569   -2.73816   -5.23270        -4.308588       4.301426      -0.007162
    258    2.30569   -2.73816   -3.72092        -5.395180       5.386041      -0.009139
    259    2.30569   -2.73816   -2.20914        -6.814301       6.804398      -0.009903
    260    2.30569   -2.73816    5.34976        -4.458513       4.470280       0.011767
    261    2.30569   -2.73816    6.86154        -3.582731       3.591558       0.008828
    262    2.30569   -1.22638   -6.74448        -3.697235       3.690370      -0.006865
    263    2.30569   -1.22638   -5.23270        -4.640762       4.634082      -0.006680
    264    2.30569   -1.22638    6.86154        -3.724985       3.733794       0.008809
    265    2.30569   -1.22638    8.37332        -3.065313       3.071557       0.006244
    266    2.30569    0.28540   -6.74448        -3.708044       3.700070      -0.007974
    267    2.30569    0.28540   -5.23270        -4.670706       4.661398      -0.009308
    268    2.30569    0.28540    6.86154        -3.689692       3.697048       0.007356
    269    2.30569    0.28540    8.37332        -3.047776       3.053042       0.005266
    270    2.30569    1.79718   -6.74448        -3.551319       3.542690      -0.008629
    271    2.30569    1.79718   -5.23270        -4.368787       4.356522      -0.012265
    272    2.30569    1.79718   -3.72092        -5.545516       5.527646      -0.017870
    273    2.30569    1.79718    5.34976        -4.270853       4.276725       0.005872
    274    2.30569    1.79718    6.86154        -3.494937       3.499643       0.004706
    275    2.30569    3.30897   -5.23270        -3.894884       3.884239      -0.010645
    276    2.30569    3.30897   -3.72092        -4.669768       4.656952      -0.012816
    277    2.30569    3.30897    2.32620        -5.221159       5.216740      -0.004418
    278    2.30569    3.30897    3.83798        -4.468809       4.468052      -0.000756
    279    2.30569    3.30897    5.34976        -3.779147       3.780777       0.001630
[...]
    305    3.81747   -4.24994   -5.23270        -3.791283       3.782052      -0.009230
    306    3.81747   -4.24994   -3.72092        -4.509971       4.497234      -0.012737
    307    3.81747   -4.24994   -2.20914        -5.349759       5.335239      -0.014520
    308    3.81747   -4.24994   -0.69736        -6.109646       6.106044      -0.003602
    309    3.81747   -4.24994    3.83798        -4.744571       4.762144       0.017574
    310    3.81747   -4.24994    5.34976        -3.925619       3.938646       0.013027
    311    3.81747   -2.73816   -6.74448        -3.469333       3.460269      -0.009063
    312    3.81747   -2.73816   -5.23270        -4.213600       4.199468      -0.014132
    313    3.81747   -2.73816   -3.72092        -5.263319       5.238586      -0.024732
    314    3.81747   -2.73816    3.83798        -5.630884       5.653608       0.022723
    315    3.81747   -2.73816    5.34976        -4.384451       4.399011       0.014560
    316    3.81747   -2.73816    6.86154        -3.546198       3.556322       0.010124
    317    3.81747   -1.22638   -6.74448        -3.619098       3.608135      -0.010963
    318    3.81747   -1.22638   -5.23270        -4.486588       4.468450      -0.018139
    319    3.81747   -1.22638   -3.72092        -5.806365       5.770509      -0.035856
    320    3.81747   -1.22638    5.34976        -4.648011       4.662315       0.014304
    321    3.81747   -1.22638    6.86154        -3.680011       3.689466       0.009455
    322    3.81747    0.28540   -6.74448        -3.619288       3.607419      -0.011869
    323    3.81747    0.28540   -5.23270        -4.483640       4.464063      -0.019577
    324    3.81747    0.28540   -3.72092        -5.775798       5.738842      -0.036956
    325    3.81747    0.28540    5.34976        -4.564174       4.574324       0.010150
    326    3.81747    0.28540    6.86154        -3.643301       3.650575       0.007274
    327    3.81747    1.79718   -6.74448        -3.468506       3.457053      -0.011454
    328    3.81747    1.79718   -5.23270        -4.204828       4.187040      -0.017787
    329    3.81747    1.79718   -3.72092        -5.205403       5.176179      -0.029224
    330    3.81747    1.79718   -2.20914        -6.453380       6.408593      -0.044786
    331    3.81747    1.79718    2.32620        -6.419206       6.404402      -0.014804
    332    3.81747    1.79718    3.83798        -5.196555       5.196365      -0.000190
    333    3.81747    1.79718    5.34976        -4.193418       4.197410       0.003991
    334    3.81747    1.79718    6.86154        -3.454075       3.458434       0.004360
    335    3.81747    3.30897   -5.23270        -3.776328       3.762425      -0.013903
    336    3.81747    3.30897   -3.72092        -4.453698       4.434567      -0.019131
    337    3.81747    3.30897   -2.20914        -5.159878       5.136593      -0.023285
    338    3.81747    3.30897   -0.69736        -5.629080       5.605318      -0.023762
    339    3.81747    3.30897    0.81442        -5.571602       5.551305      -0.020297
    340    3.81747    3.30897    2.32620        -5.057427       5.045952      -0.011476
    341    3.81747    3.30897    3.83798        -4.374229       4.370613      -0.003616
    342    3.81747    3.30897    5.34976        -3.723414       3.723921       0.000507
    343    3.81747    4.82075   -3.72092        -3.759325       3.747239      -0.012086
    344    3.81747    4.82075   -2.20914        -4.156461       4.143667      -0.012794
    345    3.81747    4.82075   -0.69736        -4.388395       4.376351      -0.012044
    346    3.81747    4.82075    0.81442        -4.354874       4.344499      -0.010374
    347    3.81747    4.82075    2.32620        -4.084402       4.077267      -0.007135
    348    3.81747    6.33253   -2.20914        -3.426635       3.418448      -0.008187
    349    3.81747    6.33253   -0.69736        -3.553753       3.546180      -0.007573
    350    3.81747    6.33253    0.81442        -3.536349       3.529891      -0.006457
    351    5.32925   -7.27350   -0.69736        -3.526633       3.530388       0.003755
    352    5.32925   -7.27350    0.81442        -3.546741       3.554499       0.007758
    353    5.32925   -7.27350    2.32620        -3.416443       3.426435       0.009991
    354    5.32925   -5.76172   -2.20914        -4.044276       4.040647      -0.003630
    355    5.32925   -5.76172   -0.69736        -4.339685       4.343293       0.003609
    356    5.32925   -5.76172    0.81442        -4.382041       4.395061       0.013020
    357    5.32925   -5.76172    2.32620        -4.139954       4.157124       0.017170
    358    5.32925   -5.76172    3.83798        -3.730321       3.745665       0.015344
    359    5.32925   -4.24994   -3.72092        -4.241237       4.226711      -0.014526
    360    5.32925   -4.24994   -2.20914        -4.970046       4.954266      -0.015780
    361    5.32925   -4.24994   -0.69736        -5.587564       5.585955      -0.001610
    362    5.32925   -4.24994    2.32620        -5.151157       5.186806       0.035649
    363    5.32925   -4.24994    3.83798        -4.400954       4.425404       0.024450
    364    5.32925   -4.24994    5.34976        -3.714728       3.730368       0.015640
    365    5.32925   -2.73816   -5.23270        -3.965072       3.948138      -0.016934
    366    5.32925   -2.73816   -3.72092        -4.879093       4.849284      -0.029809
    367    5.32925   -2.73816    3.83798        -5.096709       5.132019       0.035310
    368    5.32925   -2.73816    5.34976        -4.095678       4.113784       0.018106
    369    5.32925   -2.73816    6.86154        -3.383195       3.394349       0.011154
    370    5.32925   -1.22638   -5.23270        -4.181366       4.159096      -0.022270
    371    5.32925   -1.22638   -3.72092        -5.310174       5.264775      -0.045399
    372    5.32925   -1.22638    3.83798        -5.516299       5.547338       0.031039
    373    5.32925   -1.22638    5.34976        -4.301766       4.317664       0.015898
    374    5.32925   -1.22638    6.86154        -3.496966       3.506973       0.010007
    375    5.32925    0.28540   -5.23270        -4.160996       4.137614      -0.023382
    376    5.32925    0.28540   -3.72092        -5.238001       5.192262      -0.045739
    377    5.32925    0.28540    3.83798        -5.352515       5.362655       0.010139
    378    5.32925    0.28540    5.34976        -4.233428       4.242784       0.009356
    379    5.32925    0.28540    6.86154        -3.464315       3.471526       0.007211
    380    5.32925    1.79718   -3.72092        -4.737917       4.703870      -0.034047
    381    5.32925    1.79718   -2.20914        -5.768627       5.709894      -0.058733
    382    5.32925    1.79718    2.32620        -5.771343       5.748598      -0.022744
    383    5.32925    1.79718    3.83798        -4.761583       4.759264      -0.002319
    384    5.32925    1.79718    5.34976        -3.934293       3.937492       0.003199
    385    5.32925    1.79718    6.86154        -3.299879       3.303939       0.004060
    386    5.32925    3.30897   -3.72092        -4.113210       4.091020      -0.022189
    387    5.32925    3.30897   -2.20914        -4.684721       4.654612      -0.030109
    388    5.32925    3.30897   -0.69736        -5.077994       5.043344      -0.034649
    389    5.32925    3.30897    0.81442        -5.063768       5.035441      -0.028326
    390    5.32925    3.30897    2.32620        -4.658295       4.643323      -0.014971
    391    5.32925    3.30897    3.83798        -4.091385       4.086407      -0.004978
    392    5.32925    3.30897    5.34976        -3.535415       3.535282      -0.000132
    393    5.32925    4.82075   -2.20914        -3.866590       3.850101      -0.016489
    394    5.32925    4.82075   -0.69736        -4.065696       4.048841      -0.016855
    395    5.32925    4.82075    0.81442        -4.053077       4.038984      -0.014092
    396    6.84103   -7.27350    0.81442        -3.278270       3.286336       0.008067
    397    6.84103   -5.76172   -2.20914        -3.676358       3.674722      -0.001635
    398    6.84103   -5.76172   -0.69736        -3.897313       3.903129       0.005816
    399    6.84103   -5.76172    0.81442        -3.922840       3.937383       0.014543
    400    6.84103   -5.76172    2.32620        -3.736856       3.754778       0.017922
    401    6.84103   -5.76172    3.83798        -3.419157       3.434795       0.015637
    402    6.84103   -4.24994   -3.72092        -3.826673       3.815499      -0.011174
    403    6.84103   -4.24994   -2.20914        -4.360321       4.351947      -0.008374
    404    6.84103   -4.24994   -0.69736        -4.775915       4.784102       0.008187
    405    6.84103   -4.24994    2.32620        -4.466025       4.504150       0.038125
    406    6.84103   -4.24994    3.83798        -3.927089       3.952491       0.025402
    407    6.84103   -4.24994    5.34976        -3.404474       3.420358       0.015884
    408    6.84103   -2.73816   -3.72092        -4.290811       4.269004      -0.021807
    409    6.84103   -2.73816   -2.20914        -5.156047       5.130082      -0.025965
    410    6.84103   -2.73816    3.83798        -4.418834       4.455924       0.037090
    411    6.84103   -2.73816    5.34976        -3.695018       3.713546       0.018528
    412    6.84103   -1.22638   -5.23270        -3.767174       3.747814      -0.019360
    413    6.84103   -1.22638   -3.72092        -4.579662       4.546986      -0.032676
    414    6.84103   -1.22638    3.83798        -4.695698       4.729310       0.033612
    415    6.84103   -1.22638    5.34976        -3.846105       3.862406       0.016301
    416    6.84103    0.28540   -5.23270        -3.744643       3.723991      -0.020651
    417    6.84103    0.28540   -3.72092        -4.520821       4.485904      -0.034917
    418    6.84103    0.28540    3.83798        -4.587575       4.600926       0.013351
    419    6.84103    0.28540    5.34976        -3.796244       3.805909       0.009666
    420    6.84103    1.79718   -3.72092        -4.163691       4.135306      -0.028385
    421    6.84103    1.79718   -2.20914        -4.862513       4.820164      -0.042349
    422    6.84103    1.79718   -0.69736        -5.431647       5.380549      -0.051099
    423    6.84103    1.79718    0.81442        -5.430195       5.393884      -0.036311
    424    6.84103    1.79718    2.32620        -4.874680       4.862720      -0.011960
    425    6.84103    1.79718    3.83798        -4.187333       4.187413       0.000080
    426    6.84103    1.79718    5.34976        -3.573530       3.576993       0.003463
    427    6.84103    3.30897   -2.20914        -4.121719       4.095957      -0.025762
    428    6.84103    3.30897   -0.69736        -4.404078       4.376195      -0.027884
    429    6.84103    3.30897    0.81442        -4.401309       4.379262      -0.022047
    430    6.84103    3.30897    2.32620        -4.117831       4.106079      -0.011752
    431    8.35281   -5.76172   -0.69736        -3.413165       3.419085       0.005919
    432    8.35281   -5.76172    0.81442        -3.427979       3.439995       0.012016
    433    8.35281   -5.76172    2.32620        -3.298556       3.313075       0.014519
    434    8.35281   -5.76172    3.83798        -3.070587       3.083735       0.013148
    435    8.35281   -4.24994   -2.20914        -3.714264       3.711670      -0.002594
    436    8.35281   -4.24994   -0.69736        -3.957356       3.965923       0.008567
    437    8.35281   -4.24994    0.81442        -3.982863       4.004994       0.022131
    438    8.35281   -4.24994    2.32620        -3.770858       3.796036       0.025178
    439    8.35281   -4.24994    3.83798        -3.426466       3.445880       0.019414
    440    8.35281   -4.24994    5.34976        -3.058700       3.072065       0.013365
    441    8.35281   -2.73816   -3.72092        -3.669501       3.657142      -0.012359
    442    8.35281   -2.73816   -2.20914        -4.157482       4.148664      -0.008818
    443    8.35281   -2.73816   -0.69736        -4.535286       4.545130       0.009844
    444    8.35281   -2.73816    2.32620        -4.236827       4.276943       0.040116
    445    8.35281   -2.73816    3.83798        -3.741095       3.766076       0.024981
    446    8.35281   -2.73816    5.34976        -3.266483       3.281505       0.015022
    447    8.35281   -1.22638   -3.72092        -3.841798       3.823608      -0.018191
    448    8.35281   -1.22638   -2.20914        -4.427692       4.409338      -0.018354
    449    8.35281   -1.22638   -0.69736        -4.907548       4.907083      -0.000465
    450    8.35281   -1.22638    3.83798        -3.907153       3.929303       0.022150
    451    8.35281   -1.22638    5.34976        -3.371207       3.384423       0.013216
    452    8.35281    0.28540   -3.72092        -3.805379       3.784567      -0.020813
    453    8.35281    0.28540   -2.20914        -4.355440       4.330647      -0.024793
    454    8.35281    0.28540   -0.69736        -4.784109       4.766051      -0.018057
    455    8.35281    0.28540    0.81442        -4.801989       4.802579       0.000589
    456    8.35281    0.28540    2.32620        -4.395173       4.406608       0.011435
    457    8.35281    0.28540    3.83798        -3.847699       3.858723       0.011024
    458    8.35281    0.28540    5.34976        -3.338281       3.346627       0.008346
    459    8.35281    1.79718   -2.20914        -4.000659       3.977480      -0.023179
    460    8.35281    1.79718   -0.69736        -4.291904       4.269832      -0.022072
    461    8.35281    1.79718    0.81442        -4.297275       4.283913      -0.013362
    462    8.35281    1.79718    2.32620        -4.015819       4.012395      -0.003424
    463    8.35281    1.79718    3.83798        -3.602589       3.604459       0.001870
    464    8.35281    3.30897   -0.69736        -3.736660       3.719483      -0.017177
    465    8.35281    3.30897    0.81442        -3.737582       3.724694      -0.012888
    466    8.35281    3.30897    2.32620        -3.558885       3.552027      -0.006859
    467    9.86459   -5.76172    0.81442        -2.977758       2.985984       0.008226
    468    9.86459   -4.24994   -2.20914        -3.159592       3.159063      -0.000529
    469    9.86459   -4.24994   -0.69736        -3.299483       3.304939       0.005456
    470    9.86459   -4.24994    0.81442        -3.311301       3.322982       0.011681
    471    9.86459   -4.24994    2.32620        -3.188599       3.202720       0.014122
    472    9.86459   -4.24994    3.83798        -2.974816       2.987446       0.012629
    473    9.86459   -2.73816   -2.20914        -3.409527       3.406246      -0.003281
    474    9.86459   -2.73816   -0.69736        -3.593610       3.598342       0.004732
    475    9.86459   -2.73816    0.81442        -3.608545       3.622467       0.013922
    476    9.86459   -2.73816    2.32620        -3.444100       3.461135       0.017035
    477    9.86459   -2.73816    3.83798        -3.171309       3.185624       0.014315
    478    9.86459   -1.22638   -2.20914        -3.545450       3.537942      -0.007507
    479    9.86459   -1.22638   -0.69736        -3.755224       3.755322       0.000098
    480    9.86459   -1.22638    0.81442        -3.769271       3.779265       0.009994
    481    9.86459   -1.22638    2.32620        -3.577517       3.591675       0.014157
    482    9.86459   -1.22638    3.83798        -3.270454       3.282761       0.012307
    483    9.86459    0.28540   -2.20914        -3.511534       3.500293      -0.011241
    484    9.86459    0.28540   -0.69736        -3.708167       3.701671      -0.006496
    485    9.86459    0.28540    0.81442        -3.717139       3.718147       0.001008
    486    9.86459    0.28540    2.32620        -3.533224       3.539296       0.006072
    487    9.86459    0.28540    3.83798        -3.239190       3.246241       0.007051
    488    9.86459    1.79718   -0.69736        -3.482708       3.472669      -0.010039
    489    9.86459    1.79718    0.81442        -3.487056       3.481741      -0.005315
    490    9.86459    1.79718    2.32620        -3.337921       3.337241      -0.000680
    491   11.37637   -2.73816    0.81442        -2.976001       2.982123       0.006121
    492   11.37637   -2.73816    2.32620        -2.885285       2.893512       0.008226
    493   11.37637   -1.22638   -0.69736        -3.054735       3.054614      -0.000121
    494   11.37637   -1.22638    0.81442        -3.060852       3.064829       0.003977
    495   11.37637   -1.22638    2.32620        -2.960765       2.967242       0.006477

 NET CHARGES:
 -------------------------------------
 ATOM                CHARGE    E.S.D.
 -------------------------------------
 C                  -0.2722    0.2530
 H                   0.0876    0.0183
 C                   0.3640    0.1840
 O                  -0.6236    0.0184
 H                  -0.0374    0.0163
 H                  -0.0367    0.0165
 H                   0.3764    0.0052
 H                   0.0538    0.0207
 H                   0.0882    0.0169
 -------------------------------------

 RMS DEVIATION IS            0.778 KCAL/MOLE
 RELATIVE RMS DEVIATION IS   9.904 %

 MULTIPOLE MOMENTS:
 ---------------------------------------------------------
 STATUS  ACTUAL VALUE       QUANTITY        FITTED VALUE 
 ---------------------------------------------------------
 FIXED       0.0000       TOTAL CHARGE         0.0000
             1.6845 D    DIPOLE MOMENT         1.6601 D
 FREE       -0.2975 D          DX             -0.2998 D
 FREE       -0.9457 D          DY             -0.9322 D
 FREE        1.3619 D          DZ              1.3406 D
 FREE        0.0000 BU         QXX             0.9192 BU
 FREE        0.0000 BU         QYY            -0.4930 BU
 FREE        0.0000 BU         QZZ            -0.4262 BU
 FREE        0.0000 BU         QXY            -2.5246 BU
 FREE        0.0000 BU         QXZ             3.1350 BU
 FREE        0.0000 BU         QYZ            -1.2458 BU
 ---------------------------------------------------------
 ...... END OF PROPERTY EVALUATION ......
 CPU     0: STEP CPU TIME=     0.04 TOTAL CPU TIME=          2.1 (      0.0 MIN)
 TOTAL WALL CLOCK TIME=          2.9 SECONDS, CPU UTILIZATION IS    71.63%
               580000  WORDS OF DYNAMIC MEMORY USED
 EXECUTION OF GAMESS TERMINATED NORMALLY Sun May 17 16:16:44 2020
 DDI: 263640 bytes (0.3 MB / 0 MWords) used by master data server.
Note: The following floating-point exceptions are signalling: IEEE_UNDERFLOW_FLAGNote: The following floating-point exceptions are signalling: IEEE_UNDERFLOW_FLAGNote: The following floating-point exceptions are signalling: IEEE_UNDERFLOW_FLAGNote: The following floating-point exceptions are signalling: IEEE_DENORMAL

 ----------------------------------------
 CPU timing information for all processes
 ========================================
 0: 1.870 + 0.211 = 2.81
 1: 1.646 + 0.47 = 1.694
 2: 1.519 + 0.27 = 1.547
 3: 1.946 + 0.28 = 1.974
 4: 1.598 + 0.32 = 1.630
 5: 1.573 + 0.16 = 1.589
 ----------------------------------------
 IEEE_DENORMAL
 IEEE_DENORMAL
 IEEE_UNDERFLOW_FLAG IEEE_DENORMALNote: The following floating-point exceptions are signalling: IEEE_UNDERFLOW_FLAGNote: The following floating-point exceptions are signalling: IEEE_UNDERFLOW_FLAG
 IEEE_DENORMAL
 IEEE_DENORMAL
 ddikick.x: exited gracefully.
unset echo
----- accounting info -----
Files used on the master node pietdev were:
-rwxr-xr-x 1 piet piet      715 mei 17 16:16 /home/piet/scr/serine_charge_chelpg.F05*
-rw-r--r-- 1 piet piet 50790400 mei 17 16:16 /home/piet/scr/serine_charge_chelpg.F10
ls: No match.
ls: No match.
ls: No match.
zo 17 mei 2020 16:16:47 CEST
0.096u 0.027s 0:06.01 1.8%	0+0k 0+8io 0pf+0w
