----- GAMESS execution script 'rungms' -----
This job is running on host pietdev
under operating system Linux at zo 17 mei 2020 16:17:03 CEST
Available scratch disk space (Kbyte units) at beginning of the job is
Filesystem     1K-blocks     Used Available Use% Mounted on
/dev/sda2      244568380 30392188 201683136  14% /
GAMESS temporary binary files will be written to /home/piet/scr
GAMESS supplementary output files will be written to /home/piet/gamess/scr
Copying input file serine_fukui_acid.inp to your run's scratch directory...
cp serine_fukui_acid.inp /home/piet/scr/serine_fukui_acid.F05
unset echo
 
Assuming a single but multicore node.
 
/home/piet/gamess/ddikick.x /home/piet/gamess/gamess.03.x serine_fukui_acid -ddi 1 6 pietdev:cpus=6 -scr /home/piet/scr

 Distributed Data Interface kickoff program.
 Initiating 6 compute processes on 1 nodes to run the following command:
 /home/piet/gamess/gamess.03.x serine_fukui_acid 

          ******************************************************
          *         GAMESS VERSION = 30 SEP 2019 (R2)          *
          *             FROM IOWA STATE UNIVERSITY             *
          * M.W.SCHMIDT, K.K.BALDRIDGE, J.A.BOATZ, S.T.ELBERT, *
          *   M.S.GORDON, J.H.JENSEN, S.KOSEKI, N.MATSUNAGA,   *
          *          K.A.NGUYEN, S.J.SU, T.L.WINDUS,           *
          *       TOGETHER WITH M.DUPUIS, J.A.MONTGOMERY       *
          *         J.COMPUT.CHEM.  14, 1347-1363(1993)        *
          **************** 64 BIT LINUX VERSION ****************

  SINCE 1993, STUDENTS AND POSTDOCS WORKING AT IOWA STATE UNIVERSITY
  AND ALSO IN THEIR VARIOUS JOBS AFTER LEAVING ISU HAVE MADE IMPORTANT
  CONTRIBUTIONS TO THE CODE:
     IVANA ADAMOVIC, CHRISTINE AIKENS, YURI ALEXEEV, POOJA ARORA,
     ANDREY ASADCHEV, ROB BELL, PRADIPTA BANDYOPADHYAY, JONATHAN BENTZ,
     COLLEEN BERTONI, BRETT BODE, KURT BRORSEN, CALEB CARLIN, GALINA CHABAN,
     WEI CHEN, CHEOL HO CHOI, PAUL DAY, ALBERT DEFUSCO, NUWAN DESILVA,
     TIM DUDLEY, DMITRI FEDOROV, ALEX FINDLATER, GRAHAM FLETCHER, 
     MARK FREITAG, KURT GLAESEMANN, EMILIE B GUIDEZ, ANASTASIA GUNINA, 
     DAN KEMP, SAROM SOK LEANG, GRANT MERRILL,
     NORIYUKI MINEZAWA, JONATHAN MULLIN,
     TAKESHI NAGATA, SEAN NEDD, HEATHER NETZLOFF, BOSILJKA NJEGIC, RYAN OLSON,
     MIKE PAK, BUU PHAM, DAVID POOLE,
     SPENCER PRUITT, LUKE ROSKOP, TOSAPORN SATTASATHUCHANA,
     JIM SHOEMAKER, LYUDMILA SLIPCHENKO,
     TONY SMITH, JIE SONG, TETSUYA TAKETSUGU, SIMON WEBB,
     JORGE LUIS GALVEZ VALLEJO, PENG XU, SOOHAENG YOO,
     FEDERICO ZAHARIEV

  ADDITIONAL CODE HAS BEEN PROVIDED BY COLLABORATORS IN OTHER GROUPS:
     IOWA STATE UNIVERSITY:
          JOE IVANIC, AARON WEST, LAIMUTIS BYTAUTAS, KLAUS RUEDENBERG
     UNIVERSITY OF TOKYO: KIMIHIKO HIRAO, TAKAHITO NAKAJIMA,
          TAKAO TSUNEDA, MUNEAKI KAMIYA, SUSUMU YANAGISAWA,
          KIYOSHI YAGI, MAHITO CHIBA, SEIKEN TOKURA, NAOAKI KAWAKAMI
     UNIVERSITY OF AARHUS: FRANK JENSEN
     UNIVERSITY OF IOWA: VISVALDAS KAIRYS, HUI LI
     NATIONAL INST. OF STANDARDS AND TECHNOLOGY: WALT STEVENS, DAVID GARMER
     UNIVERSITY OF PISA: BENEDETTA MENNUCCI, JACOPO TOMASI
     UNIVERSITY OF MEMPHIS: HENRY KURTZ, PRAKASHAN KORAMBATH
     UNIVERSITY OF ALBERTA: TOBY ZENG, MARIUSZ KLOBUKOWSKI
     UNIVERSITY OF NEW ENGLAND: MARK SPACKMAN
     MIE UNIVERSITY: HIROAKI UMEDA
     NAT. INST. OF ADVANCED INDUSTRIAL SCIENCE AND TECHNOLOGY: KAZUO KITAURA
     MICHIGAN STATE UNIVERSITY:
          KAROL KOWALSKI, MARTA WLOCH, JEFFREY GOUR, JESSE LUTZ,
          WEI LI, JUN SHEN, J. EMILIANO DEUSTUA, PIOTR PIECUCH
     UNIVERSITY OF MINNESOTA:
          ANDREW SAND, PRACHI SHARMA, YINAN SHU
     UNIVERSITY OF SILESIA: MONIKA MUSIAL, STANISLAW KUCHARSKI
     FACULTES UNIVERSITAIRES NOTRE-DAME DE LA PAIX:
          OLIVIER QUINET, BENOIT CHAMPAGNE
     UNIVERSITY OF CALIFORNIA - SANTA BARBARA: BERNARD KIRTMAN
     INSTITUTE FOR MOLECULAR SCIENCE:
          KAZUYA ISHIMURA, MICHIO KATOUDA, AND SHIGERU NAGASE
     UNIVERSITY OF NOTRE DAME: ANNA POMOGAEVA, DAN CHIPMAN
     KYUSHU UNIVERSITY:
          HARUYUKI NAKANO,
          FENG LONG GU, JACEK KORCHOWIEC, MARCIN MAKOWSKI, AND YURIKO AOKI,
          HIROTOSHI MORI AND EISAKU MIYOSHI
     PENNSYLVANIA STATE UNIVERSITY:
          TZVETELIN IORDANOV, CHET SWALINA, JONATHAN SKONE,
          SHARON HAMMES-SCHIFFER
     WASEDA UNIVERSITY:
          MASATO KOBAYASHI, TOMOKO AKAMA, TSUGUKI TOUMA,
          TAKESHI YOSHIKAWA, YASUHIRO IKABATA, JUNJI SEINO,
          YUYA NAKAJIMA, HIROMI NAKAI
     NANJING UNIVERSITY: SHUHUA LI
     UNIVERSITY OF NEBRASKA:
          PEIFENG SU, DEJUN SI, NANDUN THELLAMUREGE, YALI WANG, HUI LI
     UNIVERSITY OF ZURICH: ROBERTO PEVERATI, KIM BALDRIDGE
     N. COPERNICUS UNIVERSITY AND JACKSON STATE UNIVERSITY:
          MARIA BARYSZ
     UNIVERSITY OF COPENHAGEN: Jimmy Kromann, CASPER STEINMANN
     TOKYO INSTITUTE OF TECHNOLOGY: HIROYA NAKATA
     NAGOYA UNIVERSITY: YOSHIO NISHIMOTO, STEPHAN IRLE
     MOSCOW STATE UNIVERSITY: VLADIMIR MIRONOV
     A.N.NESMEYANOV INSTITUTE OF ORGANOELEMENT COMPOUNDS OF RUSSIAN ACADEMY OF SCIENCES:
          IGOR S. GERASIMOV
     JOHANNES KEPLER UNIVERSITY LINZ:
          CHRISTIAN FRIEDL


 PARALLEL VERSION RUNNING ON        6 PROCESSORS IN        1 NODES.

 EXECUTION OF GAMESS BEGUN Sun May 17 16:17:03 2020

            ECHO OF THE FIRST FEW INPUT CARDS -
 INPUT CARD> $BASIS GBASIS=N21 NGAUSS=3 $END                                                
 INPUT CARD> $CONTRL SCFTYP=UHF MAXIT=60 MULT=2 ICHARG=-1 $END                              
 INPUT CARD> $SYSTEM MEMDDI=1000 MWORDS=30 $END                                             
 INPUT CARD> $SCF DIRSCF=.TRUE. $END                                                        
 INPUT CARD> $STATPT OPTTOL=0.0001 NSTEP=999 $END                                           
 INPUT CARD> $DATA                                                                          
 INPUT CARD>                                                                                
 INPUT CARD>C1                                                                              
 INPUT CARD>C 6.0000000 0.2805690038 0.1438665882 -0.4388404043                             
 INPUT CARD>H 1.0000000 0.3825655519 -0.2345775192 -1.4601278082                            
 INPUT CARD>C 6.0000000 1.2157968055 -0.6319726227 0.4894628367                             
 INPUT CARD>O 8.0000000 2.5648039133 -0.4036035406 -0.0281432026                            
 INPUT CARD>H 1.0000000 1.1018531151 -0.2654062752 1.5220733357                             
 INPUT CARD>H 1.0000000 0.9455256931 -1.6998167023 0.4812035085                             
 INPUT CARD>H 1.0000000 3.2009217625 -0.8942086388 0.5599140712                             
 INPUT CARD>H 1.0000000 -0.7606856703 0.0408134079 -0.1161437476                            
 INPUT CARD>H 1.0000000 0.5585298251 1.2018753027 -0.4323485893                             
 INPUT CARD> $END                                                                           
   30000000 WORDS OF MEMORY AVAILABLE

     BASIS OPTIONS
     -------------
     GBASIS=N21          IGAUSS=       3      POLAR=NONE    
     NDFUNC=       0     NFFUNC=       0     DIFFSP=       F
     NPFUNC=       0      DIFFS=       F     BASNAM=        


     RUN TITLE
     ---------
                                                                                 

 THE POINT GROUP OF THE MOLECULE IS C1      
 THE ORDER OF THE PRINCIPAL AXIS IS     0

 ATOM      ATOMIC                      COORDINATES (BOHR)
           CHARGE         X                   Y                   Z
 C           6.0     0.5301985378        0.2718684305       -0.8292881165
 H           1.0     0.7229440654       -0.4432872342       -2.7592414646
 C           6.0     2.2975228191       -1.1942550886        0.9249506425
 O           8.0     4.8467766084       -0.7627000994       -0.0531829413
 H           1.0     2.0822004663       -0.5015451355        2.8763015377
 H           1.0     1.7867844743       -3.2121877967        0.9093427754
 H           1.0     6.0488650393       -1.6898093032        1.0580841712
 H           1.0    -1.4374874797        0.0771261576       -0.2194798582
 H           1.0     1.0554683254        2.2712149935       -0.8170203650

          INTERNUCLEAR DISTANCES (ANGS.)
          ------------------------------

                1 C          2 H          3 C          4 O          5 H     

   1 C       0.0000000    1.0939155 *  1.5291581 *  2.3845597 *  2.1649930 *
   2 H       1.0939155 *  0.0000000    2.1571047 *  2.6155906 *  3.0678736  
   3 C       1.5291581 *  2.1571047 *  0.0000000    1.4628358 *  1.1016526 *
   4 O       2.3845597 *  2.6155906 *  1.4628358 *  0.0000000    2.1359997 *
   5 H       2.1649930 *  3.0678736    1.1016526 *  2.1359997 *  0.0000000  
   6 H       2.1651365 *  2.4965210 *  1.1015469 *  2.1358054 *  1.7791519 *
   7 H       3.2563125    3.5297045    2.0036098 *  0.9955655 *  2.3931636 *
   8 H       1.0949723 *  1.7858210 *  2.1739097 *  3.3562079    2.4993152 *
   9 H       1.0939318 *  1.7750184 *  2.1551646 *  2.6011690 *  2.5035735 *

                6 H          7 H          8 H          9 H     

   1 C       2.1651365 *  3.2563125    1.0949723 *  1.0939318 *
   2 H       2.4965210 *  3.5297045    1.7858210 *  1.7750184 *
   3 C       1.1015469 *  2.0036098 *  2.1739097 *  2.1551646 *
   4 O       2.1358054 *  0.9955655 *  3.3562079    2.6011690 *
   5 H       1.7791519 *  2.3931636 *  2.4993152 *  2.5035735 *
   6 H       0.0000000    2.3962494 *  2.5095366 *  3.0666202  
   7 H       2.3962494 *  0.0000000    4.1262154    3.5157344  
   8 H       2.5095366 *  4.1262154    0.0000000    1.7856035 *
   9 H       3.0666202    3.5157344    1.7856035 *  0.0000000  

  * ... LESS THAN  3.000


     ATOMIC BASIS SET
     ----------------
 THE CONTRACTED PRIMITIVE FUNCTIONS HAVE BEEN UNNORMALIZED
 THE CONTRACTED BASIS FUNCTIONS ARE NOW NORMALIZED TO UNITY

  SHELL TYPE  PRIMITIVE        EXPONENT          CONTRACTION COEFFICIENT(S)

 C         

      1   S       1           172.2560000    0.061766907377
      1   S       2            25.9109000    0.358794042852
      1   S       3             5.5333500    0.700713083689

      2   L       4             3.6649800   -0.395895162119    0.236459946619
      2   L       5             0.7705450    1.215834355681    0.860618805716

      3   L       6             0.1958570    1.000000000000    1.000000000000

 H         

      4   S       7             5.4471780    0.156284978695
      4   S       8             0.8245472    0.904690876670

      5   S       9             0.1831916    1.000000000000

 C         

      6   S      10           172.2560000    0.061766907377
      6   S      11            25.9109000    0.358794042852
      6   S      12             5.5333500    0.700713083689

      7   L      13             3.6649800   -0.395895162119    0.236459946619
      7   L      14             0.7705450    1.215834355681    0.860618805716

      8   L      15             0.1958570    1.000000000000    1.000000000000

 O         

      9   S      16           322.0370000    0.059239393389
      9   S      17            48.4308000    0.351499960776
      9   S      18            10.4206000    0.707657921031

     10   L      19             7.4029400   -0.404453583190    0.244586106967
     10   L      20             1.5762000    1.221561761397    0.853955373466

     11   L      21             0.3736840    1.000000000000    1.000000000000

 H         

     12   S      22             5.4471780    0.156284978695
     12   S      23             0.8245472    0.904690876670

     13   S      24             0.1831916    1.000000000000

 H         

     14   S      25             5.4471780    0.156284978695
     14   S      26             0.8245472    0.904690876670

     15   S      27             0.1831916    1.000000000000

 H         

     16   S      28             5.4471780    0.156284978695
     16   S      29             0.8245472    0.904690876670

     17   S      30             0.1831916    1.000000000000

 H         

     18   S      31             5.4471780    0.156284978695
     18   S      32             0.8245472    0.904690876670

     19   S      33             0.1831916    1.000000000000

 H         

     20   S      34             5.4471780    0.156284978695
     20   S      35             0.8245472    0.904690876670

     21   S      36             0.1831916    1.000000000000

 TOTAL NUMBER OF BASIS SET SHELLS             =   21
 NUMBER OF CARTESIAN GAUSSIAN BASIS FUNCTIONS =   39
 NUMBER OF ELECTRONS                          =   27
 CHARGE OF MOLECULE                           =   -1
 SPIN MULTIPLICITY                            =    2
 NUMBER OF OCCUPIED ORBITALS (ALPHA)          =   14
 NUMBER OF OCCUPIED ORBITALS (BETA )          =   13
 TOTAL NUMBER OF ATOMS                        =    9
 THE NUCLEAR REPULSION ENERGY IS       80.8150726764

     $CONTRL OPTIONS
     ---------------
 SCFTYP=UHF          RUNTYP=ENERGY       EXETYP=RUN     
 MPLEVL=       0     CITYP =NONE         CCTYP =NONE         VBTYP =NONE    
 DFTTYP=NONE         TDDFT =NONE    
 MULT  =       2     ICHARG=      -1     NZVAR =       0     COORD =UNIQUE  
 PP    =NONE         RELWFN=NONE         LOCAL =NONE         NUMGRD=       F
 ISPHER=      -1     NOSYM =       0     MAXIT =      60     UNITS =ANGS    
 PLTORB=       F     MOLPLT=       F     AIMPAC=       F     FRIEND=        
 NPRINT=       7     IREST =       0     GEOM  =INPUT   
 NORMF =       0     NORMP =       0     ITOL  =      20     ICUT  =       9
 INTTYP=BEST         GRDTYP=BEST         QMTTOL= 1.0E-06

     $SYSTEM OPTIONS
     ---------------
  REPLICATED MEMORY=    30000000 WORDS (ON EVERY NODE).
 DISTRIBUTED MEMDDI=        1000 MILLION WORDS IN AGGREGATE,
 MEMDDI DISTRIBUTED OVER   6 PROCESSORS IS   166666666 WORDS/PROCESSOR.
 TOTAL MEMORY REQUESTED ON EACH PROCESSOR=   196666666 WORDS.
 TIMLIM=      525600.00 MINUTES, OR     365.0 DAYS.
 PARALL= T  BALTYP=  DLB     KDIAG=    0  COREFL= F
 MXSEQ2=     300 MXSEQ3=     150  mem10=         0

          ----------------
          PROPERTIES INPUT
          ----------------

     MOMENTS            FIELD           POTENTIAL          DENSITY
 IEMOM =       1   IEFLD =       0   IEPOT =       0   IEDEN =       0
 WHERE =COMASS     WHERE =NUCLEI     WHERE =NUCLEI     WHERE =NUCLEI  
 OUTPUT=BOTH       OUTPUT=BOTH       OUTPUT=BOTH       OUTPUT=BOTH    
 IEMINT=       0   IEFINT=       0                     IEDINT=       0
                                                       MORB  =       0
          EXTRAPOLATION IN EFFECT
          SOSCF IN EFFECT
          DIIS or SOSCF will be reset if energy rises
 ORBITAL PRINTING OPTION: NPREO=     1    39     2     1

     -------------------------------
     INTEGRAL TRANSFORMATION OPTIONS
     -------------------------------
     NWORD  =            0
     CUTOFF = 1.0E-09     MPTRAN =       0
     DIRTRF =       T     AOINTS =DUP     

          ----------------------
          INTEGRAL INPUT OPTIONS
          ----------------------
 NOPK  =       1 NORDER=       0 SCHWRZ=       T

     ------------------------------------------
     THE POINT GROUP IS C1 , NAXIS= 0, ORDER= 1
     ------------------------------------------

     DIMENSIONS OF THE SYMMETRY SUBSPACES ARE
 A   =   39

 ..... DONE SETTING UP THE RUN .....
 CPU     0: STEP CPU TIME=     0.02 TOTAL CPU TIME=          0.0 (      0.0 MIN)
 TOTAL WALL CLOCK TIME=          0.0 SECONDS, CPU UTILIZATION IS    66.67%

          ********************
          1 ELECTRON INTEGRALS
          ********************
 ...... END OF ONE-ELECTRON INTEGRALS ......
 CPU     0: STEP CPU TIME=     0.01 TOTAL CPU TIME=          0.0 (      0.0 MIN)
 TOTAL WALL CLOCK TIME=          0.0 SECONDS, CPU UTILIZATION IS    75.00%

          -------------
          GUESS OPTIONS
          -------------
          GUESS =HUCKEL            NORB  =       0          NORDER=       0
          MIX   =       F          PRTMO =       F          PUNMO =       F
          TOLZ  = 1.0E-08          TOLE  = 1.0E-05
          SYMDEN=       F          PURIFY=       F

 INITIAL GUESS ORBITALS GENERATED BY HUCKEL   ROUTINE.
 HUCKEL GUESS REQUIRES     19284 WORDS.

 SYMMETRIES FOR INITIAL GUESS ORBITALS FOLLOW.  ALPHA SET(S).
    14 ORBITALS ARE OCCUPIED (    3 CORE ORBITALS).
     4=A        5=A        6=A        7=A        8=A        9=A       10=A   
    11=A       12=A       13=A       14=A       15=A       16=A       17=A   
    18=A       19=A       20=A       21=A       22=A       23=A       24=A   

 SYMMETRIES FOR INITIAL GUESS ORBITALS FOLLOW.   BETA SET(S).
    13 ORBITALS ARE OCCUPIED (    3 CORE ORBITALS).
     4=A        5=A        6=A        7=A        8=A        9=A       10=A   
    11=A       12=A       13=A       14=A       15=A       16=A       17=A   
    18=A       19=A       20=A       21=A       22=A       23=A   
 ...... END OF INITIAL ORBITAL SELECTION ......
 CPU     0: STEP CPU TIME=     0.02 TOTAL CPU TIME=          0.0 (      0.0 MIN)
 TOTAL WALL CLOCK TIME=          0.1 SECONDS, CPU UTILIZATION IS    83.33%

                    ----------------------
                    AO INTEGRAL TECHNOLOGY
                    ----------------------
     S,P,L SHELL ROTATED AXIS INTEGRALS, REPROGRAMMED BY
        KAZUYA ISHIMURA (IMS) AND JOSE SIERRA (SYNSTAR).
     S,P,D,L SHELL ROTATED AXIS INTEGRALS PROGRAMMED BY
        KAZUYA ISHIMURA (INSTITUTE FOR MOLECULAR SCIENCE).
     S,P,D,F,G SHELL TO TOTAL QUARTET ANGULAR MOMENTUM SUM 5,
        ERIC PROGRAM BY GRAHAM FLETCHER (ELORET AND NASA ADVANCED
        SUPERCOMPUTING DIVISION, AMES RESEARCH CENTER).
     S,P,D,F,G,L SHELL GENERAL RYS QUADRATURE PROGRAMMED BY
        MICHEL DUPUIS (PACIFIC NORTHWEST NATIONAL LABORATORY).

          --------------------
          2 ELECTRON INTEGRALS
          --------------------

 DIRECT SCF METHOD SKIPS INTEGRAL STORAGE ON DISK.
 DIRECT TRANSFORMATION SKIPS AO INTEGRAL STORAGE ON DISK.
  ...... END OF TWO-ELECTRON INTEGRALS .....
 CPU     0: STEP CPU TIME=     0.01 TOTAL CPU TIME=          0.1 (      0.0 MIN)
 TOTAL WALL CLOCK TIME=          0.1 SECONDS, CPU UTILIZATION IS    85.71%

          ---------------------------
                  UHF SCF CALCULATION
          ---------------------------

     NUCLEAR ENERGY =        80.8150726764
     MAXIT = 60     NPUNCH=  2     MULT=  2
     EXTRAP=T  DAMP=F  SHIFT=F  RSTRCT=F  DIIS=F  SOSCF=T
     DENSITY MATRIX CONV=  2.00E-05
     SOSCF WILL OPTIMIZE     350 ALPHA AND     338 BETA ROTATION ANGLES.
     SOGTOL= 2.500E-01
     MEMORY REQUIRED FOR UHF/ROHF ITERS=     65468 WORDS.

 DIRECT SCF CALCULATION, SCHWRZ=T   FDIFF=T
 SCHWARZ INEQUALITY OVERHEAD:       779 INTEGRALS, T=        0.00

                                                                                NONZERO     BLOCKS
 ITER EX      TOTAL ENERGY        E CHANGE  DENSITY CHANGE    ORB. GRAD       INTEGRALS    SKIPPED
   1  0     -152.3379544916  -152.3379544916   1.043022466   0.000000000         289009       2405
          ---------------START SECOND ORDER SCF---------------
   2  1     -152.8124246970    -0.4744702054   0.401887161   0.067858778         288872       2496
   3  2     -152.8573199855    -0.0448952885   0.523000593   0.049166533         288451       2680
   4  3     -152.8842171322    -0.0268971467   1.188525976   0.033132414         288082       2780
   5  4     -152.8918098944    -0.0075927623   0.482185593   0.073196911         288766       2481
   6  5     -152.9286770140    -0.0368671196   0.828085442   0.039980680         288454       2621
   7  6     -152.9659936647    -0.0373166506   1.050760689   0.022714100         288430       2619
   8  7     -152.9679059116    -0.0019122469   0.644970672   0.026085587         288566       2543
   9  8     -152.9813334234    -0.0134275118   0.138857258   0.007663970         288241       2676
  10  9     -152.9833774557    -0.0020440323   0.094276274   0.004829367         287028       3085
  11 10     -152.9837256801    -0.0003482244   0.018214132   0.001639126         285953       3323
  12 11     -152.9837991307    -0.0000734506   0.009796174   0.000781131         284529       3642
  13 12     -152.9838126491    -0.0000135184   0.001315345   0.000223202         283599       3908
  14 13     -152.9838144122    -0.0000017631   0.001281804   0.000115902         279701       4549
  15 14     -152.9838149574    -0.0000005452   0.000474449   0.000060617         278801       4721
  16 15     -152.9838150332    -0.0000000758   0.000142333   0.000033616         273977       5455
  17 16     -152.9838150537    -0.0000000206   0.000127665   0.000014877         270937       5900
  18 17     -152.9838150574    -0.0000000037   0.000042012   0.000009004         268431       6281
  19 18     -152.9838150583    -0.0000000009   0.000013485   0.000002904         262209       7244
  20 19     -152.9838150584    -0.0000000000   0.000010338   0.000001755         258145       7745

          -----------------
          DENSITY CONVERGED
          -----------------
     TIME TO FORM FOCK OPERATORS=       0.1 SECONDS (       0.0 SEC/ITER)
     FOCK TIME ON FIRST ITERATION=       0.0, LAST ITERATION=       0.0
     TIME TO SOLVE SCF EQUATIONS=       0.0 SECONDS (       0.0 SEC/ITER)

 FINAL UHF ENERGY IS     -152.9838150584 AFTER  20 ITERATIONS

          --------------------
          SPIN SZ   =    0.500
          S-SQUARED =    0.756
          --------------------

  ----- ALPHA SET ----- 

          ------------
          EIGENVECTORS
          ------------

                      1          2          3          4          5
                  -20.1123   -10.9746   -10.9678    -1.0430    -0.7998
                     A          A          A          A          A   
    1  C  1  S    0.000175  -0.020854   0.987304  -0.026001  -0.179714
    2  C  1  S    0.000583  -0.004664   0.101437   0.024900   0.174833
    3  C  1  X   -0.000760   0.000006  -0.000183   0.018129   0.014030
    4  C  1  Y    0.000287  -0.000012   0.000139  -0.009586  -0.018624
    5  C  1  Z   -0.000267   0.000019  -0.000161   0.010513   0.023617
    6  C  1  S   -0.005845   0.022951  -0.080325   0.053250   0.489545
    7  C  1  X   -0.002156   0.008348  -0.003341   0.015431  -0.015242
    8  C  1  Y    0.000776  -0.006974   0.002203   0.002618  -0.001300
    9  C  1  Z   -0.000824   0.008335  -0.002569  -0.005987   0.004503
   10  H  2  S    0.000400  -0.001433   0.000208   0.009039   0.096824
   11  H  2  S    0.000114   0.000997   0.014377  -0.001490   0.012367
   12  C  3  S   -0.000802   0.987389   0.020103  -0.080028  -0.105964
   13  C  3  S   -0.003268   0.101052  -0.000177   0.086454   0.105830
   14  C  3  X    0.001816  -0.000902  -0.000210   0.063059  -0.091437
   15  C  3  Y   -0.000026   0.000059   0.000030   0.013072   0.030084
   16  C  3  Z   -0.000237   0.000054  -0.000009  -0.027477  -0.027689
   17  C  3  S    0.017772  -0.078167   0.018040   0.144790   0.263586
   18  C  3  X    0.006637   0.007392  -0.006883  -0.009141  -0.041113
   19  C  3  Y    0.002789  -0.003339   0.005955  -0.001519   0.002745
   20  C  3  Z   -0.004815   0.003492  -0.007164   0.003469   0.002311
   21  O  4  S    0.983386  -0.000183   0.000038  -0.221171   0.064234
   22  O  4  S    0.097229  -0.000631   0.000009   0.212688  -0.061258
   23  O  4  X   -0.001737  -0.000471   0.000535  -0.015089  -0.048456
   24  O  4  Y   -0.001440  -0.000183  -0.000224  -0.044990   0.021749
   25  O  4  Z    0.002263   0.000326   0.000236   0.064764  -0.022912
   26  O  4  S   -0.042251   0.007874  -0.001302   0.685656  -0.229099
   27  O  4  X    0.005414  -0.003273  -0.000851  -0.036571  -0.022937
   28  O  4  Y    0.003569   0.000258   0.000651  -0.041975   0.016865
   29  O  4  Z   -0.005775   0.000128  -0.000794   0.063801  -0.019944
   30  H  5  S   -0.001181   0.000210  -0.001204   0.025808   0.055538
   31  H  5  S   -0.000876   0.014583   0.001113  -0.004344   0.000518
   32  H  6  S   -0.001179   0.000208  -0.001204   0.025814   0.055548
   33  H  6  S   -0.000861   0.014589   0.001118  -0.004349   0.000515
   34  H  7  S    0.002884  -0.000310   0.000568   0.079993  -0.043053
   35  H  7  S    0.005029   0.002241   0.001222   0.015431  -0.024084
   36  H  8  S   -0.000146  -0.001280   0.000055   0.009425   0.100568
   37  H  8  S    0.001037   0.000713   0.014027   0.001068   0.012634
   38  H  9  S    0.000393  -0.001436   0.000218   0.009106   0.096733
   39  H  9  S    0.000192   0.001020   0.014393  -0.001470   0.011994

                      6          7          8          9         10
                   -0.6100    -0.4231    -0.4149    -0.3381    -0.3029
                     A          A          A          A          A   
    1  C  1  S    0.098223   0.004888   0.000061  -0.002038   0.000086
    2  C  1  S   -0.085576  -0.003497  -0.000045   0.000449  -0.000120
    3  C  1  X    0.069115   0.234812   0.026311  -0.111701   0.022220
    4  C  1  Y   -0.076385   0.013248   0.214249  -0.161700   0.205757
    5  C  1  Z    0.094800  -0.058310   0.155424   0.241801   0.146051
    6  C  1  S   -0.368034  -0.021107  -0.000194  -0.011533  -0.000004
    7  C  1  X    0.024977   0.181861   0.021399  -0.054986   0.020851
    8  C  1  Y   -0.029369   0.014920   0.172998  -0.136449   0.192366
    9  C  1  Z    0.036747  -0.051625   0.125121   0.196833   0.136373
   10  H  2  S   -0.094133   0.044543  -0.150237  -0.136827  -0.167758
   11  H  2  S   -0.050917   0.041409  -0.136776  -0.141877  -0.180408
   12  C  3  S   -0.156358  -0.019099  -0.000206   0.004790   0.000049
   13  C  3  S    0.147362   0.013624   0.000171  -0.008705  -0.000038
   14  C  3  X   -0.036934   0.088316   0.022215  -0.061403  -0.019618
   15  C  3  Y   -0.054875   0.104243   0.198788   0.106611  -0.192974
   16  C  3  Z    0.081063  -0.162006   0.141183  -0.141003  -0.137523
   17  C  3  S    0.520894   0.072490   0.000687  -0.016242  -0.000071
   18  C  3  X   -0.065815   0.070695   0.015817  -0.028326  -0.019893
   19  C  3  Y   -0.020023   0.081113   0.141382   0.091578  -0.191183
   20  C  3  Z    0.037404  -0.126102   0.100417  -0.124994  -0.136496
   21  O  4  S    0.051234  -0.004379  -0.000008  -0.038584   0.000170
   22  O  4  S   -0.049029  -0.002949  -0.000069   0.028940  -0.000151
   23  O  4  X   -0.079836  -0.198432   0.007219  -0.062853  -0.014398
   24  O  4  Y   -0.002135   0.103648   0.088313   0.101530  -0.133823
   25  O  4  Z    0.014656  -0.115820   0.061667  -0.133497  -0.095552
   26  O  4  S   -0.203048   0.019107   0.000100   0.176697  -0.000692
   27  O  4  X   -0.061020  -0.174562   0.007157  -0.051936  -0.015039
   28  O  4  Y   -0.002770   0.097442   0.085669   0.102528  -0.139260
   29  O  4  Z    0.012748  -0.110688   0.059895  -0.136581  -0.099379
   30  H  5  S    0.130805  -0.062044   0.126961  -0.070256  -0.143529
   31  H  5  S    0.055524  -0.055616   0.122124  -0.074176  -0.157229
   32  H  6  S    0.130936  -0.059051  -0.128568  -0.068131   0.144885
   33  H  6  S    0.055612  -0.052718  -0.123731  -0.072055   0.158731
   34  H  7  S   -0.040350  -0.130725  -0.001359  -0.080484   0.000045
   35  H  7  S   -0.032815  -0.140381  -0.001483  -0.101613  -0.000026
   36  H  8  S   -0.082172  -0.174028   0.000419   0.160385   0.002041
   37  H  8  S   -0.048487  -0.172930   0.000584   0.209302   0.002499
   38  H  9  S   -0.094118   0.044765   0.148646  -0.139028   0.167263
   39  H  9  S   -0.051020   0.041566   0.134873  -0.143277   0.179304

                     11         12         13         14         15
                   -0.2772    -0.2205    -0.1485     0.2096     0.4643
                     A          A          A          A          A   
    1  C  1  S    0.026435  -0.029290   0.000191   0.013714  -0.137611
    2  C  1  S   -0.024043   0.023305  -0.000044  -0.015230   0.019789
    3  C  1  X   -0.228314   0.088976   0.000843   0.014320  -0.116104
    4  C  1  Y    0.092845  -0.084653   0.014435  -0.005504   0.058813
    5  C  1  Z   -0.094607   0.103652   0.010246   0.005107  -0.065869
    6  C  1  S   -0.121102   0.205201  -0.001788  -0.103507   1.977637
    7  C  1  X   -0.186264   0.033323  -0.006688   0.198671  -0.335223
    8  C  1  Y    0.087913  -0.099246  -0.046712  -0.035069   0.307662
    9  C  1  Z   -0.094346   0.133902  -0.033395   0.017709  -0.386917
   10  H  2  S   -0.000326  -0.026955  -0.020940  -0.030013  -0.013905
   11  H  2  S    0.010482  -0.070559  -0.088494  -0.020871  -0.972371
   12  C  3  S   -0.010078  -0.019986   0.000021   0.015600  -0.059662
   13  C  3  S    0.008812   0.029636  -0.000029   0.017491   0.023349
   14  C  3  X    0.292862   0.074335  -0.012367   0.136469   0.011615
   15  C  3  Y   -0.071105   0.121512  -0.115917   0.044728  -0.042723
   16  C  3  Z    0.055789  -0.179940  -0.083618  -0.083601   0.056752
   17  C  3  S    0.060702   0.027373  -0.000006  -0.439674   0.763516
   18  C  3  X    0.240828   0.093675   0.002304   0.327305   0.015113
   19  C  3  Y   -0.047039   0.047536   0.021299   0.100037  -0.208407
   20  C  3  Z    0.030189  -0.080848   0.015093  -0.193084   0.286270
   21  O  4  S    0.007723   0.065806   0.000059   0.096751   0.013733
   22  O  4  S   -0.016104  -0.049757  -0.000068  -0.046953  -0.000491
   23  O  4  X   -0.272890  -0.072521   0.040560  -0.068730  -0.009791
   24  O  4  Y   -0.006621  -0.218138   0.381806   0.123854   0.055692
   25  O  4  Z    0.050031   0.313169   0.274999  -0.161604  -0.075400
   26  O  4  S   -0.019196  -0.327091  -0.000353  -0.857967  -0.163220
   27  O  4  X   -0.287477  -0.092693   0.050018  -0.178381  -0.026938
   28  O  4  Y   -0.016433  -0.257563   0.471203   0.258986   0.112449
   29  O  4  Z    0.065833   0.370922   0.339365  -0.332854  -0.151299
   30  H  5  S    0.013159  -0.092044  -0.131171  -0.000492   0.009625
   31  H  5  S    0.026625  -0.143231  -0.238113   0.319661  -0.509045
   32  H  6  S    0.011687  -0.091014   0.131573  -0.000803   0.009347
   33  H  6  S    0.024603  -0.142011   0.238950   0.312926  -0.510584
   34  H  7  S   -0.111973   0.101044   0.000180   0.094904   0.004178
   35  H  7  S   -0.191695   0.098455   0.000412   1.127187   0.240758
   36  H  8  S    0.138158  -0.008742   0.000726   0.052120   0.021383
   37  H  8  S    0.207850  -0.066547   0.000806   0.342033  -0.998560
   38  H  9  S   -0.003325  -0.026710   0.020507  -0.030890  -0.013998
   39  H  9  S    0.006773  -0.072019   0.089398  -0.024874  -0.954880

                     16         17         18         19         20
                    0.5133     0.5195     0.5228     0.5784     0.6284
                     A          A          A          A          A   
    1  C  1  S   -0.003535   0.002131   0.097923  -0.000309  -0.069110
    2  C  1  S    0.000106   0.007310  -0.015256  -0.000051   0.011633
    3  C  1  X    0.007459   0.250642  -0.027003  -0.006226   0.074741
    4  C  1  Y    0.205204   0.092158  -0.017227  -0.089327  -0.108185
    5  C  1  Z    0.159202  -0.136299   0.041201  -0.066753   0.138228
    6  C  1  S    0.051321  -0.043857  -1.386866   0.004847   1.087950
    7  C  1  X    0.034125   1.198479  -0.104970  -0.062811   0.815979
    8  C  1  Y    0.961972   0.491946   0.098802  -0.726767  -0.831688
    9  C  1  Z    0.763781  -0.716824  -0.062076  -0.532593   1.027131
   10  H  2  S    0.051272  -0.007145  -0.004840  -0.007722   0.046618
   11  H  2  S    1.353933  -0.704041   0.624773  -0.700231   0.273997
   12  C  3  S    0.004757  -0.025103  -0.137624   0.000880   0.032133
   13  C  3  S   -0.001129   0.013051   0.022821  -0.000065   0.015264
   14  C  3  X    0.014423   0.000732  -0.078215   0.028450   0.209941
   15  C  3  Y    0.108704  -0.000784  -0.058077   0.254935  -0.148718
   16  C  3  Z    0.073814   0.010444   0.100378   0.185038   0.172365
   17  C  3  S   -0.068404   0.318427   1.955868  -0.012155  -0.747368
   18  C  3  X    0.064921  -0.196039  -0.484717   0.127859   1.181627
   19  C  3  Y    0.334848  -0.154597  -0.219778   1.169456  -0.790216
   20  C  3  Z    0.198297   0.263893   0.403078   0.856544   0.906372
   21  O  4  S   -0.000292  -0.001302   0.021884  -0.000001   0.011634
   22  O  4  S    0.001343  -0.011440  -0.014883  -0.000297  -0.005979
   23  O  4  X   -0.003471   0.077853  -0.033881  -0.008609   0.119439
   24  O  4  Y   -0.003837  -0.025645   0.038844  -0.079509   0.020797
   25  O  4  Z   -0.005345   0.026591  -0.050240  -0.056736  -0.045906
   26  O  4  S   -0.006550   0.121499  -0.180843   0.001926  -0.092369
   27  O  4  X   -0.005200   0.108858  -0.097766  -0.023052   0.265085
   28  O  4  Y   -0.038938  -0.052322   0.098082  -0.197948   0.076351
   29  O  4  Z   -0.031835   0.056609  -0.126267  -0.142290  -0.143174
   30  H  5  S   -0.032945   0.006279  -0.017897   0.013968  -0.009082
   31  H  5  S   -0.547475  -0.261245  -1.219608  -1.367513  -0.365547
   32  H  6  S    0.033918   0.010872  -0.015963  -0.014635  -0.008995
   33  H  6  S    0.643427  -0.208095  -1.175867   1.372800  -0.371172
   34  H  7  S   -0.002160   0.017445   0.030072   0.000137  -0.028020
   35  H  7  S    0.001987  -0.196571   0.390517   0.000174  -0.382116
   36  H  8  S   -0.002070   0.036149  -0.007616  -0.000058   0.086535
   37  H  8  S   -0.140650   1.716275   0.360819   0.031038   0.041219
   38  H  9  S   -0.049777  -0.014907  -0.007572   0.008581   0.046343
   39  H  9  S   -1.281125  -0.915143   0.551411   0.672256   0.271897

                     21         22         23         24         25
                    0.6762     1.1245     1.1738     1.1821     1.2491
                     A          A          A          A          A   
    1  C  1  S    0.047531   0.000021   0.005871   0.033378   0.018360
    2  C  1  S    0.018580   0.000199  -0.018024  -0.019922  -0.069473
    3  C  1  X   -0.012228  -0.054095   0.238527  -0.570082  -0.556600
    4  C  1  Y   -0.001298  -0.487613   0.298856   0.420590  -0.055373
    5  C  1  Z   -0.001041  -0.351948  -0.445217  -0.496066   0.163426
    6  C  1  S   -0.771509   0.000921  -0.197693  -0.469839   0.188114
    7  C  1  X   -0.826648   0.090932  -0.643853   0.726666   1.205056
    8  C  1  Y    0.265731   0.802997  -0.417708  -0.517525   0.180219
    9  C  1  Z   -0.257298   0.581817   0.670364   0.606034  -0.430231
   10  H  2  S   -0.056841   0.517644   0.298201   0.142875  -0.065283
   11  H  2  S    0.104795  -0.055608   0.030429   0.121640  -0.078576
   12  C  3  S   -0.127103   0.000027  -0.045776  -0.016577  -0.033627
   13  C  3  S    0.048755   0.000343   0.106119   0.073666   0.145529
   14  C  3  X    0.132879  -0.021390   0.568612   0.004574   0.513046
   15  C  3  Y    0.081116  -0.186189   0.002823  -0.204625   0.369058
   16  C  3  Z   -0.130765  -0.135844  -0.096651   0.282641  -0.580739
   17  C  3  S    1.394855  -0.001259   0.062285  -0.489951  -0.091548
   18  C  3  X    0.717664   0.026196  -0.396470  -0.014596  -0.906424
   19  C  3  Y    0.616426   0.234826   0.074227   0.357445  -0.704754
   20  C  3  Z   -0.951986   0.173633  -0.033225  -0.491741   1.101502
   21  O  4  S    0.063576  -0.000071   0.005644   0.018326   0.005746
   22  O  4  S   -0.012822   0.000122  -0.031258  -0.030608  -0.089378
   23  O  4  X    0.296702  -0.007308   0.082141   0.007005   0.203720
   24  O  4  Y   -0.002630  -0.063609   0.069513  -0.037805  -0.003641
   25  O  4  Z   -0.041165  -0.046263  -0.109279   0.050419  -0.024770
   26  O  4  S   -0.658480   0.000419   0.095011  -0.093483   0.511346
   27  O  4  X    0.876598  -0.005036   0.060723   0.020942  -0.194045
   28  O  4  Y   -0.027154  -0.045315  -0.017521  -0.036586   0.027554
   29  O  4  Z   -0.093791  -0.032525   0.014254   0.046973  -0.008425
   30  H  5  S    0.075361  -0.338413  -0.148423   0.211708  -0.170956
   31  H  5  S    0.102482   0.086222  -0.014992   0.016504  -0.260258
   32  H  6  S    0.074670   0.337579  -0.146112   0.211767  -0.171585
   33  H  6  S    0.106373  -0.086887  -0.014328   0.016501  -0.261033
   34  H  7  S   -0.003565  -0.000663  -0.136131   0.179987   0.114090
   35  H  7  S   -0.507566   0.000285   0.163285  -0.048857  -0.034541
   36  H  8  S    0.030986  -0.006210  -0.507027   0.396265   0.267011
   37  H  8  S   -0.215932   0.000984  -0.008459   0.022235   0.311725
   38  H  9  S   -0.057248  -0.510517   0.307903   0.139395  -0.072915
   39  H  9  S    0.129587   0.054734   0.031709   0.121907  -0.082784

                     26         27         28         29         30
                    1.2989     1.3492     1.4671     1.5390     1.5451
                     A          A          A          A          A   
    1  C  1  S    0.045426   0.000113   0.073407  -0.004728   0.000156
    2  C  1  S   -0.129239   0.000169  -0.063857   0.033189  -0.000296
    3  C  1  X   -0.103704   0.057806   0.351688  -0.635117   0.068987
    4  C  1  Y    0.258158   0.514020  -0.150691  -0.209163   0.535443
    5  C  1  Z   -0.335363   0.375527   0.149351   0.401640   0.380674
    6  C  1  S    0.556755  -0.001178  -0.020614  -0.021040  -0.000720
    7  C  1  X    0.158299  -0.129102  -0.405316   0.615934  -0.077455
    8  C  1  Y   -0.532950  -1.195900   0.008885   0.170182  -0.568819
    9  C  1  Z    0.702347  -0.875297   0.060560  -0.351955  -0.401535
   10  H  2  S    0.159343  -0.047459   0.554128   0.416367   0.507591
   11  H  2  S    0.124773  -0.491455  -0.201519  -0.578269  -0.849686
   12  C  3  S   -0.037122   0.000419   0.040313   0.008301   0.000083
   13  C  3  S    0.080798  -0.000587   0.040331  -0.031026  -0.000060
   14  C  3  X   -0.792863  -0.066154   0.046562  -0.154582   0.065623
   15  C  3  Y    0.379029  -0.618522   0.228046  -0.020581   0.591605
   16  C  3  Z   -0.407588  -0.450159  -0.319868   0.063310   0.429259
   17  C  3  S   -0.271469   0.000794   0.079874  -0.020726   0.000558
   18  C  3  X    1.173925   0.158322  -0.035772   0.371678  -0.092360
   19  C  3  Y   -0.633786   1.482101  -0.083048   0.087049  -0.844034
   20  C  3  Z    0.704246   1.075015   0.110595  -0.183965  -0.615404
   21  O  4  S   -0.005670   0.000047  -0.013096   0.015913  -0.000013
   22  O  4  S    0.032636  -0.000222   0.053846  -0.014595  -0.000043
   23  O  4  X    0.002525  -0.015752  -0.101156  -0.031901  -0.001147
   24  O  4  Y   -0.001470  -0.152521   0.051724   0.010839  -0.012162
   25  O  4  Z    0.001565  -0.108761  -0.055021  -0.009576  -0.007524
   26  O  4  S   -0.174099   0.001154   0.036234  -0.167054  -0.000326
   27  O  4  X    0.081827  -0.016179  -0.040655   0.088460   0.010175
   28  O  4  Y    0.054792  -0.138096   0.012808   0.007841   0.090165
   29  O  4  Z   -0.087932  -0.100712  -0.010972  -0.023882   0.065245
   30  H  5  S   -0.238973  -0.346238   0.532487   0.128745  -0.405460
   31  H  5  S   -0.051804  -0.400051  -0.342898   0.028092   0.901559
   32  H  6  S   -0.238541   0.353597   0.526091   0.141161   0.406207
   33  H  6  S   -0.050066   0.397278  -0.341837   0.012955  -0.900736
   34  H  7  S   -0.129579   0.002110   0.110091   0.212481  -0.002362
   35  H  7  S   -0.180407  -0.001377   0.004365  -0.212054   0.001790
   36  H  8  S   -0.017789   0.006847   0.467741  -0.918173   0.003885
   37  H  8  S    0.024532   0.005963  -0.432332   1.272333  -0.008796
   38  H  9  S    0.161623   0.043923   0.555312   0.423176  -0.508329
   39  H  9  S    0.129608   0.482778  -0.203735  -0.579643   0.856016

                     31         32         33         34         35
                    1.5518     1.5805     1.6301     2.0970     2.2167
                     A          A          A          A          A   
    1  C  1  S   -0.000405  -0.063687   0.042163   0.005457   0.000012
    2  C  1  S    0.000404   0.151554  -0.279295  -1.445808  -0.004563
    3  C  1  X    0.033095   0.108065   0.185437   0.035830  -0.004225
    4  C  1  Y    0.293532   0.192204  -0.123512   0.018508  -0.038150
    5  C  1  Z    0.211264  -0.288190   0.141839  -0.032880  -0.027001
    6  C  1  S    0.001961   0.322798   0.379814   2.429785   0.008913
    7  C  1  X   -0.011089  -0.080783  -0.358257  -0.278138   0.035410
    8  C  1  Y   -0.092629  -0.474665   0.217458   0.101241   0.331986
    9  C  1  Z   -0.062926   0.676645  -0.249437  -0.092836   0.238934
   10  H  2  S    0.610389  -0.407873   0.234460  -0.010028   0.049752
   11  H  2  S   -0.612303   0.529102  -0.320601  -0.595657   0.135573
   12  C  3  S    0.000107   0.041658  -0.057076   0.006381  -0.000045
   13  C  3  S   -0.000938  -0.214372   0.281374  -1.163638  -0.005319
   14  C  3  X   -0.034798  -0.044443  -0.076606   0.096542   0.010611
   15  C  3  Y   -0.313704   0.223008  -0.178056  -0.015517   0.096506
   16  C  3  Z   -0.226637  -0.295617   0.258473   0.006131   0.069984
   17  C  3  S   -0.000511   0.047638  -0.264651   1.652679   0.008902
   18  C  3  X    0.015759   0.537459   0.085669   0.102565  -0.071876
   19  C  3  Y    0.102235  -0.535919   0.233298  -0.217475  -0.670307
   20  C  3  Z    0.075312   0.651840  -0.332205   0.288600  -0.483524
   21  O  4  S    0.000415   0.018487   0.026097   0.031729   0.000082
   22  O  4  S   -0.000884  -0.019943  -0.071120  -0.100941  -0.000103
   23  O  4  X    0.010276  -0.089414  -0.031859   0.126241  -0.087740
   24  O  4  Y    0.101039   0.115759   0.173324  -0.164185  -0.822910
   25  O  4  Z    0.072063  -0.149101  -0.236711   0.215199  -0.592016
   26  O  4  S   -0.001089   0.009753   0.039112  -0.194055  -0.001189
   27  O  4  X   -0.004667  -0.123703  -0.103859   0.002609   0.098499
   28  O  4  Y   -0.038438   0.114800   0.003108   0.213903   0.915109
   29  O  4  Z   -0.029706  -0.139698   0.010818  -0.303338   0.658117
   30  H  5  S    0.683322   0.331867  -0.508546  -0.027709   0.216029
   31  H  5  S   -0.679387  -0.500862   0.607891  -0.539756   0.177407
   32  H  6  S   -0.682604   0.339526  -0.503329  -0.025725  -0.217085
   33  H  6  S    0.679156  -0.511503   0.603494  -0.539264  -0.182537
   34  H  7  S    0.008900   0.909360   0.896084   0.140672   0.000072
   35  H  7  S   -0.006591  -0.700148  -0.688775  -0.099190  -0.000531
   36  H  8  S   -0.010408  -0.342612   0.270467  -0.067258  -0.002233
   37  H  8  S    0.008742  -0.008892  -0.406194  -0.667467  -0.002484
   38  H  9  S   -0.607466  -0.401368   0.237406  -0.008301  -0.046811
   39  H  9  S    0.608586   0.523243  -0.319718  -0.599567  -0.141769

                     36         37         38         39
                    2.2862     2.4115     2.5707     3.6356
                     A          A          A          A   
    1  C  1  S    0.001765   0.050820  -0.061331  -0.023773
    2  C  1  S   -0.185679   0.694952  -1.317959  -0.140015
    3  C  1  X   -0.118126  -0.169226  -0.134860   0.073694
    4  C  1  Y    0.003004   0.025229   0.013451  -0.026487
    5  C  1  Z    0.015994  -0.006755   0.003960   0.024015
    6  C  1  S    0.033034  -2.399725   3.181877   0.757895
    7  C  1  X    0.194005  -0.111861   0.745883   0.209952
    8  C  1  Y    0.129001   0.442809  -0.309168  -0.129403
    9  C  1  Z   -0.212525  -0.602718   0.308196   0.152499
   10  H  2  S   -0.043104   0.147147  -0.285733  -0.067190
   11  H  2  S   -0.102755   0.088857  -0.376578  -0.007335
   12  C  3  S    0.018775  -0.066462   0.043748   0.075040
   13  C  3  S   -0.427961  -1.292291   0.993272   0.474260
   14  C  3  X   -0.117037   0.140606   0.094342  -0.186263
   15  C  3  Y   -0.053131   0.022354   0.004274  -0.002393
   16  C  3  Z    0.090898  -0.052557  -0.020482   0.031441
   17  C  3  S    0.237733   3.396691  -2.512078  -1.832236
   18  C  3  X   -0.334454  -0.452068   0.542865  -0.309009
   19  C  3  Y    0.163693   0.395491  -0.306779  -0.205992
   20  C  3  Z   -0.175967  -0.474107   0.341437   0.327704
   21  O  4  S   -0.045601   0.034621  -0.028939   0.065608
   22  O  4  S    0.219693  -0.211301   0.077181  -1.657896
   23  O  4  X    0.474957  -0.689133  -0.626528   0.167117
   24  O  4  Y    0.460722   0.219900   0.215612   0.093882
   25  O  4  Z   -0.709519  -0.202006  -0.206925  -0.155653
   26  O  4  S   -0.033290  -0.090892   0.272155   2.260861
   27  O  4  X   -0.462453   1.225040   0.719738  -0.482498
   28  O  4  Y   -0.580563  -0.323082  -0.345819  -0.282795
   29  O  4  Z    0.873963   0.264926   0.374311   0.465633
   30  H  5  S    0.101403  -0.263740   0.192801   0.170236
   31  H  5  S   -0.106563  -0.354717   0.260785   0.137146
   32  H  6  S    0.100522  -0.263407   0.192259   0.169890
   33  H  6  S   -0.105952  -0.353825   0.261463   0.136013
   34  H  7  S   -0.354114  -0.191671  -0.304331  -0.320594
   35  H  7  S    0.185230  -0.436172  -0.180470  -0.160330
   36  H  8  S    0.035966   0.232850  -0.199327  -0.017606
   37  H  8  S    0.083132   0.359528  -0.149359  -0.092117
   38  H  9  S   -0.046481   0.145453  -0.288716  -0.066807
   39  H  9  S   -0.098482   0.092683  -0.373059  -0.012210

  ----- BETA SET ----- 

          ------------
          EIGENVECTORS
          ------------

                      1          2          3          4          5
                  -20.0946   -10.9718   -10.9687    -0.9988    -0.7895
                     A          A          A          A          A   
    1  C  1  S    0.000177  -0.046041   0.986429  -0.034822  -0.184217
    2  C  1  S    0.000594  -0.007261   0.101367   0.034666   0.179243
    3  C  1  X   -0.000757   0.000028  -0.000182   0.021808   0.009135
    4  C  1  Y    0.000288  -0.000022   0.000133  -0.011702  -0.015570
    5  C  1  Z   -0.000268   0.000029  -0.000153   0.012890   0.020155
    6  C  1  S   -0.005881   0.025069  -0.079710   0.072066   0.516429
    7  C  1  X   -0.002193   0.008421  -0.003124   0.012998  -0.018675
    8  C  1  Y    0.000781  -0.007058   0.002024   0.002362  -0.002307
    9  C  1  Z   -0.000824   0.008441  -0.002356  -0.005272   0.006516
   10  H  2  S    0.000407  -0.001438   0.000166   0.013673   0.100442
   11  H  2  S    0.000118   0.000632   0.014400  -0.000803   0.014056
   12  C  3  S   -0.000805   0.986637   0.045296  -0.091042  -0.090462
   13  C  3  S   -0.003273   0.100739   0.002388   0.095110   0.091811
   14  C  3  X    0.001828  -0.000815  -0.000233   0.064484  -0.090983
   15  C  3  Y   -0.000024   0.000066   0.000033   0.015249   0.031105
   16  C  3  Z   -0.000243   0.000031  -0.000009  -0.030671  -0.029166
   17  C  3  S    0.017836  -0.078682   0.016035   0.183277   0.209419
   18  C  3  X    0.006644   0.007688  -0.006682  -0.001770  -0.037196
   19  C  3  Y    0.002798  -0.003498   0.005865   0.000914   0.001380
   20  C  3  Z   -0.004828   0.003666  -0.007071  -0.000932   0.003672
   21  O  4  S    0.983435  -0.000200   0.000032  -0.213960   0.075565
   22  O  4  S    0.097120  -0.000570  -0.000002   0.193271  -0.065859
   23  O  4  X   -0.001784  -0.000495   0.000524  -0.033374  -0.037560
   24  O  4  Y   -0.001343  -0.000208  -0.000232  -0.018072   0.011382
   25  O  4  Z    0.002135   0.000363   0.000248   0.030204  -0.010200
   26  O  4  S   -0.042370   0.007893  -0.001096   0.669942  -0.267703
   27  O  4  X    0.005423  -0.003172  -0.000922  -0.040262  -0.016314
   28  O  4  Y    0.003589   0.000209   0.000651  -0.028747   0.010967
   29  O  4  Z   -0.005803   0.000182  -0.000784   0.046037  -0.012774
   30  H  5  S   -0.001187   0.000268  -0.001197   0.030802   0.049776
   31  H  5  S   -0.000879   0.014571   0.001487  -0.003708   0.002250
   32  H  6  S   -0.001185   0.000266  -0.001197   0.030809   0.049780
   33  H  6  S   -0.000864   0.014577   0.001492  -0.003679   0.002269
   34  H  7  S    0.002925  -0.000344   0.000554   0.075667  -0.044133
   35  H  7  S    0.005097   0.002119   0.001260   0.014288  -0.022632
   36  H  8  S   -0.000148  -0.001287   0.000034   0.012812   0.103983
   37  H  8  S    0.001023   0.000348   0.014042   0.000154   0.010822
   38  H  9  S    0.000400  -0.001441   0.000176   0.013761   0.100308
   39  H  9  S    0.000197   0.000655   0.014416  -0.000732   0.013589

                      6          7          8          9         10
                   -0.5993    -0.4126    -0.4015    -0.3284    -0.2997
                     A          A          A          A          A   
    1  C  1  S    0.089239  -0.000018   0.001878  -0.008289   0.000058
    2  C  1  S   -0.076762  -0.000002   0.001847   0.006529  -0.000110
    3  C  1  X    0.069019   0.023941   0.273195  -0.055728   0.021934
    4  C  1  Y   -0.077838   0.218922   0.026312  -0.175072   0.202405
    5  C  1  Z    0.096843   0.159709  -0.076950   0.251827   0.143607
    6  C  1  S   -0.342128   0.000229  -0.011740   0.031233   0.000174
    7  C  1  X    0.024872   0.019874   0.203588  -0.021758   0.020313
    8  C  1  Y   -0.031102   0.179176   0.026306  -0.151018   0.187097
    9  C  1  Z    0.039229   0.130405  -0.066115   0.212220   0.132558
   10  H  2  S   -0.089090  -0.153635   0.060949  -0.131141  -0.164555
   11  H  2  S   -0.050782  -0.138593   0.055307  -0.141606  -0.179663
   12  C  3  S   -0.157837   0.000027  -0.020412   0.001904   0.000099
   13  C  3  S    0.149428  -0.000041   0.020273  -0.002985  -0.000074
   14  C  3  X   -0.034123   0.020913   0.067009  -0.072918  -0.020829
   15  C  3  Y   -0.052866   0.194228   0.098458   0.133539  -0.200479
   16  C  3  Z    0.077879   0.140582  -0.145586  -0.176875  -0.142840
   17  C  3  S    0.513802  -0.000079   0.072469  -0.022200  -0.000346
   18  C  3  X   -0.065372   0.014374   0.037284  -0.038185  -0.020348
   19  C  3  Y   -0.019414   0.133814   0.069471   0.105072  -0.192258
   20  C  3  Z    0.036575   0.096989  -0.101133  -0.142524  -0.137266
   21  O  4  S    0.060439   0.000042   0.010420  -0.027234   0.000098
   22  O  4  S   -0.053497  -0.000044  -0.005769   0.026926  -0.000107
   23  O  4  X   -0.079035   0.008709  -0.182743  -0.080667  -0.012746
   24  O  4  Y   -0.009832   0.079271   0.075686   0.094193  -0.121801
   25  O  4  Z    0.025167   0.057320  -0.077258  -0.120698  -0.087206
   26  O  4  S   -0.239188  -0.000143  -0.050458   0.111619  -0.000344
   27  O  4  X   -0.062424   0.008472  -0.176876  -0.080723  -0.013393
   28  O  4  Y   -0.008074   0.077361   0.074936   0.100538  -0.127396
   29  O  4  Z    0.020275   0.055943  -0.077066  -0.129578  -0.091178
   30  H  5  S    0.136983   0.128282  -0.055838  -0.086364  -0.152853
   31  H  5  S    0.062054   0.121945  -0.062044  -0.093895  -0.165274
   32  H  6  S    0.137104  -0.128540  -0.055941  -0.083824   0.154335
   33  H  6  S    0.062223  -0.122382  -0.061999  -0.091461   0.167087
   34  H  7  S   -0.041747   0.000158  -0.111314  -0.078953   0.000162
   35  H  7  S   -0.031805   0.000102  -0.081173  -0.052098   0.000158
   36  H  8  S   -0.073758   0.002566  -0.200629   0.121821   0.001865
   37  H  8  S   -0.041593   0.002633  -0.208531   0.144369   0.002163
   38  H  9  S   -0.089054   0.150820   0.065225  -0.132636   0.164124
   39  H  9  S   -0.050946   0.135520   0.059024  -0.142356   0.178637

                     11         12         13         14         15
                   -0.2637    -0.1917    -0.1320     0.4651     0.5138
                     A          A          A          A          A   
    1  C  1  S   -0.026390  -0.028306   0.000211  -0.135886   0.049361
    2  C  1  S    0.024135   0.022285  -0.000059   0.023490  -0.008242
    3  C  1  X    0.227145   0.078096   0.000332  -0.110805  -0.152060
    4  C  1  Y   -0.085088  -0.068921   0.010361   0.058056   0.040175
    5  C  1  Z    0.083394   0.083651   0.007259  -0.065829   0.193330
    6  C  1  S    0.124978   0.209783  -0.001976   1.929572  -0.723566
    7  C  1  X    0.192941   0.021728  -0.007764  -0.367022  -0.794406
    8  C  1  Y   -0.087407  -0.088452  -0.055588   0.306467   0.233584
    9  C  1  Z    0.092016   0.120826  -0.039824  -0.381258   0.861313
   10  H  2  S    0.006714  -0.018312  -0.017223  -0.004473   0.043056
   11  H  2  S   -0.003432  -0.062105  -0.087706  -0.935811   1.541150
   12  C  3  S    0.011081  -0.021276   0.000033  -0.061729  -0.044559
   13  C  3  S   -0.012216   0.028653  -0.000032   0.015431  -0.009540
   14  C  3  X   -0.286095   0.089630  -0.011289  -0.024884  -0.069813
   15  C  3  Y    0.057512   0.101406  -0.105631  -0.052843   0.016960
   16  C  3  Z   -0.037498  -0.154550  -0.076136   0.076379   0.095530
   17  C  3  S   -0.078110   0.054729  -0.000141   0.855081   0.734984
   18  C  3  X   -0.212561   0.125224   0.004366  -0.071628  -0.169670
   19  C  3  Y    0.033488   0.029984   0.040460  -0.226845   0.136023
   20  C  3  Z   -0.015166  -0.061300   0.028847   0.325680   0.157408
   21  O  4  S   -0.010009   0.061355   0.000011  -0.015534  -0.028462
   22  O  4  S    0.012879  -0.056813  -0.000012   0.013699   0.017245
   23  O  4  X    0.300242  -0.045611   0.040262   0.018557  -0.027698
   24  O  4  Y   -0.015619  -0.225556   0.379436   0.017793  -0.019669
   25  O  4  Z   -0.022512   0.319910   0.273121  -0.026997   0.024620
   26  O  4  S    0.047392  -0.307317  -0.000015   0.100386   0.194672
   27  O  4  X    0.339503  -0.054274   0.050978   0.043620  -0.020403
   28  O  4  Y   -0.015168  -0.278307   0.480599   0.030377  -0.058833
   29  O  4  Z   -0.028900   0.394530   0.345926  -0.047751   0.041890
   30  H  5  S   -0.000507  -0.088426  -0.128269   0.013963  -0.027514
   31  H  5  S   -0.000249  -0.148233  -0.241021  -0.568192  -0.717443
   32  H  6  S    0.000504  -0.087231   0.128723   0.013713   0.007893
   33  H  6  S    0.001081  -0.146740   0.242194  -0.568894  -0.143475
   34  H  7  S    0.120334   0.122641  -0.000032  -0.019037  -0.021705
   35  H  7  S    0.126882   0.088057  -0.000081  -0.128724  -0.201832
   36  H  8  S   -0.134681  -0.008057   0.000670   0.006386  -0.047185
   37  H  8  S   -0.191579  -0.068126   0.000732  -1.046225  -0.986019
   38  H  9  S    0.009241  -0.017979   0.016831  -0.004255  -0.006821
   39  H  9  S   -0.000293  -0.063446   0.088834  -0.916290   0.230303

                     16         17         18         19         20
                    0.5142     0.5329     0.5827     0.6222     0.6480
                     A          A          A          A          A   
    1  C  1  S    0.031183   0.078476   0.000009  -0.030817   0.077415
    2  C  1  S   -0.005096  -0.005712   0.000098  -0.000176  -0.010895
    3  C  1  X   -0.110776   0.141703   0.005627  -0.028261  -0.109866
    4  C  1  Y   -0.222441   0.028639   0.082892  -0.086312   0.062459
    5  C  1  Z   -0.066954  -0.049927   0.061692   0.124034  -0.071073
    6  C  1  S   -0.456743  -1.139122  -0.000631   0.554567  -1.173906
    7  C  1  X   -0.568114   0.649267   0.060535   0.222506  -1.077321
    8  C  1  Y   -1.024834   0.317286   0.699238  -0.529743   0.695601
    9  C  1  Z   -0.353841  -0.481389   0.512597   0.700997  -0.804193
   10  H  2  S   -0.034407  -0.006053   0.007037  -0.001210  -0.077974
   11  H  2  S   -0.658634   0.040881   0.660427   0.326538  -0.042005
   12  C  3  S   -0.027965  -0.123653  -0.000202  -0.029424  -0.107651
   13  C  3  S   -0.005309   0.020100  -0.000133   0.039929   0.023866
   14  C  3  X   -0.054509  -0.068131  -0.029068   0.189981  -0.079742
   15  C  3  Y   -0.105530  -0.053906  -0.258576  -0.090042   0.143221
   16  C  3  Z   -0.025361   0.086065  -0.188121   0.094713  -0.184192
   17  C  3  S    0.458632   1.751949   0.003501   0.041251   1.463584
   18  C  3  X   -0.149203  -0.494358  -0.129308   0.979969  -0.467789
   19  C  3  Y   -0.261683  -0.303389  -1.178377  -0.442151   0.806846
   20  C  3  Z   -0.133517   0.492271  -0.864794   0.457165  -1.035894
   21  O  4  S   -0.016293   0.000953  -0.000312   0.088498   0.072234
   22  O  4  S    0.009259  -0.010714   0.000414  -0.028607  -0.019588
   23  O  4  X   -0.015584   0.049901   0.008497   0.053358  -0.000304
   24  O  4  Y   -0.007353  -0.004712   0.080932   0.105836   0.049115
   25  O  4  Z    0.018535   0.000657   0.058590  -0.154679  -0.069215
   26  O  4  S    0.115111   0.069923   0.000959  -0.824357  -0.712696
   27  O  4  X   -0.009843   0.061519   0.023084   0.126886   0.072683
   28  O  4  Y    0.007222   0.001392   0.204093   0.283192   0.103216
   29  O  4  Z    0.055553  -0.009526   0.148719  -0.410925  -0.156675
   30  H  5  S    0.024396  -0.005711  -0.013037   0.000708   0.033869
   31  H  5  S    0.203236  -1.104350   1.386334  -0.411437   0.119050
   32  H  6  S   -0.037254  -0.003741   0.013716   0.000760   0.033574
   33  H  6  S   -0.751395  -1.094150  -1.381989  -0.416495   0.124816
   34  H  7  S   -0.011526   0.017933  -0.000269   0.006760   0.039937
   35  H  7  S   -0.114386  -0.052249  -0.002582   0.630063   0.754447
   36  H  8  S   -0.026840   0.008549  -0.000070   0.089975  -0.030146
   37  H  8  S   -0.510411   1.344039  -0.031548  -0.246206  -0.282752
   38  H  9  S    0.055010  -0.008811  -0.007674  -0.002039  -0.078339
   39  H  9  S    1.677760  -0.044477  -0.636977   0.328835  -0.028519

                     21         22         23         24         25
                    0.7104     1.1263     1.1796     1.1873     1.2575
                     A          A          A          A          A   
    1  C  1  S   -0.019217   0.000030   0.019577   0.030638   0.019400
    2  C  1  S   -0.027842   0.000159  -0.030038  -0.014705  -0.075180
    3  C  1  X   -0.044839  -0.055238   0.001451  -0.652235  -0.533207
    4  C  1  Y    0.017106  -0.494099   0.456854   0.265384  -0.040278
    5  C  1  Z   -0.012463  -0.356614  -0.628693  -0.269663   0.139521
    6  C  1  S    0.362819   0.000883  -0.354245  -0.340869   0.219354
    7  C  1  X    0.446615   0.093119  -0.342206   1.012304   1.153156
    8  C  1  Y   -0.036095   0.817144  -0.616642  -0.302960   0.149774
    9  C  1  Z   -0.006305   0.591961   0.900683   0.266438  -0.380959
   10  H  2  S    0.026522   0.518379   0.333638   0.010588  -0.045141
   11  H  2  S   -0.082582  -0.050600   0.086834   0.095933  -0.081459
   12  C  3  S    0.080120   0.000044  -0.049649   0.000793  -0.039337
   13  C  3  S   -0.041501   0.000277   0.126163   0.029894   0.163638
   14  C  3  X   -0.162128  -0.020460   0.469044  -0.220024   0.505310
   15  C  3  Y   -0.032219  -0.176533  -0.083872  -0.152989   0.390483
   16  C  3  Z    0.068604  -0.128572   0.038817   0.248295  -0.609224
   17  C  3  S   -0.759098  -0.001442  -0.143556  -0.469868  -0.101923
   18  C  3  X   -0.920964   0.024028  -0.284659   0.110076  -0.845063
   19  C  3  Y   -0.394315   0.215721   0.224744   0.235159  -0.729374
   20  C  3  Z    0.680974   0.159566  -0.258927  -0.345508   1.125880
   21  O  4  S   -0.024503  -0.000063   0.014958   0.012607   0.006635
   22  O  4  S   -0.004084   0.000104  -0.034753  -0.018224  -0.088720
   23  O  4  X   -0.310411  -0.006998   0.069895  -0.016497   0.211361
   24  O  4  Y    0.035578  -0.060454   0.046755  -0.062830  -0.000139
   25  O  4  Z   -0.003079  -0.043890  -0.076230   0.089036  -0.030705
   26  O  4  S    0.297983   0.000406  -0.008597  -0.084662   0.490995
   27  O  4  X   -0.913279  -0.005248   0.070656  -0.014404  -0.173392
   28  O  4  Y    0.102625  -0.046640  -0.017911  -0.030668   0.034215
   29  O  4  Z   -0.006823  -0.033434   0.013097   0.044522  -0.020608
   30  H  5  S   -0.069332  -0.334287  -0.055764   0.245721  -0.216131
   31  H  5  S   -0.180742   0.093626   0.004755  -0.010651  -0.235656
   32  H  6  S   -0.068857   0.333710  -0.053381   0.244472  -0.216515
   33  H  6  S   -0.179975  -0.094317   0.005002  -0.010447  -0.237105
   34  H  7  S    0.042231  -0.000459  -0.072135   0.215186   0.070163
   35  H  7  S    1.004290   0.000241   0.166578  -0.120989  -0.016902
   36  H  8  S   -0.038949  -0.005837  -0.311884   0.577894   0.213273
   37  H  8  S    0.076802   0.000869  -0.020577   0.065503   0.325295
   38  H  9  S    0.026804  -0.511334   0.341061   0.003869  -0.051874
   39  H  9  S   -0.100556   0.049765   0.088568   0.095200  -0.085490

                     26         27         28         29         30
                    1.3107     1.3565     1.4715     1.5424     1.5455
                     A          A          A          A          A   
    1  C  1  S    0.042488   0.000106   0.073994  -0.002357  -0.000087
    2  C  1  S   -0.124688   0.000233  -0.066015   0.029383   0.000328
    3  C  1  X   -0.050292   0.057630   0.326190  -0.648282  -0.070986
    4  C  1  Y    0.236007   0.513947  -0.159016  -0.215173  -0.520038
    5  C  1  Z   -0.312745   0.375817   0.165676   0.415581  -0.365590
    6  C  1  S    0.582827  -0.001531  -0.031746  -0.057715  -0.000164
    7  C  1  X    0.075336  -0.128652  -0.374443   0.628059   0.079907
    8  C  1  Y   -0.520419  -1.194239   0.025463   0.199471   0.558688
    9  C  1  Z    0.696844  -0.874740   0.031971  -0.400465   0.389748
   10  H  2  S    0.153620  -0.030609   0.568696   0.430799  -0.476945
   11  H  2  S    0.125033  -0.508777  -0.225768  -0.608352   0.814353
   12  C  3  S   -0.033043   0.000424   0.040218   0.005240  -0.000086
   13  C  3  S    0.062890  -0.000531   0.044516  -0.021933   0.000167
   14  C  3  X   -0.836326  -0.065535   0.072627  -0.150116  -0.068199
   15  C  3  Y    0.367420  -0.619433   0.228719  -0.036274  -0.610513
   16  C  3  Z   -0.386045  -0.450791  -0.324093   0.094740  -0.441918
   17  C  3  S   -0.244904   0.000715   0.077604  -0.016454  -0.000577
   18  C  3  X    1.245059   0.157512  -0.069347   0.327072   0.095117
   19  C  3  Y   -0.618383   1.482373  -0.075887   0.125641   0.860665
   20  C  3  Z    0.674109   1.074915   0.104902  -0.242036   0.624288
   21  O  4  S   -0.007827   0.000054  -0.011690   0.014034   0.000087
   22  O  4  S    0.038926  -0.000308   0.052290  -0.010058   0.000016
   23  O  4  X   -0.013232  -0.015238  -0.092581  -0.021124   0.001471
   24  O  4  Y   -0.000487  -0.148657   0.046456  -0.005106   0.014708
   25  O  4  Z    0.002455  -0.106027  -0.048978   0.009915   0.009876
   26  O  4  S   -0.186546   0.001430   0.029098  -0.175840  -0.000837
   27  O  4  X    0.094675  -0.016963  -0.041528   0.102940  -0.009598
   28  O  4  Y    0.052382  -0.145714   0.014254  -0.000662  -0.092209
   29  O  4  Z   -0.086677  -0.106020  -0.012678  -0.012754  -0.066665
   30  H  5  S   -0.224537  -0.348085   0.531460   0.095980   0.431853
   31  H  5  S   -0.046134  -0.395780  -0.340721   0.071787  -0.933878
   32  H  6  S   -0.224112   0.355368   0.525390   0.119290  -0.431609
   33  H  6  S   -0.043660   0.393311  -0.340377   0.039924   0.934490
   34  H  7  S   -0.116252   0.002104   0.079419   0.104643   0.001642
   35  H  7  S   -0.223132  -0.001333   0.050014  -0.129096  -0.001356
   36  H  8  S   -0.030492   0.006500   0.451580  -0.909207  -0.009157
   37  H  8  S   -0.003655   0.006518  -0.393099   1.284934   0.016818
   38  H  9  S    0.155933   0.027423   0.569536   0.437499   0.484320
   39  H  9  S    0.130758   0.499489  -0.227486  -0.605876  -0.829547

                     31         32         33         34         35
                    1.5524     1.5972     1.6685     2.1025     2.2331
                     A          A          A          A          A   
    1  C  1  S    0.000193  -0.073932   0.018278   0.004221   0.000015
    2  C  1  S   -0.000232   0.243077  -0.221230  -1.454073  -0.004136
    3  C  1  X   -0.031746  -0.007768   0.178183   0.030065  -0.004222
    4  C  1  Y   -0.309408   0.203925  -0.061104   0.018686  -0.037324
    5  C  1  Z   -0.226655  -0.284009   0.055980  -0.032145  -0.026411
    6  C  1  S    0.000286   0.169830   0.494029   2.451369   0.007921
    7  C  1  X    0.009195   0.100503  -0.334569  -0.259760   0.034914
    8  C  1  Y    0.100736  -0.507231   0.041285   0.099589   0.325800
    9  C  1  Z    0.074876   0.693810  -0.006721  -0.093330   0.234265
   10  H  2  S   -0.636282  -0.424958   0.112030  -0.016773   0.048143
   11  H  2  S    0.647432   0.561696  -0.155090  -0.596920   0.133970
   12  C  3  S   -0.000001   0.060031  -0.039294   0.007793  -0.000045
   13  C  3  S    0.000312  -0.284202   0.206356  -1.166648  -0.005310
   14  C  3  X    0.031428   0.001607  -0.073907   0.098776   0.010380
   15  C  3  Y    0.282708   0.276026  -0.088106  -0.014148   0.094518
   16  C  3  Z    0.201949  -0.379572   0.133830   0.003955   0.068550
   17  C  3  S    0.000548   0.109905  -0.248435   1.635121   0.008953
   18  C  3  X   -0.008712   0.484024   0.290895   0.101289  -0.070936
   19  C  3  Y   -0.051003  -0.581596   0.034700  -0.220669  -0.659445
   20  C  3  Z   -0.032394   0.724669  -0.090481   0.292666  -0.475977
   21  O  4  S   -0.000390   0.011829   0.038419   0.030279   0.000058
   22  O  4  S    0.000746   0.008506  -0.060424  -0.101670  -0.000069
   23  O  4  X   -0.010433  -0.068002  -0.054753   0.128331  -0.088270
   24  O  4  Y   -0.098293   0.049488   0.199631  -0.156670  -0.827435
   25  O  4  Z   -0.071521  -0.059031  -0.269785   0.204011  -0.595728
   26  O  4  S    0.002112  -0.033676  -0.036346  -0.181875  -0.001065
   27  O  4  X    0.002469  -0.083656  -0.157020   0.002828   0.098109
   28  O  4  Y    0.028307   0.116770   0.078912   0.200546   0.909868
   29  O  4  Z    0.021579  -0.148837  -0.086259  -0.284254   0.655030
   30  H  5  S   -0.667998   0.509112  -0.331066  -0.021811   0.210144
   31  H  5  S    0.635249  -0.685589   0.381703  -0.541681   0.177052
   32  H  6  S    0.668087   0.509350  -0.327093  -0.020078  -0.211165
   33  H  6  S   -0.638655  -0.688018   0.377833  -0.541245  -0.182036
   34  H  7  S   -0.004439   0.550524   1.188669   0.127460  -0.000200
   35  H  7  S    0.003156  -0.394702  -0.842137  -0.100994  -0.000527
   36  H  8  S    0.013280  -0.473244   0.091787  -0.068529  -0.002115
   37  H  8  S   -0.014714   0.221399  -0.327772  -0.661995  -0.002199
   38  H  9  S    0.626613  -0.422816   0.115233  -0.015242  -0.045301
   39  H  9  S   -0.634739   0.558321  -0.154937  -0.600775  -0.139835

                     36         37         38         39
                    2.3046     2.4340     2.5772     3.6700
                     A          A          A          A   
    1  C  1  S    0.000041   0.054719  -0.058156  -0.023349
    2  C  1  S   -0.190355   0.763143  -1.266494  -0.139272
    3  C  1  X   -0.108139  -0.163278  -0.143900   0.069356
    4  C  1  Y    0.001929   0.025113   0.014637  -0.025790
    5  C  1  Z    0.015844  -0.007549   0.003852   0.023782
    6  C  1  S    0.090744  -2.582514   3.019338   0.742237
    7  C  1  X    0.191002  -0.158918   0.734498   0.213115
    8  C  1  Y    0.108235   0.463030  -0.283019  -0.124674
    9  C  1  Z   -0.183229  -0.623494   0.273230   0.145238
   10  H  2  S   -0.046274   0.163539  -0.275709  -0.066885
   11  H  2  S   -0.096636   0.107858  -0.367539  -0.008937
   12  C  3  S    0.019615  -0.070252   0.038889   0.073475
   13  C  3  S   -0.358757  -1.366674   0.920214   0.461624
   14  C  3  X   -0.119708   0.137691   0.102688  -0.183487
   15  C  3  Y   -0.052427   0.020909   0.005348  -0.002716
   16  C  3  Z    0.090305  -0.050134  -0.023262   0.031463
   17  C  3  S    0.093391   3.570957  -2.305299  -1.792840
   18  C  3  X   -0.306684  -0.476855   0.522182  -0.307530
   19  C  3  Y    0.149626   0.420801  -0.279438  -0.199893
   20  C  3  Z   -0.160529  -0.505088   0.307127   0.319140
   21  O  4  S   -0.045282   0.036934  -0.026733   0.068384
   22  O  4  S    0.241791  -0.178891   0.084334  -1.661012
   23  O  4  X    0.504522  -0.637039  -0.664702   0.150068
   24  O  4  Y    0.458039   0.234284   0.232645   0.111606
   25  O  4  Z   -0.709785  -0.229281  -0.224759  -0.177669
   26  O  4  S   -0.060146  -0.164881   0.236696   2.249243
   27  O  4  X   -0.513242   1.167101   0.790153  -0.458893
   28  O  4  Y   -0.559000  -0.315505  -0.363651  -0.291759
   29  O  4  Z    0.851151   0.262576   0.388431   0.474525
   30  H  5  S    0.106421  -0.274295   0.175577   0.166219
   31  H  5  S   -0.083024  -0.372325   0.242783   0.134810
   32  H  6  S    0.105656  -0.273918   0.175082   0.165878
   33  H  6  S   -0.082395  -0.371373   0.243526   0.133701
   34  H  7  S   -0.329835  -0.156986  -0.309394  -0.318789
   35  H  7  S    0.206294  -0.426781  -0.204946  -0.174562
   36  H  8  S    0.026485   0.242779  -0.186084  -0.016157
   37  H  8  S    0.073882   0.368720  -0.125089  -0.086395
   38  H  9  S   -0.049470   0.161962  -0.278787  -0.066565
   39  H  9  S   -0.092435   0.111791  -0.363688  -0.013650
 ...... END OF UHF CALCULATION ......
 CPU     0: STEP CPU TIME=     0.18 TOTAL CPU TIME=          0.2 (      0.0 MIN)
 TOTAL WALL CLOCK TIME=          0.3 SECONDS, CPU UTILIZATION IS    85.71%

     ----------------------------------------------------------------
     PROPERTY VALUES FOR THE UHF   SELF-CONSISTENT FIELD WAVEFUNCTION
     ----------------------------------------------------------------

          -----------------
          ENERGY COMPONENTS
          -----------------

         WAVEFUNCTION NORMALIZATION =       1.0000000000

                ONE ELECTRON ENERGY =    -374.7224375335
                TWO ELECTRON ENERGY =     140.9235497987
           NUCLEAR REPULSION ENERGY =      80.8150726764
                                      ------------------
                       TOTAL ENERGY =    -152.9838150584

 ELECTRON-ELECTRON POTENTIAL ENERGY =     140.9235497987
  NUCLEUS-ELECTRON POTENTIAL ENERGY =    -528.0852291234
   NUCLEUS-NUCLEUS POTENTIAL ENERGY =      80.8150726764
                                      ------------------
             TOTAL POTENTIAL ENERGY =    -306.3466066483
               TOTAL KINETIC ENERGY =     153.3627915899
                 VIRIAL RATIO (V/T) =       1.9975288887

          ---------------------------------------
          MULLIKEN AND LOWDIN POPULATION ANALYSES
          ---------------------------------------

     ATOMIC MULLIKEN POPULATION IN EACH MOLECULAR ORBITAL
        ALPHA ORBITALS

                      1          2          3          4          5

                  1.000000   1.000000   1.000000   1.000000   1.000000

    1            -0.000046   0.002940   0.993062   0.017887   0.552533
    2             0.000000   0.000010   0.001437   0.000183   0.037002
    3             0.001260   0.993696   0.002634   0.120008   0.233058
    4             0.998360   0.000427   0.000001   0.818753   0.068404
    5            -0.000007   0.001435   0.000014   0.001310   0.010400
    6            -0.000007   0.001435   0.000014   0.001309   0.010402
    7             0.000439   0.000039   0.000001   0.040022   0.010745
    8             0.000000   0.000007   0.001396   0.000338   0.040717
    9             0.000000   0.000011   0.001439   0.000189   0.036738

                      6          7          8          9         10

                  1.000000   1.000000   1.000000   1.000000   1.000000

    1             0.227698   0.254908   0.310879   0.342954   0.230688
    2             0.044361   0.010042   0.108559   0.084213   0.121697
    3             0.416284   0.185572   0.254827   0.130153   0.222948
    4             0.065015   0.257095   0.050282   0.144612   0.106940
    5             0.079780   0.020481   0.083533   0.024844   0.097473
    6             0.079935   0.018533   0.085733   0.023419   0.099328
    7             0.007836   0.090991   0.000010   0.037306   0.000000
    8             0.034656   0.152226   0.000001   0.125811   0.000019
    9             0.044434   0.010152   0.106176   0.086687   0.120907

                     11         12         13         14

                  1.000000   1.000000   1.000000   1.000000

    1             0.235499   0.084219   0.000245   0.014403
    2             0.000201   0.007818   0.004572   0.000906
    3             0.278409   0.125971   0.026410   0.092139
    4             0.310530   0.642798   0.805569   0.084884
    5             0.001162   0.045359   0.079047   0.039318
    6             0.000943   0.044448   0.079540   0.037928
    7             0.075190   0.038942   0.000000   0.695559
    8             0.097958   0.002476   0.000002   0.033910
    9             0.000107   0.007969   0.004615   0.000952

     ATOMIC MULLIKEN POPULATION IN EACH MOLECULAR ORBITAL
         BETA ORBITALS

                      1          2          3          4          5

                  1.000000   1.000000   1.000000   1.000000   1.000000

    1            -0.000046   0.004645   0.991360   0.027933   0.582099
    2             0.000000   0.000006   0.001442   0.000626   0.040277
    3             0.001262   0.992025   0.004305   0.161658   0.177795
    4             0.998352   0.000422   0.000002   0.768561   0.088781
    5            -0.000007   0.001428   0.000022   0.002367   0.008636
    6            -0.000007   0.001428   0.000022   0.002377   0.008642
    7             0.000444   0.000036   0.000001   0.035304   0.011620
    8             0.000000   0.000004   0.001401   0.000527   0.042222
    9             0.000000   0.000006   0.001444   0.000646   0.039928

                      6          7          8          9         10

                  1.000000   1.000000   1.000000   1.000000   1.000000

    1             0.201938   0.325341   0.328222   0.343253   0.219348
    2             0.040322   0.112905   0.017239   0.079016   0.117695
    3             0.422264   0.242986   0.141406   0.194037   0.236680
    4             0.083321   0.042863   0.196842   0.134417   0.091608
    5             0.087714   0.083393   0.018401   0.037509   0.107710
    6             0.087909   0.083792   0.018410   0.035460   0.109887
    7             0.008796   0.000000   0.057178   0.027524   0.000000
    8             0.027327   0.000034   0.202551   0.068173   0.000016
    9             0.040411   0.108686   0.019751   0.080611   0.117056

                     11         12         13

                  1.000000   1.000000   1.000000

    1             0.220704   0.056201   0.000363
    2             0.000101   0.005228   0.003813
    3             0.246216   0.107604   0.018233
    4             0.375360   0.684977   0.824889
    5            -0.000003   0.041792   0.074121
    6             0.000010   0.040796   0.074695
    7             0.068162   0.055679   0.000000
    8             0.089297   0.002388   0.000001
    9             0.000152   0.005335   0.003885

     ATOMIC SPIN POPULATION (ALPHA MINUS BETA)
       ATOM         MULL.POP.                    LOW.POP.
    1 C            -0.033483                    -0.015224
    2 H             0.002331                     0.002703
    3 C             0.136885                     0.132628
    4 O             0.063281                     0.247089
    5 H             0.021067                     0.010566
    6 H             0.019542                     0.009638
    7 H             0.732337                     0.567122
    8 H             0.055574                     0.042601
    9 H             0.002466                     0.002876


          ********* ALL ELECTRONS ********

               ----- POPULATIONS IN EACH AO -----
                             MULLIKEN      LOWDIN
              1  C  1  S      1.98839     1.97670
              2  C  1  S      0.35735     0.42159
              3  C  1  X      0.53236     0.49935
              4  C  1  Y      0.53634     0.50684
              5  C  1  Z      0.53689     0.50864
              6  C  1  S      1.10383     0.58402
              7  C  1  X      0.47252     0.57877
              8  C  1  Y      0.52991     0.59995
              9  C  1  Z      0.51165     0.59670
             10  H  2  S      0.47154     0.47583
             11  H  2  S      0.36813     0.45850
             12  C  3  S      1.98795     1.97539
             13  C  3  S      0.35619     0.41249
             14  C  3  X      0.48901     0.47929
             15  C  3  Y      0.52158     0.48420
             16  C  3  Z      0.52378     0.49139
             17  C  3  S      0.93576     0.56943
             18  C  3  X      0.37180     0.49674
             19  C  3  Y      0.43565     0.56076
             20  C  3  Z      0.40813     0.54876
             21  O  4  S      1.98727     1.98232
             22  O  4  S      0.42098     0.62740
             23  O  4  X      0.49564     0.47891
             24  O  4  Y      0.79884     0.81289
             25  O  4  Z      0.76059     0.77352
             26  O  4  S      1.48440     1.12612
             27  O  4  X      0.66159     0.73232
             28  O  4  Y      1.03772     1.04298
             29  O  4  Z      0.99704     1.00878
             30  H  5  S      0.48259     0.49506
             31  H  5  S      0.46464     0.51361
             32  H  6  S      0.48275     0.49517
             33  H  6  S      0.46363     0.51289
             34  H  7  S      0.36765     0.41395
             35  H  7  S      0.89418     0.83493
             36  H  8  S      0.47725     0.48663
             37  H  8  S      0.44621     0.50356
             38  H  9  S      0.47134     0.47568
             39  H  9  S      0.36694     0.45799

          ----- MULLIKEN ATOMIC OVERLAP POPULATIONS -----
          (OFF-DIAGONAL ELEMENTS NEED TO BE MULTIPLIED BY 2)

             1           2           3           4           5

    1    5.4781461
    2    0.3693814   0.5724108
    3    0.2534317  -0.0373346   5.3114710
    4   -0.0638784   0.0031968   0.2206763   9.2513448
    5   -0.0588024   0.0045729   0.2199099  -0.0757609   0.8226540
    6   -0.0589160  -0.0066604   0.2234932  -0.0749552  -0.0286948
    7    0.0190467  -0.0004329  -0.0222402  -0.6212538   0.0539426
    8    0.2617624  -0.0346614  -0.1023488   0.0012884   0.0160643
    9    0.3690607  -0.0308010  -0.0372163   0.0034110  -0.0066551

             6           7           8           9

    6    0.8193106
    7    0.0526024   1.7794452
    8    0.0156344   0.0012362   0.7995145
    9    0.0045677  -0.0005192  -0.0350319   0.5714713

          TOTAL MULLIKEN AND LOWDIN ATOMIC POPULATIONS
       ATOM         MULL.POP.    CHARGE          LOW.POP.     CHARGE
    1 C             6.569232   -0.569232         6.272560   -0.272560
    2 H             0.839672    0.160328         0.934331    0.065669
    3 C             6.029842   -0.029842         6.018421   -0.018421
    4 O             8.644069   -0.644069         8.585216   -0.585216
    5 H             0.947231    0.052769         1.008664   -0.008664
    6 H             0.946382    0.053618         1.008069   -0.008069
    7 H             1.261827   -0.261827         1.248884   -0.248884
    8 H             0.923458    0.076542         0.990185    0.009815
    9 H             0.838287    0.161713         0.933669    0.066331

          -------------------------------
          BOND ORDER AND VALENCE ANALYSIS     BOND ORDER THRESHOLD=0.050
          -------------------------------

                   BOND                       BOND                       BOND
  ATOM PAIR DIST  ORDER      ATOM PAIR DIST  ORDER      ATOM PAIR DIST  ORDER
    1   2  1.094  0.939        1   3  1.529  0.912        1   8  1.095  0.897
    1   9  1.094  0.938        3   4  1.463  0.989        3   5  1.102  0.886
    3   6  1.102  0.888        4   7  0.996  0.385        5   7  2.393  0.054
    6   7  2.396  0.053

                       TOTAL       BONDED        FREE
      ATOM            VALENCE     VALENCE     VALENCE
    1 C                 3.709       3.708       0.001
    2 H                 0.931       0.931       0.000
    3 C                 3.704       3.690       0.014
    4 O                 1.503       1.464       0.040
    5 H                 0.964       0.963       0.001
    6 H                 0.963       0.962       0.001
    7 H                 1.141       0.599       0.542
    8 H                 0.934       0.930       0.003
    9 H                 0.931       0.931       0.000

          -----------------------------------------
          ATOMIC SPIN DENSITY AT THE NUCLEUS (A.U.)
          -----------------------------------------
                            SPIN DENS    ALPHA DENS     BETA DENS
    1  C            6.0    -0.0093049      47.00127      47.01057
    2  H            1.0     0.0016114       0.18591       0.18430
    3  C            6.0     0.0216364      46.96624      46.94461
    4  O            8.0     0.9896968     117.60744     116.61775
    5  H            1.0    -0.0058533       0.18650       0.19235
    6  H            1.0    -0.0058357       0.18657       0.19241
    7  H            1.0     0.0210699       0.16160       0.14053
    8  H            1.0     0.0082560       0.19196       0.18370
    9  H            1.0     0.0017145       0.18589       0.18418

          ---------------------
          ELECTROSTATIC MOMENTS
          ---------------------

 POINT   1           X           Y           Z (BOHR)    CHARGE
                 2.645320   -0.581945    0.029397       -1.00 (A.U.)
         DX          DY          DZ         /D/  (DEBYE)
    -5.040272    1.228344   -0.954945    5.274949
 ...... END OF PROPERTY EVALUATION ......
 CPU     0: STEP CPU TIME=     0.02 TOTAL CPU TIME=          0.3 (      0.0 MIN)
 TOTAL WALL CLOCK TIME=          0.3 SECONDS, CPU UTILIZATION IS    86.67%
               580000  WORDS OF DYNAMIC MEMORY USED
 EXECUTION OF GAMESS TERMINATED NORMALLY Sun May 17 16:17:03 2020
 DDI: 263640 bytes (0.3 MB / 0 MWords) used by master data server.
Note: The following floating-point exceptions are signalling:Note: The following floating-point exceptions are signalling: IEEE_DENORMALNote: The following floating-point exceptions are signalling: IEEE_DENORMAL IEEE_DENORMAL
Note: The following floating-point exceptions are signalling:
 ----------------------------------------
 CPU timing information for all processes
 ========================================
 0: 0.168 + 0.109 = 0.278
 1: 0.136 + 0.13 = 0.149
 2: 0.134 + 0.07 = 0.142
 3: 0.137 + 0.15 = 0.153
 4: 0.137 + 0.13 = 0.150
 5: 0.139 + 0.04 = 0.144
 ----------------------------------------


 IEEE_DENORMAL
Note: The following floating-point exceptions are signalling: IEEE_DENORMALNote: The following floating-point exceptions are signalling: IEEE_DENORMAL

 ddikick.x: exited gracefully.
unset echo
----- accounting info -----
Files used on the master node pietdev were:
-rwxr-xr-x 1 piet piet      671 mei 17 16:17 /home/piet/scr/serine_fukui_acid.F05*
-rw-r--r-- 1 piet piet 68812800 mei 17 16:17 /home/piet/scr/serine_fukui_acid.F10
ls: No match.
ls: No match.
ls: No match.
zo 17 mei 2020 16:17:06 CEST
0.104u 0.032s 0:03.44 3.7%	0+0k 0+8io 0pf+0w
