----- GAMESS execution script 'rungms' -----
This job is running on host pietdev
under operating system Linux at zo 17 mei 2020 16:19:23 CEST
Available scratch disk space (Kbyte units) at beginning of the job is
Filesystem     1K-blocks     Used Available Use% Mounted on
/dev/sda2      244568380 30392204 201683120  14% /
GAMESS temporary binary files will be written to /home/piet/scr
GAMESS supplementary output files will be written to /home/piet/gamess/scr
Copying input file threonine_fukui_acid.inp to your run's scratch directory...
cp threonine_fukui_acid.inp /home/piet/scr/threonine_fukui_acid.F05
unset echo
 
Assuming a single but multicore node.
 
/home/piet/gamess/ddikick.x /home/piet/gamess/gamess.03.x threonine_fukui_acid -ddi 1 6 pietdev:cpus=6 -scr /home/piet/scr

 Distributed Data Interface kickoff program.
 Initiating 6 compute processes on 1 nodes to run the following command:
 /home/piet/gamess/gamess.03.x threonine_fukui_acid 

          ******************************************************
          *         GAMESS VERSION = 30 SEP 2019 (R2)          *
          *             FROM IOWA STATE UNIVERSITY             *
          * M.W.SCHMIDT, K.K.BALDRIDGE, J.A.BOATZ, S.T.ELBERT, *
          *   M.S.GORDON, J.H.JENSEN, S.KOSEKI, N.MATSUNAGA,   *
          *          K.A.NGUYEN, S.J.SU, T.L.WINDUS,           *
          *       TOGETHER WITH M.DUPUIS, J.A.MONTGOMERY       *
          *         J.COMPUT.CHEM.  14, 1347-1363(1993)        *
          **************** 64 BIT LINUX VERSION ****************

  SINCE 1993, STUDENTS AND POSTDOCS WORKING AT IOWA STATE UNIVERSITY
  AND ALSO IN THEIR VARIOUS JOBS AFTER LEAVING ISU HAVE MADE IMPORTANT
  CONTRIBUTIONS TO THE CODE:
     IVANA ADAMOVIC, CHRISTINE AIKENS, YURI ALEXEEV, POOJA ARORA,
     ANDREY ASADCHEV, ROB BELL, PRADIPTA BANDYOPADHYAY, JONATHAN BENTZ,
     COLLEEN BERTONI, BRETT BODE, KURT BRORSEN, CALEB CARLIN, GALINA CHABAN,
     WEI CHEN, CHEOL HO CHOI, PAUL DAY, ALBERT DEFUSCO, NUWAN DESILVA,
     TIM DUDLEY, DMITRI FEDOROV, ALEX FINDLATER, GRAHAM FLETCHER, 
     MARK FREITAG, KURT GLAESEMANN, EMILIE B GUIDEZ, ANASTASIA GUNINA, 
     DAN KEMP, SAROM SOK LEANG, GRANT MERRILL,
     NORIYUKI MINEZAWA, JONATHAN MULLIN,
     TAKESHI NAGATA, SEAN NEDD, HEATHER NETZLOFF, BOSILJKA NJEGIC, RYAN OLSON,
     MIKE PAK, BUU PHAM, DAVID POOLE,
     SPENCER PRUITT, LUKE ROSKOP, TOSAPORN SATTASATHUCHANA,
     JIM SHOEMAKER, LYUDMILA SLIPCHENKO,
     TONY SMITH, JIE SONG, TETSUYA TAKETSUGU, SIMON WEBB,
     JORGE LUIS GALVEZ VALLEJO, PENG XU, SOOHAENG YOO,
     FEDERICO ZAHARIEV

  ADDITIONAL CODE HAS BEEN PROVIDED BY COLLABORATORS IN OTHER GROUPS:
     IOWA STATE UNIVERSITY:
          JOE IVANIC, AARON WEST, LAIMUTIS BYTAUTAS, KLAUS RUEDENBERG
     UNIVERSITY OF TOKYO: KIMIHIKO HIRAO, TAKAHITO NAKAJIMA,
          TAKAO TSUNEDA, MUNEAKI KAMIYA, SUSUMU YANAGISAWA,
          KIYOSHI YAGI, MAHITO CHIBA, SEIKEN TOKURA, NAOAKI KAWAKAMI
     UNIVERSITY OF AARHUS: FRANK JENSEN
     UNIVERSITY OF IOWA: VISVALDAS KAIRYS, HUI LI
     NATIONAL INST. OF STANDARDS AND TECHNOLOGY: WALT STEVENS, DAVID GARMER
     UNIVERSITY OF PISA: BENEDETTA MENNUCCI, JACOPO TOMASI
     UNIVERSITY OF MEMPHIS: HENRY KURTZ, PRAKASHAN KORAMBATH
     UNIVERSITY OF ALBERTA: TOBY ZENG, MARIUSZ KLOBUKOWSKI
     UNIVERSITY OF NEW ENGLAND: MARK SPACKMAN
     MIE UNIVERSITY: HIROAKI UMEDA
     NAT. INST. OF ADVANCED INDUSTRIAL SCIENCE AND TECHNOLOGY: KAZUO KITAURA
     MICHIGAN STATE UNIVERSITY:
          KAROL KOWALSKI, MARTA WLOCH, JEFFREY GOUR, JESSE LUTZ,
          WEI LI, JUN SHEN, J. EMILIANO DEUSTUA, PIOTR PIECUCH
     UNIVERSITY OF MINNESOTA:
          ANDREW SAND, PRACHI SHARMA, YINAN SHU
     UNIVERSITY OF SILESIA: MONIKA MUSIAL, STANISLAW KUCHARSKI
     FACULTES UNIVERSITAIRES NOTRE-DAME DE LA PAIX:
          OLIVIER QUINET, BENOIT CHAMPAGNE
     UNIVERSITY OF CALIFORNIA - SANTA BARBARA: BERNARD KIRTMAN
     INSTITUTE FOR MOLECULAR SCIENCE:
          KAZUYA ISHIMURA, MICHIO KATOUDA, AND SHIGERU NAGASE
     UNIVERSITY OF NOTRE DAME: ANNA POMOGAEVA, DAN CHIPMAN
     KYUSHU UNIVERSITY:
          HARUYUKI NAKANO,
          FENG LONG GU, JACEK KORCHOWIEC, MARCIN MAKOWSKI, AND YURIKO AOKI,
          HIROTOSHI MORI AND EISAKU MIYOSHI
     PENNSYLVANIA STATE UNIVERSITY:
          TZVETELIN IORDANOV, CHET SWALINA, JONATHAN SKONE,
          SHARON HAMMES-SCHIFFER
     WASEDA UNIVERSITY:
          MASATO KOBAYASHI, TOMOKO AKAMA, TSUGUKI TOUMA,
          TAKESHI YOSHIKAWA, YASUHIRO IKABATA, JUNJI SEINO,
          YUYA NAKAJIMA, HIROMI NAKAI
     NANJING UNIVERSITY: SHUHUA LI
     UNIVERSITY OF NEBRASKA:
          PEIFENG SU, DEJUN SI, NANDUN THELLAMUREGE, YALI WANG, HUI LI
     UNIVERSITY OF ZURICH: ROBERTO PEVERATI, KIM BALDRIDGE
     N. COPERNICUS UNIVERSITY AND JACKSON STATE UNIVERSITY:
          MARIA BARYSZ
     UNIVERSITY OF COPENHAGEN: Jimmy Kromann, CASPER STEINMANN
     TOKYO INSTITUTE OF TECHNOLOGY: HIROYA NAKATA
     NAGOYA UNIVERSITY: YOSHIO NISHIMOTO, STEPHAN IRLE
     MOSCOW STATE UNIVERSITY: VLADIMIR MIRONOV
     A.N.NESMEYANOV INSTITUTE OF ORGANOELEMENT COMPOUNDS OF RUSSIAN ACADEMY OF SCIENCES:
          IGOR S. GERASIMOV
     JOHANNES KEPLER UNIVERSITY LINZ:
          CHRISTIAN FRIEDL


 PARALLEL VERSION RUNNING ON        6 PROCESSORS IN        1 NODES.

 EXECUTION OF GAMESS BEGUN Sun May 17 16:19:23 2020

            ECHO OF THE FIRST FEW INPUT CARDS -
 INPUT CARD> $BASIS GBASIS=N21 NGAUSS=3 $END                                                
 INPUT CARD> $CONTRL SCFTYP=UHF MAXIT=60 MULT=2 ICHARG=-1 $END                              
 INPUT CARD> $SYSTEM MEMDDI=1000 MWORDS=30 $END                                             
 INPUT CARD> $SCF DIRSCF=.TRUE. $END                                                        
 INPUT CARD> $STATPT OPTTOL=0.0001 NSTEP=999 $END                                           
 INPUT CARD> $DATA                                                                          
 INPUT CARD>                                                                                
 INPUT CARD>C1                                                                              
 INPUT CARD>C 6.0000000 -0.0493886499 0.3276963324 0.6607923992                             
 INPUT CARD>H 1.0000000 -0.0347754127 0.3074192612 1.7561164305                             
 INPUT CARD>C 6.0000000 -1.0903855297 -0.6572183748 0.1044941610                            
 INPUT CARD>H 1.0000000 -0.8469936960 -1.6709393881 0.4376334572                            
 INPUT CARD>O 8.0000000 -1.0054437370 -0.7407776231 -1.3577567878                           
 INPUT CARD>C 6.0000000 -2.5174161446 -0.3004528823 0.5512180146                            
 INPUT CARD>H 1.0000000 -1.2110889659 0.1721756522 -1.7029872178                            
 INPUT CARD>H 1.0000000 -2.7682617497 0.7203420756 0.2321792349                             
 INPUT CARD>H 1.0000000 -3.2309440859 -0.9930711360 0.0948056429                            
 INPUT CARD>H 1.0000000 -2.6127839290 -0.3508679678 1.6413817920                            
 INPUT CARD>H 1.0000000 0.9443358925 0.0677859222 0.2837637464                              
 INPUT CARD>H 1.0000000 -0.2895739922 1.3503981286 0.3401591268                             
 INPUT CARD> $END                                                                           
   30000000 WORDS OF MEMORY AVAILABLE

     BASIS OPTIONS
     -------------
     GBASIS=N21          IGAUSS=       3      POLAR=NONE    
     NDFUNC=       0     NFFUNC=       0     DIFFSP=       F
     NPFUNC=       0      DIFFS=       F     BASNAM=        


     RUN TITLE
     ---------
                                                                                 

 THE POINT GROUP OF THE MOLECULE IS C1      
 THE ORDER OF THE PRINCIPAL AXIS IS     0

 ATOM      ATOMIC                      COORDINATES (BOHR)
           CHARGE         X                   Y                   Z
 C           6.0    -0.0933310152        0.6192562754        1.2487165693
 H           1.0    -0.0657160011        0.5809381670        3.3185788562
 C           6.0    -2.0605298721       -1.2419626425        0.1974653316
 H           1.0    -1.6005859988       -3.1576175856        0.8270073172
 O           8.0    -1.9000131590       -1.3998667255       -2.5657882869
 C           6.0    -4.7572267104       -0.5677736198        1.0416510071
 H           1.0    -2.2886262923        0.3253648044       -3.2181792022
 H           1.0    -5.2312561692        1.3612491403        0.4387551340
 H           1.0    -6.1055990040       -1.8766323334        0.1791566872
 H           1.0    -4.9374456909       -0.6630443170        3.1017618281
 H           1.0     1.7845360772        0.1280968188        0.5362357259
 H           1.0    -0.5472154984        2.5518824374        0.6428075419

          INTERNUCLEAR DISTANCES (ANGS.)
          ------------------------------

                1 C          2 H          3 C          4 H          5 O     

   1 C       0.0000000    1.0956092 *  1.5372701 *  2.1634506 *  2.4759279 *
   2 H       1.0956092 *  0.0000000    2.1846498 *  2.5123692 *  3.4259481  
   3 C       1.5372701 *  2.1846498 *  0.0000000    1.0944641 *  1.4670975 *
   4 H       2.1634506 *  2.5123692 *  1.0944641 *  0.0000000    2.0282341 *
   5 O       2.4759279 *  3.4259481    1.4670975 *  2.0282341 *  0.0000000  
   6 C       2.5490660 *  2.8257377 *  1.5372899 *  2.1636649 *  2.4746982 *
   7 H       2.6384064 *  3.6561458    1.9923485 *  2.8481389 *  0.9974757 *
   8 H       2.7803149 *  3.1567131    2.1746827 *  3.0743633    2.7875248 *
   9 H       3.4909974    3.8297158    2.1667676 *  2.5020503 *  2.6695396 *
  10 H       2.8271895 *  2.6632000 *  2.1848503 *  2.5118945 *  3.4249678  
  11 H       1.0941629 *  1.7843502 *  2.1674547 *  2.5011404 *  2.6739494 *
  12 H       1.0983686 *  1.7769812 *  2.1742496 *  3.0738735    2.7871857 *

                6 C          7 H          8 H          9 H         10 H     

   1 C       2.5490660 *  2.6384064 *  2.7803149 *  3.4909974    2.8271895 *
   2 H       2.8257377 *  3.6561458    3.1567131    3.8297158    2.6632000 *
   3 C       1.5372899 *  1.9923485 *  2.1746827 *  2.1667676 *  2.1848503 *
   4 H       2.1636649 *  2.8481389 *  3.0743633    2.5020503 *  2.5118945 *
   5 O       2.4746982 *  0.9974757 *  2.7875248 *  2.6695396 *  3.4249678  
   6 C       0.0000000    2.6478878 *  1.0985134 *  1.0941455 *  1.0954879 *
   7 H       2.6478878 *  0.0000000    2.5436475 *  2.9444310 *  3.6637587  
   8 H       1.0985134 *  2.5436475 *  0.0000000    1.7800931 *  1.7769401 *
   9 H       1.0941455 *  2.9444310 *  1.7800931 *  0.0000000    1.7850615 *
  10 H       1.0954879 *  3.6637587    1.7769401 *  1.7850615 *  0.0000000  
  11 H       3.4915410    2.9332461 *  3.7698636    4.3120860    3.8303393  
  12 H       2.7808516 *  2.5321621 *  2.5597897 *  3.7687802    3.1598720  

               11 H         12 H     

   1 C       1.0941629 *  1.0983686 *
   2 H       1.7843502 *  1.7769812 *
   3 C       2.1674547 *  2.1742496 *
   4 H       2.5011404 *  3.0738735  
   5 O       2.6739494 *  2.7871857 *
   6 C       3.4915410    2.7808516 *
   7 H       2.9332461 *  2.5321621 *
   8 H       3.7698636    2.5597897 *
   9 H       4.3120860    3.7687802  
  10 H       3.8303393    3.1598720  
  11 H       0.0000000    1.7806763 *
  12 H       1.7806763 *  0.0000000  

  * ... LESS THAN  3.000


     ATOMIC BASIS SET
     ----------------
 THE CONTRACTED PRIMITIVE FUNCTIONS HAVE BEEN UNNORMALIZED
 THE CONTRACTED BASIS FUNCTIONS ARE NOW NORMALIZED TO UNITY

  SHELL TYPE  PRIMITIVE        EXPONENT          CONTRACTION COEFFICIENT(S)

 C         

      1   S       1           172.2560000    0.061766907377
      1   S       2            25.9109000    0.358794042852
      1   S       3             5.5333500    0.700713083689

      2   L       4             3.6649800   -0.395895162119    0.236459946619
      2   L       5             0.7705450    1.215834355681    0.860618805716

      3   L       6             0.1958570    1.000000000000    1.000000000000

 H         

      4   S       7             5.4471780    0.156284978695
      4   S       8             0.8245472    0.904690876670

      5   S       9             0.1831916    1.000000000000

 C         

      6   S      10           172.2560000    0.061766907377
      6   S      11            25.9109000    0.358794042852
      6   S      12             5.5333500    0.700713083689

      7   L      13             3.6649800   -0.395895162119    0.236459946619
      7   L      14             0.7705450    1.215834355681    0.860618805716

      8   L      15             0.1958570    1.000000000000    1.000000000000

 H         

      9   S      16             5.4471780    0.156284978695
      9   S      17             0.8245472    0.904690876670

     10   S      18             0.1831916    1.000000000000

 O         

     11   S      19           322.0370000    0.059239393389
     11   S      20            48.4308000    0.351499960776
     11   S      21            10.4206000    0.707657921031

     12   L      22             7.4029400   -0.404453583190    0.244586106967
     12   L      23             1.5762000    1.221561761397    0.853955373466

     13   L      24             0.3736840    1.000000000000    1.000000000000

 C         

     14   S      25           172.2560000    0.061766907377
     14   S      26            25.9109000    0.358794042852
     14   S      27             5.5333500    0.700713083689

     15   L      28             3.6649800   -0.395895162119    0.236459946619
     15   L      29             0.7705450    1.215834355681    0.860618805716

     16   L      30             0.1958570    1.000000000000    1.000000000000

 H         

     17   S      31             5.4471780    0.156284978695
     17   S      32             0.8245472    0.904690876670

     18   S      33             0.1831916    1.000000000000

 H         

     19   S      34             5.4471780    0.156284978695
     19   S      35             0.8245472    0.904690876670

     20   S      36             0.1831916    1.000000000000

 H         

     21   S      37             5.4471780    0.156284978695
     21   S      38             0.8245472    0.904690876670

     22   S      39             0.1831916    1.000000000000

 H         

     23   S      40             5.4471780    0.156284978695
     23   S      41             0.8245472    0.904690876670

     24   S      42             0.1831916    1.000000000000

 H         

     25   S      43             5.4471780    0.156284978695
     25   S      44             0.8245472    0.904690876670

     26   S      45             0.1831916    1.000000000000

 H         

     27   S      46             5.4471780    0.156284978695
     27   S      47             0.8245472    0.904690876670

     28   S      48             0.1831916    1.000000000000

 TOTAL NUMBER OF BASIS SET SHELLS             =   28
 NUMBER OF CARTESIAN GAUSSIAN BASIS FUNCTIONS =   52
 NUMBER OF ELECTRONS                          =   35
 CHARGE OF MOLECULE                           =   -1
 SPIN MULTIPLICITY                            =    2
 NUMBER OF OCCUPIED ORBITALS (ALPHA)          =   18
 NUMBER OF OCCUPIED ORBITALS (BETA )          =   17
 TOTAL NUMBER OF ATOMS                        =   12
 THE NUCLEAR REPULSION ENERGY IS      133.0680241806

     $CONTRL OPTIONS
     ---------------
 SCFTYP=UHF          RUNTYP=ENERGY       EXETYP=RUN     
 MPLEVL=       0     CITYP =NONE         CCTYP =NONE         VBTYP =NONE    
 DFTTYP=NONE         TDDFT =NONE    
 MULT  =       2     ICHARG=      -1     NZVAR =       0     COORD =UNIQUE  
 PP    =NONE         RELWFN=NONE         LOCAL =NONE         NUMGRD=       F
 ISPHER=      -1     NOSYM =       0     MAXIT =      60     UNITS =ANGS    
 PLTORB=       F     MOLPLT=       F     AIMPAC=       F     FRIEND=        
 NPRINT=       7     IREST =       0     GEOM  =INPUT   
 NORMF =       0     NORMP =       0     ITOL  =      20     ICUT  =       9
 INTTYP=BEST         GRDTYP=BEST         QMTTOL= 1.0E-06

     $SYSTEM OPTIONS
     ---------------
  REPLICATED MEMORY=    30000000 WORDS (ON EVERY NODE).
 DISTRIBUTED MEMDDI=        1000 MILLION WORDS IN AGGREGATE,
 MEMDDI DISTRIBUTED OVER   6 PROCESSORS IS   166666666 WORDS/PROCESSOR.
 TOTAL MEMORY REQUESTED ON EACH PROCESSOR=   196666666 WORDS.
 TIMLIM=      525600.00 MINUTES, OR     365.0 DAYS.
 PARALL= T  BALTYP=  DLB     KDIAG=    0  COREFL= F
 MXSEQ2=     300 MXSEQ3=     150  mem10=         0

          ----------------
          PROPERTIES INPUT
          ----------------

     MOMENTS            FIELD           POTENTIAL          DENSITY
 IEMOM =       1   IEFLD =       0   IEPOT =       0   IEDEN =       0
 WHERE =COMASS     WHERE =NUCLEI     WHERE =NUCLEI     WHERE =NUCLEI  
 OUTPUT=BOTH       OUTPUT=BOTH       OUTPUT=BOTH       OUTPUT=BOTH    
 IEMINT=       0   IEFINT=       0                     IEDINT=       0
                                                       MORB  =       0
          EXTRAPOLATION IN EFFECT
          SOSCF IN EFFECT
          DIIS or SOSCF will be reset if energy rises
 ORBITAL PRINTING OPTION: NPREO=     1    52     2     1

     -------------------------------
     INTEGRAL TRANSFORMATION OPTIONS
     -------------------------------
     NWORD  =            0
     CUTOFF = 1.0E-09     MPTRAN =       0
     DIRTRF =       T     AOINTS =DUP     

          ----------------------
          INTEGRAL INPUT OPTIONS
          ----------------------
 NOPK  =       1 NORDER=       0 SCHWRZ=       T

     ------------------------------------------
     THE POINT GROUP IS C1 , NAXIS= 0, ORDER= 1
     ------------------------------------------

     DIMENSIONS OF THE SYMMETRY SUBSPACES ARE
 A   =   52

 ..... DONE SETTING UP THE RUN .....
 CPU     0: STEP CPU TIME=     0.01 TOTAL CPU TIME=          0.0 (      0.0 MIN)
 TOTAL WALL CLOCK TIME=          0.0 SECONDS, CPU UTILIZATION IS    33.33%

          ********************
          1 ELECTRON INTEGRALS
          ********************
 ...... END OF ONE-ELECTRON INTEGRALS ......
 CPU     0: STEP CPU TIME=     0.01 TOTAL CPU TIME=          0.0 (      0.0 MIN)
 TOTAL WALL CLOCK TIME=          0.0 SECONDS, CPU UTILIZATION IS    50.00%

          -------------
          GUESS OPTIONS
          -------------
          GUESS =HUCKEL            NORB  =       0          NORDER=       0
          MIX   =       F          PRTMO =       F          PUNMO =       F
          TOLZ  = 1.0E-08          TOLE  = 1.0E-05
          SYMDEN=       F          PURIFY=       F

 INITIAL GUESS ORBITALS GENERATED BY HUCKEL   ROUTINE.
 HUCKEL GUESS REQUIRES     31396 WORDS.

 SYMMETRIES FOR INITIAL GUESS ORBITALS FOLLOW.  ALPHA SET(S).
    18 ORBITALS ARE OCCUPIED (    4 CORE ORBITALS).
     5=A        6=A        7=A        8=A        9=A       10=A       11=A   
    12=A       13=A       14=A       15=A       16=A       17=A       18=A   
    19=A       20=A       21=A       22=A       23=A       24=A       25=A   
    26=A       27=A       28=A   

 SYMMETRIES FOR INITIAL GUESS ORBITALS FOLLOW.   BETA SET(S).
    17 ORBITALS ARE OCCUPIED (    4 CORE ORBITALS).
     5=A        6=A        7=A        8=A        9=A       10=A       11=A   
    12=A       13=A       14=A       15=A       16=A       17=A       18=A   
    19=A       20=A       21=A       22=A       23=A       24=A       25=A   
    26=A       27=A   
 ...... END OF INITIAL ORBITAL SELECTION ......
 CPU     0: STEP CPU TIME=     0.03 TOTAL CPU TIME=          0.0 (      0.0 MIN)
 TOTAL WALL CLOCK TIME=          0.1 SECONDS, CPU UTILIZATION IS    71.43%

                    ----------------------
                    AO INTEGRAL TECHNOLOGY
                    ----------------------
     S,P,L SHELL ROTATED AXIS INTEGRALS, REPROGRAMMED BY
        KAZUYA ISHIMURA (IMS) AND JOSE SIERRA (SYNSTAR).
     S,P,D,L SHELL ROTATED AXIS INTEGRALS PROGRAMMED BY
        KAZUYA ISHIMURA (INSTITUTE FOR MOLECULAR SCIENCE).
     S,P,D,F,G SHELL TO TOTAL QUARTET ANGULAR MOMENTUM SUM 5,
        ERIC PROGRAM BY GRAHAM FLETCHER (ELORET AND NASA ADVANCED
        SUPERCOMPUTING DIVISION, AMES RESEARCH CENTER).
     S,P,D,F,G,L SHELL GENERAL RYS QUADRATURE PROGRAMMED BY
        MICHEL DUPUIS (PACIFIC NORTHWEST NATIONAL LABORATORY).

          --------------------
          2 ELECTRON INTEGRALS
          --------------------

 DIRECT SCF METHOD SKIPS INTEGRAL STORAGE ON DISK.
 DIRECT TRANSFORMATION SKIPS AO INTEGRAL STORAGE ON DISK.
  ...... END OF TWO-ELECTRON INTEGRALS .....
 CPU     0: STEP CPU TIME=     0.02 TOTAL CPU TIME=          0.1 (      0.0 MIN)
 TOTAL WALL CLOCK TIME=          0.1 SECONDS, CPU UTILIZATION IS    87.50%

          ---------------------------
                  UHF SCF CALCULATION
          ---------------------------

     NUCLEAR ENERGY =       133.0680241806
     MAXIT = 60     NPUNCH=  2     MULT=  2
     EXTRAP=T  DAMP=F  SHIFT=F  RSTRCT=F  DIIS=F  SOSCF=T
     DENSITY MATRIX CONV=  2.00E-05
     SOSCF WILL OPTIMIZE     612 ALPHA AND     595 BETA ROTATION ANGLES.
     SOGTOL= 2.500E-01
     MEMORY REQUIRED FOR UHF/ROHF ITERS=     81489 WORDS.

 DIRECT SCF CALCULATION, SCHWRZ=T   FDIFF=T
 SCHWARZ INEQUALITY OVERHEAD:      1375 INTEGRALS, T=        0.00

                                                                                NONZERO     BLOCKS
 ITER EX      TOTAL ENERGY        E CHANGE  DENSITY CHANGE    ORB. GRAD       INTEGRALS    SKIPPED
   1  0     -191.1148011467  -191.1148011467   0.635544888   0.000000000         881456      11545
          ---------------START SECOND ORDER SCF---------------
   2  1     -191.6761647505    -0.5613636038   0.203661564   0.071661191         880533      11901
   3  2     -191.7262856900    -0.0501209395   0.182224219   0.050139169         876051      13675
   4  3     -191.7512356449    -0.0249499549   0.196061132   0.014295119         875743      13690
   5  4     -191.7617763686    -0.0105407237   0.377230287   0.011931562         876281      13573
   6  5     -191.7712457346    -0.0094693660   0.274292789   0.018342296         877811      12948
   7  6     -191.7829009199    -0.0116551852   1.084929581   0.022155387         876507      13269
   8  7     -191.7126956879     0.0702052319   1.010547496   0.057613232         880211      11817
   9  8     -191.7802252783    -0.0675295904   0.749408505   0.062170294         879932      11966
  10  9     -191.7974897255    -0.0172644472   0.322122618   0.021406911         878395      12544
  11 10     -191.8061634037    -0.0086736782   0.100331148   0.010828443         876408      13371
  12 11     -191.8086317313    -0.0024683276   0.199697845   0.005671542         871646      14544
  13 12     -191.8108390937    -0.0022073624   0.064456383   0.005337233         874417      13847
  14 13     -191.8117467531    -0.0009076593   0.080625898   0.004590478         869135      15050
  15 14     -191.8125116234    -0.0007648703   0.124291225   0.003417389         868615      15006
  16 15     -191.8131553702    -0.0006437468   0.131149371   0.003409298         869844      14747
  17 16     -191.8136070697    -0.0004516996   0.084879739   0.002349504         869924      14840
  18 17     -191.8138561674    -0.0002490977   0.015759012   0.001184267         867405      15450
  19 18     -191.8139324623    -0.0000762949   0.005731471   0.000687666         859224      16718
  20 19     -191.8139463870    -0.0000139248   0.005126356   0.000297169         848377      18252
  21 20     -191.8139491519    -0.0000027648   0.002269479   0.000194214         845259      18769
  22 21     -191.8139501584    -0.0000010065   0.000691299   0.000128308         835057      19724
  23 22     -191.8139504929    -0.0000003346   0.000686947   0.000047891         821823      21669
  24 23     -191.8139505755    -0.0000000825   0.000111831   0.000016501         813661      22698
  25 24     -191.8139505858    -0.0000000103   0.000060026   0.000006931         790373      25483
  26 25     -191.8139505879    -0.0000000021   0.000038243   0.000003874         774113      27454
  27 26     -191.8139505883    -0.0000000005   0.000011033   0.000001259         756331      29356
  28 27     -191.8139505891    -0.0000000008   0.000002966   0.000000445         733018      32149

          -----------------
          DENSITY CONVERGED
          -----------------
     TIME TO FORM FOCK OPERATORS=       0.5 SECONDS (       0.0 SEC/ITER)
     FOCK TIME ON FIRST ITERATION=       0.0, LAST ITERATION=       0.0
     TIME TO SOLVE SCF EQUATIONS=       0.0 SECONDS (       0.0 SEC/ITER)

 FINAL UHF ENERGY IS     -191.8139505891 AFTER  28 ITERATIONS

          --------------------
          SPIN SZ   =    0.500
          S-SQUARED =    0.755
          --------------------

  ----- ALPHA SET ----- 

          ------------
          EIGENVECTORS
          ------------

                      1          2          3          4          5
                  -20.1437   -11.0014   -10.9577   -10.9572    -1.0708
                     A          A          A          A          A   
    1  C  1  S    0.000151  -0.003572  -0.365814   0.917249  -0.022529
    2  C  1  S    0.000413  -0.003259  -0.039042   0.093783   0.023114
    3  C  1  X    0.000391  -0.000480   0.001055   0.000391  -0.012950
    4  C  1  Y    0.000442  -0.000293   0.000085  -0.000002  -0.012134
    5  C  1  Z    0.000375   0.000057  -0.000224   0.000117  -0.012157
    6  C  1  S   -0.003762   0.024200   0.032420  -0.073291   0.038998
    7  C  1  X    0.000520  -0.009841  -0.004118   0.001992   0.003301
    8  C  1  Y    0.000464  -0.008027  -0.000979   0.002669   0.004172
    9  C  1  Z    0.003056  -0.005825   0.000193   0.001913  -0.013077
   10  H  2  S   -0.000410  -0.001322  -0.000379  -0.000024   0.008295
   11  H  2  S    0.000155   0.001079  -0.006463   0.012844   0.000089
   12  C  3  S   -0.000914   0.988167   0.001566   0.003587  -0.081499
   13  C  3  S   -0.003984   0.104434  -0.000970  -0.002258   0.086666
   14  C  3  X    0.000091  -0.000139  -0.000257   0.000089   0.002429
   15  C  3  Y   -0.000115   0.000415  -0.000055   0.000050   0.002301
   16  C  3  Z   -0.001410   0.000708   0.000099   0.000256  -0.068416
   17  C  3  S    0.020262  -0.091698   0.009822   0.022849   0.150580
   18  C  3  X    0.000324   0.001983  -0.013929   0.004171  -0.000009
   19  C  3  Y    0.000694  -0.006712  -0.001014   0.006942  -0.003096
   20  C  3  Z   -0.010810  -0.005761   0.000764   0.003417   0.014905
   21  H  4  S   -0.001503   0.000927  -0.000681  -0.001584   0.027705
   22  H  4  S   -0.001284   0.015076   0.000535   0.001239  -0.004828
   23  O  5  S    0.983421  -0.000255   0.000011   0.000028  -0.219096
   24  O  5  S    0.097774  -0.001070  -0.000076  -0.000164   0.208101
   25  O  5  X   -0.000587  -0.000030   0.000181   0.000013  -0.018276
   26  O  5  Y    0.001953   0.000051  -0.000075  -0.000270   0.068099
   27  O  5  Z    0.002614   0.000428  -0.000107  -0.000269   0.039334
   28  O  5  S   -0.044168   0.009736  -0.000470  -0.001116   0.683122
   29  O  5  X    0.001473  -0.000300   0.000426  -0.000288  -0.017308
   30  O  5  Y   -0.004576   0.000344   0.000319   0.000384   0.060643
   31  O  5  Z   -0.008341   0.004669  -0.000216  -0.000547   0.059307
   32  C  6  S    0.000149  -0.003604   0.917363   0.365527  -0.022544
   33  C  6  S    0.000401  -0.003267   0.094922   0.036182   0.023168
   34  C  6  X   -0.000588   0.000555   0.000388  -0.000929   0.018144
   35  C  6  Y    0.000192  -0.000030   0.000158  -0.000436  -0.004236
   36  C  6  Z    0.000340   0.000106   0.000275  -0.000173  -0.010804
   37  C  6  S   -0.003737   0.024221  -0.075495  -0.026887   0.038914
   38  C  6  X   -0.000901   0.012937  -0.005081   0.000761  -0.003888
   39  C  6  Y    0.000093  -0.002240   0.000222   0.001721   0.002426
   40  C  6  Z    0.002950  -0.004834   0.000852   0.001579  -0.013285
   41  H  7  S    0.002693  -0.000582  -0.000297  -0.000687   0.084155
   42  H  7  S    0.005108   0.003206   0.000141   0.000372   0.013587
   43  H  8  S    0.000724  -0.001583   0.000404  -0.000165   0.007297
   44  H  8  S   -0.000387   0.000064   0.013597   0.004149  -0.001126
   45  H  9  S    0.000373  -0.001393   0.000214  -0.000050   0.007904
   46  H  9  S    0.000542   0.000265   0.012061   0.007418  -0.001370
   47  H 10  S   -0.000409  -0.001322   0.000238  -0.000291   0.008308
   48  H 10  S    0.000177   0.001090   0.013771   0.004134   0.000041
   49  H 11  S    0.000380  -0.001388  -0.000183   0.000119   0.007867
   50  H 11  S    0.000531   0.000265  -0.002912   0.013851  -0.001406
   51  H 12  S    0.000735  -0.001580  -0.000398   0.000178   0.007274
   52  H 12  S   -0.000398   0.000060  -0.006346   0.012717  -0.001067

                      6          7          8          9         10
                   -0.8294    -0.7395    -0.5904    -0.4331    -0.4022
                     A          A          A          A          A   
    1  C  1  S   -0.122523  -0.149501   0.068799   0.013020   0.007036
    2  C  1  S    0.124923   0.139391  -0.059288  -0.006863  -0.006271
    3  C  1  X   -0.033408   0.020357  -0.064983  -0.195709  -0.077300
    4  C  1  Y   -0.021842   0.004630  -0.102028   0.030913  -0.069049
    5  C  1  Z   -0.003433   0.001101  -0.034805  -0.066242   0.183603
    6  C  1  S    0.303048   0.455107  -0.274388  -0.074322  -0.037038
    7  C  1  X    0.008857   0.003857  -0.016360  -0.126019  -0.060895
    8  C  1  Y    0.001424  -0.000910  -0.046450   0.030886  -0.054802
    9  C  1  Z    0.014479   0.008214  -0.013266  -0.048608   0.125252
   10  H  2  S    0.066491   0.086405  -0.062441  -0.056279   0.129053
   11  H  2  S    0.005028   0.016112  -0.039105  -0.059571   0.151525
   12  C  3  S   -0.118707  -0.000242  -0.143261  -0.043468   0.012536
   13  C  3  S    0.114360   0.000223   0.128107   0.039764  -0.010839
   14  C  3  X   -0.012062   0.119545   0.026912  -0.053805   0.002036
   15  C  3  Y    0.032224   0.030473  -0.110677   0.208120  -0.028972
   16  C  3  Z    0.083204   0.005516   0.023482   0.031397   0.181815
   17  C  3  S    0.306925   0.000716   0.517398   0.155721  -0.046769
   18  C  3  X   -0.006683   0.019118   0.009010  -0.046642   0.002954
   19  C  3  Y    0.018510   0.004981  -0.044093   0.177312  -0.027041
   20  C  3  Z    0.044834   0.000969   0.045547   0.047510   0.137928
   21  H  4  S    0.063599   0.000164   0.157845  -0.090153   0.047021
   22  H  4  S    0.000378   0.000058   0.078852  -0.090887   0.040570
   23  O  5  S    0.075580   0.000151   0.035513   0.034834  -0.023931
   24  O  5  S   -0.069819  -0.000141  -0.034130  -0.027814   0.024047
   25  O  5  X    0.004914   0.022782   0.015000  -0.039860  -0.006867
   26  O  5  Y   -0.027473   0.005803  -0.080504   0.160424   0.069151
   27  O  5  Z    0.037152   0.001022   0.108944   0.003679  -0.171814
   28  O  5  S   -0.272088  -0.000569  -0.149753  -0.151322   0.109411
   29  O  5  X    0.005968   0.018533   0.013116  -0.038173  -0.006035
   30  O  5  Y   -0.027108   0.004713  -0.068123   0.151979   0.065151
   31  O  5  Z    0.012816   0.000829   0.083194   0.012577  -0.168214
   32  C  6  S   -0.122948   0.149195   0.068736   0.012838   0.006724
   33  C  6  S    0.125313  -0.139048  -0.059188  -0.006701  -0.006030
   34  C  6  X    0.039939   0.020328   0.108566   0.161566   0.083562
   35  C  6  Y   -0.003232   0.005711  -0.057962   0.122612  -0.024941
   36  C  6  Z   -0.000211   0.000740  -0.027231  -0.049556   0.196202
   37  C  6  S    0.304401  -0.454519  -0.274278  -0.073264  -0.035273
   38  C  6  X   -0.009631   0.003676   0.037716   0.099324   0.067850
   39  C  6  Y   -0.003326   0.002812  -0.032787   0.088751  -0.019669
   40  C  6  Z    0.013630  -0.007750  -0.010872  -0.037752   0.135353
   41  H  7  S   -0.038965   0.000113  -0.072641   0.069652   0.078514
   42  H  7  S   -0.021964   0.000063  -0.066538   0.065707   0.077694
   43  H  8  S    0.062482  -0.083465  -0.081096   0.053637  -0.071908
   44  H  8  S    0.006861  -0.013837  -0.045341   0.059025  -0.069051
   45  H  9  S    0.059441  -0.094561  -0.058014  -0.117439  -0.088950
   46  H  9  S   -0.001186  -0.028295  -0.031547  -0.113620  -0.084111
   47  H 10  S    0.066755  -0.086339  -0.062533  -0.055955   0.132985
   48  H 10  S    0.005055  -0.016138  -0.039224  -0.059455   0.155175
   49  H 11  S    0.059168   0.094638  -0.058074  -0.117438  -0.086728
   50  H 11  S   -0.001201   0.028277  -0.031563  -0.113435  -0.081850
   51  H 12  S    0.062212   0.083569  -0.080996   0.053105  -0.073132
   52  H 12  S    0.006777   0.013783  -0.045203   0.058792  -0.069973

                     11         12         13         14         15
                   -0.3794    -0.3486    -0.3400    -0.2963    -0.2775
                     A          A          A          A          A   
    1  C  1  S    0.005075  -0.002655  -0.002870   0.014715  -0.005663
    2  C  1  S   -0.003510   0.003484   0.004117  -0.010619   0.003549
    3  C  1  X    0.025860   0.090833  -0.040443   0.250192   0.006458
    4  C  1  Y   -0.173878  -0.140269   0.189960   0.026997  -0.131184
    5  C  1  Z   -0.170067  -0.085682  -0.177978  -0.036124   0.078402
    6  C  1  S   -0.039742  -0.011710   0.019777  -0.045883   0.018322
    7  C  1  X    0.020126   0.103605  -0.033303   0.230818   0.008400
    8  C  1  Y   -0.136006  -0.121771   0.175759   0.014055  -0.124424
    9  C  1  Z   -0.137581  -0.076050  -0.142286  -0.018461   0.064075
   10  H  2  S   -0.121945  -0.060573  -0.140315  -0.042314   0.083245
   11  H  2  S   -0.122605  -0.074425  -0.165560  -0.051062   0.121436
   12  C  3  S   -0.000276  -0.012555   0.000074  -0.000105  -0.010780
   13  C  3  S    0.000296   0.015767  -0.000139   0.000099   0.010811
   14  C  3  X    0.207900  -0.012636  -0.030114  -0.216127  -0.039745
   15  C  3  Y    0.052093   0.029436  -0.008015  -0.052069   0.199602
   16  C  3  Z    0.007299   0.095976  -0.003414  -0.010192  -0.178201
   17  C  3  S    0.000986   0.028040   0.000020   0.000124   0.029190
   18  C  3  X    0.164747  -0.025764  -0.007979  -0.190557  -0.037862
   19  C  3  Y    0.041766   0.080173  -0.002771  -0.045628   0.187613
   20  C  3  Z    0.006176   0.118074  -0.002546  -0.009143  -0.164821
   21  H  4  S    0.000391   0.016198  -0.000379  -0.002205  -0.195298
   22  H  4  S    0.000404   0.015764  -0.000310  -0.002382  -0.222178
   23  O  5  S    0.000770   0.041024  -0.000250  -0.000025   0.004676
   24  O  5  S   -0.000671  -0.029533   0.000155  -0.000008  -0.011744
   25  O  5  X    0.145983  -0.060637   0.029304  -0.153659  -0.011413
   26  O  5  Y    0.037399   0.263656   0.004020  -0.037242   0.008330
   27  O  5  Z    0.008323  -0.096705   0.003393  -0.005936   0.221528
   28  O  5  S   -0.003434  -0.180459   0.000921   0.000202  -0.003026
   29  O  5  X    0.150184  -0.062036   0.033989  -0.163882  -0.015731
   30  O  5  Y    0.038484   0.267271   0.005090  -0.039622   0.022085
   31  O  5  Z    0.008671  -0.084945   0.003563  -0.006362   0.244643
   32  C  6  S   -0.005186  -0.002679   0.002844  -0.014974  -0.005187
   33  C  6  S    0.003584   0.003511  -0.004069   0.010844   0.003232
   34  C  6  X   -0.078070  -0.005449   0.039705   0.230366   0.044670
   35  C  6  Y    0.159888  -0.172221  -0.186115   0.090337  -0.120776
   36  C  6  Z    0.162078  -0.089305   0.179095   0.057861   0.079925
   37  C  6  S    0.040106  -0.011312  -0.019062   0.046807   0.016644
   38  C  6  X   -0.062003  -0.026159   0.042631   0.208527   0.041306
   39  C  6  Y    0.124721  -0.161546  -0.169776   0.093048  -0.115457
   40  C  6  Z    0.131593  -0.080977   0.144061   0.038246   0.065637
   41  H  7  S    0.000370   0.146443  -0.001756  -0.000356  -0.069861
   42  H  7  S    0.000387   0.160180  -0.001720  -0.000806  -0.150342
   43  H  8  S    0.082493  -0.091731  -0.169115   0.024894  -0.118198
   44  H  8  S    0.071067  -0.078639  -0.159884   0.018252  -0.150159
   45  H  9  S   -0.082348   0.115055   0.010632  -0.173942   0.015983
   46  H  9  S   -0.087740   0.104190   0.010943  -0.191827   0.014226
   47  H 10  S    0.117792  -0.059424   0.141392   0.042744   0.083021
   48  H 10  S    0.117546  -0.073189   0.166475   0.051552   0.121008
   49  H 11  S    0.086333   0.111623  -0.013064   0.175504   0.013054
   50  H 11  S    0.091504   0.101025  -0.013212   0.193410   0.010665
   51  H 12  S   -0.081257  -0.086342   0.171474  -0.028171  -0.118176
   52  H 12  S   -0.069368  -0.073252   0.161932  -0.022090  -0.150142

                     16         17         18         19         20
                   -0.2312    -0.1719     0.2114     0.4554     0.4896
                     A          A          A          A          A   
    1  C  1  S    0.022142   0.030602   0.045604  -0.081321   0.038971
    2  C  1  S   -0.016892  -0.022450  -0.018246   0.018163  -0.010197
    3  C  1  X    0.053402   0.101096  -0.008653   0.070617   0.000872
    4  C  1  Y    0.112778   0.083864  -0.077721  -0.001343  -0.110413
    5  C  1  Z    0.092192   0.086507  -0.015505   0.082167   0.130752
    6  C  1  S   -0.135184  -0.216429  -0.550953   1.137025  -0.544545
    7  C  1  X    0.083513   0.110157  -0.135113   0.362598  -0.035518
    8  C  1  Y    0.101283   0.123850  -0.318549   0.087162  -0.451401
    9  C  1  Z    0.059072   0.025820  -0.168615   0.212213   0.605840
   10  H  2  S    0.065121   0.049834   0.043208   0.038469  -0.034595
   11  H  2  S    0.119825   0.123630   0.456328  -0.686243  -0.618051
   12  C  3  S   -0.006670  -0.000005   0.013939  -0.047842  -0.014706
   13  C  3  S    0.009723   0.000060   0.014772   0.020651  -0.014700
   14  C  3  X    0.052545  -0.150814   0.001663   0.024931   0.014977
   15  C  3  Y   -0.187969  -0.036491   0.012589  -0.094611  -0.081337
   16  C  3  Z   -0.160027  -0.006645  -0.120050  -0.025180   0.117182
   17  C  3  S    0.041303  -0.000481  -0.383929   0.617012   0.376985
   18  C  3  X    0.018066   0.008028   0.010407   0.092340   0.041835
   19  C  3  Y   -0.064253   0.001956  -0.011059  -0.378473  -0.213673
   20  C  3  Z   -0.064003  -0.000272  -0.244071   0.025376   0.216680
   21  H  4  S    0.128228  -0.001764  -0.026479  -0.006879  -0.050372
   22  H  4  S    0.174674  -0.002860   0.116609  -0.752170  -0.696571
   23  O  5  S    0.054138   0.000019   0.079568   0.044300  -0.027785
   24  O  5  S   -0.047097  -0.000001  -0.039695  -0.013626   0.023288
   25  O  5  X   -0.078246   0.446899   0.047867   0.021253  -0.010194
   26  O  5  Y    0.283999   0.108314  -0.198775  -0.093779   0.025531
   27  O  5  Z    0.211345   0.019741   0.010330   0.020446   0.098756
   28  O  5  S   -0.246935  -0.000234  -0.697499  -0.442705   0.173104
   29  O  5  X   -0.094570   0.554286   0.098578   0.045927  -0.020167
   30  O  5  Y    0.340222   0.134371  -0.417779  -0.200137   0.051449
   31  O  5  Z    0.272482   0.024352   0.069468   0.038273   0.180962
   32  C  6  S    0.021587  -0.031104   0.045101  -0.081892   0.040971
   33  C  6  S   -0.016471   0.022814  -0.017962   0.018342  -0.010556
   34  C  6  X   -0.104770   0.137461   0.044868  -0.069295   0.042092
   35  C  6  Y    0.071414  -0.024664  -0.062824  -0.036104  -0.101190
   36  C  6  Z    0.083073  -0.076860  -0.013153   0.076026   0.132436
   37  C  6  S   -0.131852   0.220380  -0.545601   1.144176  -0.572934
   38  C  6  X   -0.123026   0.160205   0.280034  -0.381628   0.198943
   39  C  6  Y    0.047453  -0.056130  -0.207455  -0.097751  -0.398135
   40  C  6  Z    0.048975  -0.013937  -0.147786   0.180682   0.616471
   41  H  7  S    0.078369   0.000110   0.062903   0.056590  -0.012783
   42  H  7  S    0.065257  -0.000003   1.002224   0.659288  -0.019917
   43  H  8  S    0.037432   0.005003  -0.034590  -0.007651   0.015008
   44  H  8  S    0.083909   0.001218   0.409550  -0.280383   1.021747
   45  H  9  S   -0.037038  -0.012240  -0.010237  -0.034903   0.016517
   46  H  9  S   -0.063635  -0.069768   0.145801  -0.765615   0.393984
   47  H 10  S    0.063714  -0.050387   0.042550   0.037998  -0.034492
   48  H 10  S    0.117076  -0.125304   0.451043  -0.692485  -0.607878
   49  H 11  S   -0.036242   0.012846  -0.010430  -0.034978   0.017136
   50  H 11  S   -0.061844   0.070486   0.147524  -0.762220   0.383136
   51  H 12  S    0.037010  -0.005752  -0.034968  -0.008036   0.014453
   52  H 12  S    0.083601  -0.003426   0.415479  -0.274467   1.004644

                     21         22         23         24         25
                    0.4982     0.5037     0.5348     0.5470     0.5506
                     A          A          A          A          A   
    1  C  1  S   -0.118451  -0.010242   0.052737   0.011333  -0.007710
    2  C  1  S    0.019250  -0.013742  -0.008280   0.003799   0.014933
    3  C  1  X    0.069427  -0.093674  -0.019891  -0.069781  -0.199226
    4  C  1  Y    0.055734   0.101547   0.078278  -0.045588   0.104011
    5  C  1  Z    0.057027   0.128526  -0.049752   0.196995  -0.005950
    6  C  1  S    1.719172   0.307234  -0.690936  -0.253413  -0.017664
    7  C  1  X    0.162464  -0.583019  -0.133997  -0.262605  -0.899477
    8  C  1  Y    0.246458   0.430170   0.661326  -0.218515   0.553493
    9  C  1  Z    0.184605   0.568532  -0.329280   0.996801  -0.074619
   10  H  2  S   -0.012303  -0.004877  -0.014379  -0.042015   0.028216
   11  H  2  S   -0.901139  -0.750624   0.603690  -1.159261   0.108992
   12  C  3  S   -0.000430   0.018600  -0.117835  -0.000653  -0.001101
   13  C  3  S    0.000207   0.002528   0.022128   0.000135   0.000303
   14  C  3  X   -0.046041  -0.014727   0.032473  -0.012131  -0.056256
   15  C  3  Y   -0.012245   0.057256  -0.143184  -0.003463  -0.014933
   16  C  3  Z   -0.003160  -0.019102   0.098036   0.000263  -0.002128
   17  C  3  S    0.004260  -0.301964   1.713616   0.009744   0.014627
   18  C  3  X   -0.253016  -0.010905   0.182928   0.234442  -0.191188
   19  C  3  Y   -0.065003   0.065146  -0.829269   0.057340  -0.054286
   20  C  3  Z   -0.009326  -0.286087   0.628166   0.014944  -0.005363
   21  H  4  S   -0.000133   0.022307   0.017639   0.000086   0.000262
   22  H  4  S   -0.003991   0.427313  -1.666130  -0.007310  -0.011110
   23  O  5  S    0.000308   0.027512   0.011033   0.000051   0.000258
   24  O  5  S   -0.000359  -0.007283  -0.011755  -0.000027  -0.000141
   25  O  5  X    0.061575   0.009209   0.002043   0.035544  -0.010350
   26  O  5  Y    0.015102  -0.045154  -0.005660   0.008579  -0.002850
   27  O  5  Z    0.001015   0.059342  -0.021787   0.001885  -0.001029
   28  O  5  S   -0.001060  -0.307160  -0.055138  -0.000450  -0.002215
   29  O  5  X    0.094045   0.030200  -0.007657   0.031810   0.011542
   30  O  5  Y    0.023500  -0.132927   0.031872   0.007227   0.002765
   31  O  5  Z    0.001276   0.080515  -0.027284   0.002292  -0.000803
   32  C  6  S    0.117891  -0.006204   0.052694  -0.010572   0.008634
   33  C  6  S   -0.018534  -0.014266  -0.008076  -0.003938  -0.015165
   34  C  6  X    0.090528   0.025949  -0.013355  -0.066610  -0.125443
   35  C  6  Y   -0.017947   0.131445   0.082152   0.012022  -0.184723
   36  C  6  Z   -0.055897   0.132425  -0.047667  -0.202534  -0.009369
   37  C  6  S   -1.716160   0.246824  -0.693274   0.243271   0.006595
   38  C  6  X    0.262225   0.265966  -0.161382  -0.253966  -0.532173
   39  C  6  Y   -0.151724   0.643141   0.666233   0.094824  -0.903001
   40  C  6  Z   -0.193914   0.604524  -0.321245  -1.019631   0.005638
   41  H  7  S    0.000040   0.044994   0.005548  -0.000089   0.000115
   42  H  7  S   -0.000903   0.417905   0.158660   0.002833   0.002120
   43  H  8  S    0.026853  -0.044724  -0.021036  -0.040564   0.029459
   44  H  8  S    0.847299  -0.588051  -0.456708  -0.666802   0.934892
   45  H  9  S   -0.027337   0.032544   0.017125   0.003516  -0.027973
   46  H  9  S    0.616632   0.965655   0.502970  -0.716766  -1.151128
   47  H 10  S    0.013441  -0.004495  -0.014384   0.041857  -0.028430
   48  H 10  S    0.933586  -0.721407   0.596078   1.161598  -0.101327
   49  H 11  S    0.025744   0.033297   0.016587  -0.003286   0.028075
   50  H 11  S   -0.658272   0.938073   0.480287   0.721824   1.162917
   51  H 12  S   -0.025964  -0.045658  -0.020804   0.040132  -0.030084
   52  H 12  S   -0.842954  -0.612578  -0.447212   0.666189  -0.945744

                     26         27         28         29         30
                    0.6224     0.6634     0.6857     1.0734     1.1674
                     A          A          A          A          A   
    1  C  1  S    0.069268   0.055755   0.027810  -0.003656   0.005462
    2  C  1  S    0.005167   0.001710  -0.000630   0.057629   0.005798
    3  C  1  X    0.073420   0.052496  -0.014321  -0.505016   0.101803
    4  C  1  Y    0.053381   0.133131  -0.056350   0.125169   0.496686
    5  C  1  Z    0.044091   0.019831   0.052895   0.067063  -0.036289
    6  C  1  S   -1.106729  -0.926652  -0.297404  -0.213213  -0.216699
    7  C  1  X    1.059709   0.529504   0.056783   0.704667  -0.072053
    8  C  1  Y    0.472389   1.101793  -0.060386  -0.244355  -0.702590
    9  C  1  Z    0.326854   0.568882   0.571681  -0.150176   0.068928
   10  H  2  S   -0.034313  -0.043182   0.064492   0.106102   0.022644
   11  H  2  S    0.005636  -0.155108  -0.313931   0.017542   0.036873
   12  C  3  S   -0.113821  -0.002317  -0.127233   0.004339   0.012734
   13  C  3  S    0.005379   0.001047   0.064549  -0.052120  -0.030981
   14  C  3  X   -0.072283   0.345803  -0.002812  -0.008473  -0.302578
   15  C  3  Y    0.259866   0.089309   0.032798   0.031776  -0.102877
   16  C  3  Z    0.107020   0.012101  -0.246751   0.002022   0.103769
   17  C  3  S    1.791045   0.026163   1.321433   0.336167  -0.010840
   18  C  3  X   -0.410257   1.903315  -0.008597  -0.047766   0.309170
   19  C  3  Y    1.454183   0.491376   0.133313   0.152080   0.117146
   20  C  3  Z    0.720757   0.070079  -1.239644   0.235357  -0.017254
   21  H  4  S    0.009405   0.001067   0.067106  -0.228083   0.083621
   22  H  4  S    0.694733  -0.000974  -0.150613   0.095646  -0.005409
   23  O  5  S   -0.006516   0.001170   0.069416   0.002324  -0.006961
   24  O  5  S    0.002676  -0.000429  -0.017882  -0.011958   0.012822
   25  O  5  X    0.022601  -0.080952   0.000061  -0.004017  -0.018689
   26  O  5  Y   -0.091609  -0.020582   0.060750   0.013604  -0.002208
   27  O  5  Z    0.017981  -0.007700  -0.307487   0.009865   0.020331
   28  O  5  S    0.059634  -0.011660  -0.704892   0.027341   0.017386
   29  O  5  X    0.060819  -0.258742   0.008785   0.002385  -0.060837
   30  O  5  Y   -0.252460  -0.065997   0.139765  -0.013992  -0.005561
   31  O  5  Z    0.085498  -0.022760  -0.875585   0.023556   0.011125
   32  C  6  S    0.069655  -0.054413   0.029219  -0.003700  -0.007595
   33  C  6  S    0.005197  -0.001733  -0.000408   0.057624   0.015000
   34  C  6  X   -0.093682   0.110950   0.032332   0.377266   0.424481
   35  C  6  Y    0.011900  -0.092642  -0.040737   0.350072  -0.475361
   36  C  6  Z    0.037397  -0.009503   0.055548   0.105895   0.176015
   37  C  6  S   -1.114173   0.910422  -0.322081  -0.211797   0.199372
   38  C  6  X   -1.186043   1.025068  -0.098572  -0.487433  -0.495440
   39  C  6  Y   -0.091003  -0.705532  -0.069252  -0.549151   0.725719
   40  C  6  Z    0.234487  -0.480729   0.580157  -0.203613  -0.368609
   41  H  7  S   -0.013584  -0.000717   0.004603  -0.009503  -0.037260
   42  H  7  S    0.188040  -0.001584  -0.542040   0.055498  -0.022997
   43  H  8  S   -0.048339   0.035599  -0.048574   0.285888  -0.464024
   44  H  8  S    0.162489   0.485836   0.342407  -0.026566  -0.008484
   45  H  9  S   -0.032701   0.064275  -0.039175  -0.424488   0.066770
   46  H  9  S   -0.186043  -0.139265   0.210054   0.121905  -0.062138
   47  H 10  S   -0.034844   0.045352   0.063558   0.104359   0.164274
   48  H 10  S   -0.000419   0.143435  -0.319130   0.018467  -0.017705
   49  H 11  S   -0.032006  -0.065831  -0.036927  -0.424501  -0.098109
   50  H 11  S   -0.192051   0.144465   0.203538   0.122255   0.054126
   51  H 12  S   -0.048269  -0.038021  -0.046948   0.284420   0.334008
   52  H 12  S    0.165101  -0.474600   0.361299  -0.025948   0.000016

                     31         32         33         34         35
                    1.1682     1.2062     1.2085     1.2614     1.3174
                     A          A          A          A          A   
    1  C  1  S    0.006106  -0.030226  -0.022745  -0.021986  -0.044057
    2  C  1  S   -0.044260   0.056293   0.036265   0.088440   0.057898
    3  C  1  X    0.153027  -0.236243  -0.305101  -0.250818  -0.232269
    4  C  1  Y    0.402851  -0.441851  -0.162098  -0.170026  -0.144969
    5  C  1  Z   -0.252077  -0.390662  -0.557127   0.089901   0.057736
    6  C  1  S   -0.016978   0.203024   0.114661  -0.386391  -0.256268
    7  C  1  X   -0.117603   0.173709   0.375234   0.484691   0.619296
    8  C  1  Y   -0.566981   0.586461   0.176322   0.307751   0.446213
    9  C  1  Z    0.603687   0.698358   0.941014  -0.319083  -0.067484
   10  H  2  S   -0.400270  -0.238864  -0.485443  -0.018394   0.014892
   11  H  2  S   -0.031678  -0.181439  -0.055936   0.120836  -0.077644
   12  C  3  S   -0.052859   0.042553   0.002679   0.033152   0.000019
   13  C  3  S    0.129217  -0.198040  -0.013517  -0.042515  -0.000133
   14  C  3  X   -0.076563  -0.004142  -0.057461   0.145322  -0.843570
   15  C  3  Y    0.084681   0.012574  -0.013111  -0.425256  -0.210968
   16  C  3  Z   -0.494672   0.147199   0.006347  -0.852909  -0.037668
   17  C  3  S    0.040427   0.775617   0.056720   0.252012   0.000910
   18  C  3  X    0.106941   0.037859   0.147507  -0.266836   1.284409
   19  C  3  Y   -0.128204  -0.101328   0.028790   0.803345   0.318235
   20  C  3  Z    0.146145  -0.542554  -0.033327   1.434719   0.057844
   21  H  4  S   -0.346815  -0.077827  -0.008659   0.287687  -0.001660
   22  H  4  S    0.021733   0.098736   0.007783   0.060338  -0.002458
   23  O  5  S    0.028793   0.013817   0.001493  -0.027265  -0.000101
   24  O  5  S   -0.054268   0.042468   0.002256  -0.009344   0.000124
   25  O  5  X    0.000383  -0.026209   0.173889   0.023155  -0.107637
   26  O  5  Y   -0.012252   0.024459   0.045410  -0.068710  -0.026183
   27  O  5  Z   -0.088292   0.127812   0.017169  -0.117306  -0.005072
   28  O  5  S   -0.067729  -0.352167  -0.028203   0.564602   0.000776
   29  O  5  X   -0.003030   0.020179   0.014525  -0.001166  -0.116070
   30  O  5  Y   -0.041459  -0.071866  -0.003242  -0.027662  -0.028242
   31  O  5  Z   -0.054526  -0.099639  -0.006998   0.200816  -0.005111
   32  C  6  S    0.002666  -0.033333   0.018232  -0.021806   0.043946
   33  C  6  S   -0.041573   0.061299  -0.027801   0.088112  -0.058830
   34  C  6  X   -0.120372   0.504169  -0.324571   0.290501  -0.267062
   35  C  6  Y    0.078086  -0.264128  -0.050133  -0.030638   0.013591
   36  C  6  Z   -0.222837  -0.431896   0.465218   0.115736  -0.079879
   37  C  6  S    0.084502   0.217591  -0.084345  -0.387038   0.261804
   38  C  6  X    0.104475  -0.558716   0.417396  -0.540195   0.749446
   39  C  6  Y   -0.139754   0.410032   0.098479   0.043842  -0.089649
   40  C  6  Z    0.522345   0.790581  -0.789463  -0.367064   0.128098
   41  H  7  S    0.147980   0.303288   0.024527  -0.215556  -0.001483
   42  H  7  S    0.105656  -0.095299  -0.004086   0.215588   0.000239
   43  H  8  S    0.174525  -0.123870  -0.082211  -0.105008   0.169057
   44  H  8  S    0.016390  -0.104829   0.045821  -0.049672   0.104653
   45  H  9  S    0.083751  -0.037459  -0.057116   0.080777   0.431987
   46  H  9  S    0.000385   0.033414   0.097143  -0.181202   0.059157
   47  H 10  S   -0.371544  -0.304855   0.441924  -0.017820  -0.016237
   48  H 10  S   -0.044852  -0.188162   0.029037   0.121801   0.077638
   49  H 11  S    0.042691  -0.045213   0.050459   0.080197  -0.433645
   50  H 11  S    0.028577   0.047191  -0.091879  -0.181266  -0.056255
   51  H 12  S    0.365892  -0.132511   0.068239  -0.105972  -0.169760
   52  H 12  S    0.019742  -0.096467  -0.060080  -0.051430  -0.108366

                     36         37         38         39         40
                    1.4038     1.4527     1.4582     1.5410     1.5463
                     A          A          A          A          A   
    1  C  1  S    0.006932   0.021123   0.062079   0.017024   0.007581
    2  C  1  S    0.035773   0.081169  -0.015009  -0.029840   0.014693
    3  C  1  X   -0.151605   0.530244  -0.151760  -0.120381  -0.195325
    4  C  1  Y    0.409956  -0.294369  -0.109852  -0.158644   0.275601
    5  C  1  Z   -0.364404  -0.295997  -0.149194   0.448011   0.177859
    6  C  1  S   -0.359042  -0.926521  -0.189882  -0.145392  -0.507360
    7  C  1  X    0.446109  -0.976008   0.021374   0.233824   0.154570
    8  C  1  Y   -0.829367   0.987002   0.009154   0.187176   0.007215
    9  C  1  Z    0.888460   0.807057   0.161471  -0.456101   0.003812
   10  H  2  S    0.124354   0.171030   0.417034  -0.286700  -0.224532
   11  H  2  S   -0.482915  -0.388248  -0.247484   0.574043   0.277893
   12  C  3  S   -0.007442   0.000204  -0.001436  -0.038073   0.000718
   13  C  3  S    0.027281  -0.006971   0.152129   0.164410  -0.002564
   14  C  3  X    0.161601  -0.507693  -0.111928   0.103017  -0.355161
   15  C  3  Y   -0.716946  -0.141740   0.364912  -0.474647  -0.085770
   16  C  3  Z    0.320576  -0.019707  -0.102922   0.246004  -0.019815
   17  C  3  S   -0.030540  -0.005277   0.110179  -0.162193   0.001349
   18  C  3  X   -0.399495   1.736994   0.116295  -0.182703   0.959280
   19  C  3  Y    1.791968   0.438541  -0.164809   0.840520   0.238503
   20  C  3  Z   -0.915943   0.076473   0.127017  -0.300724   0.047278
   21  H  4  S    0.194991  -0.019265   0.444338  -0.462264   0.009706
   22  H  4  S    0.757217   0.011371  -0.398281   0.957904  -0.012355
   23  O  5  S    0.001458  -0.000053   0.002771   0.025303  -0.000494
   24  O  5  S    0.049601  -0.001051   0.012055  -0.060058   0.001042
   25  O  5  X    0.012082  -0.011993   0.020797   0.028366  -0.052484
   26  O  5  Y   -0.058840   0.001186  -0.101927  -0.109814  -0.012240
   27  O  5  Z    0.045694  -0.002964   0.062711  -0.070775  -0.001263
   28  O  5  S   -0.263802   0.000629   0.016393  -0.037796   0.001689
   29  O  5  X    0.051397  -0.170070   0.005151   0.032898  -0.092847
   30  O  5  Y   -0.188256  -0.039354  -0.063819  -0.140663  -0.021648
   31  O  5  Z   -0.120371  -0.009002   0.056880   0.014017  -0.003740
   32  C  6  S    0.007044  -0.026514   0.060331   0.016956  -0.008027
   33  C  6  S    0.034336  -0.080351  -0.022294  -0.030694  -0.014133
   34  C  6  X   -0.030330   0.280771   0.224471   0.143035  -0.032281
   35  C  6  Y    0.447360   0.499077   0.021477  -0.104152  -0.334862
   36  C  6  Z   -0.357184   0.347739  -0.104210   0.452492  -0.206139
   37  C  6  S   -0.345978   0.945386  -0.108712  -0.126828   0.508131
   38  C  6  X   -0.066809  -0.308847  -0.065301  -0.250795   0.148694
   39  C  6  Y   -0.977465  -1.297078  -0.117821   0.066588   0.069105
   40  C  6  Z    0.860207  -0.886004   0.083325  -0.474728   0.030276
   41  H  7  S    0.131166  -0.015642   0.354937   0.554820  -0.008830
   42  H  7  S   -0.221587   0.006520  -0.093754  -0.511411   0.007486
   43  H  8  S   -0.092802  -0.084427   0.421952   0.245927   0.438366
   44  H  8  S    0.647818   0.339917  -0.070336  -0.336327  -0.512864
   45  H  9  S    0.140898  -0.308517   0.453494   0.314321  -0.719015
   46  H  9  S   -0.194641  -0.614509  -0.248714  -0.406814   0.735407
   47  H 10  S    0.122659  -0.210188   0.402750  -0.278939   0.234938
   48  H 10  S   -0.481830   0.415051  -0.214450   0.562856  -0.299510
   49  H 11  S    0.139990   0.267798   0.476112   0.335786   0.700701
   50  H 11  S   -0.189395   0.635775  -0.192990  -0.429684  -0.710159
   51  H 12  S   -0.092980   0.050898   0.425625   0.229449  -0.438186
   52  H 12  S    0.641749  -0.342464  -0.098084  -0.317327   0.514867

                     41         42         43         44         45
                    1.5637     1.5740     1.5984     1.6300     1.6392
                     A          A          A          A          A   
    1  C  1  S   -0.006538   0.020531  -0.001014   0.066378  -0.031715
    2  C  1  S    0.043619  -0.085428  -0.023036  -0.308998   0.211773
    3  C  1  X    0.146183   0.380342  -0.094661  -0.449451   0.139615
    4  C  1  Y   -0.291852  -0.308150   0.137072  -0.193643   0.135042
    5  C  1  Z    0.482979  -0.202674  -0.044012   0.038046   0.129153
    6  C  1  S   -0.184283  -0.163198   0.074789   0.308806  -0.446342
    7  C  1  X   -0.238374  -0.219119  -0.003324   0.877712  -0.039764
    8  C  1  Y    0.465087   0.421689   0.230935   0.328639  -0.357059
    9  C  1  Z   -0.524785   0.136843  -0.469926  -0.064415  -0.188318
   10  H  2  S   -0.639260   0.402264   0.408164   0.411580  -0.171669
   11  H  2  S    0.956344  -0.412972  -0.154249  -0.314310   0.280691
   12  C  3  S   -0.000032  -0.023541  -0.027321  -0.000218   0.029748
   13  C  3  S   -0.000263   0.172423   0.100922   0.001460  -0.209124
   14  C  3  X   -0.088059   0.119347  -0.029753  -0.146670  -0.025719
   15  C  3  Y   -0.019490  -0.439373   0.157845  -0.038076   0.113312
   16  C  3  Z   -0.005678  -0.115384  -0.263139  -0.006754  -0.078240
   17  C  3  S   -0.000097  -0.189562  -0.094843   0.000042   0.072420
   18  C  3  X    0.235405  -0.229827   0.165659   0.649896  -0.049177
   19  C  3  Y    0.051905   0.808574  -0.792470   0.165986   0.203874
   20  C  3  Z    0.016478   0.410346   0.924558   0.030768  -0.010493
   21  H  4  S   -0.002355  -0.288091  -0.674017  -0.003540   0.677525
   22  H  4  S   -0.002986   0.738523   0.047109   0.003623  -0.545324
   23  O  5  S    0.000024  -0.004844   0.004361   0.000065   0.013494
   24  O  5  S   -0.000407  -0.014437  -0.052169  -0.000396  -0.026498
   25  O  5  X   -0.060878   0.026958   0.016880  -0.001160   0.084344
   26  O  5  Y   -0.015997  -0.098572  -0.053399  -0.000375  -0.339258
   27  O  5  Z   -0.003342  -0.047988  -0.112274   0.000166  -0.009161
   28  O  5  S    0.002647   0.224947   0.383110   0.000446   0.110479
   29  O  5  X   -0.020294   0.009601  -0.013165  -0.065498   0.003525
   30  O  5  Y   -0.004814  -0.062187   0.002331  -0.016640  -0.034576
   31  O  5  Z    0.000801   0.146148   0.258962  -0.002559   0.094936
   32  C  6  S    0.006324   0.020863  -0.001065  -0.065844  -0.032054
   33  C  6  S   -0.043019  -0.086281  -0.022899   0.307218   0.214569
   34  C  6  X    0.030068  -0.166160   0.023636  -0.480334  -0.200650
   35  C  6  Y    0.341172  -0.440732   0.161527  -0.044374   0.048270
   36  C  6  Z   -0.472046  -0.228133  -0.033605  -0.081447   0.114275
   37  C  6  S    0.185132  -0.167075   0.080467  -0.307240  -0.449641
   38  C  6  X   -0.031395  -0.025864  -0.071289   0.915935   0.228249
   39  C  6  Y   -0.534224   0.466018   0.216392   0.131247  -0.287447
   40  C  6  Z    0.501915   0.149202  -0.481496   0.146412  -0.174232
   41  H  7  S    0.003682   0.188669   0.561028  -0.000360   0.891119
   42  H  7  S   -0.002428  -0.106551  -0.352474   0.001776  -0.751334
   43  H  8  S   -0.447004   0.327967  -0.561480  -0.545985  -0.075514
   44  H  8  S    0.803766  -0.509097   0.342533   0.573657   0.274048
   45  H  9  S   -0.056629  -0.430592   0.092666  -0.356590  -0.348397
   46  H  9  S   -0.037354   0.667964  -0.170178   0.740246   0.301800
   47  H 10  S    0.640855   0.403763   0.403578  -0.406741  -0.177420
   48  H 10  S   -0.953365  -0.415140  -0.145386   0.309679   0.285454
   49  H 11  S    0.058533  -0.440439   0.097630   0.360085  -0.350430
   50  H 11  S    0.032620   0.680120  -0.170659  -0.742354   0.299147
   51  H 12  S    0.439218   0.334024  -0.571635   0.547954  -0.072705
   52  H 12  S   -0.797907  -0.518551   0.356281  -0.576490   0.271991

                     46         47         48         49         50
                    2.0562     2.2003     2.2856     2.4052     2.4125
                     A          A          A          A          A   
    1  C  1  S    0.004459  -0.012171   0.014555   0.039857   0.011256
    2  C  1  S   -1.153060  -0.248098  -0.139917   1.454611   0.212626
    3  C  1  X   -0.049725  -0.011830   0.067242  -0.168799   0.006793
    4  C  1  Y    0.025628  -0.008492   0.061273  -0.021075   0.007188
    5  C  1  Z   -0.002055  -0.155219   0.115292   0.001741  -0.016612
    6  C  1  S    1.951880   0.889760  -0.347817  -2.959412  -0.678596
    7  C  1  X    0.210682  -0.097041   0.337453   0.479578   0.265134
    8  C  1  Y    0.074745  -0.265309   0.043355   0.129411   0.006220
    9  C  1  Z    0.072192   0.244964  -0.149858   0.052428   0.071544
   10  H  2  S   -0.042324  -0.073248   0.064818   0.204781   0.048558
   11  H  2  S   -0.463161  -0.274221   0.062161   0.487200   0.033927
   12  C  3  S    0.022999   0.000076  -0.028556  -0.000789   0.011011
   13  C  3  S   -0.892022  -0.006152  -0.529902   0.020512  -0.343441
   14  C  3  X    0.004156   0.121213   0.048630   0.100808   0.007576
   15  C  3  Y   -0.011224   0.029131  -0.149862   0.027224  -0.024567
   16  C  3  Z   -0.025346   0.004948  -0.268915  -0.002276   0.099982
   17  C  3  S    0.737275   0.007625   1.439342  -0.017702   0.350201
   18  C  3  X    0.080955  -0.877278  -0.190821   0.923488  -0.107269
   19  C  3  Y   -0.304602  -0.214521   0.729193   0.194131   0.640083
   20  C  3  Z   -0.059317  -0.036648   0.266871   0.015797   0.415816
   21  H  4  S    0.056976   0.002803   0.066302  -0.014325   0.221086
   22  H  4  S   -0.500272  -0.000912  -0.055323   0.001823  -0.030819
   23  O  5  S    0.007586  -0.000009   0.057409   0.000339  -0.002763
   24  O  5  S   -0.042434   0.000066  -0.279982  -0.007608   0.100417
   25  O  5  X    0.063179  -0.979157  -0.183131  -0.144060  -0.130137
   26  O  5  Y   -0.214037  -0.238584   0.637692  -0.078689   0.644588
   27  O  5  Z   -0.154396  -0.045091   0.633363   0.045364  -0.802847
   28  O  5  S   -0.054794  -0.000142   0.047102   0.009843  -0.140935
   29  O  5  X   -0.067808   1.105140   0.248489   0.086537   0.199102
   30  O  5  Y    0.252232   0.269399  -0.882392   0.087113  -0.999545
   31  O  5  Z    0.049365   0.050327  -0.763684  -0.066317   1.095761
   32  C  6  S    0.004429   0.012263   0.014445  -0.040801   0.005715
   33  C  6  S   -1.155825   0.240703  -0.138626  -1.467223   0.022700
   34  C  6  X    0.031276  -0.028973  -0.096820  -0.155598  -0.027767
   35  C  6  Y    0.045886  -0.001279   0.019354  -0.061926  -0.004234
   36  C  6  Z    0.001047   0.154887   0.105774  -0.013843  -0.020248
   37  C  6  S    1.957776  -0.885794  -0.343180   3.013030  -0.281378
   38  C  6  X   -0.225363  -0.195934  -0.301221   0.509904  -0.170919
   39  C  6  Y   -0.035492   0.188052  -0.122962   0.130872  -0.112403
   40  C  6  Z    0.053735  -0.260015  -0.174820  -0.015967   0.046628
   41  H  7  S    0.005270  -0.000031   0.434392  -0.019877   0.318365
   42  H  7  S   -0.145790  -0.000543  -0.299196  -0.025680   0.404995
   43  H  8  S   -0.039100   0.010182   0.031964  -0.224871   0.079475
   44  H  8  S   -0.403267  -0.025153  -0.014312  -0.512263  -0.022275
   45  H  9  S   -0.019290   0.014792  -0.031998  -0.185220  -0.025425
   46  H  9  S   -0.565158   0.060373  -0.125327  -0.229043   0.009259
   47  H 10  S   -0.042725   0.073534   0.064124  -0.207847   0.020899
   48  H 10  S   -0.464858   0.273378   0.059729  -0.487179  -0.030011
   49  H 11  S   -0.019525  -0.017506  -0.032482   0.186973  -0.000720
   50  H 11  S   -0.564418  -0.063479  -0.124902   0.226610   0.039515
   51  H 12  S   -0.038935  -0.009278   0.031456   0.213071   0.109459
   52  H 12  S   -0.401765   0.023161  -0.016389   0.512490   0.038880

                     51         52
                    2.6828     3.6653
                     A          A   
    1  C  1  S    0.065897  -0.025119
    2  C  1  S    0.858576  -0.109519
    3  C  1  X    0.112693  -0.059973
    4  C  1  Y    0.026718  -0.049901
    5  C  1  Z   -0.015177  -0.064034
    6  C  1  S   -2.764995   0.708812
    7  C  1  X    0.426015  -0.159618
    8  C  1  Y    0.569655  -0.144560
    9  C  1  Z    0.406411  -0.196901
   10  H  2  S    0.206819  -0.004231
   11  H  2  S    0.131714  -0.063943
   12  C  3  S   -0.102846   0.089138
   13  C  3  S   -1.849870   0.666726
   14  C  3  X    0.008407  -0.016125
   15  C  3  Y   -0.033754   0.035617
   16  C  3  Z    0.006590   0.164071
   17  C  3  S    4.960757  -2.368753
   18  C  3  X   -0.134879   0.023468
   19  C  3  Y    0.444258  -0.193988
   20  C  3  Z    0.389686   0.533866
   21  H  4  S   -0.455146   0.207347
   22  H  4  S   -0.445905   0.171890
   23  O  5  S    0.041622   0.060937
   24  O  5  S   -0.235345  -1.665490
   25  O  5  X    0.056344   0.028382
   26  O  5  Y   -0.222514  -0.075715
   27  O  5  Z   -0.028748  -0.230912
   28  O  5  S   -0.246670   2.371535
   29  O  5  X   -0.066099  -0.105468
   30  O  5  Y    0.345192   0.301360
   31  O  5  Z   -0.416123   0.740852
   32  C  6  S    0.066107  -0.024981
   33  C  6  S    0.861793  -0.107662
   34  C  6  X   -0.109795   0.082093
   35  C  6  Y   -0.029701  -0.013693
   36  C  6  Z   -0.025404  -0.058202
   37  C  6  S   -2.774107   0.704343
   38  C  6  X   -0.681314   0.222539
   39  C  6  Y    0.289549  -0.046487
   40  C  6  Z    0.360422  -0.177825
   41  H  7  S   -0.180281  -0.268403
   42  H  7  S   -0.200042  -0.139555
   43  H  8  S    0.206350  -0.087064
   44  H  8  S    0.189483   0.017682
   45  H  9  S    0.235240  -0.059653
   46  H  9  S    0.333155  -0.045642
   47  H 10  S    0.207235  -0.004041
   48  H 10  S    0.131523  -0.064390
   49  H 11  S    0.234122  -0.060318
   50  H 11  S    0.332458  -0.045093
   51  H 12  S    0.205184  -0.088018
   52  H 12  S    0.189746   0.018024

  ----- BETA SET ----- 

          ------------
          EIGENVECTORS
          ------------

                      1          2          3          4          5
                  -20.1288   -11.0003   -10.9558   -10.9552    -1.0342
                     A          A          A          A          A   
    1  C  1  S    0.000152  -0.003429  -0.335719   0.928685  -0.027963
    2  C  1  S    0.000413  -0.003251  -0.035965   0.095019   0.028634
    3  C  1  X    0.000392  -0.000483   0.001072   0.000339  -0.015357
    4  C  1  Y    0.000441  -0.000299   0.000103  -0.000056  -0.014874
    5  C  1  Z    0.000377   0.000049  -0.000220   0.000121  -0.013768
    6  C  1  S   -0.003782   0.024209   0.030001  -0.074323   0.050382
    7  C  1  X    0.000528  -0.009852  -0.004037   0.002102   0.003510
    8  C  1  Y    0.000464  -0.008045  -0.000867   0.002666   0.004218
    9  C  1  Z    0.003055  -0.005822   0.000273   0.001873  -0.012135
   10  H  2  S   -0.000409  -0.001324  -0.000388   0.000016   0.010378
   11  H  2  S    0.000160   0.001093  -0.006050   0.013060  -0.000022
   12  C  3  S   -0.000916   0.988203   0.001603   0.003355  -0.092044
   13  C  3  S   -0.003987   0.104312  -0.001042  -0.002224   0.095312
   14  C  3  X    0.000092  -0.000139  -0.000254   0.000099   0.002511
   15  C  3  Y   -0.000119   0.000424  -0.000058   0.000043   0.002325
   16  C  3  Z   -0.001423   0.000658   0.000114   0.000269  -0.070698
   17  C  3  S    0.020304  -0.091739   0.010534   0.022456   0.186675
   18  C  3  X    0.000320   0.001987  -0.013728   0.004592   0.000353
   19  C  3  Y    0.000709  -0.006717  -0.000769   0.006972  -0.003245
   20  C  3  Z   -0.010807  -0.005808   0.000883   0.003402   0.008381
   21  H  4  S   -0.001500   0.000928  -0.000727  -0.001550   0.032906
   22  H  4  S   -0.001294   0.015089   0.000578   0.001226  -0.005390
   23  O  5  S    0.983499  -0.000266   0.000011   0.000024  -0.212045
   24  O  5  S    0.097539  -0.001042  -0.000080  -0.000160   0.191316
   25  O  5  X   -0.000554  -0.000040   0.000180   0.000005  -0.009238
   26  O  5  Y    0.001818   0.000089  -0.000079  -0.000257   0.030125
   27  O  5  Z    0.002615   0.000439  -0.000116  -0.000266   0.044218
   28  O  5  S   -0.044249   0.009756  -0.000493  -0.001072   0.665763
   29  O  5  X    0.001477  -0.000308   0.000412  -0.000302  -0.012871
   30  O  5  Y   -0.004590   0.000380   0.000332   0.000379   0.042736
   31  O  5  Z   -0.008351   0.004648  -0.000230  -0.000530   0.057687
   32  C  6  S    0.000150  -0.003466   0.928790   0.335430  -0.028002
   33  C  6  S    0.000401  -0.003259   0.096063   0.033077   0.028709
   34  C  6  X   -0.000590   0.000562   0.000396  -0.000926   0.021685
   35  C  6  Y    0.000191  -0.000034   0.000108  -0.000453  -0.005455
   36  C  6  Z    0.000343   0.000097   0.000269  -0.000182  -0.012151
   37  C  6  S   -0.003757   0.024231  -0.076333  -0.024431   0.050373
   38  C  6  X   -0.000908   0.012954  -0.005008   0.000930  -0.004138
   39  C  6  Y    0.000088  -0.002251   0.000255   0.001712   0.002328
   40  C  6  Z    0.002947  -0.004830   0.000871   0.001545  -0.012415
   41  H  7  S    0.002705  -0.000588  -0.000321  -0.000680   0.081688
   42  H  7  S    0.005173   0.003141   0.000146   0.000353   0.013892
   43  H  8  S    0.000724  -0.001582   0.000388  -0.000181   0.010021
   44  H  8  S   -0.000381   0.000071   0.013755   0.003711  -0.002345
   45  H  9  S    0.000373  -0.001394   0.000213  -0.000055   0.010508
   46  H  9  S    0.000540   0.000262   0.012299   0.007021  -0.001131
   47  H 10  S   -0.000408  -0.001324   0.000254  -0.000289   0.010402
   48  H 10  S    0.000181   0.001103   0.013913   0.003684  -0.000044
   49  H 11  S    0.000381  -0.001388  -0.000178   0.000127   0.010459
   50  H 11  S    0.000528   0.000263  -0.002461   0.013940  -0.001164
   51  H 12  S    0.000735  -0.001580  -0.000387   0.000181   0.009999
   52  H 12  S   -0.000391   0.000067  -0.005942   0.012945  -0.002343

                      6          7          8          9         10
                   -0.8181    -0.7336    -0.5770    -0.4243    -0.3928
                     A          A          A          A          A   
    1  C  1  S   -0.121946  -0.149273   0.067857   0.010934   0.006368
    2  C  1  S    0.123022   0.137830  -0.056131  -0.005664  -0.006570
    3  C  1  X   -0.033506   0.018165  -0.065826  -0.198296  -0.098607
    4  C  1  Y   -0.025491  -0.003442  -0.098138   0.049795  -0.053432
    5  C  1  Z   -0.002734  -0.000307  -0.033589  -0.074630   0.191972
    6  C  1  S    0.307245   0.454984  -0.272940  -0.056635  -0.024991
    7  C  1  X    0.006367   0.001259  -0.013719  -0.134202  -0.080990
    8  C  1  Y   -0.002205  -0.006391  -0.044785   0.050257  -0.045343
    9  C  1  Z    0.015432   0.008152  -0.012571  -0.053926   0.137303
   10  H  2  S    0.067415   0.086545  -0.062288  -0.060113   0.131317
   11  H  2  S    0.004649   0.014439  -0.038846  -0.059454   0.141810
   12  C  3  S   -0.110789  -0.000397  -0.143096  -0.041567   0.012474
   13  C  3  S    0.107800   0.000372   0.128645   0.037154  -0.014507
   14  C  3  X   -0.013035   0.122747   0.026779  -0.055100  -0.002071
   15  C  3  Y    0.035365   0.031296  -0.111210   0.215788  -0.010867
   16  C  3  Z    0.085915   0.005715   0.026659   0.006511   0.164797
   17  C  3  S    0.278058   0.001139   0.516092   0.154878  -0.046767
   18  C  3  X   -0.006570   0.018106   0.007847  -0.043217   0.000673
   19  C  3  Y    0.017944   0.004713  -0.041025   0.166908  -0.014355
   20  C  3  Z    0.045647   0.000937   0.055645   0.020860   0.110358
   21  H  4  S    0.060388   0.000267   0.163675  -0.104984   0.031725
   22  H  4  S    0.001547   0.000081   0.087454  -0.108239   0.033988
   23  O  5  S    0.086856   0.000223   0.044205   0.026593  -0.028596
   24  O  5  S   -0.076099  -0.000212  -0.036556  -0.025973   0.024882
   25  O  5  X    0.001280   0.022785   0.009714  -0.030299  -0.000170
   26  O  5  Y   -0.011850   0.005771  -0.058747   0.117258   0.038614
   27  O  5  Z    0.032731   0.001091   0.107616   0.019194  -0.159611
   28  O  5  S   -0.308564  -0.000804  -0.187524  -0.108434   0.123796
   29  O  5  X    0.003898   0.018661   0.009708  -0.030508   0.000612
   30  O  5  Y   -0.018144   0.004733  -0.055050   0.117738   0.036050
   31  O  5  Z    0.009788   0.000854   0.087378   0.021587  -0.162233
   32  C  6  S   -0.122585   0.148887   0.067608   0.010811   0.006060
   33  C  6  S    0.123625  -0.137435  -0.055917  -0.005549  -0.006366
   34  C  6  X    0.041598   0.014761   0.107509   0.155977   0.094571
   35  C  6  Y   -0.006328   0.011530  -0.054380   0.140321  -0.001498
   36  C  6  Z    0.000575   0.001758  -0.026040  -0.058739   0.206529
   37  C  6  S    0.309278  -0.454295  -0.272129  -0.056101  -0.023603
   38  C  6  X   -0.005868  -0.001046   0.034748   0.098109   0.080387
   39  C  6  Y   -0.005311   0.006292  -0.032754   0.109580  -0.002201
   40  C  6  Z    0.014875  -0.007977  -0.010428  -0.043381   0.149224
   41  H  7  S   -0.042588   0.000042  -0.070320   0.048445   0.068284
   42  H  7  S   -0.026936  -0.000106  -0.050547   0.017549   0.070273
   43  H  8  S    0.062794  -0.082986  -0.082023   0.068854  -0.062134
   44  H  8  S    0.008281  -0.016031  -0.046798   0.057700  -0.055934
   45  H  9  S    0.060257  -0.095714  -0.059796  -0.120991  -0.109239
   46  H  9  S   -0.000090  -0.030475  -0.037542  -0.116055  -0.102522
   47  H 10  S    0.067798  -0.086440  -0.062250  -0.060313   0.135669
   48  H 10  S    0.004709  -0.014520  -0.038951  -0.059810   0.146066
   49  H 11  S    0.059871   0.095835  -0.060015  -0.121130  -0.106733
   50  H 11  S   -0.000103   0.030493  -0.037658  -0.116108  -0.100115
   51  H 12  S    0.062404   0.083102  -0.081997   0.068448  -0.063161
   52  H 12  S    0.008214   0.016003  -0.046651   0.057228  -0.056815

                     11         12         13         14         15
                   -0.3726    -0.3370    -0.3302    -0.2927    -0.2673
                     A          A          A          A          A   
    1  C  1  S    0.006592   0.003098  -0.003615   0.015451  -0.005867
    2  C  1  S   -0.002559  -0.003678   0.005334  -0.011695   0.005113
    3  C  1  X    0.031266   0.047957   0.056737   0.248954   0.006353
    4  C  1  Y   -0.164120  -0.186855  -0.163511   0.039202  -0.121876
    5  C  1  Z   -0.178995   0.180121  -0.073487  -0.034328   0.084115
    6  C  1  S   -0.042565  -0.009468  -0.005123  -0.056415   0.027635
    7  C  1  X    0.026854   0.040587   0.073840   0.227944   0.009771
    8  C  1  Y   -0.127822  -0.171856  -0.144161   0.022142  -0.114619
    9  C  1  Z   -0.142911   0.148008  -0.067821  -0.022494   0.077845
   10  H  2  S   -0.129430   0.134847  -0.050993  -0.039477   0.082575
   11  H  2  S   -0.127631   0.143952  -0.059967  -0.039790   0.100703
   12  C  3  S   -0.000323   0.000286  -0.013994  -0.000077  -0.011691
   13  C  3  S    0.000333  -0.000271   0.013651   0.000091   0.012857
   14  C  3  X    0.201540   0.028534  -0.026556  -0.227627  -0.038293
   15  C  3  Y    0.050708   0.005525   0.089024  -0.055277   0.194157
   16  C  3  Z    0.006907   0.000655   0.114041  -0.010604  -0.183513
   17  C  3  S    0.001398  -0.000896   0.036620   0.000023   0.045308
   18  C  3  X    0.159969   0.009459  -0.034925  -0.201241  -0.035191
   19  C  3  Y    0.040539   0.000020   0.121468  -0.048676   0.176528
   20  C  3  Z    0.005843  -0.000382   0.114369  -0.009502  -0.164922
   21  H  4  S    0.000242   0.000752  -0.022391  -0.002046  -0.198925
   22  H  4  S    0.000194   0.000701  -0.020614  -0.002306  -0.243093
   23  O  5  S    0.000658  -0.000646   0.028908  -0.000053   0.004157
   24  O  5  S   -0.000615   0.000615  -0.028011   0.000042  -0.007906
   25  O  5  X    0.135805  -0.024485  -0.055135  -0.144349  -0.002094
   26  O  5  Y    0.034429  -0.010002   0.246420  -0.035410  -0.032143
   27  O  5  Z    0.007980  -0.000385  -0.127358  -0.005625   0.228325
   28  O  5  S   -0.002800   0.002721  -0.117732   0.000208  -0.018597
   29  O  5  X    0.140747  -0.028389  -0.059166  -0.154800  -0.003050
   30  O  5  Y    0.035773  -0.011275   0.263035  -0.037953  -0.034311
   31  O  5  Z    0.008311  -0.000599  -0.129686  -0.006024   0.262136
   32  C  6  S   -0.006585  -0.002880  -0.003795  -0.015703  -0.005415
   33  C  6  S    0.002614   0.003386   0.005550   0.011956   0.004747
   34  C  6  X   -0.068906  -0.032454   0.031696   0.235089   0.040406
   35  C  6  Y    0.155096   0.195975  -0.165097   0.079556  -0.111985
   36  C  6  Z    0.171955  -0.175726  -0.081506   0.056022   0.085391
   37  C  6  S    0.042319   0.009334  -0.004159   0.057300   0.025727
   38  C  6  X   -0.052306  -0.033682   0.007272   0.209460   0.034875
   39  C  6  Y    0.121918   0.178367  -0.156884   0.084892  -0.107102
   40  C  6  Z    0.137856  -0.144618  -0.076202   0.042044   0.078695
   41  H  7  S    0.000076  -0.002149   0.154838  -0.000448  -0.084239
   42  H  7  S   -0.000382  -0.001445   0.125500  -0.000461  -0.107207
   43  H  8  S    0.080628   0.178551  -0.099365   0.016988  -0.116455
   44  H  8  S    0.074849   0.168555  -0.097761   0.005135  -0.145746
   45  H  9  S   -0.087384  -0.019751   0.095452  -0.172653   0.012071
   46  H  9  S   -0.089703  -0.018122   0.087370  -0.194658   0.009350
   47  H 10  S    0.125507  -0.132870  -0.055809   0.039719   0.082443
   48  H 10  S    0.123363  -0.141663  -0.065341   0.039965   0.100892
   49  H 11  S    0.090340   0.016600   0.093581   0.174180   0.009702
   50  H 11  S    0.092460   0.015241   0.085568   0.196210   0.006212
   51  H 12  S   -0.078783  -0.175964  -0.103982  -0.019910  -0.116996
   52  H 12  S   -0.072949  -0.165798  -0.102088  -0.008413  -0.146229

                     16         17         18         19         20
                   -0.2084    -0.1585     0.4542     0.4987     0.5019
                     A          A          A          A          A   
    1  C  1  S    0.021440   0.030222  -0.093271   0.026475   0.027422
    2  C  1  S   -0.017681  -0.022703   0.022661   0.000544  -0.016484
    3  C  1  X    0.055280   0.094851   0.068789   0.064184  -0.065283
    4  C  1  Y    0.094389   0.082294   0.038602  -0.159011   0.008197
    5  C  1  Z    0.090620   0.086033   0.066892   0.023492   0.165548
    6  C  1  S   -0.134338  -0.221508   1.245513  -0.425943  -0.296053
    7  C  1  X    0.090309   0.104474   0.408604   0.312907  -0.393452
    8  C  1  Y    0.086351   0.125775   0.242196  -0.645597   0.054122
    9  C  1  Z    0.058917   0.025027   0.238680   0.052572   0.800471
   10  H  2  S    0.064927   0.049738   0.010409  -0.001157  -0.045683
   11  H  2  S    0.117006   0.123208  -0.784951   0.017244  -0.901488
   12  C  3  S   -0.008856   0.000009  -0.045527  -0.030693  -0.006487
   13  C  3  S    0.010576   0.000050   0.004090   0.000898  -0.015198
   14  C  3  X    0.046071  -0.142048   0.020494   0.028407  -0.000138
   15  C  3  Y   -0.161753  -0.034397  -0.088031  -0.122146  -0.017880
   16  C  3  Z   -0.160752  -0.006246   0.043492   0.042816   0.104683
   17  C  3  S    0.054923  -0.000533   0.710556   0.472929   0.236456
   18  C  3  X    0.010411   0.022149   0.058415   0.085723   0.011801
   19  C  3  Y   -0.031537   0.005291  -0.255667  -0.392601  -0.061861
   20  C  3  Z   -0.074748   0.000307   0.146506   0.220028   0.065974
   21  H  4  S    0.113893  -0.001744   0.018973  -0.061133  -0.009488
   22  H  4  S    0.169098  -0.002977  -0.623564  -0.980138  -0.225548
   23  O  5  S    0.055927  -0.000008  -0.014649   0.005478  -0.028794
   24  O  5  S   -0.056257   0.000042   0.013157   0.000565   0.021221
   25  O  5  X   -0.083055   0.445834  -0.011508   0.006910  -0.017006
   26  O  5  Y    0.307708   0.107919   0.045356  -0.032999   0.051517
[...]
   27  O  5  Z   -0.006528  -0.224587
   28  O  5  S   -0.276317   2.362187
   29  O  5  X   -0.073184  -0.108839
   30  O  5  Y    0.381486   0.318293
   31  O  5  Z   -0.455148   0.724148
   32  C  6  S    0.065734  -0.024457
   33  C  6  S    0.853017  -0.103723
   34  C  6  X   -0.111170   0.080988
   35  C  6  Y   -0.028489  -0.013763
   36  C  6  Z   -0.023413  -0.057585
   37  C  6  S   -2.750555   0.688891
   38  C  6  X   -0.673862   0.218874
   39  C  6  Y    0.291992  -0.042222
   40  C  6  Z    0.361015  -0.174756
   41  H  7  S   -0.181854  -0.268524
   42  H  7  S   -0.216221  -0.151889
   43  H  8  S    0.203082  -0.085623
   44  H  8  S    0.187839   0.017222
   45  H  9  S    0.234813  -0.057792
   46  H  9  S    0.330722  -0.043246
   47  H 10  S    0.204040  -0.003273
   48  H 10  S    0.130756  -0.063450
   49  H 11  S    0.233709  -0.058471
   50  H 11  S    0.330019  -0.042719
   51  H 12  S    0.201915  -0.086573
   52  H 12  S    0.188272   0.017582
 ...... END OF UHF CALCULATION ......
 CPU     0: STEP CPU TIME=     0.52 TOTAL CPU TIME=          0.6 (      0.0 MIN)
 TOTAL WALL CLOCK TIME=          0.7 SECONDS, CPU UTILIZATION IS    84.29%

     ----------------------------------------------------------------
     PROPERTY VALUES FOR THE UHF   SELF-CONSISTENT FIELD WAVEFUNCTION
     ----------------------------------------------------------------

          -----------------
          ENERGY COMPONENTS
          -----------------

         WAVEFUNCTION NORMALIZATION =       1.0000000000

                ONE ELECTRON ENERGY =    -531.8181490920
                TWO ELECTRON ENERGY =     206.9361743223
           NUCLEAR REPULSION ENERGY =     133.0680241806
                                      ------------------
                       TOTAL ENERGY =    -191.8139505891

 ELECTRON-ELECTRON POTENTIAL ENERGY =     206.9361743223
  NUCLEUS-ELECTRON POTENTIAL ENERGY =    -723.8592564497
   NUCLEUS-NUCLEUS POTENTIAL ENERGY =     133.0680241806
                                      ------------------
             TOTAL POTENTIAL ENERGY =    -383.8550579468
               TOTAL KINETIC ENERGY =     192.0411073577
                 VIRIAL RATIO (V/T) =       1.9988171451

          ---------------------------------------
          MULLIKEN AND LOWDIN POPULATION ANALYSES
          ---------------------------------------

     ATOMIC MULLIKEN POPULATION IN EACH MOLECULAR ORBITAL
        ALPHA ORBITALS

                      1          2          3          4          5

                  1.000000   1.000000   1.000000   1.000000   1.000000

    1            -0.000035   0.002639   0.136352   0.857318   0.012340
    2             0.000000   0.000011   0.000232   0.001190   0.000197
    3             0.001528   0.992521   0.001993   0.002207   0.122572
    4            -0.000013   0.001519   0.000003   0.000019   0.001566
    5             0.998115   0.000592  -0.000001  -0.000001   0.809339
    6            -0.000034   0.002642   0.857452   0.136218   0.012296
    7             0.000438   0.000057   0.000000   0.000001   0.041014
    8            -0.000000   0.000001   0.001249   0.000157   0.000122
    9             0.000001   0.000003   0.001118   0.000274   0.000118
   10             0.000000   0.000011   0.001267   0.000155   0.000195
   11             0.000001   0.000003   0.000109   0.001283   0.000112
   12            -0.000000   0.000001   0.000225   0.001180   0.000128

                      6          7          8          9         10

                  1.000000   1.000000   1.000000   1.000000   1.000000

    1             0.257093   0.372233   0.137982   0.177606   0.180216
    2             0.016910   0.031439   0.021043   0.017931   0.090920
    3             0.289208   0.049740   0.341255   0.233122   0.138252
    4             0.013242   0.000000   0.113974   0.045508   0.010566
    5             0.086201   0.003057   0.094954   0.129836   0.145617
    6             0.258917   0.370745   0.138030   0.177264   0.186888
    7             0.008503   0.000000   0.030020   0.025390   0.025138
    8             0.015447   0.028396   0.034272   0.016780   0.025942
    9             0.011125   0.042247   0.016575   0.071150   0.037762
   10             0.017038   0.031380   0.021095   0.017746   0.096057
   11             0.011018   0.042311   0.016609   0.071110   0.035856
   12             0.015300   0.028451   0.034191   0.016556   0.026787

                     11         12         13         14         15

                  1.000000   1.000000   1.000000   1.000000   1.000000

    1             0.234689   0.148985   0.273705   0.228462   0.080455
    2             0.071101   0.019989   0.094936   0.007129   0.034659
    3             0.176367   0.036965   0.002375   0.155319   0.222695
    4             0.000001   0.000847   0.000001   0.000022   0.170943
    5             0.094794   0.333852   0.003957   0.094782   0.195107
    6             0.226786   0.158539   0.269223   0.227795   0.079080
    7             0.000001   0.100543   0.000012   0.000001   0.039922
    8             0.030107   0.036731   0.127285   0.002172   0.070559
    9             0.033914   0.057598   0.000509   0.135860   0.000874
   10             0.065984   0.019262   0.096265   0.007261   0.034483
   11             0.037174   0.054268   0.000766   0.138307   0.000546
   12             0.029082   0.032420   0.130966   0.002890   0.070675

                     16         17         18

                  1.000000   1.000000   1.000000

    1             0.076459   0.077725   0.029271
    2             0.024686   0.015466   0.064083
    3             0.130783   0.035860   0.035797
    4             0.067816   0.000013   0.008601
    5             0.548450   0.765364   0.075758
    6             0.072940   0.079907   0.028381
    7             0.020859   0.000000   0.556715
    8             0.011256  -0.000009   0.059144
    9             0.006164   0.004879   0.009271
   10             0.023619   0.015848   0.062687
   11             0.005814   0.004977   0.009505
   12             0.011154  -0.000031   0.060789

     ATOMIC MULLIKEN POPULATION IN EACH MOLECULAR ORBITAL
         BETA ORBITALS

                      1          2          3          4          5

                  1.000000   1.000000   1.000000   1.000000   1.000000

    1            -0.000035   0.002640   0.114845   0.878827   0.017535
    2             0.000000   0.000012   0.000199   0.001226   0.000318
    3             0.001528   0.992521   0.001993   0.002194   0.161716
    4            -0.000013   0.001519   0.000004   0.000018   0.002386
    5             0.998111   0.000591  -0.000001  -0.000001   0.761156
    6            -0.000034   0.002643   0.878952   0.114720   0.017534
    7             0.000443   0.000056   0.000000   0.000001   0.038199
    8            -0.000000   0.000001   0.001279   0.000129   0.000119
    9             0.000001   0.000003   0.001154   0.000238   0.000305
   10             0.000000   0.000012   0.001297   0.000127   0.000317
   11             0.000001   0.000003   0.000084   0.001307   0.000297
   12            -0.000000   0.000001   0.000193   0.001215   0.000118

                      6          7          8          9         10

                  1.000000   1.000000   1.000000   1.000000   1.000000

    1             0.257018   0.370490   0.133547   0.196215   0.201188
    2             0.017065   0.030624   0.020646   0.019346   0.089491
    3             0.258020   0.051050   0.339607   0.228363   0.107223
    4             0.012203   0.000000   0.123159   0.059737   0.005641
    5             0.112698   0.003101   0.096563   0.078068   0.125666
    6             0.259699   0.368604   0.133390   0.196522   0.209852
    7             0.011021  -0.000000   0.025754   0.008699   0.019883
    8             0.015948   0.028837   0.034813   0.022694   0.018117
    9             0.011733   0.043853   0.018493   0.074140   0.055785
   10             0.017265   0.030566   0.020624   0.019475   0.095181
   11             0.011579   0.043967   0.018629   0.074314   0.053247
   12             0.015749   0.028907   0.034774   0.022427   0.018726

                     11         12         13         14         15

                  1.000000   1.000000   1.000000   1.000000   1.000000

    1             0.235602   0.274390   0.142767   0.228057   0.075751
    2             0.078959   0.083500   0.013864   0.005709   0.030509
    3             0.164543   0.002156   0.078205   0.172373   0.218814
    4             0.000000   0.000003   0.002381   0.000019   0.182255
    5             0.083783   0.003201   0.336343   0.085984   0.215558
    6             0.229079   0.277068   0.140897   0.227765   0.073995
    7            -0.000000   0.000019   0.098948   0.000001   0.038316
    8             0.029986   0.140087   0.045466   0.000795   0.066483
    9             0.036491   0.001644   0.038271   0.135007   0.000431
   10             0.073992   0.080810   0.016380   0.005760   0.030476
   11             0.038949   0.001162   0.036798   0.137372   0.000251
   12             0.028616   0.135961   0.049679   0.001158   0.067161

                     16         17

                  1.000000   1.000000

    1             0.063324   0.072008
    2             0.023616   0.015267
    3             0.106509   0.030158
    4             0.053156   0.000013
    5             0.605156   0.783771
    6             0.060164   0.074039
    7             0.044398   0.000000
    8             0.006622   0.000041
    9             0.004058   0.004484
   10             0.022571   0.015649
   11             0.003819   0.004570
   12             0.006606   0.000001

     ATOMIC SPIN POPULATION (ALPHA MINUS BETA)
       ATOM         MULL.POP.                    LOW.POP.
    1 C             0.019322                     0.060178
    2 H             0.081576                     0.054935
    3 C             0.051588                     0.059436
    4 H            -0.007851                    -0.004171
    5 O             0.090023                     0.218177
    6 C             0.018176                     0.058289
    7 H             0.562877                     0.441299
    8 H             0.048195                     0.028286
    9 H             0.003352                     0.000383
   10 H             0.079851                     0.053755
   11 H             0.003420                     0.000405
   12 H             0.049472                     0.029028


          ********* ALL ELECTRONS ********

               ----- POPULATIONS IN EACH AO -----
                             MULLIKEN      LOWDIN
              1  C  1  S      1.98866     1.97689
              2  C  1  S      0.35728     0.43736
              3  C  1  X      0.53126     0.50728
              4  C  1  Y      0.54699     0.52554
              5  C  1  Z      0.52226     0.48543
              6  C  1  S      1.08717     0.59583
              7  C  1  X      0.48823     0.58402
              8  C  1  Y      0.53052     0.60895
              9  C  1  Z      0.49528     0.58829
             10  H  2  S      0.47096     0.47951
             11  H  2  S      0.47132     0.51870
             12  C  3  S      1.98924     1.97540
             13  C  3  S      0.35072     0.41138
             14  C  3  X      0.52026     0.49736
             15  C  3  Y      0.53444     0.50046
             16  C  3  Z      0.47020     0.45932
             17  C  3  S      0.95156     0.55454
             18  C  3  X      0.33002     0.51617
             19  C  3  Y      0.43122     0.54357
             20  C  3  Z      0.30789     0.46237
             21  H  4  S      0.48927     0.50664
             22  H  4  S      0.38784     0.46762
             23  O  5  S      1.98686     1.98163
             24  O  5  S      0.41687     0.60775
             25  O  5  X      0.82788     0.84295
             26  O  5  Y      0.72512     0.73277
             27  O  5  Z      0.51527     0.50354
             28  O  5  S      1.48990     1.09840
             29  O  5  X      1.07879     1.07556
             30  O  5  Y      0.90614     0.92022
             31  O  5  Z      0.72269     0.79007
             32  C  6  S      1.98866     1.97688
             33  C  6  S      0.35727     0.43712
             34  C  6  X      0.54076     0.52541
             35  C  6  Y      0.53834     0.50892
             36  C  6  Z      0.52155     0.48391
             37  C  6  S      1.08767     0.59575
             38  C  6  X      0.45624     0.58092
             39  C  6  Y      0.55876     0.61094
             40  C  6  Z      0.49871     0.58891
             41  H  7  S      0.36692     0.40458
             42  H  7  S      0.76744     0.75018
             43  H  8  S      0.45833     0.46359
             44  H  8  S      0.41269     0.48753
             45  H  9  S      0.47004     0.47461
             46  H  9  S      0.38549     0.46572
             47  H 10  S      0.47107     0.47948
             48  H 10  S      0.46979     0.51774
             49  H 11  S      0.47002     0.47460
             50  H 11  S      0.38610     0.46600
             51  H 12  S      0.45812     0.46338
             52  H 12  S      0.41394     0.48830

          ----- MULLIKEN ATOMIC OVERLAP POPULATIONS -----
          (OFF-DIAGONAL ELEMENTS NEED TO BE MULTIPLIED BY 2)

             1           2           3           4           5

    1    5.9145203
    2    0.0974584   0.8834098
    3    0.2740122  -0.1051643   5.2305372
    4   -0.0621945   0.0070771   0.3592837   0.6440267
    5   -0.0579366  -0.0000856   0.2730110  -0.0400937   8.9869112
    6   -0.0939426  -0.0039819   0.2724930  -0.0627575  -0.0579798
    7   -0.0067903   0.0056917  -0.0636849   0.0140438  -0.3992045
    8   -0.0131692   0.0074307  -0.0721877   0.0057146  -0.0153486
    9    0.0051532   0.0003979  -0.0527600  -0.0003975  -0.0019292
   10   -0.0038563   0.0210358  -0.1035799   0.0070604  -0.0000368
   11    0.3218895  -0.0065762  -0.0531835  -0.0004012  -0.0020619
   12    0.1725202   0.0355806  -0.0732444   0.0057487  -0.0157257

             6           7           8           9          10

    6    5.9057367
    7   -0.0063220   1.4607962
    8    0.1777366   0.0528009   0.6784377
    9    0.3228054   0.0083201  -0.0075294   0.5879606
   10    0.1022230   0.0055161   0.0339052  -0.0069938   0.8777795
   11    0.0051461   0.0086184   0.0005279  -0.0000256   0.0003960
   12   -0.0132010   0.0545690   0.0227091   0.0005305   0.0074060

            11          12

   11    0.5887083
   12   -0.0069208   0.6820834

          TOTAL MULLIKEN AND LOWDIN ATOMIC POPULATIONS
       ATOM         MULL.POP.    CHARGE          LOW.POP.     CHARGE
    1 C             6.547664   -0.547664         6.309589   -0.309589
    2 H             0.942274    0.057726         0.998207    0.001793
    3 C             5.885533    0.114467         5.920580    0.079420
    4 H             0.877111    0.122889         0.974261    0.025739
    5 O             8.669520   -0.669520         8.552881   -0.552881
    6 C             6.547956   -0.547956         6.308756   -0.308756
    7 H             1.134355   -0.134355         1.154765   -0.154765
    8 H             0.871028    0.128972         0.951119    0.048881
    9 H             0.855532    0.144468         0.940332    0.059668
   10 H             0.940855    0.059145         0.997224    0.002776
   11 H             0.856117    0.143883         0.940597    0.059403
   12 H             0.872056    0.127944         0.951689    0.048311

          -------------------------------
          BOND ORDER AND VALENCE ANALYSIS     BOND ORDER THRESHOLD=0.050
          -------------------------------

                   BOND                       BOND                       BOND
  ATOM PAIR DIST  ORDER      ATOM PAIR DIST  ORDER      ATOM PAIR DIST  ORDER
    1   2  1.096  0.867        1   3  1.537  0.893        1  11  1.094  0.943
    1  12  1.098  0.894        2   7  3.656  0.057        3   4  1.094  0.926
    3   5  1.467  0.981        3   6  1.537  0.892        5   7  0.997  0.464
    6   8  1.099  0.895        6   9  1.094  0.943        6  10  1.095  0.868
    7   8  2.544  0.086        7  10  3.664  0.055        7  12  2.532  0.089

                       TOTAL       BONDED        FREE
      ATOM            VALENCE     VALENCE     VALENCE
    1 C                 3.624       3.620       0.004
    2 H                 0.954       0.947       0.007
    3 C                 3.644       3.642       0.002
    4 H                 0.940       0.939       0.000
    5 O                 1.562       1.533       0.029
    6 C                 3.625       3.621       0.004
    7 H                 1.177       0.851       0.327
    8 H                 1.004       1.001       0.003
    9 H                 0.947       0.947       0.000
   10 H                 0.954       0.947       0.007
   11 H                 0.947       0.947       0.000
   12 H                 1.006       1.003       0.003

          -----------------------------------------
          ATOMIC SPIN DENSITY AT THE NUCLEUS (A.U.)
          -----------------------------------------
                            SPIN DENS    ALPHA DENS     BETA DENS
    1  C            6.0     0.0788977      47.07797      46.99908
    2  H            1.0     0.0042420       0.18738       0.18314
    3  C            6.0     0.0061323      47.01404      47.00790
    4  H            1.0    -0.0017064       0.19211       0.19382
    5  O            8.0     0.6895141     117.32619     116.63668
    6  C            6.0     0.0769854      47.07659      46.99961
    7  H            1.0     0.0023549       0.15131       0.14895
    8  H            1.0    -0.0042866       0.17773       0.18202
    9  H            1.0    -0.0017627       0.18361       0.18537
   10  H            1.0     0.0041330       0.18736       0.18323
   11  H            1.0    -0.0018095       0.18357       0.18538
   12  H            1.0    -0.0044337       0.17758       0.18201

          ---------------------
          ELECTROSTATIC MOMENTS
          ---------------------

 POINT   1           X           Y           Z (BOHR)    CHARGE
                -2.205621   -0.623271   -0.088479       -1.00 (A.U.)
         DX          DY          DZ         /D/  (DEBYE)
    -0.023801   -0.585867    3.315495    3.366944
 ...... END OF PROPERTY EVALUATION ......
 CPU     0: STEP CPU TIME=     0.02 TOTAL CPU TIME=          0.6 (      0.0 MIN)
 TOTAL WALL CLOCK TIME=          0.7 SECONDS, CPU UTILIZATION IS    84.72%
               580000  WORDS OF DYNAMIC MEMORY USED
 EXECUTION OF GAMESS TERMINATED NORMALLY Sun May 17 16:19:24 2020
 DDI: 263640 bytes (0.3 MB / 0 MWords) used by master data server.
Note: The following floating-point exceptions are signalling: IEEE_DENORMALNote: The following floating-point exceptions are signalling: IEEE_DENORMALNote: The following floating-point exceptions are signalling: IEEE_DENORMALNote: The following floating-point exceptions are signalling: IEEE_DENORMAL

 ----------------------------------------
 CPU timing information for all processes
 ========================================
 0: 0.516 + 0.104 = 0.620
 1: 0.505 + 0.12 = 0.517
 2: 0.458 + 0.20 = 0.478
 3: 0.500 + 0.04 = 0.504
 4: 0.453 + 0.23 = 0.477
 5: 0.446 + 0.12 = 0.458
 ----------------------------------------



Note: The following floating-point exceptions are signalling: IEEE_DENORMALNote: The following floating-point exceptions are signalling:
 IEEE_DENORMAL
 ddikick.x: exited gracefully.
unset echo
----- accounting info -----
Files used on the master node pietdev were:
-rwxr-xr-x 1 piet piet      831 mei 17 16:19 /home/piet/scr/threonine_fukui_acid.F05*
-rw-r--r-- 1 piet piet 68812800 mei 17 16:19 /home/piet/scr/threonine_fukui_acid.F10
ls: No match.
ls: No match.
ls: No match.
zo 17 mei 2020 16:19:27 CEST
0.124u 0.036s 0:03.89 3.8%	0+0k 0+8io 0pf+0w
