----- GAMESS execution script 'rungms' -----
This job is running on host pietdev
under operating system Linux at zo 17 mei 2020 16:19:23 CEST
Available scratch disk space (Kbyte units) at beginning of the job is
Filesystem     1K-blocks     Used Available Use% Mounted on
/dev/sda2      244568380 30392200 201683124  14% /
GAMESS temporary binary files will be written to /home/piet/scr
GAMESS supplementary output files will be written to /home/piet/gamess/scr
Copying input file threonine_fukui_neu.inp to your run's scratch directory...
cp threonine_fukui_neu.inp /home/piet/scr/threonine_fukui_neu.F05
unset echo
 
Assuming a single but multicore node.
 
/home/piet/gamess/ddikick.x /home/piet/gamess/gamess.03.x threonine_fukui_neu -ddi 1 6 pietdev:cpus=6 -scr /home/piet/scr

 Distributed Data Interface kickoff program.
 Initiating 6 compute processes on 1 nodes to run the following command:
 /home/piet/gamess/gamess.03.x threonine_fukui_neu 

          ******************************************************
          *         GAMESS VERSION = 30 SEP 2019 (R2)          *
          *             FROM IOWA STATE UNIVERSITY             *
          * M.W.SCHMIDT, K.K.BALDRIDGE, J.A.BOATZ, S.T.ELBERT, *
          *   M.S.GORDON, J.H.JENSEN, S.KOSEKI, N.MATSUNAGA,   *
          *          K.A.NGUYEN, S.J.SU, T.L.WINDUS,           *
          *       TOGETHER WITH M.DUPUIS, J.A.MONTGOMERY       *
          *         J.COMPUT.CHEM.  14, 1347-1363(1993)        *
          **************** 64 BIT LINUX VERSION ****************

  SINCE 1993, STUDENTS AND POSTDOCS WORKING AT IOWA STATE UNIVERSITY
  AND ALSO IN THEIR VARIOUS JOBS AFTER LEAVING ISU HAVE MADE IMPORTANT
  CONTRIBUTIONS TO THE CODE:
     IVANA ADAMOVIC, CHRISTINE AIKENS, YURI ALEXEEV, POOJA ARORA,
     ANDREY ASADCHEV, ROB BELL, PRADIPTA BANDYOPADHYAY, JONATHAN BENTZ,
     COLLEEN BERTONI, BRETT BODE, KURT BRORSEN, CALEB CARLIN, GALINA CHABAN,
     WEI CHEN, CHEOL HO CHOI, PAUL DAY, ALBERT DEFUSCO, NUWAN DESILVA,
     TIM DUDLEY, DMITRI FEDOROV, ALEX FINDLATER, GRAHAM FLETCHER, 
     MARK FREITAG, KURT GLAESEMANN, EMILIE B GUIDEZ, ANASTASIA GUNINA, 
     DAN KEMP, SAROM SOK LEANG, GRANT MERRILL,
     NORIYUKI MINEZAWA, JONATHAN MULLIN,
     TAKESHI NAGATA, SEAN NEDD, HEATHER NETZLOFF, BOSILJKA NJEGIC, RYAN OLSON,
     MIKE PAK, BUU PHAM, DAVID POOLE,
     SPENCER PRUITT, LUKE ROSKOP, TOSAPORN SATTASATHUCHANA,
     JIM SHOEMAKER, LYUDMILA SLIPCHENKO,
     TONY SMITH, JIE SONG, TETSUYA TAKETSUGU, SIMON WEBB,
     JORGE LUIS GALVEZ VALLEJO, PENG XU, SOOHAENG YOO,
     FEDERICO ZAHARIEV

  ADDITIONAL CODE HAS BEEN PROVIDED BY COLLABORATORS IN OTHER GROUPS:
     IOWA STATE UNIVERSITY:
          JOE IVANIC, AARON WEST, LAIMUTIS BYTAUTAS, KLAUS RUEDENBERG
     UNIVERSITY OF TOKYO: KIMIHIKO HIRAO, TAKAHITO NAKAJIMA,
          TAKAO TSUNEDA, MUNEAKI KAMIYA, SUSUMU YANAGISAWA,
          KIYOSHI YAGI, MAHITO CHIBA, SEIKEN TOKURA, NAOAKI KAWAKAMI
     UNIVERSITY OF AARHUS: FRANK JENSEN
     UNIVERSITY OF IOWA: VISVALDAS KAIRYS, HUI LI
     NATIONAL INST. OF STANDARDS AND TECHNOLOGY: WALT STEVENS, DAVID GARMER
     UNIVERSITY OF PISA: BENEDETTA MENNUCCI, JACOPO TOMASI
     UNIVERSITY OF MEMPHIS: HENRY KURTZ, PRAKASHAN KORAMBATH
     UNIVERSITY OF ALBERTA: TOBY ZENG, MARIUSZ KLOBUKOWSKI
     UNIVERSITY OF NEW ENGLAND: MARK SPACKMAN
     MIE UNIVERSITY: HIROAKI UMEDA
     NAT. INST. OF ADVANCED INDUSTRIAL SCIENCE AND TECHNOLOGY: KAZUO KITAURA
     MICHIGAN STATE UNIVERSITY:
          KAROL KOWALSKI, MARTA WLOCH, JEFFREY GOUR, JESSE LUTZ,
          WEI LI, JUN SHEN, J. EMILIANO DEUSTUA, PIOTR PIECUCH
     UNIVERSITY OF MINNESOTA:
          ANDREW SAND, PRACHI SHARMA, YINAN SHU
     UNIVERSITY OF SILESIA: MONIKA MUSIAL, STANISLAW KUCHARSKI
     FACULTES UNIVERSITAIRES NOTRE-DAME DE LA PAIX:
          OLIVIER QUINET, BENOIT CHAMPAGNE
     UNIVERSITY OF CALIFORNIA - SANTA BARBARA: BERNARD KIRTMAN
     INSTITUTE FOR MOLECULAR SCIENCE:
          KAZUYA ISHIMURA, MICHIO KATOUDA, AND SHIGERU NAGASE
     UNIVERSITY OF NOTRE DAME: ANNA POMOGAEVA, DAN CHIPMAN
     KYUSHU UNIVERSITY:
          HARUYUKI NAKANO,
          FENG LONG GU, JACEK KORCHOWIEC, MARCIN MAKOWSKI, AND YURIKO AOKI,
          HIROTOSHI MORI AND EISAKU MIYOSHI
     PENNSYLVANIA STATE UNIVERSITY:
          TZVETELIN IORDANOV, CHET SWALINA, JONATHAN SKONE,
          SHARON HAMMES-SCHIFFER
     WASEDA UNIVERSITY:
          MASATO KOBAYASHI, TOMOKO AKAMA, TSUGUKI TOUMA,
          TAKESHI YOSHIKAWA, YASUHIRO IKABATA, JUNJI SEINO,
          YUYA NAKAJIMA, HIROMI NAKAI
     NANJING UNIVERSITY: SHUHUA LI
     UNIVERSITY OF NEBRASKA:
          PEIFENG SU, DEJUN SI, NANDUN THELLAMUREGE, YALI WANG, HUI LI
     UNIVERSITY OF ZURICH: ROBERTO PEVERATI, KIM BALDRIDGE
     N. COPERNICUS UNIVERSITY AND JACKSON STATE UNIVERSITY:
          MARIA BARYSZ
     UNIVERSITY OF COPENHAGEN: Jimmy Kromann, CASPER STEINMANN
     TOKYO INSTITUTE OF TECHNOLOGY: HIROYA NAKATA
     NAGOYA UNIVERSITY: YOSHIO NISHIMOTO, STEPHAN IRLE
     MOSCOW STATE UNIVERSITY: VLADIMIR MIRONOV
     A.N.NESMEYANOV INSTITUTE OF ORGANOELEMENT COMPOUNDS OF RUSSIAN ACADEMY OF SCIENCES:
          IGOR S. GERASIMOV
     JOHANNES KEPLER UNIVERSITY LINZ:
          CHRISTIAN FRIEDL


 PARALLEL VERSION RUNNING ON        6 PROCESSORS IN        1 NODES.

 EXECUTION OF GAMESS BEGUN Sun May 17 16:19:23 2020

            ECHO OF THE FIRST FEW INPUT CARDS -
 INPUT CARD> $BASIS GBASIS=N21 NGAUSS=3 $END                                                
 INPUT CARD> $CONTRL SCFTYP=RHF MAXIT=60 MULT=1 ICHARG=0 $END                               
 INPUT CARD> $SYSTEM MEMDDI=1000 MWORDS=30 $END                                             
 INPUT CARD> $SCF DIRSCF=.TRUE. $END                                                        
 INPUT CARD> $DATA                                                                          
 INPUT CARD>                                                                                
 INPUT CARD>C1                                                                              
 INPUT CARD>C 6.0000000 -0.0493886499 0.3276963324 0.6607923992                             
 INPUT CARD>H 1.0000000 -0.0347754127 0.3074192612 1.7561164305                             
 INPUT CARD>C 6.0000000 -1.0903855297 -0.6572183748 0.1044941610                            
 INPUT CARD>H 1.0000000 -0.8469936960 -1.6709393881 0.4376334572                            
 INPUT CARD>O 8.0000000 -1.0054437370 -0.7407776231 -1.3577567878                           
 INPUT CARD>C 6.0000000 -2.5174161446 -0.3004528823 0.5512180146                            
 INPUT CARD>H 1.0000000 -1.2110889659 0.1721756522 -1.7029872178                            
 INPUT CARD>H 1.0000000 -2.7682617497 0.7203420756 0.2321792349                             
 INPUT CARD>H 1.0000000 -3.2309440859 -0.9930711360 0.0948056429                            
 INPUT CARD>H 1.0000000 -2.6127839290 -0.3508679678 1.6413817920                            
 INPUT CARD>H 1.0000000 0.9443358925 0.0677859222 0.2837637464                              
 INPUT CARD>H 1.0000000 -0.2895739922 1.3503981286 0.3401591268                             
 INPUT CARD> $END                                                                           
   30000000 WORDS OF MEMORY AVAILABLE

     BASIS OPTIONS
     -------------
     GBASIS=N21          IGAUSS=       3      POLAR=NONE    
     NDFUNC=       0     NFFUNC=       0     DIFFSP=       F
     NPFUNC=       0      DIFFS=       F     BASNAM=        


     RUN TITLE
     ---------
                                                                                 

 THE POINT GROUP OF THE MOLECULE IS C1      
 THE ORDER OF THE PRINCIPAL AXIS IS     0

 ATOM      ATOMIC                      COORDINATES (BOHR)
           CHARGE         X                   Y                   Z
 C           6.0    -0.0933310152        0.6192562754        1.2487165693
 H           1.0    -0.0657160011        0.5809381670        3.3185788562
 C           6.0    -2.0605298721       -1.2419626425        0.1974653316
 H           1.0    -1.6005859988       -3.1576175856        0.8270073172
 O           8.0    -1.9000131590       -1.3998667255       -2.5657882869
 C           6.0    -4.7572267104       -0.5677736198        1.0416510071
 H           1.0    -2.2886262923        0.3253648044       -3.2181792022
 H           1.0    -5.2312561692        1.3612491403        0.4387551340
 H           1.0    -6.1055990040       -1.8766323334        0.1791566872
 H           1.0    -4.9374456909       -0.6630443170        3.1017618281
 H           1.0     1.7845360772        0.1280968188        0.5362357259
 H           1.0    -0.5472154984        2.5518824374        0.6428075419

          INTERNUCLEAR DISTANCES (ANGS.)
          ------------------------------

                1 C          2 H          3 C          4 H          5 O     

   1 C       0.0000000    1.0956092 *  1.5372701 *  2.1634506 *  2.4759279 *
   2 H       1.0956092 *  0.0000000    2.1846498 *  2.5123692 *  3.4259481  
   3 C       1.5372701 *  2.1846498 *  0.0000000    1.0944641 *  1.4670975 *
   4 H       2.1634506 *  2.5123692 *  1.0944641 *  0.0000000    2.0282341 *
   5 O       2.4759279 *  3.4259481    1.4670975 *  2.0282341 *  0.0000000  
   6 C       2.5490660 *  2.8257377 *  1.5372899 *  2.1636649 *  2.4746982 *
   7 H       2.6384064 *  3.6561458    1.9923485 *  2.8481389 *  0.9974757 *
   8 H       2.7803149 *  3.1567131    2.1746827 *  3.0743633    2.7875248 *
   9 H       3.4909974    3.8297158    2.1667676 *  2.5020503 *  2.6695396 *
  10 H       2.8271895 *  2.6632000 *  2.1848503 *  2.5118945 *  3.4249678  
  11 H       1.0941629 *  1.7843502 *  2.1674547 *  2.5011404 *  2.6739494 *
  12 H       1.0983686 *  1.7769812 *  2.1742496 *  3.0738735    2.7871857 *

                6 C          7 H          8 H          9 H         10 H     

   1 C       2.5490660 *  2.6384064 *  2.7803149 *  3.4909974    2.8271895 *
   2 H       2.8257377 *  3.6561458    3.1567131    3.8297158    2.6632000 *
   3 C       1.5372899 *  1.9923485 *  2.1746827 *  2.1667676 *  2.1848503 *
   4 H       2.1636649 *  2.8481389 *  3.0743633    2.5020503 *  2.5118945 *
   5 O       2.4746982 *  0.9974757 *  2.7875248 *  2.6695396 *  3.4249678  
   6 C       0.0000000    2.6478878 *  1.0985134 *  1.0941455 *  1.0954879 *
   7 H       2.6478878 *  0.0000000    2.5436475 *  2.9444310 *  3.6637587  
   8 H       1.0985134 *  2.5436475 *  0.0000000    1.7800931 *  1.7769401 *
   9 H       1.0941455 *  2.9444310 *  1.7800931 *  0.0000000    1.7850615 *
  10 H       1.0954879 *  3.6637587    1.7769401 *  1.7850615 *  0.0000000  
  11 H       3.4915410    2.9332461 *  3.7698636    4.3120860    3.8303393  
  12 H       2.7808516 *  2.5321621 *  2.5597897 *  3.7687802    3.1598720  

               11 H         12 H     

   1 C       1.0941629 *  1.0983686 *
   2 H       1.7843502 *  1.7769812 *
   3 C       2.1674547 *  2.1742496 *
   4 H       2.5011404 *  3.0738735  
   5 O       2.6739494 *  2.7871857 *
   6 C       3.4915410    2.7808516 *
   7 H       2.9332461 *  2.5321621 *
   8 H       3.7698636    2.5597897 *
   9 H       4.3120860    3.7687802  
  10 H       3.8303393    3.1598720  
  11 H       0.0000000    1.7806763 *
  12 H       1.7806763 *  0.0000000  

  * ... LESS THAN  3.000


     ATOMIC BASIS SET
     ----------------
 THE CONTRACTED PRIMITIVE FUNCTIONS HAVE BEEN UNNORMALIZED
 THE CONTRACTED BASIS FUNCTIONS ARE NOW NORMALIZED TO UNITY

  SHELL TYPE  PRIMITIVE        EXPONENT          CONTRACTION COEFFICIENT(S)

 C         

      1   S       1           172.2560000    0.061766907377
      1   S       2            25.9109000    0.358794042852
      1   S       3             5.5333500    0.700713083689

      2   L       4             3.6649800   -0.395895162119    0.236459946619
      2   L       5             0.7705450    1.215834355681    0.860618805716

      3   L       6             0.1958570    1.000000000000    1.000000000000

 H         

      4   S       7             5.4471780    0.156284978695
      4   S       8             0.8245472    0.904690876670

      5   S       9             0.1831916    1.000000000000

 C         

      6   S      10           172.2560000    0.061766907377
      6   S      11            25.9109000    0.358794042852
      6   S      12             5.5333500    0.700713083689

      7   L      13             3.6649800   -0.395895162119    0.236459946619
      7   L      14             0.7705450    1.215834355681    0.860618805716

      8   L      15             0.1958570    1.000000000000    1.000000000000

 H         

      9   S      16             5.4471780    0.156284978695
      9   S      17             0.8245472    0.904690876670

     10   S      18             0.1831916    1.000000000000

 O         

     11   S      19           322.0370000    0.059239393389
     11   S      20            48.4308000    0.351499960776
     11   S      21            10.4206000    0.707657921031

     12   L      22             7.4029400   -0.404453583190    0.244586106967
     12   L      23             1.5762000    1.221561761397    0.853955373466

     13   L      24             0.3736840    1.000000000000    1.000000000000

 C         

     14   S      25           172.2560000    0.061766907377
     14   S      26            25.9109000    0.358794042852
     14   S      27             5.5333500    0.700713083689

     15   L      28             3.6649800   -0.395895162119    0.236459946619
     15   L      29             0.7705450    1.215834355681    0.860618805716

     16   L      30             0.1958570    1.000000000000    1.000000000000

 H         

     17   S      31             5.4471780    0.156284978695
     17   S      32             0.8245472    0.904690876670

     18   S      33             0.1831916    1.000000000000

 H         

     19   S      34             5.4471780    0.156284978695
     19   S      35             0.8245472    0.904690876670

     20   S      36             0.1831916    1.000000000000

 H         

     21   S      37             5.4471780    0.156284978695
     21   S      38             0.8245472    0.904690876670

     22   S      39             0.1831916    1.000000000000

 H         

     23   S      40             5.4471780    0.156284978695
     23   S      41             0.8245472    0.904690876670

     24   S      42             0.1831916    1.000000000000

 H         

     25   S      43             5.4471780    0.156284978695
     25   S      44             0.8245472    0.904690876670

     26   S      45             0.1831916    1.000000000000

 H         

     27   S      46             5.4471780    0.156284978695
     27   S      47             0.8245472    0.904690876670

     28   S      48             0.1831916    1.000000000000

 TOTAL NUMBER OF BASIS SET SHELLS             =   28
 NUMBER OF CARTESIAN GAUSSIAN BASIS FUNCTIONS =   52
 NUMBER OF ELECTRONS                          =   34
 CHARGE OF MOLECULE                           =    0
 SPIN MULTIPLICITY                            =    1
 NUMBER OF OCCUPIED ORBITALS (ALPHA)          =   17
 NUMBER OF OCCUPIED ORBITALS (BETA )          =   17
 TOTAL NUMBER OF ATOMS                        =   12
 THE NUCLEAR REPULSION ENERGY IS      133.0680241806

     $CONTRL OPTIONS
     ---------------
 SCFTYP=RHF          RUNTYP=ENERGY       EXETYP=RUN     
 MPLEVL=       0     CITYP =NONE         CCTYP =NONE         VBTYP =NONE    
 DFTTYP=NONE         TDDFT =NONE    
 MULT  =       1     ICHARG=       0     NZVAR =       0     COORD =UNIQUE  
 PP    =NONE         RELWFN=NONE         LOCAL =NONE         NUMGRD=       F
 ISPHER=      -1     NOSYM =       0     MAXIT =      60     UNITS =ANGS    
 PLTORB=       F     MOLPLT=       F     AIMPAC=       F     FRIEND=        
 NPRINT=       7     IREST =       0     GEOM  =INPUT   
 NORMF =       0     NORMP =       0     ITOL  =      20     ICUT  =       9
 INTTYP=BEST         GRDTYP=BEST         QMTTOL= 1.0E-06

     $SYSTEM OPTIONS
     ---------------
  REPLICATED MEMORY=    30000000 WORDS (ON EVERY NODE).
 DISTRIBUTED MEMDDI=        1000 MILLION WORDS IN AGGREGATE,
 MEMDDI DISTRIBUTED OVER   6 PROCESSORS IS   166666666 WORDS/PROCESSOR.
 TOTAL MEMORY REQUESTED ON EACH PROCESSOR=   196666666 WORDS.
 TIMLIM=      525600.00 MINUTES, OR     365.0 DAYS.
 PARALL= T  BALTYP=  DLB     KDIAG=    0  COREFL= F
 MXSEQ2=     300 MXSEQ3=     150  mem10=         0

          ----------------
          PROPERTIES INPUT
          ----------------

     MOMENTS            FIELD           POTENTIAL          DENSITY
 IEMOM =       1   IEFLD =       0   IEPOT =       0   IEDEN =       0
 WHERE =COMASS     WHERE =NUCLEI     WHERE =NUCLEI     WHERE =NUCLEI  
 OUTPUT=BOTH       OUTPUT=BOTH       OUTPUT=BOTH       OUTPUT=BOTH    
 IEMINT=       0   IEFINT=       0                     IEDINT=       0
                                                       MORB  =       0
          EXTRAPOLATION IN EFFECT
          SOSCF IN EFFECT
 ORBITAL PRINTING OPTION: NPREO=     1    52     2     1

     -------------------------------
     INTEGRAL TRANSFORMATION OPTIONS
     -------------------------------
     NWORD  =            0
     CUTOFF = 1.0E-09     MPTRAN =       0
     DIRTRF =       T     AOINTS =DUP     

          ----------------------
          INTEGRAL INPUT OPTIONS
          ----------------------
 NOPK  =       1 NORDER=       0 SCHWRZ=       T

     ------------------------------------------
     THE POINT GROUP IS C1 , NAXIS= 0, ORDER= 1
     ------------------------------------------

     DIMENSIONS OF THE SYMMETRY SUBSPACES ARE
 A   =   52

 ..... DONE SETTING UP THE RUN .....
 CPU     0: STEP CPU TIME=     0.01 TOTAL CPU TIME=          0.0 (      0.0 MIN)
 TOTAL WALL CLOCK TIME=          0.0 SECONDS, CPU UTILIZATION IS    33.33%

          ********************
          1 ELECTRON INTEGRALS
          ********************
 ...... END OF ONE-ELECTRON INTEGRALS ......
 CPU     0: STEP CPU TIME=     0.02 TOTAL CPU TIME=          0.0 (      0.0 MIN)
 TOTAL WALL CLOCK TIME=          0.0 SECONDS, CPU UTILIZATION IS    75.00%

          -------------
          GUESS OPTIONS
          -------------
          GUESS =HUCKEL            NORB  =       0          NORDER=       0
          MIX   =       F          PRTMO =       F          PUNMO =       F
          TOLZ  = 1.0E-08          TOLE  = 1.0E-05
          SYMDEN=       F          PURIFY=       F

 INITIAL GUESS ORBITALS GENERATED BY HUCKEL   ROUTINE.
 HUCKEL GUESS REQUIRES     31396 WORDS.

 SYMMETRIES FOR INITIAL GUESS ORBITALS FOLLOW.   BOTH SET(S).
    17 ORBITALS ARE OCCUPIED (    4 CORE ORBITALS).
     5=A        6=A        7=A        8=A        9=A       10=A       11=A   
    12=A       13=A       14=A       15=A       16=A       17=A       18=A   
    19=A       20=A       21=A       22=A       23=A       24=A       25=A   
    26=A       27=A   
 ...... END OF INITIAL ORBITAL SELECTION ......
 CPU     0: STEP CPU TIME=     0.01 TOTAL CPU TIME=          0.0 (      0.0 MIN)
 TOTAL WALL CLOCK TIME=          0.1 SECONDS, CPU UTILIZATION IS    66.67%

                    ----------------------
                    AO INTEGRAL TECHNOLOGY
                    ----------------------
     S,P,L SHELL ROTATED AXIS INTEGRALS, REPROGRAMMED BY
        KAZUYA ISHIMURA (IMS) AND JOSE SIERRA (SYNSTAR).
     S,P,D,L SHELL ROTATED AXIS INTEGRALS PROGRAMMED BY
        KAZUYA ISHIMURA (INSTITUTE FOR MOLECULAR SCIENCE).
     S,P,D,F,G SHELL TO TOTAL QUARTET ANGULAR MOMENTUM SUM 5,
        ERIC PROGRAM BY GRAHAM FLETCHER (ELORET AND NASA ADVANCED
        SUPERCOMPUTING DIVISION, AMES RESEARCH CENTER).
     S,P,D,F,G,L SHELL GENERAL RYS QUADRATURE PROGRAMMED BY
        MICHEL DUPUIS (PACIFIC NORTHWEST NATIONAL LABORATORY).

          --------------------
          2 ELECTRON INTEGRALS
          --------------------

 DIRECT SCF METHOD SKIPS INTEGRAL STORAGE ON DISK.
 DIRECT TRANSFORMATION SKIPS AO INTEGRAL STORAGE ON DISK.
  ...... END OF TWO-ELECTRON INTEGRALS .....
 CPU     0: STEP CPU TIME=     0.01 TOTAL CPU TIME=          0.0 (      0.0 MIN)
 TOTAL WALL CLOCK TIME=          0.1 SECONDS, CPU UTILIZATION IS    71.43%

          --------------------------
                 RHF SCF CALCULATION
          --------------------------

     NUCLEAR ENERGY =       133.0680241806
     MAXIT =   60     NPUNCH=    2
     EXTRAP=T  DAMP=F  SHIFT=F  RSTRCT=F  DIIS=F  DEM=F  SOSCF=T
     DENSITY MATRIX CONV=  2.00E-05
     SOSCF WILL OPTIMIZE     595 ORBITAL ROTATIONS, SOGTOL=   0.250
     MEMORY REQUIRED FOR RHF ITERS=     67204 WORDS.

 DIRECT SCF CALCULATION, SCHWRZ=T   FDIFF=T,  DIRTHR=  0.00E+00 NITDIR=10
 SCHWARZ INEQUALITY OVERHEAD:      1375 INTEGRALS, T=        0.00

                                                                                   NONZERO     BLOCKS
 ITER EX DEM     TOTAL ENERGY        E CHANGE  DENSITY CHANGE     ORB. GRAD      INTEGRALS    SKIPPED
   1  0  0     -191.5938139440  -191.5938139440   0.589371343   0.000000000         881390      11521
          ---------------START SECOND ORDER SCF---------------
   2  1  0     -192.0215357933    -0.4277218493   0.131691250   0.045915570         879494      12590
   3  2  0     -192.0430653824    -0.0215295891   0.061472858   0.015385244         873988      14272
   4  3  0     -192.0462009390    -0.0031355565   0.005762524   0.004842527         867877      15618
   5  4  0     -192.0463148063    -0.0001138673   0.001496803   0.000991861         855809      17691
   6  5  0     -192.0463324073    -0.0000176010   0.001115050   0.000429050         844240      19196
   7  6  0     -192.0463338607    -0.0000014534   0.000283695   0.000054321         827643      21372
   8  7  0     -192.0463339555    -0.0000000948   0.000045241   0.000011969         806649      24013
   9  8  0     -192.0463339611    -0.0000000056   0.000009933   0.000005074         786029      26660
  10  9  0     -192.0463339618    -0.0000000006   0.000003185   0.000000952         758628      30334

          -----------------
          DENSITY CONVERGED
          -----------------
     TIME TO FORM FOCK OPERATORS=       0.2 SECONDS (       0.0 SEC/ITER)
     FOCK TIME ON FIRST ITERATION=       0.0, LAST ITERATION=       0.0
     TIME TO SOLVE SCF EQUATIONS=       0.0 SECONDS (       0.0 SEC/ITER)

 FINAL RHF ENERGY IS     -192.0463339618 AFTER  10 ITERATIONS

          ------------
          EIGENVECTORS
          ------------

                      1          2          3          4          5
                  -20.4385   -11.2280   -11.1633   -11.1628    -1.3277
                     A          A          A          A          A   
    1  C  1  S    0.000152  -0.002482   0.889397   0.429081  -0.018709
    2  C  1  S    0.000411  -0.003159   0.092199   0.042784   0.019275
    3  C  1  X    0.000393  -0.000484  -0.000695   0.000921  -0.011664
    4  C  1  Y    0.000446  -0.000304   0.000019   0.000096  -0.010757
    5  C  1  Z    0.000383   0.000051   0.000122  -0.000127  -0.011644
    6  C  1  S   -0.003822   0.024108  -0.073363  -0.032120   0.028368
    7  C  1  X    0.000581  -0.009842   0.004478  -0.001290   0.004522
    8  C  1  Y    0.000451  -0.007990   0.002398   0.001263   0.004568
    9  C  1  Z    0.003039  -0.005869   0.001188   0.001587  -0.012776
   10  H  2  S   -0.000405  -0.001311   0.000309  -0.000258   0.006618
   11  H  2  S    0.000167   0.001114   0.013383   0.005066   0.000388
   12  C  3  S   -0.000913   0.988176   0.000779   0.002219  -0.076601
   13  C  3  S   -0.003979   0.104373  -0.000849  -0.002438   0.080664
   14  C  3  X    0.000097  -0.000153   0.000258  -0.000109   0.002335
   15  C  3  Y   -0.000136   0.000557   0.000074  -0.000007   0.003004
   16  C  3  Z   -0.001435   0.000279   0.000105   0.000268  -0.069533
   17  C  3  S    0.020264  -0.091502   0.008198   0.023492   0.138673
   18  C  3  X    0.000279   0.002009   0.013004  -0.006315  -0.001679
   19  C  3  Y    0.000868  -0.006853   0.005427   0.004467   0.003855
   20  C  3  Z   -0.010719  -0.005598   0.001735   0.003018   0.013220
   21  H  4  S   -0.001467   0.000950  -0.000561  -0.001606   0.024221
   22  H  4  S   -0.001247   0.014928   0.000438   0.001264  -0.003755
   23  O  5  S    0.983478  -0.000263   0.000009   0.000026  -0.219806
   24  O  5  S    0.097610  -0.000994  -0.000055  -0.000174   0.204262
   25  O  5  X   -0.000739  -0.000042  -0.000129   0.000132  -0.015388
   26  O  5  Y    0.002590   0.000095  -0.000125  -0.000241   0.055953
   27  O  5  Z    0.002538   0.000461  -0.000105  -0.000278   0.041353
   28  O  5  S   -0.044250   0.009703  -0.000404  -0.001129   0.689805
   29  O  5  X    0.001554  -0.000300  -0.000491   0.000066  -0.019160
   30  O  5  Y   -0.004925   0.000364   0.000032   0.000506   0.067821
   31  O  5  Z   -0.008264   0.004565  -0.000206  -0.000539   0.062335
   32  C  6  S    0.000150  -0.002477  -0.429356   0.889264  -0.018670
   33  C  6  S    0.000398  -0.003163  -0.045565   0.090857   0.019300
   34  C  6  X   -0.000593   0.000565  -0.000983  -0.000291   0.016305
   35  C  6  Y    0.000194  -0.000037  -0.000489  -0.000060  -0.003639
   36  C  6  Z    0.000348   0.000100  -0.000270  -0.000052  -0.010413
   37  C  6  S   -0.003794   0.024126   0.037455  -0.070787   0.028089
   38  C  6  X   -0.000946   0.012923   0.004280  -0.002897  -0.005186
   39  C  6  Y    0.000051  -0.002205   0.001090   0.001284   0.002162
   40  C  6  Z    0.002927  -0.004878   0.000442   0.001796  -0.013011
   41  H  7  S    0.002753  -0.000580  -0.000249  -0.000720   0.100249
   42  H  7  S    0.005277   0.003167   0.000147   0.000369   0.018458
   43  H  8  S    0.000730  -0.001592  -0.000403   0.000128   0.005911
   44  H  8  S   -0.000378   0.000070  -0.007262   0.012327  -0.001552
   45  H  9  S    0.000368  -0.001397  -0.000199   0.000137   0.006037
   46  H  9  S    0.000520   0.000281  -0.003835   0.013542  -0.002305
   47  H 10  S   -0.000404  -0.001310  -0.000398  -0.000014   0.006609
   48  H 10  S    0.000188   0.001124  -0.007336   0.012287   0.000306
   49  H 11  S    0.000376  -0.001391   0.000240  -0.000017   0.006022
   50  H 11  S    0.000509   0.000282   0.011423   0.008213  -0.002343
   51  H 12  S    0.000741  -0.001590   0.000393  -0.000151   0.005915
   52  H 12  S   -0.000389   0.000065   0.013356   0.005128  -0.001551

                      6          7          8          9         10
                   -1.0425    -0.9421    -0.8042    -0.6485    -0.6250
                     A          A          A          A          A   
    1  C  1  S   -0.120170   0.149903   0.073631   0.022216  -0.008304
    2  C  1  S    0.121854  -0.137293  -0.061987  -0.014253   0.006439
    3  C  1  X   -0.038616  -0.015886  -0.051079  -0.179154   0.058757
    4  C  1  Y   -0.026220   0.000242  -0.090026   0.012394   0.098199
    5  C  1  Z   -0.008577   0.003381  -0.033435  -0.078869  -0.137279
    6  C  1  S    0.294132  -0.466217  -0.296842  -0.127607   0.041167
    7  C  1  X    0.005320   0.005911  -0.000452  -0.100815   0.042408
    8  C  1  Y   -0.000779   0.005856  -0.033449   0.020481   0.069262
    9  C  1  Z    0.007699   0.005527  -0.005538  -0.051276  -0.105529
   10  H  2  S    0.063356  -0.084969  -0.064059  -0.068180  -0.087585
   11  H  2  S    0.001237  -0.012621  -0.033104  -0.055107  -0.076602
   12  C  3  S   -0.129186  -0.000275  -0.137025  -0.051123   0.009331
   13  C  3  S    0.124630   0.000262   0.121870   0.041758  -0.007169
   14  C  3  X   -0.012056  -0.130594   0.030757  -0.053292  -0.005879
   15  C  3  Y    0.035229  -0.033266  -0.119033   0.208056   0.053509
   16  C  3  Z    0.072910  -0.005756  -0.008292   0.025291  -0.223024
   17  C  3  S    0.337434   0.000906   0.524086   0.202862  -0.051711
   18  C  3  X   -0.008485  -0.018619   0.010289  -0.056119  -0.008058
   19  C  3  Y    0.027076  -0.004754  -0.045437   0.217519   0.053144
   20  C  3  Z    0.036776  -0.000715   0.032105   0.032403  -0.163816
   21  H  4  S    0.066858   0.000171   0.149236  -0.081223  -0.086812
   22  H  4  S   -0.000894  -0.000004   0.057332  -0.050664  -0.055687
   23  O  5  S    0.070336   0.000021   0.027631   0.047322   0.006059
   24  O  5  S   -0.062931   0.000001  -0.023779  -0.044549  -0.008597
   25  O  5  X    0.002825  -0.029336   0.016200  -0.049677   0.011972
   26  O  5  Y   -0.021384  -0.007568  -0.091506   0.198632  -0.102497
   27  O  5  Z    0.051413  -0.001043   0.145166   0.014177   0.234117
   28  O  5  S   -0.261015  -0.000128  -0.124040  -0.202949  -0.019414
   29  O  5  X    0.005461  -0.025588   0.015283  -0.048846   0.010850
   30  O  5  Y   -0.026888  -0.006622  -0.083463   0.194713  -0.099774
   31  O  5  Z    0.023644  -0.000959   0.121015   0.017938   0.243155
   32  C  6  S   -0.119810  -0.150043   0.073969   0.022095  -0.007937
   33  C  6  S    0.121539   0.137473  -0.062312  -0.014101   0.006130
   34  C  6  X    0.047016  -0.013239   0.090447   0.156473  -0.084986
   35  C  6  Y   -0.004421  -0.007804  -0.053929   0.097864   0.059122
   36  C  6  Z   -0.004784  -0.004747  -0.027239  -0.062740  -0.146025
   37  C  6  S    0.293015   0.466291  -0.297782  -0.126968   0.039391
   38  C  6  X   -0.004989   0.008420   0.016827   0.081918  -0.060221
   39  C  6  Y   -0.003397  -0.002194  -0.029048   0.066805   0.041454
   40  C  6  Z    0.007315  -0.004794  -0.004884  -0.041790  -0.112049
   41  H  7  S   -0.049054  -0.000343  -0.102257   0.101059  -0.133230
   42  H  7  S   -0.031826  -0.000156  -0.078500   0.065573  -0.125447
   43  H  8  S    0.061037   0.084508  -0.082319   0.035074   0.083730
   44  H  8  S    0.005888   0.012712  -0.042120   0.037740   0.071354
   45  H  9  S    0.055398   0.092202  -0.054802  -0.103863   0.056813
   46  H  9  S   -0.006671   0.020405  -0.023885  -0.086355   0.043347
   47  H 10  S    0.063147   0.085063  -0.064318  -0.067510  -0.089381
   48  H 10  S    0.001173   0.012566  -0.033188  -0.054855  -0.077888
   49  H 11  S    0.055588  -0.092184  -0.054613  -0.104388   0.056102
   50  H 11  S   -0.006607  -0.020459  -0.023820  -0.086683   0.042682
   51  H 12  S    0.061237  -0.084538  -0.082183   0.035177   0.085295
   52  H 12  S    0.005918  -0.012758  -0.042116   0.037805   0.072707

                     11         12         13         14         15
                   -0.5929    -0.5689    -0.5451    -0.5054    -0.4990
                     A          A          A          A          A   
    1  C  1  S    0.010957  -0.002994  -0.000086  -0.006636  -0.002266
    2  C  1  S   -0.008087   0.003426   0.001326   0.003099   0.002522
    3  C  1  X    0.001108   0.142561   0.057763  -0.228907   0.026511
    4  C  1  Y   -0.151187  -0.103194  -0.200424   0.003884  -0.110418
    5  C  1  Z   -0.166219  -0.121345   0.166088   0.095156   0.135892
    6  C  1  S   -0.071228  -0.000801  -0.000318   0.006841   0.000127
    7  C  1  X    0.010223   0.144350   0.054158  -0.214684   0.040394
    8  C  1  Y   -0.101738  -0.087629  -0.174363   0.022586  -0.103753
    9  C  1  Z   -0.146648  -0.108826   0.155969   0.074032   0.121294
   10  H  2  S   -0.119814  -0.082867   0.126019   0.076162   0.116173
   11  H  2  S   -0.091183  -0.077127   0.110160   0.078525   0.126197
   12  C  3  S   -0.000063  -0.015137  -0.000056   0.000064   0.001168
   13  C  3  S    0.000120   0.015549   0.000048  -0.000031  -0.000852
   14  C  3  X    0.219291   0.002583   0.040674   0.153575  -0.024273
   15  C  3  Y    0.054582  -0.028946   0.011600   0.034921   0.138487
   16  C  3  Z    0.007761   0.029365   0.001550   0.008957  -0.167125
   17  C  3  S   -0.000163   0.050853   0.000214  -0.000239  -0.013121
   18  C  3  X    0.194248  -0.011285   0.027782   0.157335  -0.035795
   19  C  3  Y    0.048916   0.023531   0.008314   0.035142   0.177649
   20  C  3  Z    0.007467   0.051815   0.000975   0.008644  -0.127249
   21  H  4  S    0.000440   0.042163  -0.000819   0.003412  -0.146407
   22  H  4  S    0.000428   0.038639  -0.000711   0.003006  -0.130544
   23  O  5  S    0.000946   0.049933   0.000001   0.000042   0.015072
   24  O  5  S   -0.000932  -0.045786  -0.000026   0.000097  -0.022854
   25  O  5  X    0.223863  -0.057223  -0.038598   0.205899  -0.032031
   26  O  5  Y    0.057683   0.224971  -0.009068   0.049462   0.100329
   27  O  5  Z    0.011871  -0.038479  -0.001301   0.005710   0.242664
   28  O  5  S   -0.003975  -0.218609   0.000060  -0.000473  -0.050989
   29  O  5  X    0.236555  -0.061239  -0.046466   0.229387  -0.038378
   30  O  5  Y    0.061007   0.239315  -0.010982   0.054992   0.119461
   31  O  5  Z    0.012722  -0.033392  -0.001624   0.006157   0.290138
   32  C  6  S   -0.011260  -0.002908   0.000061   0.006760  -0.001931
   33  C  6  S    0.008298   0.003444  -0.001298  -0.003262   0.002347
   34  C  6  X   -0.089654  -0.062690  -0.030480  -0.192443   0.010241
   35  C  6  Y    0.126641  -0.160162   0.206340  -0.104799  -0.117656
   36  C  6  Z    0.156470  -0.135461  -0.164741  -0.118495   0.132423
   37  C  6  S    0.072655  -0.001847   0.000362  -0.006603  -0.000307
   38  C  6  X   -0.055651  -0.073776  -0.022315  -0.171894  -0.002975
   39  C  6  Y    0.088184  -0.146565   0.181549  -0.115070  -0.118546
   40  C  6  Z    0.139522  -0.122525  -0.154130  -0.095309   0.117474
   41  H  7  S    0.001159   0.137639  -0.000142   0.000938  -0.021645
   42  H  7  S    0.000671   0.119634  -0.000295   0.001441  -0.056437
   43  H  8  S    0.071916  -0.065778   0.180000  -0.019429  -0.123788
   44  H  8  S    0.064150  -0.053914   0.167007  -0.009891  -0.133892
   45  H  9  S   -0.051687   0.142114  -0.031683   0.180423   0.010707
   46  H  9  S   -0.048134   0.109235  -0.026529   0.164194   0.002276
   47  H 10  S    0.116015  -0.085988  -0.126176  -0.079819   0.114401
   48  H 10  S    0.087784  -0.079849  -0.110435  -0.082418   0.124159
   49  H 11  S    0.056863   0.140140   0.032260  -0.180935   0.003865
   50  H 11  S    0.052126   0.107726   0.027008  -0.164638  -0.004130
   51  H 12  S   -0.071579  -0.063350  -0.181001   0.024954  -0.122163
   52  H 12  S   -0.063724  -0.051615  -0.168063   0.015826  -0.132727

                     16         17         18         19         20
                   -0.4582    -0.4234     0.2458     0.2936     0.2991
                     A          A          A          A          A   
    1  C  1  S    0.019958   0.027467  -0.070127   0.050539   0.039394
    2  C  1  S   -0.016831  -0.021714   0.023169  -0.021052  -0.010705
    3  C  1  X    0.038290   0.146640   0.025941  -0.080453  -0.006446
    4  C  1  Y    0.154945   0.095367   0.083739   0.075327  -0.105738
    5  C  1  Z    0.088258   0.095924   0.045054  -0.021724   0.116929
    6  C  1  S   -0.104438  -0.166301   0.905618  -0.668038  -0.565289
    7  C  1  X    0.045343   0.145450   0.231621  -0.423693  -0.075132
    8  C  1  Y    0.134039   0.108349   0.393071   0.216929  -0.440660
    9  C  1  Z    0.060612   0.038489   0.249582   0.041930   0.556975
   10  H  2  S    0.054333   0.054133  -0.026935  -0.041778  -0.057111
   11  H  2  S    0.080563   0.101626  -0.677143   0.226204  -0.579252
   12  C  3  S    0.003439  -0.000109  -0.032230   0.050149   0.004137
   13  C  3  S   -0.000835   0.000133  -0.005147  -0.031451  -0.020191
   14  C  3  X    0.064781  -0.218053   0.005534  -0.034395   0.008943
   15  C  3  Y   -0.250457  -0.052298  -0.036806   0.130905  -0.061990
   16  C  3  Z   -0.104885  -0.009274   0.092445   0.035692   0.153886
   17  C  3  S   -0.006711   0.000150   0.602798  -0.611075   0.159614
   18  C  3  X    0.038837  -0.084868   0.012642  -0.126262   0.025448
   19  C  3  Y   -0.155529  -0.020060  -0.079976   0.525047  -0.152258
   20  C  3  Z   -0.030152  -0.004022   0.219892  -0.069547   0.313310
   21  H  4  S    0.170484  -0.002367   0.027793   0.043411  -0.058839
   22  H  4  S    0.193438  -0.003007  -0.313953   1.023139  -0.534762
   23  O  5  S    0.046634  -0.000079  -0.056562  -0.049503  -0.043654
   24  O  5  S   -0.046942   0.000101   0.028037   0.016776   0.027905
   25  O  5  X   -0.062833   0.401332  -0.035595  -0.026571  -0.016457
   26  O  5  Y    0.233343   0.096775   0.146922   0.110896   0.046354
   27  O  5  Z    0.155956   0.017350  -0.006961  -0.001950   0.119173
   28  O  5  S   -0.212959   0.000293   0.479536   0.460742   0.328033
   29  O  5  X   -0.076439   0.495568  -0.076082  -0.053243  -0.033072
   30  O  5  Y    0.280567   0.119535   0.323001   0.225207   0.093010
   31  O  5  Z    0.207607   0.021257  -0.063289  -0.021384   0.232531
   32  C  6  S    0.019282  -0.027962  -0.069651   0.050529   0.039385
   33  C  6  S   -0.016295   0.022097   0.023007  -0.021199  -0.010810
   34  C  6  X   -0.108995   0.184366  -0.065568   0.036693   0.045731
   35  C  6  Y    0.116786  -0.013809   0.059592   0.103836  -0.092341
   36  C  6  Z    0.079529  -0.082739   0.040927  -0.016748   0.118523
   37  C  6  S   -0.100800   0.169408   0.899986  -0.666096  -0.563973
   38  C  6  X   -0.103229   0.184799  -0.407748   0.266082   0.227707
   39  C  6  Y    0.095644  -0.026364   0.226408   0.385816  -0.363019
   40  C  6  Z    0.052941  -0.024455   0.219417   0.069959   0.565740
   41  H  7  S    0.100678  -0.000156  -0.020575  -0.048144  -0.012030
   42  H  7  S    0.106526  -0.000407  -0.702866  -0.676343  -0.118623
   43  H  8  S    0.079244   0.002438   0.027546  -0.012515   0.028292
   44  H  8  S    0.122895  -0.005912  -0.556156  -0.192326   0.959832
   45  H  9  S   -0.051222  -0.042421  -0.001110   0.051442   0.030472
   46  H  9  S   -0.062552  -0.085440  -0.343121   0.879286   0.431082
   47  H 10  S    0.052832  -0.055136  -0.026516  -0.041233  -0.056585
   48  H 10  S    0.078138  -0.103515  -0.672676   0.230541  -0.574244
   49  H 11  S   -0.048915   0.043362  -0.000929   0.051534   0.030665
   50  H 11  S   -0.059448   0.086580  -0.345392   0.883719   0.432871
   51  H 12  S    0.078509  -0.003972   0.027730  -0.012058   0.028769
   52  H 12  S    0.122522   0.003005  -0.560904  -0.196086   0.964475

                     21         22         23         24         25
                    0.3293     0.3336     0.3535     0.3610     0.3695
                     A          A          A          A          A   
    1  C  1  S    0.121005  -0.025711  -0.059499  -0.017471  -0.002077
    2  C  1  S   -0.024966  -0.008756   0.014120   0.004844  -0.012796
    3  C  1  X   -0.034445  -0.074894   0.021933   0.089527   0.204556
    4  C  1  Y   -0.071624   0.082309  -0.067399  -0.081097  -0.042335
    5  C  1  Z   -0.007876   0.122585   0.070924   0.158640  -0.114615
    6  C  1  S   -1.740153   0.528980   0.798854   0.261191   0.183630
    7  C  1  X   -0.003572  -0.545513   0.142322   0.390949   0.862256
    8  C  1  Y   -0.312197   0.417736  -0.582612  -0.419621  -0.229868
    9  C  1  Z    0.051422   0.497405   0.398621   0.831540  -0.551878
   10  H  2  S    0.001962   0.001819   0.012989  -0.064960   0.015034
   11  H  2  S    0.623725  -0.762418  -0.734083  -1.157953   0.627468
   12  C  3  S   -0.000257  -0.004821   0.111306  -0.001403   0.001143
   13  C  3  S    0.000309   0.016467  -0.030172   0.000483  -0.000421
   14  C  3  X    0.075690   0.003112  -0.033186   0.023185   0.063990
   15  C  3  Y    0.018998  -0.017194   0.145176   0.004639   0.016862
   16  C  3  Z    0.003258  -0.026365  -0.092939   0.001701   0.002763
   17  C  3  S    0.002824  -0.015968  -1.607876   0.019610  -0.015034
   18  C  3  X    0.440861   0.073997  -0.178299   0.229855   0.057529
   19  C  3  Y    0.106341  -0.307694   0.813842   0.050294   0.017850
   20  C  3  Z    0.016867  -0.249052  -0.624769   0.016728  -0.000923
   21  H  4  S    0.000379   0.012537   0.003059   0.000169  -0.000125
   22  H  4  S   -0.003915  -0.155549   1.628339  -0.016680   0.010080
   23  O  5  S    0.000737   0.055303   0.000487   0.000382  -0.000153
   24  O  5  S   -0.000140  -0.016358   0.009221  -0.000303   0.000098
   25  O  5  X   -0.050840   0.023919   0.005064   0.048295  -0.016201
   26  O  5  Y   -0.014421  -0.107138  -0.023293   0.011546  -0.003990
   27  O  5  Z   -0.001284   0.060781   0.032302   0.001903   0.000157
   28  O  5  S   -0.007884  -0.560303  -0.061929  -0.002710   0.001095
   29  O  5  X   -0.092645   0.060374   0.023403   0.032809  -0.033605
   30  O  5  Y   -0.027455  -0.258655  -0.098562   0.007248  -0.008660
   31  O  5  Z   -0.002481   0.089149   0.046669   0.001201   0.000289
   32  C  6  S   -0.121968  -0.021096  -0.059310   0.018710   0.001223
   33  C  6  S    0.024641  -0.009602   0.013962  -0.005095   0.012777
   34  C  6  X   -0.064793   0.016515   0.006137   0.052395   0.149815
   35  C  6  Y    0.050944   0.102948  -0.069868   0.120120   0.131774
   36  C  6  Z    0.008172   0.126948   0.065433  -0.152994   0.131758
   37  C  6  S    1.759427   0.461443   0.797351  -0.277080  -0.171526
   38  C  6  X   -0.142605   0.232402   0.115700   0.206499   0.605710
   39  C  6  Y    0.299284   0.603261  -0.581133   0.591120   0.596366
   40  C  6  Z   -0.038799   0.540391   0.372782  -0.810461   0.625048
   41  H  7  S    0.000924   0.077483   0.006231   0.000278   0.000202
   42  H  7  S    0.011946   0.783653   0.027394   0.004551  -0.000174
   43  H  8  S   -0.039572  -0.048158   0.014561  -0.056164   0.004462
   44  H  8  S   -1.092298  -0.582292   0.330427  -0.846427  -0.247589
   45  H  9  S    0.031969   0.034623  -0.019860   0.009598   0.035893
   46  H  9  S   -0.524653   0.746405  -0.482269   0.348436   1.348148
   47  H 10  S   -0.002005   0.001305   0.014535   0.064948  -0.015264
   48  H 10  S   -0.651900  -0.743752  -0.703832   1.172170  -0.638573
   49  H 11  S   -0.030728   0.036041  -0.019474  -0.008977  -0.035571
   50  H 11  S    0.551570   0.732806  -0.474270  -0.337178  -1.346886
   51  H 12  S    0.037840  -0.050143   0.015826   0.055292  -0.004332
   52  H 12  S    1.065651  -0.625497   0.348992   0.833158   0.249313

                     26         27         28         29         30
                    0.4208     0.4572     0.4603     0.8755     0.9562
                     A          A          A          A          A   
    1  C  1  S    0.072216  -0.030886   0.044776  -0.002027   0.001740
    2  C  1  S    0.004675   0.002343   0.003742   0.058793  -0.029832
    3  C  1  X    0.085613   0.007759   0.058359  -0.513439   0.082360
    4  C  1  Y    0.058541   0.037615   0.162239   0.118352   0.205436
    5  C  1  Z    0.066450  -0.070983   0.020923   0.079050  -0.283632
    6  C  1  S   -1.112637   0.338287  -0.776823  -0.224310   0.049900
    7  C  1  X    1.026753   0.033700   0.494263   0.705805  -0.069494
    8  C  1  Y    0.480067   0.003226   1.135677  -0.221891  -0.287874
    9  C  1  Z    0.426064  -0.648701   0.479083  -0.160633   0.604817
   10  H  2  S   -0.018746  -0.052942  -0.045206   0.113610  -0.392364
   11  H  2  S   -0.081129   0.378956  -0.157219   0.018678  -0.049256
   12  C  3  S   -0.136384   0.106738   0.015609   0.003439  -0.046391
   13  C  3  S    0.022366  -0.067011  -0.009854  -0.048312   0.124553
   14  C  3  X   -0.067218  -0.064230   0.339577  -0.014698  -0.009767
   15  C  3  Y    0.250785  -0.006639   0.087955   0.053462   0.142323
   16  C  3  Z    0.069521   0.275004   0.056044   0.007807  -0.510072
   17  C  3  S    2.015114  -0.988795  -0.144235   0.351060   0.085680
   18  C  3  X   -0.376644  -0.337914   1.821309  -0.043825   0.040538
   19  C  3  Y    1.369993  -0.024987   0.473009   0.136069  -0.202043
   20  C  3  Z    0.547103   1.273709   0.271471   0.236840   0.165070
   21  H  4  S    0.030968  -0.047837  -0.007133  -0.223923  -0.365295
   22  H  4  S    0.544592   0.229806   0.033322   0.097389   0.034874
   23  O  5  S    0.011499  -0.063652  -0.009086   0.001898   0.030444
   24  O  5  S   -0.000730   0.019833   0.002756  -0.011795  -0.052469
   25  O  5  X    0.025386   0.016482  -0.072552  -0.004305   0.006757
   26  O  5  Y   -0.096450  -0.073107  -0.030701   0.014683  -0.020274
   27  O  5  Z   -0.025857   0.293605   0.040266   0.009677  -0.070627
   28  O  5  S   -0.117830   0.647873   0.092643   0.028890  -0.071894
   29  O  5  X    0.067027   0.042079  -0.233795   0.001461   0.016755
   30  O  5  Y   -0.261275  -0.169725  -0.088160  -0.009702  -0.063880
   31  O  5  Z   -0.028606   0.821660   0.111626   0.020647  -0.029210
   32  C  6  S    0.072439  -0.016524  -0.051804  -0.002008   0.001640
   33  C  6  S    0.004778   0.003211  -0.003032   0.058869  -0.029541
   34  C  6  X   -0.108390  -0.056269   0.118691   0.386582  -0.148482
   35  C  6  Y    0.009631   0.062161  -0.100747   0.347028   0.151954
   36  C  6  Z    0.058875  -0.066134  -0.031439   0.118505  -0.297098
   37  C  6  S   -1.117288   0.098564   0.842646  -0.223925   0.047055
   38  C  6  X   -1.163669  -0.270936   0.975814  -0.497222   0.150399
   39  C  6  Y   -0.074826   0.215389  -0.720056  -0.527644  -0.240259
   40  C  6  Z    0.335027  -0.504502  -0.579599  -0.213784   0.619501
   41  H  7  S   -0.012750   0.008596   0.000472  -0.014927   0.240484
   42  H  7  S    0.232781   0.575643   0.092180   0.052678   0.074014
   43  H  8  S   -0.048897   0.029173   0.036763   0.280092   0.274165
   44  H  8  S    0.196540  -0.492975   0.488842  -0.031760  -0.010104
   45  H  9  S   -0.028765   0.014381   0.056388  -0.411068   0.063222
   46  H  9  S   -0.131127  -0.255480  -0.203235   0.128457   0.018583
   47  H 10  S   -0.019067  -0.064003   0.028395   0.111903  -0.394313
   48  H 10  S   -0.087784   0.320389   0.254769   0.019595  -0.049114
   49  H 11  S   -0.028528   0.029758  -0.050255  -0.412019   0.063965
   50  H 11  S   -0.137596  -0.299397   0.121377   0.127890   0.017775
   51  H 12  S   -0.049303   0.038210  -0.027655   0.279263   0.269706
   52  H 12  S    0.195058  -0.334638  -0.609845  -0.031543  -0.009589

                     31         32         33         34         35
                    0.9721     0.9973     1.0033     1.0487     1.1063
                     A          A          A          A          A   
    1  C  1  S   -0.004560  -0.024423  -0.016744  -0.027554  -0.042612
    2  C  1  S    0.000857   0.062181   0.037655   0.099234   0.062056
    3  C  1  X   -0.114398  -0.240206  -0.271981  -0.287006  -0.235281
    4  C  1  Y   -0.557487  -0.438699  -0.154588  -0.236759  -0.172201
    5  C  1  Z    0.137628  -0.418578  -0.525011   0.010576   0.036330
    6  C  1  S    0.226895   0.178113   0.073608  -0.355191  -0.315939
    7  C  1  X    0.072520   0.174343   0.338929   0.523049   0.614879
    8  C  1  Y    0.775281   0.564657   0.180268   0.394192   0.531175
    9  C  1  Z   -0.285116   0.755685   0.868398  -0.170111   0.011557
   10  H  2  S    0.096907  -0.204480  -0.432535  -0.060404  -0.009392
   11  H  2  S   -0.014508  -0.190212  -0.044380   0.074207  -0.091830
   12  C  3  S    0.000564   0.036519  -0.001077   0.040163   0.000007
   13  C  3  S   -0.002044  -0.194937   0.005358  -0.072694  -0.000202
   14  C  3  X    0.352599  -0.032960   0.008785   0.146526  -0.858834
   15  C  3  Y    0.089814   0.067087  -0.000445  -0.441031  -0.214481
   16  C  3  Z    0.020571   0.326619  -0.008427  -0.792681  -0.038757
   17  C  3  S    0.005033   0.786079  -0.020226   0.367018   0.000377
   18  C  3  X   -0.408361   0.072535   0.109068  -0.267027   1.414194
   19  C  3  Y   -0.104362  -0.126075   0.033269   0.825357   0.349541
   20  C  3  Z   -0.024358  -0.782547   0.025033   1.307486   0.063767
   21  H  4  S    0.001781  -0.055711   0.000635   0.265238  -0.002168
   22  H  4  S    0.000577   0.097661  -0.001710   0.109539  -0.003044
   23  O  5  S   -0.000107   0.017679  -0.000126  -0.026318  -0.000081
   24  O  5  S    0.000800   0.045976  -0.001762   0.004290   0.000037
   25  O  5  X    0.008215  -0.006663   0.189172   0.017375  -0.107518
   26  O  5  Y    0.002714   0.015766   0.046383  -0.050754  -0.025899
   27  O  5  Z    0.001623   0.153670   0.004828  -0.092272  -0.005168
   28  O  5  S   -0.002023  -0.426810   0.009194   0.486679   0.000687
   29  O  5  X    0.064185   0.026499   0.000808   0.000831  -0.119316
   30  O  5  Y    0.016138  -0.087232   0.001427  -0.033911  -0.028901
   31  O  5  Z    0.001894  -0.142746   0.003788   0.186060  -0.005268
   32  C  6  S    0.004200  -0.023677   0.018021  -0.027440   0.042387
   33  C  6  S    0.000334   0.060439  -0.040249   0.099010  -0.063282
   34  C  6  X   -0.345273   0.441480  -0.379343   0.362147  -0.285839
   35  C  6  Y    0.432279  -0.268298   0.010914  -0.071946   0.035586
   36  C  6  Z   -0.159927  -0.358922   0.515325   0.040261  -0.059740
   37  C  6  S   -0.225009   0.177616  -0.084366  -0.355449   0.323080
   38  C  6  X    0.400586  -0.468041   0.479556  -0.629033   0.794404
   39  C  6  Y   -0.642856   0.407209  -0.003206   0.101248  -0.163904
   40  C  6  Z    0.307688   0.676993  -0.867808  -0.222217   0.051427
   41  H  7  S    0.002505   0.408272  -0.008688  -0.215265  -0.002203
   42  H  7  S   -0.004337  -0.233158   0.008230   0.240740   0.001117
   43  H  8  S    0.411020  -0.145833  -0.046855  -0.139412   0.185260
   44  H  8  S   -0.017922  -0.050654   0.045958  -0.052342   0.105591
   45  H  9  S   -0.080268  -0.046917  -0.074608   0.058534   0.388913
   46  H  9  S    0.056380   0.058886   0.079202  -0.162552   0.065803
   47  H 10  S   -0.095229  -0.179337   0.442279  -0.060127   0.006445
   48  H 10  S    0.013167  -0.188245   0.054279   0.074548   0.092116
   49  H 11  S    0.079556  -0.043972   0.076289   0.057538  -0.391069
   50  H 11  S   -0.055310   0.055856  -0.083589  -0.163192  -0.062281
   51  H 12  S   -0.416492  -0.136153   0.056340  -0.139454  -0.186815
   52  H 12  S    0.016904  -0.052389  -0.042637  -0.053356  -0.109180

                     36         37         38         39         40
                    1.1918     1.2438     1.2540     1.3131     1.3510
                     A          A          A          A          A   
    1  C  1  S    0.004773   0.057459   0.026645  -0.003814   0.005842
    2  C  1  S    0.035481   0.012055   0.076733  -0.001865   0.017035
    3  C  1  X   -0.121178  -0.167349   0.531162   0.036373  -0.191360
    4  C  1  Y    0.419512  -0.062045  -0.305241  -0.130443   0.323016
    5  C  1  Z   -0.323293  -0.038902  -0.285370   0.454503   0.117347
    6  C  1  S   -0.386895  -0.279010  -0.928606  -0.200059  -0.460205
    7  C  1  X    0.451005   0.120906  -1.007199   0.115997   0.142076
    8  C  1  Y   -0.839923  -0.090245   0.989453   0.272931  -0.093817
    9  C  1  Z    0.859360  -0.073258   0.789638  -0.696468   0.065717
   10  H  2  S    0.079819   0.428188   0.192114  -0.204902  -0.176684
   11  H  2  S   -0.437690  -0.125839  -0.383616   0.566665   0.186643
   12  C  3  S   -0.013158  -0.005198   0.000082  -0.034394   0.000269
   13  C  3  S    0.012953   0.175893   0.001949   0.095808  -0.001197
   14  C  3  X    0.174821  -0.049080  -0.474181   0.108956  -0.300513
   15  C  3  Y   -0.770093   0.231942  -0.113869  -0.450641  -0.074848
   16  C  3  Z    0.333632  -0.123375  -0.024331   0.071636  -0.011559
   17  C  3  S   -0.018271   0.003941   0.000044  -0.213811   0.001266
   18  C  3  X   -0.421409  -0.049068   1.687942  -0.170695   0.825417
   19  C  3  Y    1.879275   0.081480   0.421168   0.671607   0.208682
   20  C  3  Z   -0.934926   0.222864   0.083136   0.164725   0.030842
   21  H  4  S    0.119597   0.431970   0.005993  -0.535511   0.004020
   22  H  4  S    0.851285  -0.248757  -0.008477   0.863337  -0.003746
   23  O  5  S    0.004932   0.007106   0.000116   0.025545  -0.000044
   24  O  5  S    0.041021  -0.001611  -0.000453  -0.082660   0.000299
   25  O  5  X    0.015788   0.043135  -0.012064   0.053905  -0.042396
   26  O  5  Y   -0.071581  -0.186038  -0.006035  -0.200822  -0.009422
   27  O  5  Z    0.029958   0.033976   0.000157  -0.126470  -0.001284
   28  O  5  S   -0.269337   0.104329   0.002877   0.178088  -0.002342
   29  O  5  X    0.053435   0.024610  -0.161841   0.027834  -0.075350
   30  O  5  Y   -0.194627  -0.113108  -0.041729  -0.142621  -0.018713
   31  O  5  Z   -0.126645   0.111328  -0.004698   0.153030  -0.004998
   32  C  6  S    0.004883   0.058362  -0.025151  -0.003775  -0.005890
   33  C  6  S    0.034218   0.014249  -0.076933  -0.002024  -0.016814
   34  C  6  X   -0.065581   0.171443   0.300486  -0.007077  -0.001150
   35  C  6  Y    0.438998   0.011910   0.510204  -0.141946  -0.370580
   36  C  6  Z   -0.319628  -0.032846   0.324691   0.447036  -0.125145
   37  C  6  S   -0.374352  -0.300572   0.925059  -0.192369   0.462723
   38  C  6  X   -0.062481  -0.044107  -0.343241  -0.172057   0.085470
   39  C  6  Y   -0.986390  -0.101291  -1.324090   0.195223   0.147196
   40  C  6  Z    0.832401  -0.057234  -0.860964  -0.703533  -0.051350
   41  H  7  S    0.163518   0.614583   0.006976   0.820649  -0.004513
   42  H  7  S   -0.265913  -0.335109  -0.001275  -0.723093   0.002688
   43  H  8  S   -0.079554   0.363943  -0.061290   0.012994   0.513673
   44  H  8  S    0.628664  -0.026813   0.343025  -0.250321  -0.651223
   45  H  9  S    0.097938   0.447370  -0.305160   0.009649  -0.688429
   46  H  9  S   -0.169403  -0.227177  -0.629948  -0.147486   0.701289
   47  H 10  S    0.076913   0.433936  -0.182861  -0.198936   0.169215
   48  H 10  S   -0.435638  -0.137250   0.385015   0.556568  -0.181478
   49  H 11  S    0.097512   0.436825   0.315521   0.013483   0.693028
   50  H 11  S   -0.166177  -0.243707   0.627040  -0.150166  -0.706455
   51  H 12  S   -0.082120   0.360526   0.074444   0.012787  -0.509871
   52  H 12  S    0.625847  -0.018028  -0.353148  -0.252905   0.650283

                     41         42         43         44         45
                    1.3665     1.3717     1.3774     1.4218     1.4350
                     A          A          A          A          A   
    1  C  1  S   -0.001887  -0.020978   0.021930  -0.035126   0.066468
    2  C  1  S    0.018965   0.049658  -0.090292   0.194747  -0.297658
    3  C  1  X    0.079002   0.125051   0.380825   0.167546  -0.463087
    4  C  1  Y   -0.261710   0.176099  -0.335430   0.113023  -0.167134
    5  C  1  Z    0.495673  -0.177754  -0.226398   0.102375   0.017699
    6  C  1  S   -0.188610  -0.070870  -0.125607  -0.370403   0.284082
    7  C  1  X   -0.146542  -0.167638  -0.235895  -0.062010   0.899229
    8  C  1  Y    0.457784   0.057546   0.369361  -0.470039   0.299355
    9  C  1  Z   -0.517322  -0.270269   0.309982   0.074461  -0.039279
   10  H  2  S   -0.663037   0.429801   0.312396  -0.354609   0.441731
   11  H  2  S    0.987623  -0.312098  -0.423266   0.289217  -0.354573
   12  C  3  S    0.000329   0.000769  -0.012881   0.044318   0.000228
   13  C  3  S   -0.001525  -0.027691   0.129906  -0.289484  -0.001860
   14  C  3  X   -0.121926  -0.044989   0.102349  -0.027219  -0.148238
   15  C  3  Y   -0.030344   0.223780  -0.396999   0.111510  -0.036818
   16  C  3  Z    0.000956  -0.360233  -0.052281   0.006813  -0.007416
   17  C  3  S    0.003566  -0.082244  -0.129643   0.173841   0.001609
   18  C  3  X    0.337787   0.143959  -0.218726  -0.072251   0.668473
   19  C  3  Y    0.091007  -0.681990   0.841501   0.328495   0.171623
   20  C  3  Z   -0.003469   0.951936   0.165671  -0.386606   0.029726
   21  H  4  S    0.007914  -0.180552  -0.100892   0.958376   0.004739
   22  H  4  S   -0.002547  -0.358828   0.621202  -0.713140  -0.004123
   23  O  5  S    0.000019  -0.004702  -0.008489   0.007836   0.000138
   24  O  5  S    0.000687  -0.024299   0.008992   0.007995  -0.000415
   25  O  5  X   -0.071389   0.031592   0.011647   0.059886   0.002661
   26  O  5  Y   -0.015024  -0.122345  -0.045213  -0.246891  -0.002075
   27  O  5  Z   -0.001165  -0.076891  -0.006573   0.051289   0.000533
   28  O  5  S   -0.008362   0.414253   0.095303  -0.090275   0.000401
   29  O  5  X   -0.021060  -0.019766   0.006399   0.002099  -0.067910
   30  O  5  Y   -0.005047   0.024709  -0.036554   0.002191  -0.017026
   31  O  5  Z   -0.006503   0.266853   0.059412  -0.059226  -0.002730
   32  C  6  S    0.002221  -0.020769   0.022035  -0.034275  -0.066854
   33  C  6  S   -0.018885   0.048023  -0.090743   0.191475   0.299490
   34  C  6  X   -0.006165  -0.175006  -0.154583  -0.204365  -0.486427
   35  C  6  Y    0.283436   0.106441  -0.469966   0.017150  -0.073163
   36  C  6  Z   -0.484713  -0.209208  -0.259514   0.086973  -0.060691
   37  C  6  S    0.192595  -0.055047  -0.122416  -0.369229  -0.288421
   38  C  6  X    0.043156   0.137908   0.005676   0.263583   0.928913
   39  C  6  Y   -0.498276   0.115828   0.425992  -0.383301   0.160746
   40  C  6  Z    0.521513  -0.241350   0.330726   0.089462   0.122736
   41  H  7  S   -0.011666   0.513775  -0.089826   0.382349   0.004191
   42  H  7  S    0.007893  -0.334659   0.104664  -0.390589  -0.002758
   43  H  8  S   -0.407397  -0.560372   0.461313   0.114555  -0.497119
   44  H  8  S    0.763547   0.438720  -0.592606   0.152829   0.502838
   45  H  9  S   -0.161472  -0.339878  -0.452009  -0.392119  -0.390609
   46  H  9  S    0.109040   0.318593   0.727505   0.359007   0.780819
   47  H 10  S    0.643177   0.456867   0.322899  -0.352973  -0.442944
   48  H 10  S   -0.973073  -0.349612  -0.438572   0.288223   0.354695
   49  H 11  S    0.177373  -0.326777  -0.446702  -0.400861   0.384910
   50  H 11  S   -0.127803   0.312912   0.720780   0.369004  -0.775497
   51  H 12  S    0.421450  -0.553573   0.463326   0.108247   0.496477
   52  H 12  S   -0.768417   0.420418  -0.598527   0.160652  -0.499431

                     46         47         48         49         50
                    1.8516     1.9401     2.0373     2.1599     2.2006
                     A          A          A          A          A   
    1  C  1  S    0.005656  -0.010561   0.013455  -0.008734  -0.040791
    2  C  1  S   -1.129981  -0.187512  -0.213618  -0.094314  -1.477837
    3  C  1  X   -0.056176  -0.022718   0.062403  -0.024342   0.162533
    4  C  1  Y    0.019686  -0.009495   0.062136  -0.013179   0.018374
    5  C  1  Z   -0.016073  -0.164892   0.118344   0.009151  -0.010581
    6  C  1  S    1.917160   0.777180  -0.185131   0.475368   3.045754
    7  C  1  X    0.211172  -0.071025   0.325273  -0.250467  -0.490632
    8  C  1  Y    0.090022  -0.269235   0.040104   0.008263  -0.140583
    9  C  1  Z    0.098234   0.260764  -0.157803  -0.054496  -0.037846
   10  H  2  S   -0.033580  -0.062066   0.057640  -0.036833  -0.207531
   11  H  2  S   -0.477895  -0.266594   0.039195  -0.003194  -0.511838
   12  C  3  S    0.021889   0.000137  -0.028066  -0.010381   0.000009
   13  C  3  S   -0.903190  -0.007588  -0.518318   0.364610   0.007199
   14  C  3  X   -0.000429   0.132670   0.049383  -0.003116  -0.095727
   15  C  3  Y    0.005140   0.032154  -0.149604   0.035963  -0.023830
   16  C  3  Z   -0.021265   0.005476  -0.284204  -0.080372  -0.004866
   17  C  3  S    0.782437   0.008430   1.392083  -0.419803  -0.012651
   18  C  3  X    0.091050  -0.859047  -0.172379   0.192165  -0.944979
   19  C  3  Y   -0.345076  -0.210892   0.658783  -0.680469  -0.250639
   20  C  3  Z   -0.043903  -0.035832   0.227410  -0.433590  -0.049122
   21  H  4  S    0.043464   0.002996   0.054458  -0.240228  -0.002290
   22  H  4  S   -0.521247  -0.002006  -0.071070   0.038098   0.001125
   23  O  5  S    0.007153  -0.000017   0.054859   0.001320  -0.000168
   24  O  5  S   -0.035944   0.000049  -0.278993  -0.080756   0.000381
   25  O  5  X    0.072067  -0.977356  -0.170575   0.137820   0.111893
   26  O  5  Y   -0.235179  -0.239056   0.573597  -0.711690   0.019016
   27  O  5  Z   -0.193873  -0.045644   0.690516   0.737399   0.013116
   28  O  5  S   -0.067331  -0.000153   0.058532   0.123171   0.000751
   29  O  5  X   -0.078431   1.114667   0.228799  -0.213603  -0.054445
   30  O  5  Y    0.277903   0.272826  -0.781462   1.077361   0.000788
   31  O  5  Z    0.095875   0.051330  -0.858974  -1.033296  -0.013906
   32  C  6  S    0.005678   0.010655   0.013379  -0.009310   0.040362
   33  C  6  S   -1.131493   0.176234  -0.212317  -0.126782   1.473054
   34  C  6  X    0.041564  -0.039595  -0.093315   0.022898   0.151050
   35  C  6  Y    0.044319  -0.005717   0.022336  -0.001915   0.061162
   36  C  6  Z   -0.012697   0.163521   0.109440   0.012072   0.024832
   37  C  6  S    1.921528  -0.766185  -0.181610   0.532591  -3.025361
   38  C  6  X   -0.236177  -0.174328  -0.288979   0.225109  -0.491132
   39  C  6  Y   -0.023922   0.204258  -0.119245   0.136554  -0.108474
   40  C  6  Z    0.080076  -0.273431  -0.181953  -0.032892  -0.007123
   41  H  7  S   -0.018761  -0.000307   0.384017  -0.347046  -0.004415
   42  H  7  S   -0.110469  -0.000548  -0.326820  -0.386422  -0.004711
   43  H  8  S   -0.035396  -0.000098   0.021501  -0.099797   0.214614
   44  H  8  S   -0.396371  -0.054905  -0.038512  -0.017816   0.513769
   45  H  9  S   -0.005207   0.007506  -0.035178   0.017412   0.187141
   46  H  9  S   -0.562001   0.050262  -0.158479  -0.021253   0.236357
   47  H 10  S   -0.033704   0.062243   0.057129  -0.040458   0.205091
   48  H 10  S   -0.479903   0.264031   0.036976  -0.013670   0.511808
   49  H 11  S   -0.005841  -0.010453  -0.035674   0.020989  -0.187062
   50  H 11  S   -0.560825  -0.055089  -0.158070  -0.016697  -0.237321
   51  H 12  S   -0.035699   0.000895   0.020850  -0.096563  -0.217313
   52  H 12  S   -0.395586   0.051456  -0.040060  -0.000859  -0.514910

                     51         52
                    2.4628     3.4079
                     A          A   
    1  C  1  S    0.065888   0.025936
    2  C  1  S    0.876796   0.118183
    3  C  1  X    0.114074   0.061011
    4  C  1  Y    0.025689   0.050183
    5  C  1  Z   -0.013509   0.064188
    6  C  1  S   -2.799342  -0.736351
    7  C  1  X    0.422003   0.162643
    8  C  1  Y    0.575675   0.151434
    9  C  1  Z    0.389263   0.201721
   10  H  2  S    0.212377   0.005471
   11  H  2  S    0.143084   0.066261
   12  C  3  S   -0.102915  -0.090428
   13  C  3  S   -1.833481  -0.688292
   14  C  3  X    0.007106   0.015894
   15  C  3  Y   -0.027424  -0.034854
   16  C  3  Z   -0.001070  -0.163069
   17  C  3  S    4.944301   2.424908
   18  C  3  X   -0.135147  -0.022748
   19  C  3  Y    0.436299   0.190500
   20  C  3  Z    0.426557  -0.532847
   21  H  4  S   -0.454721  -0.214108
   22  H  4  S   -0.452089  -0.180814
   23  O  5  S    0.043742  -0.060996
   24  O  5  S   -0.258705   1.663959
   25  O  5  X    0.053433  -0.028612
   26  O  5  Y   -0.210785   0.077349
   27  O  5  Z   -0.027956   0.226949
   28  O  5  S   -0.213416  -2.374415
   29  O  5  X   -0.060823   0.102335
   30  O  5  Y    0.321466  -0.287688
   31  O  5  Z   -0.403762  -0.744863
   32  C  6  S    0.066154   0.025802
   33  C  6  S    0.881782   0.116335
   34  C  6  X   -0.110509  -0.083171
   35  C  6  Y   -0.031284   0.013438
   36  C  6  Z   -0.023872   0.058278
   37  C  6  S   -2.812164  -0.732008
   38  C  6  X   -0.679714  -0.228896
   39  C  6  Y    0.297109   0.051055
   40  C  6  Z    0.343746   0.182259
   41  H  7  S   -0.164514   0.260221
   42  H  7  S   -0.201231   0.139381
   43  H  8  S    0.204369   0.089496
   44  H  8  S    0.195338  -0.016469
   45  H  9  S    0.234957   0.062715
   46  H  9  S    0.344148   0.049221
   47  H 10  S    0.213058   0.005280
   48  H 10  S    0.143416   0.066719
   49  H 11  S    0.233532   0.063371
   50  H 11  S    0.343115   0.048636
   51  H 12  S    0.202916   0.090427
   52  H 12  S    0.194969  -0.016744
 ...... END OF RHF CALCULATION ......
 CPU     0: STEP CPU TIME=     0.20 TOTAL CPU TIME=          0.2 (      0.0 MIN)
 TOTAL WALL CLOCK TIME=          0.3 SECONDS, CPU UTILIZATION IS    80.65%

     ----------------------------------------------------------------
     PROPERTY VALUES FOR THE RHF   SELF-CONSISTENT FIELD WAVEFUNCTION
     ----------------------------------------------------------------

          -----------------
          ENERGY COMPONENTS
          -----------------

         WAVEFUNCTION NORMALIZATION =       1.0000000000

                ONE ELECTRON ENERGY =    -524.2779369059
                TWO ELECTRON ENERGY =     199.1635787636
           NUCLEAR REPULSION ENERGY =     133.0680241806
                                      ------------------
                       TOTAL ENERGY =    -192.0463339618

 ELECTRON-ELECTRON POTENTIAL ENERGY =     199.1635787636
  NUCLEUS-ELECTRON POTENTIAL ENERGY =    -715.7076242105
   NUCLEUS-NUCLEUS POTENTIAL ENERGY =     133.0680241806
                                      ------------------
             TOTAL POTENTIAL ENERGY =    -383.4760212664
               TOTAL KINETIC ENERGY =     191.4296873046
                 VIRIAL RATIO (V/T) =       2.0032212697

          ---------------------------------------
          MULLIKEN AND LOWDIN POPULATION ANALYSES
          ---------------------------------------

     ATOMIC MULLIKEN POPULATION IN EACH MOLECULAR ORBITAL

                      1          2          3          4          5

                  2.000000   2.000000   2.000000   2.000000   2.000000

    1            -0.000070   0.005266   1.612004   0.375372   0.017339
    2             0.000000   0.000024   0.002388   0.000445   0.000269
    3             0.003038   1.985111   0.003935   0.004412   0.220895
    4            -0.000025   0.003009   0.000005   0.000039   0.002520
    5             1.996220   0.001168  -0.000001  -0.000002   1.636486
    6            -0.000069   0.005271   0.375672   1.611704   0.017120
    7             0.000904   0.000112   0.000000   0.000003   0.105316
    8            -0.000001   0.000002   0.000610   0.002219   0.000025
    9             0.000002   0.000006   0.000335   0.002432  -0.000123
   10             0.000000   0.000024   0.000622   0.002211   0.000259
   11             0.000001   0.000006   0.002055   0.000711  -0.000131
   12            -0.000001   0.000001   0.002375   0.000454   0.000025

                      6          7          8          9         10

                  2.000000   2.000000   2.000000   2.000000   2.000000

    1             0.499742   0.750271   0.265097   0.308415   0.270430
    2             0.027404   0.057061   0.040997   0.046244   0.073454
    3             0.649811   0.112127   0.641333   0.512250   0.407401
    4             0.027860   0.000000   0.185259   0.059373   0.064870
    5             0.159299   0.009798   0.275316   0.409709   0.515654
    6             0.496790   0.751693   0.266691   0.304200   0.271868
    7             0.022869   0.000001   0.092364   0.074554   0.128680
    8             0.028775   0.056829   0.068068   0.013256   0.065890
    9             0.015565   0.074098   0.027953   0.106141   0.028947
   10             0.027178   0.057132   0.041302   0.045470   0.076366
   11             0.015737   0.074106   0.027758   0.107052   0.028146
   12             0.028971   0.056885   0.067862   0.013336   0.068294

                     11         12         13         14         15

                  2.000000   2.000000   2.000000   2.000000   2.000000

    1             0.405842   0.399578   0.566196   0.438217   0.229357
    2             0.123103   0.064378   0.133525   0.046619   0.119995
    3             0.400651   0.003038   0.011647   0.156571   0.286364
    4             0.000002   0.014650   0.000006   0.000096   0.178473
    5             0.418004   0.489702   0.012943   0.319859   0.547489
    6             0.388690   0.417728   0.562955   0.440978   0.232099
    7             0.000010   0.137859   0.000001   0.000011   0.013228
    8             0.046299   0.037003   0.279537   0.002426   0.139479
    9             0.025704   0.168688   0.008146   0.269097   0.000639
   10             0.115134   0.069158   0.133969   0.051425   0.116579
   11             0.030788   0.164016   0.008443   0.270424   0.000075
   12             0.045774   0.034202   0.282632   0.004277   0.136222

                     16         17

                  2.000000   2.000000

    1             0.208367   0.245943
    2             0.031842   0.032565
    3             0.363940   0.195559
    4             0.231748   0.000045
    5             0.682289   1.180700
    6             0.199551   0.253613
    7             0.067853   0.000000
    8             0.072393   0.000307
    9             0.021227   0.028255
   10             0.030104   0.033840
   11             0.019076   0.029013
   12             0.071611   0.000160

               ----- POPULATIONS IN EACH AO -----
                             MULLIKEN      LOWDIN
              1  C  1  S      1.98835     1.97656
              2  C  1  S      0.35292     0.42008
              3  C  1  X      0.54206     0.51915
              4  C  1  Y      0.53362     0.50587
              5  C  1  Z      0.54446     0.51149
              6  C  1  S      1.12529     0.58750
              7  C  1  X      0.48508     0.57933
              8  C  1  Y      0.48310     0.58358
              9  C  1  Z      0.54249     0.59904
             10  H  2  S      0.46539     0.46574
             11  H  2  S      0.33492     0.44197
             12  C  3  S      1.98941     1.97567
             13  C  3  S      0.35111     0.41443
             14  C  3  X      0.54805     0.52473
             15  C  3  Y      0.57039     0.54159
             16  C  3  Z      0.41056     0.40004
             17  C  3  S      1.01808     0.55643
             18  C  3  X      0.34339     0.52013
             19  C  3  Y      0.50902     0.56261
             20  C  3  Z      0.21807     0.40966
             21  H  4  S      0.47884     0.49224
             22  H  4  S      0.28909     0.42268
             23  O  5  S      1.98604     1.98058
             24  O  5  S      0.41647     0.57581
             25  O  5  X      0.85471     0.86729
             26  O  5  Y      0.64778     0.63557
             27  O  5  Z      0.56821     0.55805
             28  O  5  S      1.51179     1.05512
             29  O  5  X      1.06277     1.05595
             30  O  5  Y      0.84359     0.86009
             31  O  5  Z      0.76327     0.80995
             32  C  6  S      1.98835     1.97656
             33  C  6  S      0.35295     0.42011
             34  C  6  X      0.53496     0.51736
             35  C  6  Y      0.54020     0.50774
             36  C  6  Z      0.54496     0.51137
             37  C  6  S      1.12510     0.58751
             38  C  6  X      0.40377     0.55456
             39  C  6  Y      0.55394     0.60507
             40  C  6  Z      0.55232     0.60218
             41  H  7  S      0.41603     0.43178
             42  H  7  S      0.22773     0.33346
             43  H  8  S      0.46581     0.46846
             44  H  8  S      0.34731     0.44928
             45  H  9  S      0.46458     0.46626
             46  H  9  S      0.31253     0.43361
             47  H 10  S      0.46551     0.46585
             48  H 10  S      0.33526     0.44214
             49  H 11  S      0.46460     0.46628
             50  H 11  S      0.31268     0.43371
             51  H 12  S      0.46587     0.46850
             52  H 12  S      0.34721     0.44923

          ----- MULLIKEN ATOMIC OVERLAP POPULATIONS -----
          (OFF-DIAGONAL ELEMENTS NEED TO BE MULTIPLIED BY 2)

             1           2           3           4           5

    1    5.4753251
    2    0.3504965   0.5262801
    3    0.2194930  -0.0352354   5.1896295
    4   -0.0506631   0.0000618   0.3905127   0.5015718
    5   -0.0451337   0.0015366   0.2422856  -0.0295435   8.2651228
    6   -0.0975325   0.0023138   0.2193075  -0.0509306  -0.0454728
    7   -0.0026070   0.0000214  -0.0600223   0.0052472   0.2610744
    8   -0.0029225   0.0001666  -0.0452565   0.0031183  -0.0000360
    9    0.0039629  -0.0000916  -0.0410126  -0.0023196   0.0016717
   10    0.0023358   0.0002060  -0.0352858   0.0000928   0.0015430
   11    0.3750811  -0.0211754  -0.0409638  -0.0023421   0.0016538
   12    0.3695295  -0.0242681  -0.0453689   0.0031237  -0.0000690

             6           7           8           9          10

    6    5.4752806
    7   -0.0024057   0.4370467
    8    0.3695374   0.0029950   0.5318466
    9    0.3751424  -0.0003364  -0.0250156   0.4863244
   10    0.3502705   0.0000144  -0.0243003  -0.0210964   0.5269162
   11    0.0039633  -0.0003343  -0.0000597  -0.0000584  -0.0000926
   12   -0.0029211   0.0030720   0.0030426  -0.0000606   0.0001692

            11          12

   11    0.4865948
   12   -0.0249885   0.5318213

          TOTAL MULLIKEN AND LOWDIN ATOMIC POPULATIONS
       ATOM         MULL.POP.    CHARGE          LOW.POP.     CHARGE
    1 C             6.597365   -0.597365         6.282625   -0.282625
    2 H             0.800312    0.199688         0.907715    0.092285
    3 C             5.958083    0.041917         5.905297    0.094703
    4 H             0.767929    0.232071         0.914919    0.085081
    5 O             8.654633   -0.654633         8.398414   -0.398414
    6 C             6.596553   -0.596553         6.282463   -0.282463
    7 H             0.643765    0.356235         0.765241    0.234759
    8 H             0.813116    0.186884         0.917739    0.082261
    9 H             0.777110    0.222890         0.899875    0.100125
   10 H             0.800773    0.199227         0.907991    0.092009
   11 H             0.777278    0.222722         0.899994    0.100006
   12 H             0.813082    0.186918         0.917727    0.082273

          -------------------------------
          BOND ORDER AND VALENCE ANALYSIS     BOND ORDER THRESHOLD=0.050
          -------------------------------

                   BOND                       BOND                       BOND
  ATOM PAIR DIST  ORDER      ATOM PAIR DIST  ORDER      ATOM PAIR DIST  ORDER
    1   2  1.096  0.919        1   3  1.537  0.887        1  11  1.094  0.923
    1  12  1.098  0.930        3   4  1.094  0.904        3   5  1.467  0.863
    3   6  1.537  0.886        5   7  0.997  0.825        6   8  1.099  0.930
    6   9  1.094  0.923        6  10  1.095  0.919

                       TOTAL       BONDED        FREE
      ATOM            VALENCE     VALENCE     VALENCE
    1 C                 3.644       3.644      -0.000
    2 H                 0.918       0.918       0.000
    3 C                 3.502       3.502      -0.000
    4 H                 0.897       0.897      -0.000
    5 O                 1.746       1.746      -0.000
    6 C                 3.644       3.644      -0.000
    7 H                 0.844       0.844      -0.000
    8 H                 0.924       0.924      -0.000
    9 H                 0.912       0.912      -0.000
   10 H                 0.918       0.918       0.000
   11 H                 0.912       0.912      -0.000
   12 H                 0.924       0.924      -0.000

          ---------------------
          ELECTROSTATIC MOMENTS
          ---------------------

 POINT   1           X           Y           Z (BOHR)    CHARGE
                -2.205621   -0.623271   -0.088479       -0.00 (A.U.)
         DX          DY          DZ         /D/  (DEBYE)
    -0.433053    1.565169    1.297410    2.078597
 ...... END OF PROPERTY EVALUATION ......
 CPU     0: STEP CPU TIME=     0.02 TOTAL CPU TIME=          0.3 (      0.0 MIN)
 TOTAL WALL CLOCK TIME=          0.3 SECONDS, CPU UTILIZATION IS    81.82%
               580000  WORDS OF DYNAMIC MEMORY USED
 EXECUTION OF GAMESS TERMINATED NORMALLY Sun May 17 16:19:23 2020
 DDI: 263640 bytes (0.3 MB / 0 MWords) used by master data server.
Note: The following floating-point exceptions are signalling:Note: The following floating-point exceptions are signalling:Note: The following floating-point exceptions are signalling: IEEE_DENORMALNote: The following floating-point exceptions are signalling: IEEE_DENORMAL IEEE_DENORMAL

 ----------------------------------------
 CPU timing information for all processes
 ========================================
 0: 0.187 + 0.95 = 0.283
 1: 0.175 + 0.17 = 0.192
 2: 0.182 + 0.00 = 0.182
 3: 0.173 + 0.13 = 0.186
 4: 0.169 + 0.04 = 0.174
 5: 0.167 + 0.00 = 0.167
 ----------------------------------------
 IEEE_DENORMAL


Note: The following floating-point exceptions are signalling: IEEE_DENORMALNote: The following floating-point exceptions are signalling:
 IEEE_DENORMAL
 ddikick.x: exited gracefully.
unset echo
----- accounting info -----
Files used on the master node pietdev were:
-rwxr-xr-x 1 piet piet      792 mei 17 16:19 /home/piet/scr/threonine_fukui_neu.F05*
-rw-r--r-- 1 piet piet 49152000 mei 17 16:19 /home/piet/scr/threonine_fukui_neu.F10
ls: No match.
ls: No match.
ls: No match.
zo 17 mei 2020 16:19:26 CEST
0.120u 0.023s 0:03.48 4.0%	0+0k 0+8io 0pf+0w
