----- GAMESS execution script 'rungms' -----
This job is running on host pietdev
under operating system Linux at ma 25 mei 2020 18:08:45 CEST
Available scratch disk space (Kbyte units) at beginning of the job is
Filesystem     1K-blocks     Used Available Use% Mounted on
/dev/sda2      244568380 31071244 201004080  14% /
GAMESS temporary binary files will be written to /home/piet/scr
GAMESS supplementary output files will be written to /home/piet/gamess/scr
Copying input file borneol_charge_chelpg.inp to your run's scratch directory...
cp borneol_charge_chelpg.inp /home/piet/scr/borneol_charge_chelpg.F05
unset echo
 
Assuming a single but multicore node.
 
/home/piet/gamess/ddikick.x /home/piet/gamess/gamess.03.x borneol_charge_chelpg -ddi 1 6 pietdev:cpus=6 -scr /home/piet/scr

 Distributed Data Interface kickoff program.
 Initiating 6 compute processes on 1 nodes to run the following command:
 /home/piet/gamess/gamess.03.x borneol_charge_chelpg 

          ******************************************************
          *         GAMESS VERSION = 30 SEP 2019 (R2)          *
          *             FROM IOWA STATE UNIVERSITY             *
          * M.W.SCHMIDT, K.K.BALDRIDGE, J.A.BOATZ, S.T.ELBERT, *
          *   M.S.GORDON, J.H.JENSEN, S.KOSEKI, N.MATSUNAGA,   *
          *          K.A.NGUYEN, S.J.SU, T.L.WINDUS,           *
          *       TOGETHER WITH M.DUPUIS, J.A.MONTGOMERY       *
          *         J.COMPUT.CHEM.  14, 1347-1363(1993)        *
          **************** 64 BIT LINUX VERSION ****************

  SINCE 1993, STUDENTS AND POSTDOCS WORKING AT IOWA STATE UNIVERSITY
  AND ALSO IN THEIR VARIOUS JOBS AFTER LEAVING ISU HAVE MADE IMPORTANT
  CONTRIBUTIONS TO THE CODE:
     IVANA ADAMOVIC, CHRISTINE AIKENS, YURI ALEXEEV, POOJA ARORA,
     ANDREY ASADCHEV, ROB BELL, PRADIPTA BANDYOPADHYAY, JONATHAN BENTZ,
     COLLEEN BERTONI, BRETT BODE, KURT BRORSEN, CALEB CARLIN, GALINA CHABAN,
     WEI CHEN, CHEOL HO CHOI, PAUL DAY, ALBERT DEFUSCO, NUWAN DESILVA,
     TIM DUDLEY, DMITRI FEDOROV, ALEX FINDLATER, GRAHAM FLETCHER, 
     MARK FREITAG, KURT GLAESEMANN, EMILIE B GUIDEZ, ANASTASIA GUNINA, 
     DAN KEMP, SAROM SOK LEANG, GRANT MERRILL,
     NORIYUKI MINEZAWA, JONATHAN MULLIN,
     TAKESHI NAGATA, SEAN NEDD, HEATHER NETZLOFF, BOSILJKA NJEGIC, RYAN OLSON,
     MIKE PAK, BUU PHAM, DAVID POOLE,
     SPENCER PRUITT, LUKE ROSKOP, TOSAPORN SATTASATHUCHANA,
     JIM SHOEMAKER, LYUDMILA SLIPCHENKO,
     TONY SMITH, JIE SONG, TETSUYA TAKETSUGU, SIMON WEBB,
     JORGE LUIS GALVEZ VALLEJO, PENG XU, SOOHAENG YOO,
     FEDERICO ZAHARIEV

  ADDITIONAL CODE HAS BEEN PROVIDED BY COLLABORATORS IN OTHER GROUPS:
     IOWA STATE UNIVERSITY:
          JOE IVANIC, AARON WEST, LAIMUTIS BYTAUTAS, KLAUS RUEDENBERG
     UNIVERSITY OF TOKYO: KIMIHIKO HIRAO, TAKAHITO NAKAJIMA,
          TAKAO TSUNEDA, MUNEAKI KAMIYA, SUSUMU YANAGISAWA,
          KIYOSHI YAGI, MAHITO CHIBA, SEIKEN TOKURA, NAOAKI KAWAKAMI
     UNIVERSITY OF AARHUS: FRANK JENSEN
     UNIVERSITY OF IOWA: VISVALDAS KAIRYS, HUI LI
     NATIONAL INST. OF STANDARDS AND TECHNOLOGY: WALT STEVENS, DAVID GARMER
     UNIVERSITY OF PISA: BENEDETTA MENNUCCI, JACOPO TOMASI
     UNIVERSITY OF MEMPHIS: HENRY KURTZ, PRAKASHAN KORAMBATH
     UNIVERSITY OF ALBERTA: TOBY ZENG, MARIUSZ KLOBUKOWSKI
     UNIVERSITY OF NEW ENGLAND: MARK SPACKMAN
     MIE UNIVERSITY: HIROAKI UMEDA
     NAT. INST. OF ADVANCED INDUSTRIAL SCIENCE AND TECHNOLOGY: KAZUO KITAURA
     MICHIGAN STATE UNIVERSITY:
          KAROL KOWALSKI, MARTA WLOCH, JEFFREY GOUR, JESSE LUTZ,
          WEI LI, JUN SHEN, J. EMILIANO DEUSTUA, PIOTR PIECUCH
     UNIVERSITY OF MINNESOTA:
          ANDREW SAND, PRACHI SHARMA, YINAN SHU
     UNIVERSITY OF SILESIA: MONIKA MUSIAL, STANISLAW KUCHARSKI
     FACULTES UNIVERSITAIRES NOTRE-DAME DE LA PAIX:
          OLIVIER QUINET, BENOIT CHAMPAGNE
     UNIVERSITY OF CALIFORNIA - SANTA BARBARA: BERNARD KIRTMAN
     INSTITUTE FOR MOLECULAR SCIENCE:
          KAZUYA ISHIMURA, MICHIO KATOUDA, AND SHIGERU NAGASE
     UNIVERSITY OF NOTRE DAME: ANNA POMOGAEVA, DAN CHIPMAN
     KYUSHU UNIVERSITY:
          HARUYUKI NAKANO,
          FENG LONG GU, JACEK KORCHOWIEC, MARCIN MAKOWSKI, AND YURIKO AOKI,
          HIROTOSHI MORI AND EISAKU MIYOSHI
     PENNSYLVANIA STATE UNIVERSITY:
          TZVETELIN IORDANOV, CHET SWALINA, JONATHAN SKONE,
          SHARON HAMMES-SCHIFFER
     WASEDA UNIVERSITY:
          MASATO KOBAYASHI, TOMOKO AKAMA, TSUGUKI TOUMA,
          TAKESHI YOSHIKAWA, YASUHIRO IKABATA, JUNJI SEINO,
          YUYA NAKAJIMA, HIROMI NAKAI
     NANJING UNIVERSITY: SHUHUA LI
     UNIVERSITY OF NEBRASKA:
          PEIFENG SU, DEJUN SI, NANDUN THELLAMUREGE, YALI WANG, HUI LI
     UNIVERSITY OF ZURICH: ROBERTO PEVERATI, KIM BALDRIDGE
     N. COPERNICUS UNIVERSITY AND JACKSON STATE UNIVERSITY:
          MARIA BARYSZ
     UNIVERSITY OF COPENHAGEN: Jimmy Kromann, CASPER STEINMANN
     TOKYO INSTITUTE OF TECHNOLOGY: HIROYA NAKATA
     NAGOYA UNIVERSITY: YOSHIO NISHIMOTO, STEPHAN IRLE
     MOSCOW STATE UNIVERSITY: VLADIMIR MIRONOV
     A.N.NESMEYANOV INSTITUTE OF ORGANOELEMENT COMPOUNDS OF RUSSIAN ACADEMY OF SCIENCES:
          IGOR S. GERASIMOV
     JOHANNES KEPLER UNIVERSITY LINZ:
          CHRISTIAN FRIEDL


 PARALLEL VERSION RUNNING ON        6 PROCESSORS IN        1 NODES.

 EXECUTION OF GAMESS BEGUN Mon May 25 18:08:45 2020

            ECHO OF THE FIRST FEW INPUT CARDS -
 INPUT CARD> $BASIS GBASIS=N21 NGAUSS=3 $END                                                
 INPUT CARD> $CONTRL SCFTYP=RHF DFTTYP=B3LYP MAXIT=60 MULT=1 ICHARG=0 $END                  
 INPUT CARD> $SYSTEM MEMDDI=1000 MWORDS=30 $END                                             
 INPUT CARD> $SCF DIRSCF=.TRUE. $END                                                        
 INPUT CARD> $ELPOT  IEPOT=1 WHERE=PDC $END                                                 
 INPUT CARD> $PDC PTSEL=CHELPG CONSTR=CHARGE $END                                           
 INPUT CARD> $DATA                                                                          
 INPUT CARD>                                                                                
 INPUT CARD>C1                                                                              
 INPUT CARD>O 8.0000000 -2.38748 1.32351 0.55636                                            
 INPUT CARD>C 6.0000000 -0.72030 -0.26732 -0.27159                                          
 INPUT CARD>C 6.0000000 0.85272 -0.18680 -0.36597                                           
 INPUT CARD>C 6.0000000 0.98850 0.50143 1.03046                                             
 INPUT CARD>C 6.0000000 -1.08283 1.22367 -0.02965                                           
 INPUT CARD>C 6.0000000 -0.92205 -0.99925 1.08758                                           
 INPUT CARD>C 6.0000000 0.07450 1.74162 0.88182                                             
 INPUT CARD>C 6.0000000 0.25975 -0.48850 1.97069                                            
 INPUT CARD>C 6.0000000 -1.47220 -0.89782 -1.43798                                          
 INPUT CARD>C 6.0000000 1.39878 0.65916 -1.53508                                            
 INPUT CARD>C 6.0000000 1.54560 -1.56030 -0.46173                                           
 INPUT CARD>H 1.0000000 2.01367 0.73720 1.33761                                             
 INPUT CARD>H 1.0000000 -1.09873 1.75736 -0.98969                                           
 INPUT CARD>H 1.0000000 -1.89915 -0.76564 1.51570                                           
 INPUT CARD>H 1.0000000 -0.88168 -2.08401 0.94346                                           
 INPUT CARD>H 1.0000000 -0.31761 2.07695 1.84845                                            
 INPUT CARD>H 1.0000000 0.59717 2.59015 0.42734                                             
 INPUT CARD>H 1.0000000 -0.08488 0.00675 2.88477                                            
 INPUT CARD>H 1.0000000 0.91808 -1.30684 2.27933                                            
 INPUT CARD>H 1.0000000 -2.55254 -0.86559 -1.25883                                          
 INPUT CARD>H 1.0000000 -1.18737 -1.94729 -1.57516                                          
 INPUT CARD>H 1.0000000 -1.27515 -0.36812 -2.37812                                          
 INPUT CARD>H 1.0000000 2.48976 0.74172 -1.45696                                            
 INPUT CARD>H 1.0000000 1.17897 0.17974 -2.49616                                            
 INPUT CARD>H 1.0000000 1.00084 1.67534 -1.57829                                            
 INPUT CARD>H 1.0000000 1.36141 -2.01506 -1.44206                                           
 INPUT CARD>H 1.0000000 2.63112 -1.44065 -0.35858                                           
 INPUT CARD>H 1.0000000 1.21982 -2.27420 0.29703                                            
 INPUT CARD>H 1.0000000 -2.64849 2.25269 0.57535                                            
 INPUT CARD> $END                                                                           
   30000000 WORDS OF MEMORY AVAILABLE

     BASIS OPTIONS
     -------------
     GBASIS=N21          IGAUSS=       3      POLAR=NONE    
     NDFUNC=       0     NFFUNC=       0     DIFFSP=       F
     NPFUNC=       0      DIFFS=       F     BASNAM=        


     RUN TITLE
     ---------
                                                                                 

 THE POINT GROUP OF THE MOLECULE IS C1      
 THE ORDER OF THE PRINCIPAL AXIS IS     0

 ATOM      ATOMIC                      COORDINATES (BOHR)
           CHARGE         X                   Y                   Z
 O           8.0    -4.5116830012        2.5010712420        1.0513679505
 C           6.0    -1.3611696290       -0.5051615510       -0.5132306810
 C           6.0     1.6114071443       -0.3530008145       -0.6915830197
 C           6.0     1.8679941389        0.9475653020        1.9472870413
 C           6.0    -2.0462519913        2.3124009994       -0.0560303755
 C           6.0    -1.7424218470       -1.8883086932        2.0552281897
 C           6.0     0.1407845861        3.2911845747        1.6663981705
 C           6.0     0.4908563253       -0.9231311450        3.7240641067
 C           6.0    -2.7820545991       -1.6966337863       -2.7173881758
 C           6.0     2.6433109171        1.2456317821       -2.9008805692
 C           6.0     2.9207604866       -2.9485394586       -0.8725431803
 H           1.0     3.8052845297        1.3931059981        2.5277163784
 H           1.0    -2.0762986345        3.3209288618       -1.8702429128
 H           1.0    -3.5888731096       -1.4468498052        2.8642576796
 H           1.0    -1.6661336089       -3.9382078557        1.7828808804
 H           1.0    -0.6001958710        3.9248663902        3.4930640020
 H           1.0     1.1284876681        4.8946737671        0.8075555036
 H           1.0    -0.1603999418        0.0127556504        5.4514248376
 H           1.0     1.7349196348       -2.4695695098        4.3073091356
 H           1.0    -4.8236011727       -1.6357279177       -2.3788437651
 H           1.0    -2.2438039460       -3.6798445186       -2.9766207868
 H           1.0    -2.4096840932       -0.6956459306       -4.4939951659
 H           1.0     4.7049641752        1.4016475596       -2.7532551751
 H           1.0     2.2279302477        0.3396593490       -4.7170584215
 H           1.0     1.8913133576        3.1659335363       -2.9825356292
 H           1.0     2.5726918569       -3.8079112488       -2.7250982579
 H           1.0     4.9720958408       -2.7224337442       -0.6776179447
 H           1.0     2.3051255543       -4.2976148413        0.5613053101
 H           1.0    -5.0049203812        4.2569668353        1.0872538470

          INTERNUCLEAR DISTANCES (ANGS.)
          ------------------------------

                1 O          2 C          3 C          4 C          5 C     

   1 O       0.0000000    2.4486181 *  3.6919676    3.5068258    1.4336971 *
   2 C       2.4486181 *  0.0000000    1.5779046 *  2.2817336 *  1.5533880 *
   3 C       3.6919676    1.5779046 *  0.0000000    1.5627263 *  2.4184480 *
   4 C       3.5068258    2.2817336 *  1.5627263 *  0.0000000    2.4363645 *
   5 C       1.4336971 *  1.5533880 *  2.4184480 *  2.4363645 *  0.0000000  
   6 C       2.7973012 *  1.5568454 *  2.4336580 *  2.4301244 *  2.4930757 *
   7 C       2.5183498 *  2.4490614 *  2.4251618 *  1.5477600 *  1.5615577 *
   8 C       3.5059287    2.4570792 *  2.4295301 *  1.5476015 *  2.9555722 *
   9 C       3.1224088    1.5242537 *  2.6570675 *  3.7558143    2.5759896 *
  10 C       4.3762138    2.6353884 *  1.5429349 *  2.6029222 *  2.9569206 *
  11 C       4.9821668    2.6157701 *  1.5413484 *  2.6053257 *  3.8530282  
  12 H       4.5082405    3.3276384    2.2591515 *  1.0958568 *  3.4197025  
  13 H       2.0589738 *  2.1813312 *  2.8243480 *  3.1646319    1.0985238 *
  14 H       2.3501802 *  2.1982756 *  3.3835671    3.1905245    2.6479878 *
  15 H       3.7454603    2.1915183 *  2.8848147 *  3.1921219    3.4537156  
  16 H       2.5537287 *  3.1862722    3.3760765    2.2039270 *  2.2002064 *
  17 H       3.2448665    3.2232538    2.8993271 *  2.2089917 *  2.2132572 *
  18 H       3.5294924    3.2313281    3.3887853    2.1989358 *  3.3121960  
  19 H       4.5622466    3.2050092    2.8733906 *  2.1987441 *  3.9671791  
  20 H       2.8485643 *  2.1655653 *  3.5852128    4.4326692    2.8347731 *
  21 H       4.0843328    2.1770963 *  2.9535458 *  4.1856774    3.5290958  
  22 H       3.5651175    2.1807081 *  2.9341873 *  4.1831383    2.8436058 *
  23 H       5.3084279    3.5675971    2.1753870 *  2.9152666 *  3.8772270  
  24 H       4.8317340    2.9590203 *  2.1859781 *  3.5463801    3.5055956  
  25 H       4.0201029    2.9058072 *  2.2269317 *  2.8607330 *  2.6351418 *
  26 H       5.4031388    2.9594107 *  2.1815751 *  3.5475539    4.2963453  
  27 H       5.8020722    3.5519412    2.1759828 *  2.8981558 *  4.5825998  
  28 H       5.1013118    2.8486772 *  2.2207139 *  2.8801997 *  4.2004775  
  29 H       0.9653302 *  3.2841551    4.3698588    4.0622325    1.9688063 *

                6 C          7 C          8 C          9 C         10 C     

   1 O       2.7973012 *  2.5183498 *  3.5059287    3.1224088    4.3762138  
   2 C       1.5568454 *  2.4490614 *  2.4570792 *  1.5242537 *  2.6353884 *
   3 C       2.4336580 *  2.4251618 *  2.4295301 *  2.6570675 *  1.5429349 *
   4 C       2.4301244 *  1.5477600 *  1.5476015 *  3.7558143    2.6029222 *
   5 C       2.4930757 *  1.5615577 *  2.9555722 *  2.5759896 *  2.9569206 *
   6 C       0.0000000    2.9236651 *  1.5612175 *  2.5867753 *  3.8749092  
   7 C       2.9236651 *  0.0000000    2.4886524 *  3.8393224    2.9608855 *
   8 C       1.5612175 *  2.4886524 *  0.0000000    3.8452861    3.8606911  
   9 C       2.5867753 *  3.8393224    3.8452861    0.0000000    3.2674365  
  10 C       3.8749092    2.9608855 *  3.8606911    3.2674365    0.0000000  
  11 C       2.9672268 *  3.8564151    2.9527669 *  3.2402254    2.4697447 *
  12 H       3.4199745    2.2309156 *  2.2314493 *  4.7464176    2.9387970 *
  13 H       3.4561778    2.2089061 *  3.9564131    2.7185335 *  2.7822742 *
  14 H       1.0920553 *  3.2532216    2.2236618 *  2.9873037 *  4.7131365  
  15 H       1.0950363 *  3.9437957    2.2144336 *  2.7252554 *  4.3438048  
  16 H       3.2260312    1.0957053 *  2.6324553 *  4.5807157    4.0502344  
  17 H       3.9531935    1.0953261 *  3.4603276    4.4640392    2.8674716 *
  18 H       2.2232367 *  2.6546157 *  1.0952555 *  4.6291545    4.7076491  
  19 H       2.2138108 *  3.4580008    1.0946860 *  4.4383701    4.3180959  
  20 H       2.8604200 *  4.2756597    4.2989500    1.0955674 *  4.2443028  
  21 H       2.8389010 *  4.6083754    4.0982041    1.0960537 *  3.6719695  
  22 H       3.5403504    4.1109326    4.6133023    1.0969385 *  2.9859542 *
  23 H       4.5984897    3.5075879    4.2702658    4.2878408    1.0968848 *
  24 H       4.3182745    3.8820191    4.6091495    3.0511609    1.0962822 *
  25 H       4.2376645    2.6295703 *  4.2221650    3.5716615    1.0921745 *
  26 H       3.5560003    4.6009999    3.8975509    3.0459132    2.6760983 *
  27 H       3.8615062    4.2663498    3.4576703    4.2774997    2.7040740 *
  28 H       2.6149711 *  4.2166987    2.6289916 *  3.4859222    3.4631279  
  29 H       3.7172689    2.7874345 *  4.2330788    3.9195496    4.8346300  

               11 C         12 H         13 H         14 H         15 H     

   1 O       4.9821668    4.5082405    2.0589738 *  2.3501802 *  3.7454603  
   2 C       2.6157701 *  3.3276384    2.1813312 *  2.1982756 *  2.1915183 *
   3 C       1.5413484 *  2.2591515 *  2.8243480 *  3.3835671    2.8848147 *
   4 C       2.6053257 *  1.0958568 *  3.1646319    3.1905245    3.1921219  
   5 C       3.8530282    3.4197025    1.0985238 *  2.6479878 *  3.4537156  
   6 C       2.9672268 *  3.4199745    3.4561778    1.0920553 *  1.0950363 *
   7 C       3.8564151    2.2309156 *  2.2089061 *  3.2532216    3.9437957  
   8 C       2.9527669 *  2.2314493 *  3.9564131    2.2236618 *  2.2144336 *
   9 C       3.2402254    4.7464176    2.7185335 *  2.9873037 *  2.7252554 *
  10 C       2.4697447 *  2.9387970 *  2.7822742 *  4.7131365    4.3438048  
  11 C       0.0000000    2.9555406 *  4.2752884    4.0506810    2.8531595 *
  12 H       2.9555406 *  0.0000000    4.0179703    4.1952836    4.0617277  
  13 H       4.2752884    4.0179703    0.0000000    3.6446097    4.3058452  
  14 H       4.0506810    4.1952836    3.6446097    0.0000000    1.7609098 *
  15 H       2.8531595 *  4.0617277    4.3058452    1.7609098 *  0.0000000  
  16 H       4.6944724    2.7369242 *  2.9609669 *  3.2699097    4.2954359  
  17 H       4.3492758    2.5036948 *  2.3616922 *  4.3217436    4.9296195  
  18 H       4.0389569    2.7076140 *  4.3708086    2.4005238 *  2.9622377 *
  19 H       2.8233727 *  2.5030488 *  4.9135869    2.9686383 *  2.3722727 *
  20 H       4.2323447    5.4918767    3.0109577    2.8521790 *  3.0209935  
  21 H       2.9763422 *  5.0928747    3.7516748    3.3847220    2.5407844 *
  22 H       3.6125440    5.0837701    2.5449022 *  3.9634874    3.7592540  
  23 H       2.6797793 *  2.8348375 *  3.7586070    5.5110228    5.0113246  
  24 H       2.7020478 *  3.9629885    3.1537682    5.1442771    4.6045443  
  25 H       3.4659538    3.2262058    2.1820567 *  4.8929643    4.9026337  
  26 H       1.0962571 *  3.9657211    4.5263760    4.5760951    3.2751966  
  27 H       1.0969547 *  2.8286632 *  4.9535188    4.9489302    3.8011819  
  28 H       1.0915597 *  3.2835247    4.8254325    3.6727216    2.2068861 *
  29 H       5.7623622    4.9611981    2.2575336 *  3.2490129    4.6972427  

               16 H         17 H         18 H         19 H         20 H     

   1 O       2.5537287 *  3.2448665    3.5294924    4.5622466    2.8485643 *
   2 C       3.1862722    3.2232538    3.2313281    3.2050092    2.1655653 *
   3 C       3.3760765    2.8993271 *  3.3887853    2.8733906 *  3.5852128  
   4 C       2.2039270 *  2.2089917 *  2.1989358 *  2.1987441 *  4.4326692  
   5 C       2.2002064 *  2.2132572 *  3.3121960    3.9671791    2.8347731 *
   6 C       3.2260312    3.9531935    2.2232367 *  2.2138108 *  2.8604200 *
   7 C       1.0957053 *  1.0953261 *  2.6546157 *  3.4580008    4.2756597  
   8 C       2.6324553 *  3.4603276    1.0952555 *  1.0946860 *  4.2989500  
   9 C       4.5807157    4.4640392    4.6291545    4.4383701    1.0955674 *
  10 C       4.0502344    2.8674716 *  4.7076491    4.3180959    4.2443028  
  11 C       4.6944724    4.3492758    4.0389569    2.8233727 *  4.2323447  
  12 H       2.7369242 *  2.5036948 *  2.7076140 *  2.5030488 *  5.4918767  
  13 H       2.9609669 *  2.3616922 *  4.3708086    4.9135869    3.0109577  
  14 H       3.2699097    4.3217436    2.4005238 *  2.9686383 *  2.8521790 *
  15 H       4.2954359    4.9296195    2.9622377 *  2.3722727 *  3.0209935  
  16 H       0.0000000    1.7662815 *  2.3267682 *  3.6280328    4.8279025  
  17 H       1.7662815 *  0.0000000    3.6301667    4.3265900    4.9705112  
  18 H       2.3267682 *  3.6301667    0.0000000    1.7601151 *  4.9009942  
  19 H       3.6280328    4.3265900    1.7601151 *  0.0000000    4.9757895  
  20 H       4.8279025    4.9705112    4.9009942    4.9757895    0.0000000  
  21 H       5.3546331    5.2709535    4.9924675    4.4384895    1.7702623 *
  22 H       4.9758561    4.4863737    5.4088152    5.2329049    1.7697491 *
  23 H       4.5376096    3.2479496    5.1009383    4.5416560    5.2959881  
  24 H       4.9713975    3.8334606    5.5300678    5.0083219    4.0679070  
  25 H       3.6935279    2.2410664 *  4.8869096    4.8766258    4.3800559  
  26 H       5.5128133    5.0285861    4.9900830    3.8140347    4.0833637  
  27 H       5.0930835    4.5827908    4.4711231    3.1481709    5.2925868  
  28 H       4.8685831    4.9057695    3.6880040    2.2262852 *  4.3168950  
  29 H       2.6617043 *  3.2665111    4.1170090    5.3192315    3.6189906  

               21 H         22 H         23 H         24 H         25 H     

   1 O       4.0843328    3.5651175    5.3084279    4.8317340    4.0201029  
   2 C       2.1770963 *  2.1807081 *  3.5675971    2.9590203 *  2.9058072 *
   3 C       2.9535458 *  2.9341873 *  2.1753870 *  2.1859781 *  2.2269317 *
   4 C       4.1856774    4.1831383    2.9152666 *  3.5463801    2.8607330 *
   5 C       3.5290958    2.8436058 *  3.8772270    3.5055956    2.6351418 *
   6 C       2.8389010 *  3.5403504    4.5984897    4.3182745    4.2376645  
   7 C       4.6083754    4.1109326    3.5075879    3.8820191    2.6295703 *
   8 C       4.0982041    4.6133023    4.2702658    4.6091495    4.2221650  
   9 C       1.0960537 *  1.0969385 *  4.2878408    3.0511609    3.5716615  
  10 C       3.6719695    2.9859542 *  1.0968848 *  1.0962822 *  1.0921745 *
  11 C       2.9763422 *  3.6125440    2.6797793 *  2.7020478 *  3.4659538  
  12 H       5.0928747    5.0837701    2.8348375 *  3.9629885    3.2262058  
  13 H       3.7516748    2.5449022 *  3.7586070    3.1537682    2.1820567 *
  14 H       3.3847220    3.9634874    5.5110228    5.1442771    4.8929643  
  15 H       2.5407844 *  3.7592540    5.0113246    4.6045443    4.9026337  
  16 H       5.3546331    4.9758561    4.5376096    4.9713975    3.6935279  
  17 H       5.2709535    4.4863737    3.2479496    3.8334606    2.2410664 *
  18 H       4.9924675    5.4088152    5.1009383    5.5300678    4.8869096  
  19 H       4.4384895    5.2329049    4.5416560    5.0083219    4.8766258  
  20 H       1.7702623 *  1.7697491 *  5.2959881    4.0679070    4.3800559  
  21 H       0.0000000    1.7737610 *  4.5569761    3.3124104    4.2322241  
  22 H       1.7737610 *  0.0000000    4.0317277    2.5172980 *  3.1615799  
  23 H       4.5569761    4.0317277    0.0000000    1.7646327 *  1.7616044 *
  24 H       3.3124104    2.5172980 *  1.7646327 *  0.0000000    1.7638126 *
  25 H       4.2322241    3.1615799    1.7616044 *  1.7638126 *  0.0000000  
  26 H       2.5531525 *  3.2465471    2.9787970 *  2.4416302 *  3.7104746  
  27 H       4.0395070    4.5263460    2.4472761 *  3.0501888    3.7222170  
  28 H       3.0670066    4.1248568    3.7128159    3.7182524    4.3776299  
  29 H       4.9395746    4.1806331    5.7284315    5.3273582    4.2765766  

               26 H         27 H         28 H         29 H     

   1 O       5.4031388    5.8020722    5.1013118    0.9653302 *
   2 C       2.9594107 *  3.5519412    2.8486772 *  3.2841551  
   3 C       2.1815751 *  2.1759828 *  2.2207139 *  4.3698588  
   4 C       3.5475539    2.8981558 *  2.8801997 *  4.0622325  
   5 C       4.2963453    4.5825998    4.2004775    1.9688063 *
   6 C       3.5560003    3.8615062    2.6149711 *  3.7172689  
   7 C       4.6009999    4.2663498    4.2166987    2.7874345 *
   8 C       3.8975509    3.4576703    2.6289916 *  4.2330788  
   9 C       3.0459132    4.2774997    3.4859222    3.9195496  
  10 C       2.6760983 *  2.7040740 *  3.4631279    4.8346300  
  11 C       1.0962571 *  1.0969547 *  1.0915597 *  5.7623622  
  12 H       3.9657211    2.8286632 *  3.2835247    4.9611981  
  13 H       4.5263760    4.9535188    4.8254325    2.2575336 *
  14 H       4.5760951    4.9489302    3.6727216    3.2490129  
  15 H       3.2751966    3.8011819    2.2068861 *  4.6972427  
  16 H       5.5128133    5.0930835    4.8685831    2.6617043 *
  17 H       5.0285861    4.5827908    4.9057695    3.2665111  
  18 H       4.9900830    4.4711231    3.6880040    4.1170090  
  19 H       3.8140347    3.1481709    2.2262852 *  5.3192315  
  20 H       4.0833637    5.2925868    4.3168950    3.6189906  
  21 H       2.5531525 *  4.0395070    3.0670066    4.9395746  
  22 H       3.2465471    4.5263460    4.1248568    4.1806331  
  23 H       2.9787970 *  2.4472761 *  3.7128159    5.7284315  
  24 H       2.4416302 *  3.0501888    3.7182524    5.3273582  
  25 H       3.7104746    3.7222170    4.3776299    4.2765766  
  26 H       0.0000000    1.7652306 *  1.7639828 *  6.1937817  
  27 H       1.7652306 *  0.0000000    1.7653322 *  6.5105505  
  28 H       1.7639828 *  1.7653322 *  0.0000000    5.9610416  
  29 H       6.1937817    6.5105505    5.9610416    0.0000000  

  * ... LESS THAN  3.000


     ATOMIC BASIS SET
     ----------------
 THE CONTRACTED PRIMITIVE FUNCTIONS HAVE BEEN UNNORMALIZED
 THE CONTRACTED BASIS FUNCTIONS ARE NOW NORMALIZED TO UNITY

  SHELL TYPE  PRIMITIVE        EXPONENT          CONTRACTION COEFFICIENT(S)

 O         

      1   S       1           322.0370000    0.059239393389
      1   S       2            48.4308000    0.351499960776
      1   S       3            10.4206000    0.707657921031

      2   L       4             7.4029400   -0.404453583190    0.244586106967
      2   L       5             1.5762000    1.221561761397    0.853955373466

      3   L       6             0.3736840    1.000000000000    1.000000000000

 C         

      4   S       7           172.2560000    0.061766907377
      4   S       8            25.9109000    0.358794042852
      4   S       9             5.5333500    0.700713083689

      5   L      10             3.6649800   -0.395895162119    0.236459946619
      5   L      11             0.7705450    1.215834355681    0.860618805716

      6   L      12             0.1958570    1.000000000000    1.000000000000

 C         

      7   S      13           172.2560000    0.061766907377
      7   S      14            25.9109000    0.358794042852
      7   S      15             5.5333500    0.700713083689

      8   L      16             3.6649800   -0.395895162119    0.236459946619
      8   L      17             0.7705450    1.215834355681    0.860618805716

      9   L      18             0.1958570    1.000000000000    1.000000000000

 C         

     10   S      19           172.2560000    0.061766907377
     10   S      20            25.9109000    0.358794042852
     10   S      21             5.5333500    0.700713083689

     11   L      22             3.6649800   -0.395895162119    0.236459946619
     11   L      23             0.7705450    1.215834355681    0.860618805716

     12   L      24             0.1958570    1.000000000000    1.000000000000

 C         

     13   S      25           172.2560000    0.061766907377
     13   S      26            25.9109000    0.358794042852
     13   S      27             5.5333500    0.700713083689

     14   L      28             3.6649800   -0.395895162119    0.236459946619
     14   L      29             0.7705450    1.215834355681    0.860618805716

     15   L      30             0.1958570    1.000000000000    1.000000000000

 C         

     16   S      31           172.2560000    0.061766907377
     16   S      32            25.9109000    0.358794042852
     16   S      33             5.5333500    0.700713083689

     17   L      34             3.6649800   -0.395895162119    0.236459946619
     17   L      35             0.7705450    1.215834355681    0.860618805716

     18   L      36             0.1958570    1.000000000000    1.000000000000

 C         

     19   S      37           172.2560000    0.061766907377
     19   S      38            25.9109000    0.358794042852
     19   S      39             5.5333500    0.700713083689

     20   L      40             3.6649800   -0.395895162119    0.236459946619
     20   L      41             0.7705450    1.215834355681    0.860618805716

     21   L      42             0.1958570    1.000000000000    1.000000000000

 C         

     22   S      43           172.2560000    0.061766907377
     22   S      44            25.9109000    0.358794042852
     22   S      45             5.5333500    0.700713083689

     23   L      46             3.6649800   -0.395895162119    0.236459946619
     23   L      47             0.7705450    1.215834355681    0.860618805716

     24   L      48             0.1958570    1.000000000000    1.000000000000

 C         

     25   S      49           172.2560000    0.061766907377
     25   S      50            25.9109000    0.358794042852
     25   S      51             5.5333500    0.700713083689

     26   L      52             3.6649800   -0.395895162119    0.236459946619
     26   L      53             0.7705450    1.215834355681    0.860618805716

     27   L      54             0.1958570    1.000000000000    1.000000000000

 C         

     28   S      55           172.2560000    0.061766907377
     28   S      56            25.9109000    0.358794042852
     28   S      57             5.5333500    0.700713083689

     29   L      58             3.6649800   -0.395895162119    0.236459946619
     29   L      59             0.7705450    1.215834355681    0.860618805716

     30   L      60             0.1958570    1.000000000000    1.000000000000

 C         

     31   S      61           172.2560000    0.061766907377
     31   S      62            25.9109000    0.358794042852
     31   S      63             5.5333500    0.700713083689

     32   L      64             3.6649800   -0.395895162119    0.236459946619
     32   L      65             0.7705450    1.215834355681    0.860618805716

     33   L      66             0.1958570    1.000000000000    1.000000000000

 H         

     34   S      67             5.4471780    0.156284978695
     34   S      68             0.8245472    0.904690876670

     35   S      69             0.1831916    1.000000000000

 H         

     36   S      70             5.4471780    0.156284978695
     36   S      71             0.8245472    0.904690876670

     37   S      72             0.1831916    1.000000000000

 H         

     38   S      73             5.4471780    0.156284978695
     38   S      74             0.8245472    0.904690876670

     39   S      75             0.1831916    1.000000000000

 H         

     40   S      76             5.4471780    0.156284978695
     40   S      77             0.8245472    0.904690876670

     41   S      78             0.1831916    1.000000000000

 H         

     42   S      79             5.4471780    0.156284978695
     42   S      80             0.8245472    0.904690876670

     43   S      81             0.1831916    1.000000000000

 H         

     44   S      82             5.4471780    0.156284978695
     44   S      83             0.8245472    0.904690876670

     45   S      84             0.1831916    1.000000000000

 H         

     46   S      85             5.4471780    0.156284978695
     46   S      86             0.8245472    0.904690876670

     47   S      87             0.1831916    1.000000000000

 H         

     48   S      88             5.4471780    0.156284978695
     48   S      89             0.8245472    0.904690876670

     49   S      90             0.1831916    1.000000000000

 H         

     50   S      91             5.4471780    0.156284978695
     50   S      92             0.8245472    0.904690876670

     51   S      93             0.1831916    1.000000000000

 H         

     52   S      94             5.4471780    0.156284978695
     52   S      95             0.8245472    0.904690876670

     53   S      96             0.1831916    1.000000000000

 H         

     54   S      97             5.4471780    0.156284978695
     54   S      98             0.8245472    0.904690876670

     55   S      99             0.1831916    1.000000000000

 H         

     56   S     100             5.4471780    0.156284978695
     56   S     101             0.8245472    0.904690876670

     57   S     102             0.1831916    1.000000000000

 H         

     58   S     103             5.4471780    0.156284978695
     58   S     104             0.8245472    0.904690876670

     59   S     105             0.1831916    1.000000000000

 H         

     60   S     106             5.4471780    0.156284978695
     60   S     107             0.8245472    0.904690876670

     61   S     108             0.1831916    1.000000000000

 H         

     62   S     109             5.4471780    0.156284978695
     62   S     110             0.8245472    0.904690876670

     63   S     111             0.1831916    1.000000000000

 H         

     64   S     112             5.4471780    0.156284978695
     64   S     113             0.8245472    0.904690876670

     65   S     114             0.1831916    1.000000000000

 H         

     66   S     115             5.4471780    0.156284978695
     66   S     116             0.8245472    0.904690876670

     67   S     117             0.1831916    1.000000000000

 H         

     68   S     118             5.4471780    0.156284978695
     68   S     119             0.8245472    0.904690876670

     69   S     120             0.1831916    1.000000000000

 TOTAL NUMBER OF BASIS SET SHELLS             =   69
 NUMBER OF CARTESIAN GAUSSIAN BASIS FUNCTIONS =  135
 NUMBER OF ELECTRONS                          =   86
 CHARGE OF MOLECULE                           =    0
 SPIN MULTIPLICITY                            =    1
 NUMBER OF OCCUPIED ORBITALS (ALPHA)          =   43
 NUMBER OF OCCUPIED ORBITALS (BETA )          =   43
 TOTAL NUMBER OF ATOMS                        =   29
 THE NUCLEAR REPULSION ENERGY IS      713.2541296246

 SELECTED MURRAY-HANDY-LAMING RADIAL GRID

 LEGACY BECKE'S FUZZY CELL METHOD

 SELECTED ORIGINAL BECKE'S PARTITION FUNCTION

     LEBEDEV GRID-BASED DFT OPTIONS
     ------------------------------
     DFTTYP=B3LYP   
     NRAD  =      96     NLEB  =     302
     NRAD0 =      24     NLEB0 =     110
     SWOFF =    5.00E-03 (PURE SCF -> DFT)
     SWITCH=    3.00E-04 (COARSE -> TIGHT GRID)
     THRESH=    0.00E+00 GTHRE=    1.00E+00

 GRIMME'S EMPIRICAL DISPERSION CORRECTION= F

     $CONTRL OPTIONS
     ---------------
 SCFTYP=RHF          RUNTYP=ENERGY       EXETYP=RUN     
 MPLEVL=       0     CITYP =NONE         CCTYP =NONE         VBTYP =NONE    
 DFTTYP=B3LYP        TDDFT =NONE    
 MULT  =       1     ICHARG=       0     NZVAR =       0     COORD =UNIQUE  
 PP    =NONE         RELWFN=NONE         LOCAL =NONE         NUMGRD=       F
 ISPHER=      -1     NOSYM =       0     MAXIT =      60     UNITS =ANGS    
 PLTORB=       F     MOLPLT=       F     AIMPAC=       F     FRIEND=        
 NPRINT=       7     IREST =       0     GEOM  =INPUT   
 NORMF =       0     NORMP =       0     ITOL  =      20     ICUT  =       9
 INTTYP=BEST         GRDTYP=BEST         QMTTOL= 1.0E-06

     $SYSTEM OPTIONS
     ---------------
  REPLICATED MEMORY=    30000000 WORDS (ON EVERY NODE).
 DISTRIBUTED MEMDDI=        1000 MILLION WORDS IN AGGREGATE,
 MEMDDI DISTRIBUTED OVER   6 PROCESSORS IS   166666666 WORDS/PROCESSOR.
 TOTAL MEMORY REQUESTED ON EACH PROCESSOR=   196666666 WORDS.
 TIMLIM=      525600.00 MINUTES, OR     365.0 DAYS.
 PARALL= T  BALTYP=  DLB     KDIAG=    0  COREFL= F
 MXSEQ2=     300 MXSEQ3=     150  mem10=         0

     INPUT FOR POTENTIAL-DERIVED CHARGES 
     -----------------------------------
     VDWSCL=    1.00   RMAX=    3.00   DELR=    0.80
     VDWINC=    0.20 PTDENS=    0.28
     LAYER =       4  NFREQ=      30 MAXPDC=   10000
     CONSTR=CHARGE    UNITS=ANGS      PTSEL=CHELPG  
     CENTER=  0.0000  0.0000  0.0000
     DPOLE =  0.0000  0.0000  0.0000
     QPOLE =  0.0000  0.0000  0.0000  0.0000  0.0000  0.0000


          ----------------
          PROPERTIES INPUT
          ----------------

     MOMENTS            FIELD           POTENTIAL          DENSITY
 IEMOM =       1   IEFLD =       0   IEPOT =       1   IEDEN =       0
 WHERE =COMASS     WHERE =NUCLEI     WHERE =PDC        WHERE =NUCLEI  
 OUTPUT=BOTH       OUTPUT=BOTH       OUTPUT=BOTH       OUTPUT=BOTH    
 IEMINT=       0   IEFINT=       0                     IEDINT=       0
                                                       MORB  =       0
          EXTRAPOLATION IN EFFECT
          DIIS IN EFFECT
 ORBITAL PRINTING OPTION: NPREO=     1   135     2     1

     -------------------------------
     INTEGRAL TRANSFORMATION OPTIONS
     -------------------------------
     NWORD  =            0
     CUTOFF = 1.0E-09     MPTRAN =       0
     DIRTRF =       T     AOINTS =DUP     

          ----------------------
          INTEGRAL INPUT OPTIONS
          ----------------------
 NOPK  =       1 NORDER=       0 SCHWRZ=       T

     ------------------------------------------
     THE POINT GROUP IS C1 , NAXIS= 0, ORDER= 1
     ------------------------------------------

     DIMENSIONS OF THE SYMMETRY SUBSPACES ARE
 A   =  135

 ..... DONE SETTING UP THE RUN .....
 CPU     0: STEP CPU TIME=     0.02 TOTAL CPU TIME=          0.0 (      0.0 MIN)
 TOTAL WALL CLOCK TIME=          0.0 SECONDS, CPU UTILIZATION IS    66.67%

          ********************
          1 ELECTRON INTEGRALS
          ********************
 ...... END OF ONE-ELECTRON INTEGRALS ......
 CPU     0: STEP CPU TIME=     0.01 TOTAL CPU TIME=          0.0 (      0.0 MIN)
 TOTAL WALL CLOCK TIME=          0.0 SECONDS, CPU UTILIZATION IS    75.00%

          -------------
          GUESS OPTIONS
          -------------
          GUESS =HUCKEL            NORB  =       0          NORDER=       0
          MIX   =       F          PRTMO =       F          PUNMO =       F
          TOLZ  = 1.0E-08          TOLE  = 1.0E-05
          SYMDEN=       F          PURIFY=       F

 INITIAL GUESS ORBITALS GENERATED BY HUCKEL   ROUTINE.
 HUCKEL GUESS REQUIRES    174540 WORDS.

 SYMMETRIES FOR INITIAL GUESS ORBITALS FOLLOW.   BOTH SET(S).
    43 ORBITALS ARE OCCUPIED (   11 CORE ORBITALS).
    12=A       13=A       14=A       15=A       16=A       17=A       18=A   
    19=A       20=A       21=A       22=A       23=A       24=A       25=A   
    26=A       27=A       28=A       29=A       30=A       31=A       32=A   
    33=A       34=A       35=A       36=A       37=A       38=A       39=A   
    40=A       41=A       42=A       43=A       44=A       45=A       46=A   
    47=A       48=A       49=A       50=A       51=A       52=A       53=A   
 ...... END OF INITIAL ORBITAL SELECTION ......
 CPU     0: STEP CPU TIME=     0.03 TOTAL CPU TIME=          0.1 (      0.0 MIN)
 TOTAL WALL CLOCK TIME=          0.1 SECONDS, CPU UTILIZATION IS    66.67%

                    ----------------------
                    AO INTEGRAL TECHNOLOGY
                    ----------------------
     S,P,L SHELL ROTATED AXIS INTEGRALS, REPROGRAMMED BY
        KAZUYA ISHIMURA (IMS) AND JOSE SIERRA (SYNSTAR).
     S,P,D,L SHELL ROTATED AXIS INTEGRALS PROGRAMMED BY
        KAZUYA ISHIMURA (INSTITUTE FOR MOLECULAR SCIENCE).
     S,P,D,F,G SHELL TO TOTAL QUARTET ANGULAR MOMENTUM SUM 5,
        ERIC PROGRAM BY GRAHAM FLETCHER (ELORET AND NASA ADVANCED
        SUPERCOMPUTING DIVISION, AMES RESEARCH CENTER).
     S,P,D,F,G,L SHELL GENERAL RYS QUADRATURE PROGRAMMED BY
        MICHEL DUPUIS (PACIFIC NORTHWEST NATIONAL LABORATORY).

          --------------------
          2 ELECTRON INTEGRALS
          --------------------

 DIRECT SCF METHOD SKIPS INTEGRAL STORAGE ON DISK.
 DIRECT TRANSFORMATION SKIPS AO INTEGRAL STORAGE ON DISK.
  ...... END OF TWO-ELECTRON INTEGRALS .....
 CPU     0: STEP CPU TIME=     0.01 TOTAL CPU TIME=          0.1 (      0.0 MIN)
 TOTAL WALL CLOCK TIME=          0.1 SECONDS, CPU UTILIZATION IS    70.00%

          --------------------------
             R-B3LYP SCF CALCULATION
          --------------------------

     NUCLEAR ENERGY =       713.2541296246
     MAXIT =   60     NPUNCH=    2
     EXTRAP=T  DAMP=F  SHIFT=F  RSTRCT=F  DIIS=T  DEM=F  SOSCF=F
         DENSITY MATRIX CONVERGENCE THRESHOLD=  2.00E-05
     COARSE -> FINE DFT GRID SWITCH THRESHOLD=  3.00E-04 (SWITCH IN $DFT)
                   HF -> DFT SWITCH THRESHOLD=  5.00E-03 (SWOFF IN $DFT)
     MEMORY REQUIRED FOR RHF ITERS=   1115631 WORDS.

 DIRECT SCF CALCULATION, SCHWRZ=T   FDIFF=T,  DIRTHR=  0.00E+00 NITDIR=10
 SCHWARZ INEQUALITY OVERHEAD:      8972 INTEGRALS, T=        0.01

 DFT CODE IS SWITCHING FROM THE FINE GRID NRAD= 96,  NLEB=  302
                      TO THE COARSE GRID NRAD0= 24, NLEB0=  110

     EXCHANGE FUNCTIONAL   =B88&HFX   
     CORRELATION FUNCTIONAL=LYP88&VWN5
     DFT THRESHOLD         =.476E-08
     GRID CHANGE THRESHOLD =.300E-03
 FOR AN EULER-MACLAURIN QUADRATURE USING  96 RADIAL POINTS:
 SMALLEST GAUSSIAN PRIMITIVE EXPONENT=        0.1831915800 OF TYPE -S-
 ON ATOM NUMBER  12 HAS RADIAL NORMALIZATION=  1.000000
  LARGEST GAUSSIAN PRIMITIVE EXPONENT=      322.0370000000 OF TYPE -S-
 ON ATOM NUMBER   1 HAS RADIAL NORMALIZATION=  1.000000
 DFT IS SWITCHED OFF, PERFORMING PURE SCF UNTIL SWOFF THRESHOLD IS REACHED.

                                                                                   NONZERO     BLOCKS
 ITER EX DEM     TOTAL ENERGY        E CHANGE  DENSITY CHANGE    DIIS ERROR      INTEGRALS    SKIPPED
   1  0  0     -460.4811279716  -460.4811279716   0.884273473   0.517779886       31733434    1169745
          * * *   INITIATING DIIS PROCEDURE   * * *
   2  1  0     -461.4026961755    -0.9215682039   0.140050187   0.071780608       31594515    1208694
   3  2  0     -461.4481653246    -0.0454691491   0.117338482   0.023297590       31182473    1278316
   4  3  0     -461.4573633156    -0.0091979910   0.020559600   0.009674103       30549059    1366422
   5  4  0     -461.4582369219    -0.0008736064   0.004711491   0.003185951       29631721    1450674
 CONVERGED TO SWOFF, SO DFT CALCULATION IS NOW SWITCHED ON.
          * * *   INITIATING DIIS PROCEDURE   * * *
   6  5  0     -464.2269377132    -2.7687007913   0.081028798   0.074997777       31764649    1159047
   7  6  0     -464.2555815217    -0.0286438085   0.090730517   0.029476614       31287295    1269828
   8  7  0     -464.2569072626    -0.0013257409   0.059163018   0.024396861       30838411    1321006
   9  8  0     -464.2643607460    -0.0074534834   0.008317733   0.004087245       30438549    1371836
  10  9  0     -464.2644508537    -0.0000901076   0.000737774   0.000845615       28432899    1565625
  11 10  0     -464.2644545298    -0.0000036762   0.000288744   0.000160486       26668648    1699617
 DFT CODE IS SWITCHING BACK TO THE FINE GRID
          * * *   INITIATING DIIS PROCEDURE   * * *
  12 11  0     -464.2717702950    -0.0073157652   0.006806842   0.001466520       31793092    1149402
  13 12  0     -464.2718338157    -0.0000635207   0.001885798   0.000539863       29157680    1494546
  14 13  0     -464.2718333573     0.0000004584   0.001067694   0.000695975       27103083    1667736
  15 14  0     -464.2718357143    -0.0000023570   0.000128089   0.000069003       26095568    1758848
  16 15  0     -464.2718357391    -0.0000000247   0.000046073   0.000016771       23663909    1918931
  17 16  0     -464.2718357427    -0.0000000037   0.000009685   0.000003716       21534838    2052881
  18 17  0     -464.2718357429    -0.0000000001   0.000003008   0.000000882       19466618    2178389

          -----------------
          DENSITY CONVERGED
          -----------------
     TIME TO FORM FOCK OPERATORS=      51.8 SECONDS (       2.9 SEC/ITER)
     FOCK TIME ON FIRST ITERATION=       0.5, LAST ITERATION=       6.5
     TIME TO SOLVE SCF EQUATIONS=       0.4 SECONDS (       0.0 SEC/ITER)

 FINAL R-B3LYP ENERGY IS     -464.2718357429 AFTER  18 ITERATIONS
 DFT EXCHANGE + CORRELATION ENERGY =       -55.9307685725
 TOTAL ELECTRON NUMBER             =        86.0009486528

          ------------
          EIGENVECTORS
          ------------

                      1          2          3          4          5
                  -19.0110   -10.1563   -10.1208   -10.1148   -10.1091
                     A          A          A          A          A   
    1  O  1  S    0.982574  -0.000152  -0.000054   0.000119  -0.000041
    2  O  1  S    0.105842  -0.000894  -0.000533   0.000700  -0.000262
    3  O  1  X    0.002702   0.000111  -0.000172  -0.000184  -0.000026
    4  O  1  Y    0.002261   0.000345   0.000253   0.000268   0.000079
    5  O  1  Z   -0.001448  -0.000435   0.000147   0.000295  -0.000031
    6  O  1  S   -0.053826   0.010243   0.001806  -0.004020   0.001398
    7  O  1  X   -0.010399   0.004625   0.001110  -0.001425   0.001112
    8  O  1  Y   -0.003741  -0.002432  -0.001127   0.000180  -0.000529
    9  O  1  Z    0.004768   0.000248  -0.000614  -0.000351   0.000213
   10  C  2  S    0.000341  -0.007769  -0.036323   0.984222   0.077927
   11  C  2  S    0.001728  -0.003230  -0.007134   0.124869   0.004289
   12  C  2  X    0.000076  -0.000231   0.001521   0.001680  -0.001653
   13  C  2  Y   -0.000527   0.000906   0.000267   0.001098  -0.001057
   14  C  2  Z    0.000518  -0.000156   0.000353   0.001935  -0.002090
   15  C  2  S   -0.008849   0.021123   0.031681  -0.139095   0.005320
   16  C  2  X    0.002633  -0.004044   0.016178  -0.009448   0.010918
   17  C  2  Y   -0.003304   0.016747   0.000361  -0.010320   0.011953
   18  C  2  Z   -0.006865   0.002522  -0.003813  -0.018080   0.021909
   19  C  3  S   -0.000111  -0.006152   0.986884   0.033535   0.018352
   20  C  3  S   -0.000804  -0.002658   0.122485   0.002019   0.000342
   21  C  3  X    0.000230   0.001216  -0.000719  -0.002077   0.000364
   22  C  3  Y   -0.000913  -0.001094   0.000380  -0.000258   0.000916
   23  C  3  Z   -0.000213  -0.000003   0.000899  -0.000217   0.001789
   24  C  3  S    0.001225   0.003238  -0.128927   0.017118   0.021720
   25  C  3  X   -0.001755  -0.004421   0.006245  -0.017359   0.002260
   26  C  3  Y    0.005957   0.007701  -0.002466  -0.003096   0.006530
   27  C  3  Z    0.002453   0.002222  -0.006496  -0.003656   0.013552
   28  C  4  S   -0.000040  -0.000628  -0.017306  -0.080970   0.983354
   29  C  4  S   -0.000293   0.000250  -0.004394  -0.015859   0.122524
   30  C  4  X    0.000196   0.000546  -0.000262   0.001512  -0.003372
   31  C  4  Y    0.000489  -0.000920  -0.000785   0.000700  -0.000962
   32  C  4  Z    0.000072   0.000414  -0.001529   0.001023  -0.001369
   33  C  4  S   -0.000874  -0.007295   0.028605   0.031379  -0.128202
   34  C  4  X   -0.002814   0.002894   0.000408  -0.017256   0.031012
   35  C  4  Y   -0.002403  -0.000482  -0.006975  -0.004107   0.006540
   36  C  4  Z    0.002820   0.003969  -0.014301  -0.004886   0.008410
   37  C  5  S   -0.001052   0.987135   0.005381   0.006574   0.001416
   38  C  5  S   -0.004483   0.117360  -0.000847  -0.003598   0.001086
   39  C  5  X   -0.001072   0.001048  -0.000591   0.000628  -0.000945
   40  C  5  Y    0.000593  -0.001121   0.000476  -0.001572   0.000437
   41  C  5  Z    0.000056   0.000623   0.000341  -0.000205  -0.000334
   42  C  5  S    0.026914  -0.107430  -0.000421   0.041131  -0.016174
   43  C  5  X   -0.013302  -0.014319   0.001621   0.007484  -0.004925
   44  C  5  Y   -0.002545   0.009961   0.000927  -0.018615   0.003691
   45  C  5  Z    0.010369  -0.007220  -0.001803   0.002009  -0.005590
   46  C  6  S    0.000047  -0.006298  -0.007114  -0.011495  -0.006593
   47  C  6  S    0.000645  -0.004171  -0.002470  -0.005022  -0.000533
   48  C  6  X    0.000075  -0.000025  -0.000685   0.000426  -0.000828
   49  C  6  Y    0.000568  -0.002225  -0.000203   0.001254  -0.000854
   50  C  6  Z   -0.000163   0.000545   0.000791  -0.001481   0.000197
   51  C  6  S    0.001733   0.007333   0.001650   0.039998  -0.012696
   52  C  6  X    0.000425   0.001465   0.001246   0.006016  -0.004536
   53  C  6  Y   -0.000871   0.009233  -0.000607   0.010728  -0.004971
   54  C  6  Z   -0.002761  -0.000338  -0.001314  -0.014176   0.000591
   55  C  7  S    0.000284  -0.008351  -0.009852  -0.002566  -0.035582
   56  C  7  S    0.001364  -0.005364  -0.002724   0.000874  -0.007791
   57  C  7  X    0.000227  -0.000256  -0.000533   0.000269   0.000843
   58  C  7  Y    0.000062  -0.000028   0.000683   0.000987  -0.001744
   59  C  7  Z    0.000570  -0.000873   0.000476   0.000379  -0.000098
   60  C  7  S   -0.005980   0.033948   0.001867  -0.017260   0.043024
   61  C  7  X    0.006295  -0.013331   0.001173   0.000046   0.004520
   62  C  7  Y    0.001588  -0.010640  -0.000381   0.008697  -0.018187
   63  C  7  Z   -0.003438  -0.007786  -0.001419   0.002071   0.000352
   64  C  8  S   -0.000001   0.001688  -0.008239  -0.002152  -0.023226
   65  C  8  S   -0.000042   0.001552  -0.002444   0.000818  -0.005981
   66  C  8  X   -0.000069   0.000439  -0.000487   0.000357   0.000606
   67  C  8  Y   -0.000116   0.000459   0.000000  -0.000417   0.001250
   68  C  8  Z    0.000014   0.000069   0.000901   0.000973  -0.001458
   69  C  8  S   -0.001207  -0.006008   0.001425  -0.016895   0.039988
   70  C  8  X   -0.001653   0.002319   0.001611   0.000239   0.003256
   71  C  8  Y   -0.000472  -0.002703  -0.001490  -0.002980   0.011269
   72  C  8  Z    0.000857   0.002157  -0.001199   0.008044  -0.013976
   73  C  9  S    0.000090  -0.003092  -0.004699  -0.012277  -0.012240
   74  C  9  S    0.000764  -0.001718  -0.001005  -0.003378  -0.003784
   75  C  9  X   -0.000047  -0.000101  -0.001007   0.000093  -0.000088
   76  C  9  Y    0.000370  -0.000919  -0.000278   0.000188   0.000186
   77  C  9  Z    0.000145  -0.000466  -0.000338   0.000358   0.000383
   78  C  9  S   -0.002545   0.002644  -0.002030   0.017749   0.018973
   79  C  9  X   -0.001031   0.001025  -0.000631   0.005149   0.006366
   80  C  9  Y   -0.001504   0.000666  -0.000611   0.004258   0.003339
   81  C  9  Z   -0.000110   0.000842  -0.000953   0.007658   0.006056
   82  C 10  S    0.000040  -0.000903  -0.010940  -0.009494  -0.018178
   83  C 10  S    0.000154  -0.000207  -0.003653  -0.001956  -0.003272
   84  C 10  X    0.000382   0.000567  -0.000276   0.000755   0.000227
   85  C 10  Y    0.000142  -0.000126  -0.000696   0.000252   0.000022
   86  C 10  Z   -0.000203  -0.000370   0.000763  -0.000393  -0.000882
   87  C 10  S   -0.002221  -0.001291   0.025102   0.001843   0.003271
   88  C 10  X   -0.000460  -0.000235  -0.006254   0.000114  -0.000868
   89  C 10  Y   -0.001730  -0.000073  -0.005120   0.000277  -0.000019
   90  C 10  Z   -0.000557  -0.000575   0.010843   0.001235   0.000408
   91  C 11  S   -0.000046  -0.002347  -0.009936  -0.008523  -0.014068
   92  C 11  S   -0.000184  -0.001759  -0.003573  -0.001940  -0.002769
   93  C 11  X   -0.000216   0.000240  -0.000386   0.000811   0.000315
   94  C 11  Y    0.000134   0.000022   0.000992  -0.000378  -0.000664
   95  C 11  Z    0.000008   0.000041  -0.000042  -0.000068  -0.000543
   96  C 11  S    0.003235   0.007499   0.025317   0.001951   0.002723
   97  C 11  X   -0.000324  -0.002809  -0.007426  -0.000072  -0.001076
   98  C 11  Y    0.001614   0.002814   0.011064   0.000700   0.000051
   99  C 11  Z   -0.000332  -0.000314   0.003099   0.000819   0.000227
  100  H 12  S    0.000395  -0.000162  -0.001523   0.000299  -0.000685
  101  H 12  S    0.001006   0.000175  -0.000928   0.005134   0.006989
  102  H 13  S   -0.000972   0.000432  -0.000134  -0.001816   0.000353
  103  H 13  S   -0.000259   0.014394  -0.001959   0.001043  -0.001034
  104  H 14  S   -0.000458  -0.001250  -0.000034  -0.001984   0.000626
  105  H 14  S    0.001750  -0.000412   0.001748   0.000189  -0.000495
  106  H 15  S   -0.000180   0.000296  -0.000077  -0.001942   0.000329
  107  H 15  S   -0.001155   0.004587  -0.001711  -0.000184  -0.000293
  108  H 16  S    0.001003  -0.002460  -0.000087   0.000809  -0.002060
  109  H 16  S    0.002701   0.000337   0.001748  -0.000462  -0.001496
  110  H 17  S   -0.000178  -0.001343  -0.000013   0.000541  -0.001589
  111  H 17  S   -0.001525   0.002143  -0.001943  -0.000330   0.000904
  112  H 18  S   -0.000028   0.000800   0.000035   0.000602  -0.001856
  113  H 18  S   -0.000460  -0.000110   0.001915  -0.000562  -0.000656
  114  H 19  S    0.000162  -0.000074  -0.000097   0.000724  -0.001650
  115  H 19  S    0.000209  -0.001053  -0.002334  -0.000069   0.000692
  116  H 20  S    0.000040  -0.000331  -0.000229  -0.001122  -0.000551
  117  H 20  S   -0.000050   0.000143   0.001649   0.000365   0.000654
  118  H 21  S    0.000109  -0.000297   0.000306  -0.001110  -0.000971
  119  H 21  S   -0.000659   0.001059  -0.001056   0.000023  -0.000572
  120  H 22  S    0.000265   0.000032   0.000276  -0.001119  -0.000964
  121  H 22  S    0.000747  -0.001432  -0.000953  -0.000039  -0.000517
  122  H 23  S    0.000140   0.000076  -0.001222  -0.000434   0.000037
  123  H 23  S    0.000731   0.000550   0.000453   0.001269  -0.000777
  124  H 24  S    0.000013   0.000163  -0.001321   0.000223  -0.000304
  125  H 24  S   -0.000501  -0.000340   0.000734  -0.000701   0.000732
  126  H 25  S   -0.000273   0.000004  -0.001610  -0.000082  -0.000075
  127  H 25  S    0.002534  -0.000213  -0.001342  -0.000938  -0.001512
  128  H 26  S   -0.000169  -0.000542  -0.001320   0.000213  -0.000292
  129  H 26  S    0.000026  -0.000452   0.000759  -0.000917   0.000730
  130  H 27  S   -0.000141  -0.000254  -0.001251  -0.000421   0.000041
  131  H 27  S   -0.000321   0.000542   0.000480   0.001299  -0.000504
  132  H 28  S   -0.000046  -0.000375  -0.001632  -0.000121  -0.000065
  133  H 28  S    0.000257  -0.000417  -0.001342  -0.000904  -0.001563
  134  H 29  S    0.003266   0.000110   0.000157   0.000350  -0.000059
  135  H 29  S    0.005050   0.002334   0.000608   0.001312   0.000468

                      6          7          8          9         10
                  -10.1016   -10.0992   -10.0986   -10.0964   -10.0939
                     A          A          A          A          A   
    1  O  1  S    0.000100   0.000008  -0.000031   0.000007   0.000050
    2  O  1  S    0.000537   0.000019  -0.000172   0.000023   0.000492
    3  O  1  X   -0.000036  -0.000052   0.000038  -0.000045   0.000066
    4  O  1  Y   -0.000029   0.000072  -0.000025   0.000013  -0.000238
    5  O  1  Z    0.000047   0.000005   0.000067   0.000032  -0.000210
    6  O  1  S   -0.003392  -0.000322   0.001243  -0.000224  -0.001607
    7  O  1  X   -0.002484   0.000001   0.000503  -0.000007  -0.000592
    8  O  1  Y    0.000114  -0.000259  -0.000237   0.000050   0.001066
    9  O  1  Z   -0.000335   0.000060  -0.000303  -0.000026   0.001198
   10  C  2  S    0.004510   0.008527   0.005034   0.010258   0.010833
   11  C  2  S    0.000614   0.000140   0.000445   0.000086   0.000933
   12  C  2  X   -0.000115  -0.000598  -0.000331  -0.000948   0.000331
   13  C  2  Y   -0.000862  -0.000638  -0.000206   0.001004   0.000414
   14  C  2  Z   -0.000327   0.001075  -0.000861   0.000269   0.000553
   15  C  2  S   -0.006193   0.001023  -0.007576  -0.000785   0.009171
   16  C  2  X   -0.000610   0.002555  -0.001987   0.003081  -0.007269
   17  C  2  Y   -0.003337   0.000596   0.005947  -0.004194  -0.007090
   18  C  2  Z    0.002891  -0.003962  -0.000240  -0.002453  -0.015925
   19  C  3  S    0.008794   0.008353   0.010246   0.011587   0.004099
   20  C  3  S   -0.000474   0.000721  -0.000624   0.000496  -0.000053
   21  C  3  X    0.000447   0.000033   0.000391   0.000068   0.000449
   22  C  3  Y   -0.001537  -0.000383   0.000377   0.000210   0.000314
   23  C  3  Z   -0.000279   0.000442  -0.001296  -0.000133   0.000999
   24  C  3  S    0.000611   0.009536   0.002929   0.012815   0.000555
   25  C  3  X   -0.004741   0.003927  -0.004690   0.005435  -0.001582
   26  C  3  Y    0.008747   0.011232  -0.001193  -0.011738  -0.001125
   27  C  3  Z    0.000869  -0.011170   0.004713   0.000302  -0.004905
   28  C  4  S    0.030768   0.011192   0.027122   0.016367   0.009658
   29  C  4  S    0.002401   0.000549   0.001707   0.000624  -0.000645
   30  C  4  X   -0.000532  -0.000203  -0.000701  -0.000491   0.000328
   31  C  4  Y    0.000917  -0.000448  -0.000873   0.000974  -0.000046
   32  C  4  Z   -0.000340   0.000900   0.000651   0.000379   0.000076
   33  C  4  S    0.012129  -0.003139   0.016271   0.000728   0.007075
   34  C  4  X   -0.004352   0.001781  -0.001879   0.001648  -0.003947
   35  C  4  Y    0.012657   0.003237  -0.006828  -0.002764  -0.002062
   36  C  4  Z   -0.001793  -0.004931   0.007997  -0.000926  -0.002701
   37  C  5  S    0.007107   0.000995  -0.000550   0.002210   0.002001
   38  C  5  S   -0.003503  -0.000272   0.001169  -0.001182  -0.001044
   39  C  5  X    0.000662  -0.000130  -0.000359  -0.000242   0.000526
   40  C  5  Y    0.000154   0.000113  -0.000256   0.000024   0.000494
   41  C  5  Z   -0.000288   0.000435  -0.000061   0.000025   0.001126
   42  C  5  S    0.032202   0.001608  -0.005985   0.005983   0.004794
   43  C  5  X    0.010491  -0.000335  -0.000109   0.001389  -0.002046
   44  C  5  Y    0.002380  -0.000108   0.003514  -0.002556  -0.003160
   45  C  5  Z    0.012842   0.000195  -0.002446  -0.000578  -0.002698
   46  C  6  S    0.008797  -0.007879  -0.063024  -0.019701  -0.155576
   47  C  6  S    0.002431  -0.001522  -0.010883  -0.002688  -0.019754
   48  C  6  X   -0.000419  -0.000348   0.000415  -0.000194   0.000449
   49  C  6  Y   -0.000180  -0.000058  -0.000114   0.000166   0.000197
   50  C  6  Z   -0.000326  -0.000025   0.000129   0.000296   0.000933
   51  C  6  S   -0.010715   0.000150   0.034276   0.003747   0.020796
   52  C  6  X   -0.002530  -0.000992   0.011928  -0.000345  -0.000010
   53  C  6  Y   -0.004138  -0.000274   0.006979   0.000271   0.001902
   54  C  6  Z   -0.001012  -0.003513   0.006160   0.000164  -0.003227
   55  C  7  S    0.979264  -0.005793   0.113802   0.026166   0.009401
   56  C  7  S    0.116277  -0.000210   0.010151   0.001813   0.000454
   57  C  7  X    0.000088  -0.000449   0.000291  -0.000034  -0.000146
   58  C  7  Y   -0.001397  -0.000256   0.001410   0.000174   0.000179
   59  C  7  Z   -0.000051   0.000442  -0.000818   0.000233  -0.000007
   60  C  7  S   -0.104627  -0.000975  -0.002595   0.001372   0.000670
   61  C  7  X    0.004476   0.000860  -0.003175   0.001681  -0.001217
   62  C  7  Y    0.012389   0.002248  -0.006823  -0.001458   0.000178
   63  C  7  Z    0.004134  -0.000359   0.002993  -0.000511  -0.000730
   64  C  8  S   -0.115458  -0.181883   0.960074   0.038196   0.002706
   65  C  8  S   -0.016861  -0.022507   0.112870   0.004006   0.000358
   66  C  8  X    0.000621   0.000031   0.000167  -0.000423   0.000081
   67  C  8  Y   -0.001652  -0.000030   0.000446   0.000205  -0.000122
   68  C  8  Z    0.000800   0.000435  -0.000995   0.000363   0.000303
   69  C  8  S    0.020690   0.022511  -0.099629  -0.003135  -0.004575
   70  C  8  X   -0.004856   0.001038   0.003654   0.001121   0.000719
   71  C  8  Y    0.006565   0.001311  -0.001455  -0.000505  -0.000168
   72  C  8  Z   -0.005480  -0.003920   0.011030   0.000163   0.001463
   73  C  9  S   -0.008644   0.004364  -0.013559   0.003666   0.973868
   74  C  9  S   -0.001810   0.000926  -0.002390   0.000742   0.111604
   75  C  9  X    0.000060  -0.000029   0.000050  -0.000124  -0.000038
   76  C  9  Y   -0.000308  -0.000227   0.000085   0.000052   0.000096
   77  C  9  Z    0.000050   0.000027  -0.000112  -0.000180   0.000228
   78  C  9  S    0.003928  -0.002373   0.004939  -0.002271  -0.092534
   79  C  9  X    0.000670  -0.001473   0.001432  -0.001372  -0.002760
   80  C  9  Y    0.003178   0.000066  -0.000940   0.000221  -0.002725
   81  C  9  Z    0.000288  -0.000350   0.002563  -0.000014  -0.004827
   82  C 10  S   -0.017941   0.965008   0.174532   0.099516  -0.005829
   83  C 10  S   -0.001997   0.110831   0.018790   0.008697  -0.000149
   84  C 10  X    0.000384   0.000215  -0.000013  -0.000360  -0.000112
   85  C 10  Y   -0.000202  -0.000372  -0.000280   0.001203   0.000143
   86  C 10  Z   -0.000601   0.000079  -0.000217  -0.000213  -0.000028
   87  C 10  S   -0.000827  -0.091182  -0.009682  -0.001665  -0.001857
   88  C 10  X    0.000566   0.000731  -0.000379   0.001101   0.001871
   89  C 10  Y    0.000038   0.003849  -0.000414  -0.004707   0.000901
   90  C 10  Z   -0.000166  -0.003796   0.003148   0.001153  -0.000333
   91  C 11  S   -0.020670  -0.092008  -0.060204   0.979678  -0.006739
   92  C 11  S   -0.003720  -0.013099  -0.007759   0.111741  -0.000488
   93  C 11  X   -0.000123  -0.000355   0.000267   0.000062  -0.000150
   94  C 11  Y   -0.000018  -0.000908  -0.000490   0.000137  -0.000083
   95  C 11  Z   -0.000145   0.000955  -0.000385  -0.000158   0.000134
   96  C 11  S    0.009615   0.016181   0.006648  -0.089629  -0.000196
   97  C 11  X   -0.001318   0.000413   0.000505   0.001492   0.001557
   98  C 11  Y    0.003888   0.004703   0.001640  -0.003724  -0.000051
   99  C 11  Z    0.001242  -0.002875  -0.000210   0.000250   0.000730
  100  H 12  S   -0.001033   0.000025  -0.001472  -0.000267  -0.000029
  101  H 12  S    0.000159  -0.000459  -0.000653  -0.000783   0.001727
  102  H 13  S   -0.001363   0.000018  -0.000081  -0.000339  -0.000734
  103  H 13  S    0.001922  -0.001155  -0.001075  -0.000576  -0.001135
  104  H 14  S    0.000816   0.000116  -0.001641  -0.000356  -0.000355
  105  H 14  S    0.000142   0.000314  -0.000532  -0.000240  -0.003689
  106  H 15  S    0.000156  -0.000024  -0.001485   0.000159  -0.000637
  107  H 15  S   -0.000510  -0.000629   0.000005  -0.001913  -0.002707
  108  H 16  S    0.000950   0.000066  -0.001125  -0.000178  -0.000129
  109  H 16  S    0.015572   0.000420   0.000207   0.001008   0.000215
  110  H 17  S    0.000369   0.000124   0.000221  -0.000265  -0.000163
  111  H 17  S    0.013800  -0.002474   0.005621  -0.000145   0.000292
  112  H 18  S   -0.001081  -0.000229   0.000504  -0.000071   0.000175
  113  H 18  S   -0.003618  -0.002098   0.014093   0.001159   0.000184
  114  H 19  S    0.000026  -0.000379   0.000527  -0.000029   0.000164
  115  H 19  S    0.002465  -0.003129   0.014906  -0.000921   0.000168
  116  H 20  S   -0.000333  -0.000030  -0.000358  -0.000113   0.000149
  117  H 20  S   -0.000002  -0.000204   0.000198  -0.000022   0.015898
  118  H 21  S    0.000102   0.000279  -0.000438   0.000150  -0.000044
  119  H 21  S    0.000790   0.000435  -0.000853   0.000310   0.015825
  120  H 22  S   -0.000477   0.000152  -0.000003   0.000237   0.000023
  121  H 22  S   -0.001034  -0.000152   0.000321   0.000183   0.015676
  122  H 23  S    0.000313   0.000356  -0.000500  -0.000759  -0.000108
  123  H 23  S   -0.000739   0.016018   0.002722  -0.000177  -0.000528
  124  H 24  S    0.000096   0.000148  -0.000128  -0.000746   0.000393
  125  H 24  S    0.000260   0.015985   0.003635  -0.000232  -0.000365
  126  H 25  S   -0.000128  -0.000377  -0.000446  -0.000144   0.000296
  127  H 25  S    0.000349   0.015693   0.002399   0.003979  -0.000077
  128  H 26  S   -0.000252  -0.000805  -0.000149  -0.000008   0.000227
  129  H 26  S    0.000140  -0.003233  -0.000639   0.015961  -0.000060
  130  H 27  S   -0.000643  -0.000775   0.000010   0.000056  -0.000183
  131  H 27  S   -0.000304  -0.003412  -0.002026   0.015754  -0.000574
  132  H 28  S   -0.000330  -0.000013  -0.000163  -0.000472   0.000322
  133  H 28  S   -0.000843   0.000682  -0.000403   0.016408  -0.000517
  134  H 29  S    0.000000   0.000077  -0.000031  -0.000065  -0.000140
  135  H 29  S   -0.000628   0.000094   0.000003   0.000436  -0.000233

                     11         12         13         14         15
                  -10.0927    -1.0048    -0.8652    -0.7500    -0.7431
                     A          A          A          A          A   
    1  O  1  S    0.000113  -0.216160   0.043291  -0.019819   0.011298
    2  O  1  S    0.000892   0.201444  -0.041533   0.018699  -0.011356
    3  O  1  X    0.000011   0.056397   0.009599  -0.019444   0.012402
    4  O  1  Y   -0.000190   0.079246  -0.030970   0.021358  -0.029392
    5  O  1  Z    0.000059  -0.033741   0.001756   0.000114  -0.011040
    6  O  1  S   -0.003719   0.666327  -0.142047   0.072081  -0.037843
    7  O  1  X   -0.001638   0.073086   0.000415  -0.011362   0.007451
    8  O  1  Y    0.001597   0.075311  -0.025884   0.018413  -0.027494
    9  O  1  Z   -0.000193  -0.041925   0.005341  -0.002480  -0.008606
   10  C  2  S    0.013295  -0.020686  -0.100414   0.003729  -0.119938
   11  C  2  S    0.000370   0.015086   0.091747  -0.000815   0.099120
   12  C  2  X    0.000098  -0.005750   0.030902   0.032026  -0.054715
   13  C  2  Y   -0.000324   0.014533   0.012959  -0.014068  -0.029884
   14  C  2  Z    0.000915   0.004470   0.021770  -0.045918  -0.031047
   15  C  2  S    0.014454   0.046464   0.233561  -0.031567   0.350868
   16  C  2  X   -0.003487  -0.014397   0.022480  -0.023844   0.019310
   17  C  2  Y   -0.011120   0.002211   0.019654  -0.001264   0.021145
   18  C  2  Z    0.007161   0.020993   0.031378  -0.001506   0.030156
   19  C  3  S    0.008852  -0.006102  -0.104312  -0.107427   0.026518
   20  C  3  S   -0.001044   0.008035   0.098754   0.088520  -0.021351
   21  C  3  X    0.000954  -0.005638  -0.026263   0.047966  -0.052963
   22  C  3  Y    0.000727   0.004476   0.010840  -0.023365  -0.026067
   23  C  3  Z   -0.000894   0.002780   0.026440  -0.062889  -0.024649
   24  C  3  S    0.002722   0.012241   0.209790   0.321738  -0.082241
   25  C  3  X   -0.004088   0.004999   0.010426  -0.011482   0.012071
   26  C  3  Y   -0.003107  -0.019224   0.002218   0.005559   0.000975
   27  C  3  Z    0.006547  -0.008545  -0.002466   0.012761   0.006609
   28  C  4  S    0.009289  -0.007029  -0.097420   0.038333   0.095273
   29  C  4  S    0.000118   0.007670   0.090252  -0.028856  -0.077943
   30  C  4  X    0.000641  -0.006614  -0.036447   0.039467   0.004668
   31  C  4  Y    0.000778   0.000173  -0.014422  -0.016263  -0.016299
   32  C  4  Z   -0.000266  -0.002303  -0.025014  -0.046613  -0.001448
   33  C  4  S   -0.001905   0.018267   0.214533  -0.129182  -0.280132
   34  C  4  X   -0.001458   0.004839  -0.049223   0.029262   0.046197
   35  C  4  Y    0.001914   0.005883  -0.009759   0.011617   0.008536
   36  C  4  Z    0.001652  -0.010490  -0.010527   0.019057   0.012887
   37  C  5  S    0.005865  -0.081016  -0.050004   0.035840  -0.021719
   38  C  5  S   -0.003301   0.085422   0.054842  -0.033298   0.025485
   39  C  5  X   -0.000188  -0.074096   0.052979  -0.023486  -0.022047
   40  C  5  Y    0.001635   0.009408  -0.034518   0.001873  -0.057133
   41  C  5  Z   -0.001285   0.034884   0.002312  -0.022868  -0.034259
   42  C  5  S    0.010669   0.127955   0.084888  -0.097166   0.027216
   43  C  5  X    0.001436   0.025166   0.011383  -0.007201  -0.008120
   44  C  5  Y   -0.007650   0.008823   0.005785   0.006371   0.011092
   45  C  5  Z    0.007125  -0.014744  -0.002500  -0.003550  -0.010297
   46  C  6  S    0.972147  -0.007587  -0.064707   0.055460  -0.058738
   47  C  6  S    0.114263   0.008499   0.067827  -0.051119   0.058268
   48  C  6  X    0.000810  -0.000362   0.027444  -0.012461  -0.018340
   49  C  6  Y    0.000900   0.004606   0.026668  -0.018225   0.002634
   50  C  6  Z   -0.000501  -0.002794  -0.017613  -0.015665  -0.044860
   51  C  6  S   -0.098791  -0.003462   0.118029  -0.146460   0.124854
   52  C  6  X   -0.007706   0.003790   0.003473   0.000422  -0.006500
   53  C  6  Y   -0.007147   0.003684  -0.007493  -0.005695  -0.013054
   54  C  6  Z    0.002691   0.006496   0.004790   0.002971   0.002731
   55  C  7  S    0.000552  -0.018274  -0.064172   0.063579   0.073338
   56  C  7  S    0.000848   0.016557   0.067218  -0.060391  -0.070314
   57  C  7  X    0.000492  -0.014359   0.003597   0.008467  -0.024805
   58  C  7  Y    0.000274  -0.005603  -0.040652   0.017965   0.016054
   59  C  7  Z    0.000305  -0.006643  -0.012954  -0.006726  -0.009206
   60  C  7  S   -0.006090   0.024559   0.116214  -0.157245  -0.171487
   61  C  7  X    0.001335  -0.013221   0.003485  -0.001450   0.003015
   62  C  7  Y    0.003225  -0.000404   0.003473  -0.000019  -0.010089
   63  C  7  Z   -0.000676   0.014721  -0.007250  -0.002698   0.004526
   64  C  8  S    0.061684  -0.004135  -0.065490   0.071781   0.034042
   65  C  8  S    0.003915   0.004421   0.067853  -0.067540  -0.035019
   66  C  8  X   -0.000363  -0.001647  -0.003809   0.014183  -0.029983
   67  C  8  Y   -0.000446   0.002102   0.014282  -0.012779  -0.029314
   68  C  8  Z   -0.000470  -0.003357  -0.039314   0.011313   0.002939
   69  C  8  S    0.020126   0.010056   0.117603  -0.176730  -0.063643
   70  C  8  X   -0.011032   0.004975   0.000324  -0.000197  -0.002205
   71  C  8  Y   -0.002881   0.001216  -0.005033  -0.003180   0.007704
   72  C  8  Z   -0.008455  -0.001391  -0.001490   0.002020  -0.011808
   73  C  9  S    0.154625  -0.004815  -0.032136  -0.013892  -0.128416
   74  C  9  S    0.016444   0.004908   0.033180   0.011774   0.123913
   75  C  9  X   -0.000154   0.000905   0.014771   0.009341   0.017219
   76  C  9  Y    0.000204   0.002584   0.010180   0.000324   0.016740
   77  C  9  Z   -0.000897   0.003375   0.018622  -0.003308   0.035131
   78  C  9  S   -0.013091   0.006724   0.073567   0.040743   0.349369
   79  C  9  X   -0.000484   0.004501  -0.000802   0.014894   0.003643
   80  C  9  Y   -0.000435   0.004979  -0.000068   0.001087   0.006260
   81  C  9  Z   -0.000031  -0.001984   0.002563  -0.001323   0.013440
   82  C 10  S    0.019693  -0.001805  -0.039750  -0.112414   0.030233
   83  C 10  S    0.000827   0.001754   0.043505   0.110408  -0.030289
   84  C 10  X    0.000193  -0.002092  -0.013137  -0.004858  -0.005948
   85  C 10  Y    0.000066  -0.000414  -0.011833  -0.031053   0.000508
   86  C 10  Z   -0.000035   0.001790   0.023493   0.021103  -0.013522
   87  C 10  S    0.005117   0.007383   0.069536   0.287438  -0.076448
   88  C 10  X   -0.001864   0.001559   0.002729   0.004685  -0.011497
   89  C 10  Y   -0.002090   0.004969   0.002685  -0.010201  -0.002564
   90  C 10  Z    0.002262   0.000794  -0.008366  -0.001779  -0.004756
   91  C 11  S    0.014093  -0.000791  -0.039486  -0.106570   0.018217
   92  C 11  S    0.001546   0.002585   0.042943   0.105087  -0.019132
   93  C 11  X    0.000514  -0.000646  -0.015693  -0.008588  -0.007850
   94  C 11  Y   -0.000224   0.000671   0.024336   0.035748  -0.011637
   95  C 11  Z   -0.000345   0.000239   0.005942  -0.012207  -0.004041
   96  C 11  S   -0.002590  -0.011907   0.071213   0.269315  -0.041966
   97  C 11  X    0.000131   0.004110   0.002933   0.004011  -0.012710
   98  C 11  Y    0.000191  -0.007259  -0.006938   0.004977  -0.002400
   99  C 11  Z   -0.000351   0.000810  -0.002767  -0.010552  -0.003370
  100  H 12  S   -0.000093   0.000970   0.033663  -0.012551  -0.049327
  101  H 12  S    0.001505  -0.004193   0.009634  -0.003828  -0.025455
  102  H 13  S    0.000087   0.024385   0.019726  -0.010730   0.014617
  103  H 13  S    0.004450  -0.008253  -0.006359   0.010767  -0.001885
  104  H 14  S    0.000305   0.004296   0.023416  -0.027523   0.031813
  105  H 14  S    0.014887   0.010777  -0.008480   0.000487   0.001579
  106  H 15  S    0.000295   0.002779   0.024008  -0.021440   0.033459
  107  H 15  S    0.014798   0.002781  -0.006996   0.008254   0.002034
  108  H 16  S    0.000673   0.005539   0.023910  -0.035011  -0.038235
  109  H 16  S   -0.000110  -0.004364  -0.003224  -0.005777  -0.004959
  110  H 17  S   -0.000093   0.006345   0.023333  -0.026119  -0.037866
  111  H 17  S   -0.000440   0.002019  -0.006826   0.008530  -0.003037
  112  H 18  S   -0.001678   0.001530   0.023936  -0.037638  -0.019982
  113  H 18  S    0.001149   0.000436  -0.002733  -0.007582  -0.003508
  114  H 19  S   -0.001335   0.000579   0.023968  -0.029707  -0.017043
  115  H 19  S    0.002203  -0.001943  -0.005396   0.007371   0.001124
  116  H 20  S   -0.000159   0.001782   0.012466   0.004183   0.063509
  117  H 20  S    0.001743   0.006516  -0.007269   0.001812   0.001700
  118  H 21  S    0.000017   0.001384   0.012947   0.007890   0.062462
  119  H 21  S    0.001173   0.001422  -0.000617   0.002785   0.003763
  120  H 22  S   -0.000224   0.001346   0.012975   0.008749   0.061443
  121  H 22  S    0.003597  -0.002272   0.000343   0.003703   0.002075
  122  H 23  S   -0.000345   0.000255   0.016373   0.058357  -0.017922
  123  H 23  S    0.000755  -0.002483  -0.003272   0.004526  -0.002942
  124  H 24  S   -0.000453   0.000492   0.015986   0.058934  -0.012051
  125  H 24  S   -0.000039   0.001188  -0.004120   0.005384   0.004629
  126  H 25  S   -0.000302   0.002019   0.019239   0.050152  -0.016906
  127  H 25  S   -0.000037  -0.005890   0.003054  -0.001362  -0.002266
  128  H 26  S    0.000180   0.000996   0.015766   0.056471  -0.007008
  129  H 26  S    0.000092  -0.000062  -0.004058   0.004944   0.004054
  130  H 27  S    0.000024   0.000660   0.016127   0.055155  -0.012740
  131  H 27  S    0.000590  -0.000202  -0.003298   0.004652  -0.002941
  132  H 28  S   -0.000070   0.000889   0.019103   0.045773  -0.007190
  133  H 28  S    0.000647  -0.000618   0.002279  -0.002632   0.001029
  134  H 29  S   -0.000126   0.115160  -0.035405   0.023829  -0.022159
  135  H 29  S   -0.000092   0.025346  -0.015435   0.011168  -0.013145

                     16         17         18         19         20
                   -0.7276    -0.6664    -0.6534    -0.6207    -0.5931
                     A          A          A          A          A   
    1  O  1  S   -0.039262  -0.009753  -0.024879   0.016109   0.022569
    2  O  1  S    0.037192   0.008639   0.023550  -0.015732  -0.020622
    3  O  1  X   -0.042163  -0.016898  -0.060839   0.032632   0.093267
    4  O  1  Y    0.036510   0.008311   0.056295  -0.013055  -0.077178
    5  O  1  Z    0.012300   0.003952   0.018303  -0.001833  -0.060021
    6  O  1  S    0.143811   0.039598   0.095895  -0.060152  -0.095826
    7  O  1  X   -0.025158  -0.010388  -0.043187   0.026832   0.067424
    8  O  1  Y    0.025410   0.005186   0.044113  -0.012993  -0.057451
    9  O  1  Z    0.008460   0.002377   0.011669   0.000652  -0.052084
   10  C  2  S    0.020680   0.000628   0.030172   0.061788   0.012291
   11  C  2  S   -0.017962  -0.001206  -0.022608  -0.052793  -0.009098
   12  C  2  X    0.013714  -0.001666  -0.018855  -0.076852  -0.023704
   13  C  2  Y   -0.068301  -0.001156  -0.054092  -0.031166   0.101225
   14  C  2  Z    0.042177   0.011861  -0.093770  -0.014304  -0.051878
   15  C  2  S   -0.061998  -0.001930  -0.104932  -0.200580  -0.042192
   16  C  2  X   -0.008983  -0.002009  -0.019660  -0.031884  -0.005394
   17  C  2  Y   -0.007964   0.004225  -0.022699  -0.021348   0.021526
   18  C  2  Z    0.002484   0.001456  -0.044255  -0.031713  -0.024210
   19  C  3  S   -0.009445   0.002956   0.001855   0.084305   0.015892
   20  C  3  S    0.007299  -0.002670  -0.002871  -0.070317  -0.012421
   21  C  3  X    0.018368  -0.005129   0.019901   0.067508   0.012825
   22  C  3  Y   -0.054914   0.095723   0.020944  -0.035867  -0.001251
   23  C  3  Z    0.027708  -0.049395   0.024294  -0.078423  -0.006175
   24  C  3  S    0.032338  -0.007475  -0.006628  -0.272193  -0.058867
   25  C  3  X   -0.002321  -0.001200   0.000121   0.033837   0.011286
   26  C  3  Y   -0.014134   0.018969   0.001663  -0.020149  -0.001463
   27  C  3  Z    0.004997  -0.009215   0.000541  -0.038911  -0.008174
   28  C  4  S   -0.012617   0.007157  -0.092849   0.062072  -0.002826
   29  C  4  S    0.010938  -0.005985   0.080701  -0.052481   0.002033
   30  C  4  X    0.007722  -0.000261   0.021253  -0.011617   0.010857
   31  C  4  Y   -0.075957  -0.009589   0.011815   0.045898  -0.077457
   32  C  4  Z    0.036202   0.004417   0.029114   0.069914   0.056219
   33  C  4  S    0.035603  -0.022954   0.292135  -0.211152   0.011465
   34  C  4  X   -0.001948   0.002429  -0.011282   0.034888   0.001202
   35  C  4  Y   -0.005250   0.002479   0.002681   0.018307  -0.024014
   36  C  4  Z    0.001623  -0.000543   0.006242   0.025911   0.014226
   37  C  5  S    0.099899   0.024832   0.081578  -0.022936  -0.101114
   38  C  5  S   -0.094739  -0.024659  -0.077907   0.020889   0.088909
   39  C  5  X   -0.055646  -0.011970  -0.008218   0.001363  -0.052144
   40  C  5  Y   -0.008596  -0.013124   0.021838   0.068905  -0.014450
   41  C  5  Z    0.005701  -0.010484   0.000121   0.026072  -0.071413
   42  C  5  S   -0.264177  -0.068263  -0.241272   0.070862   0.378570
   43  C  5  X   -0.034086  -0.000136  -0.018018  -0.000062   0.010461
   44  C  5  Y    0.007118  -0.005406   0.001851   0.022712  -0.017167
   45  C  5  Z    0.009058  -0.003070   0.003148   0.004404  -0.022469
   46  C  6  S   -0.094582  -0.043131   0.076904  -0.050195   0.093330
   47  C  6  S    0.086463   0.040975  -0.071257   0.043398  -0.081511
   48  C  6  X    0.034607   0.002597   0.011383  -0.016990   0.044129
   49  C  6  Y   -0.004144   0.002186  -0.009841  -0.028185   0.036166
   50  C  6  Z    0.025268   0.018655   0.009027   0.054178   0.048707
   51  C  6  S    0.249245   0.120454  -0.224579   0.168947  -0.327563
   52  C  6  X    0.018558  -0.005198   0.001728  -0.006636  -0.002425
   53  C  6  Y    0.009002   0.002078   0.001696  -0.004958  -0.000244
   54  C  6  Z   -0.010082   0.006144  -0.003607   0.009787   0.019810
   55  C  7  S    0.102932   0.040961  -0.018783  -0.084350   0.085735
   56  C  7  S   -0.095000  -0.039120   0.017913   0.074453  -0.071868
   57  C  7  X    0.021676   0.010807   0.060762  -0.032690  -0.045586
   58  C  7  Y   -0.000334  -0.004779  -0.008439   0.062130  -0.035665
   59  C  7  Z    0.035394   0.000993   0.038233   0.017701  -0.028122
   60  C  7  S   -0.279361  -0.117622   0.048594   0.289480  -0.322155
   61  C  7  X   -0.005444   0.004704   0.010818  -0.012985   0.000765
   62  C  7  Y    0.011883  -0.006075   0.008704   0.009760   0.005888
   63  C  7  Z    0.013284  -0.005449   0.007572   0.008297   0.002271
   64  C  8  S   -0.111481  -0.039214  -0.029801  -0.055204  -0.103715
   65  C  8  S    0.103252   0.036898   0.029431   0.049122   0.090088
   66  C  8  X   -0.012262  -0.019501   0.055824  -0.035199   0.057726
   67  C  8  Y   -0.020762  -0.009804   0.039676  -0.025592   0.006039
   68  C  8  Z   -0.019782   0.003834   0.009872   0.048819   0.052685
   69  C  8  S    0.295677   0.113801   0.077579   0.185699   0.367327
   70  C  8  X    0.002391  -0.006404   0.016147  -0.011806   0.013391
   71  C  8  Y   -0.001714   0.000532   0.002159   0.000823   0.007150
   72  C  8  Z   -0.017555   0.005147   0.012785   0.011423   0.002356
   73  C  9  S    0.024369   0.012785  -0.146378  -0.048985  -0.005649
   74  C  9  S   -0.023458  -0.012057   0.139881   0.046661   0.005056
   75  C  9  X   -0.002310  -0.000898  -0.010899  -0.023598  -0.007592
   76  C  9  Y   -0.015667   0.002368  -0.015581  -0.017136   0.030201
   77  C  9  Z    0.001037   0.000985  -0.029199  -0.020636  -0.019934
   78  C  9  S   -0.067845  -0.038893   0.436167   0.151347   0.018126
   79  C  9  X    0.002649   0.000662  -0.006936  -0.007581  -0.007630
   80  C  9  Y   -0.003776   0.000063  -0.008576  -0.009152   0.025411
   81  C  9  Z   -0.000573   0.001260  -0.016188  -0.008928  -0.014056
   82  C 10  S    0.030525  -0.147617   0.007804  -0.065849  -0.004508
[...]
    716    4.51893    7.10154    3.39074        -9.402677       9.403809       0.001132
    717    4.51893    8.61332   -1.14460        -8.624346       8.628310       0.003964
    718    4.51893    8.61332    0.36718        -8.712026       8.715724       0.003698
    719    4.51893    8.61332    1.87896        -8.605496       8.608372       0.002876
    720    4.51893    8.61332    3.39074        -8.317590       8.319567       0.001978
    721    6.03071   -8.01626   -4.16816        -7.827500       7.826850      -0.000651
    722    6.03071   -8.01626   -2.65638        -8.213066       8.211883      -0.001182
    723    6.03071   -8.01626   -1.14460        -8.445410       8.443983      -0.001428
    724    6.03071   -8.01626    0.36718        -8.476883       8.475707      -0.001176
    725    6.03071   -8.01626    1.87896        -8.312289       8.311568      -0.000722
    726    6.03071   -6.50448   -5.67994        -8.063271       8.063048      -0.000223
    727    6.03071   -6.50448   -4.16816        -8.710429       8.709427      -0.001002
    728    6.03071   -6.50448   -2.65638        -9.272472       9.270325      -0.002147
    729    6.03071   -6.50448   -1.14460        -9.618250       9.615644      -0.002606
    730    6.03071   -6.50448    0.36718        -9.642327       9.640175      -0.002152
    731    6.03071   -6.50448    1.87896        -9.369382       9.368139      -0.001242
    732    6.03071   -6.50448    3.39074        -8.909897       8.909345      -0.000552
    733    6.03071   -4.99270   -5.67994        -8.788944       8.788535      -0.000409
    734    6.03071   -4.99270   -4.16816        -9.664117       9.662301      -0.001815
    735    6.03071   -4.99270   -2.65638       -10.489450      10.486353      -0.003097
    736    6.03071   -4.99270    1.87896       -10.546684      10.544518      -0.002166
    737    6.03071   -4.99270    3.39074        -9.884946       9.883902      -0.001043
    738    6.03071   -4.99270    4.90253        -9.147508       9.147096      -0.000412
    739    6.03071   -4.99270    6.41431        -8.387384       8.386888      -0.000496
    740    6.03071   -3.48092   -7.19172        -8.456991       8.457032       0.000041
    741    6.03071   -3.48092   -5.67994        -9.458853       9.457910      -0.000943
    742    6.03071   -3.48092   -4.16816       -10.563497      10.560509      -0.002988
    743    6.03071   -3.48092    1.87896       -11.678638      11.677378      -0.001260
    744    6.03071   -3.48092    3.39074       -10.811580      10.809769      -0.001811
    745    6.03071   -3.48092    4.90253        -9.892614       9.891765      -0.000849
    746    6.03071   -3.48092    6.41431        -8.964289       8.963477      -0.000813
    747    6.03071   -1.96914   -7.19172        -8.837496       8.837413      -0.000083
    748    6.03071   -1.96914   -5.67994        -9.988051       9.986529      -0.001522
    749    6.03071   -1.96914   -4.16816       -11.254180      11.250819      -0.003361
    750    6.03071   -1.96914    1.87896       -12.494372      12.493651      -0.000721
    751    6.03071   -1.96914    3.39074       -11.534228      11.532075      -0.002153
    752    6.03071   -1.96914    4.90253       -10.474941      10.473408      -0.001533
    753    6.03071   -1.96914    6.41431        -9.404212       9.402804      -0.001408
    754    6.03071   -1.96914    7.92609        -8.409294       8.407921      -0.001373
    755    6.03071   -0.45736   -8.70350        -7.991585       7.992095       0.000510
    756    6.03071   -0.45736   -7.19172        -9.045788       9.045591      -0.000198
    757    6.03071   -0.45736   -5.67994       -10.302065      10.300306      -0.001759
    758    6.03071   -0.45736    1.87896       -12.870199      12.870640       0.000441
    759    6.03071   -0.45736    3.39074       -11.927639      11.928488       0.000849
    760    6.03071   -0.45736    4.90253       -10.781877      10.780983      -0.000894
    761    6.03071   -0.45736    6.41431        -9.624980       9.623440      -0.001540
    762    6.03071    1.05442   -8.70350        -7.969406       7.969935       0.000529
    763    6.03071    1.05442   -7.19172        -9.023030       9.022812      -0.000218
    764    6.03071    1.05442   -5.67994       -10.293269      10.292442      -0.000827
    765    6.03071    1.05442    0.36718       -13.190476      13.191519       0.001043
    766    6.03071    1.05442    4.90253       -10.732590      10.734255       0.001665
    767    6.03071    1.05442    6.41431        -9.579312       9.578406      -0.000907
    768    6.03071    2.56620   -7.19172        -8.752637       8.752721       0.000084
    769    6.03071    2.56620   -5.67994        -9.889907       9.889802      -0.000105
    770    6.03071    2.56620    0.36718       -12.414649      12.415645       0.000996
    771    6.03071    2.56620    4.90253       -10.316382      10.318350       0.001968
    772    6.03071    2.56620    6.41431        -9.277354       9.277029      -0.000325
    773    6.03071    4.07798   -7.19172        -8.297257       8.297920       0.000663
    774    6.03071    4.07798   -5.67994        -9.220365       9.220810       0.000445
    775    6.03071    4.07798   -4.16816       -10.147949      10.149103       0.001154
    776    6.03071    4.07798   -2.65638       -10.881792      10.884029       0.002237
    777    6.03071    4.07798   -1.14460       -11.258856      11.259769       0.000914
    778    6.03071    4.07798    0.36718       -11.302442      11.303091       0.000649
    779    6.03071    4.07798    1.87896       -11.033417      11.035243       0.001826
    780    6.03071    4.07798    3.39074       -10.449185      10.451244       0.002059
    781    6.03071    4.07798    4.90253        -9.649824       9.650600       0.000776
    782    6.03071    4.07798    6.41431        -8.787194       8.787133      -0.000061
    783    6.03071    5.58976   -5.67994        -8.472464       8.473795       0.001330
    784    6.03071    5.58976   -4.16816        -9.163279       9.164739       0.001460
    785    6.03071    5.58976   -2.65638        -9.718511       9.720078       0.001566
    786    6.03071    5.58976   -1.14460       -10.049353      10.050930       0.001577
    787    6.03071    5.58976    0.36718       -10.123155      10.124677       0.001522
    788    6.03071    5.58976    1.87896        -9.931169       9.932493       0.001324
    789    6.03071    5.58976    3.39074        -9.492618       9.493586       0.000968
    790    6.03071    5.58976    4.90253        -8.881650       8.882188       0.000538
    791    6.03071    7.10154    0.36718        -9.019963       9.022260       0.002296
    792    6.03071    7.10154    1.87896        -8.886952       8.888774       0.001822
    793    7.54249   -6.50448   -2.65638        -8.302984       8.302137      -0.000848
    794    7.54249   -6.50448   -1.14460        -8.542380       8.541556      -0.000824
    795    7.54249   -6.50448    0.36718        -8.567892       8.567186      -0.000705
    796    7.54249   -6.50448    1.87896        -8.388456       8.387861      -0.000594
    797    7.54249   -4.99270   -4.16816        -8.586453       8.585774      -0.000679
    798    7.54249   -4.99270   -2.65638        -9.114897       9.114404      -0.000493
    799    7.54249   -4.99270   -1.14460        -9.437997       9.438658       0.000660
    800    7.54249   -4.99270    0.36718        -9.456122       9.456702       0.000580
    801    7.54249   -4.99270    1.87896        -9.195455       9.195171      -0.000284
    802    7.54249   -4.99270    3.39074        -8.759144       8.758669      -0.000475
    803    7.54249   -3.48092   -4.16816        -9.202833       9.202266      -0.000566
    804    7.54249   -3.48092   -2.65638        -9.856711       9.857887       0.001175
    805    7.54249   -3.48092    0.36718       -10.272733      10.278005       0.005272
    806    7.54249   -3.48092    1.87896        -9.927768       9.928521       0.000753
    807    7.54249   -3.48092    3.39074        -9.389981       9.389591      -0.000390
    808    7.54249   -1.96914   -5.67994        -8.831273       8.831037      -0.000236
    809    7.54249   -1.96914   -4.16816        -9.660420       9.660339      -0.000081
    810    7.54249   -1.96914   -2.65638       -10.380206      10.382476       0.002270
    811    7.54249   -1.96914    0.36718       -10.822433      10.828768       0.006336
    812    7.54249   -1.96914    1.87896       -10.449923      10.451284       0.001360
    813    7.54249   -1.96914    3.39074        -9.857101       9.857017      -0.000084
    814    7.54249   -1.96914    4.90253        -9.146068       9.145634      -0.000434
    815    7.54249   -0.45736   -7.19172        -8.153930       8.154173       0.000243
    816    7.54249   -0.45736   -5.67994        -9.023452       9.023690       0.000237
    817    7.54249   -0.45736   -4.16816        -9.894814       9.896262       0.001449
    818    7.54249   -0.45736   -2.65638       -10.614439      10.618070       0.003631
    819    7.54249   -0.45736   -1.14460       -11.012497      11.016849       0.004352
    820    7.54249   -0.45736    0.36718       -11.017309      11.020387       0.003078
    821    7.54249   -0.45736    1.87896       -10.675748      10.677353       0.001605
    822    7.54249   -0.45736    3.39074       -10.082879      10.083790       0.000911
    823    7.54249   -0.45736    4.90253        -9.339987       9.340122       0.000135
    824    7.54249    1.05442   -7.19172        -8.127674       8.128157       0.000482
    825    7.54249    1.05442   -5.67994        -8.990552       8.991559       0.001008
    826    7.54249    1.05442   -4.16816        -9.849397       9.853561       0.004163
    827    7.54249    1.05442   -2.65638       -10.531094      10.538985       0.007890
    828    7.54249    1.05442   -1.14460       -10.873442      10.878380       0.004938
    829    7.54249    1.05442    0.36718       -10.874097      10.876649       0.002552
    830    7.54249    1.05442    1.87896       -10.576158      10.578803       0.002645
    831    7.54249    1.05442    3.39074       -10.021039      10.023495       0.002456
    832    7.54249    1.05442    4.90253        -9.296504       9.297545       0.001041
    833    7.54249    1.05442    6.41431        -8.514337       8.514304      -0.000033
    834    7.54249    2.56620   -7.19172        -7.927649       7.928389       0.000739
    835    7.54249    2.56620   -5.67994        -8.718084       8.719408       0.001324
    836    7.54249    2.56620   -4.16816        -9.488753       9.492539       0.003786
    837    7.54249    2.56620   -2.65638       -10.090515      10.096754       0.006240
    838    7.54249    2.56620   -1.14460       -10.396391      10.400406       0.004014
    839    7.54249    2.56620    0.36718       -10.409812      10.412146       0.002334
    840    7.54249    2.56620    1.87896       -10.160855      10.163547       0.002692
    841    7.54249    2.56620    3.39074        -9.673380       9.675990       0.002610
    842    7.54249    2.56620    4.90253        -9.019561       9.020893       0.001331
    843    7.54249    2.56620    6.41431        -8.300485       8.300764       0.000279
    844    7.54249    4.07798   -5.67994        -8.265153       8.266446       0.001293
    845    7.54249    4.07798   -4.16816        -8.904237       8.906328       0.002091
    846    7.54249    4.07798   -2.65638        -9.403818       9.406528       0.002710
    847    7.54249    4.07798   -1.14460        -9.680016       9.682264       0.002248
    848    7.54249    4.07798    0.36718        -9.715174       9.716974       0.001801
    849    7.54249    4.07798    1.87896        -9.519839       9.521718       0.001879
    850    7.54249    4.07798    3.39074        -9.117275       9.118995       0.001721
    851    7.54249    4.07798    4.90253        -8.565716       8.566760       0.001044
    852    7.54249    5.58976   -4.16816        -8.236722       8.238419       0.001697
    853    7.54249    5.58976   -2.65638        -8.639106       8.640981       0.001875
    854    7.54249    5.58976   -1.14460        -8.876303       8.878126       0.001823
    855    7.54249    5.58976    1.87896        -8.777315       8.778846       0.001530
    856    9.05427   -6.50448   -1.14460        -7.614905       7.614804      -0.000101
    857    9.05427   -6.50448    0.36718        -7.638358       7.638270      -0.000089
    858    9.05427   -4.99270   -2.65638        -8.004226       8.004504       0.000278
    859    9.05427   -4.99270   -1.14460        -8.212383       8.213044       0.000661
    860    9.05427   -4.99270    0.36718        -8.235872       8.236500       0.000628
    861    9.05427   -4.99270    1.87896        -8.080829       8.081065       0.000237
    862    9.05427   -3.48092   -4.16816        -8.078830       8.079186       0.000356
    863    9.05427   -3.48092   -2.65638        -8.490754       8.491805       0.001051
    864    9.05427   -3.48092   -1.14460        -8.734383       8.736321       0.001937
    865    9.05427   -3.48092    0.36718        -8.757063       8.758844       0.001781
    866    9.05427   -3.48092    1.87896        -8.569275       8.570117       0.000842
    867    9.05427   -1.96914   -4.16816        -8.385954       8.386785       0.000831
    868    9.05427   -1.96914   -2.65638        -8.834527       8.836260       0.001733
    869    9.05427   -1.96914   -1.14460        -9.096363       9.099017       0.002655
    870    9.05427   -1.96914    0.36718        -9.118723       9.121103       0.002380
    871    9.05427   -1.96914    1.87896        -8.914153       8.915446       0.001293
    872    9.05427   -0.45736   -5.67994        -7.957249       7.958079       0.000830
    873    9.05427   -0.45736   -4.16816        -8.530165       8.531671       0.001506
    874    9.05427   -0.45736   -2.65638        -8.986031       8.988378       0.002347
    875    9.05427   -0.45736   -1.14460        -9.245079       9.247771       0.002692
    876    9.05427   -0.45736    0.36718        -9.267011       9.269284       0.002273
    877    9.05427   -0.45736    1.87896        -9.064434       9.065976       0.001542
    878    9.05427   -0.45736    3.39074        -8.684504       8.685423       0.000919
    879    9.05427    1.05442   -5.67994        -7.925110       7.926353       0.001242
    880    9.05427    1.05442   -4.16816        -8.485360       8.487543       0.002182
    881    9.05427    1.05442   -2.65638        -8.923280       8.926258       0.002978
    882    9.05427    1.05442   -1.14460        -9.166673       9.169477       0.002804
    883    9.05427    1.05442    0.36718        -9.188562       9.190773       0.002211
    884    9.05427    1.05442    1.87896        -9.000732       9.002515       0.001783
    885    9.05427    1.05442    3.39074        -8.638001       8.639353       0.001352
    886    9.05427    2.56620   -5.67994        -7.736389       7.737808       0.001419
    887    9.05427    2.56620   -4.16816        -8.252145       8.254379       0.002235
    888    9.05427    2.56620   -2.65638        -8.651544       8.654366       0.002823
    889    9.05427    2.56620   -1.14460        -8.874376       8.876946       0.002569
    890    9.05427    2.56620    0.36718        -8.899655       8.901728       0.002073
    891    9.05427    2.56620    1.87896        -8.735601       8.737407       0.001806
    892    9.05427    2.56620    3.39074        -8.408213       8.409701       0.001487
    893    9.05427    4.07798   -4.16816        -7.872345       7.874198       0.001853
    894    9.05427    4.07798   -2.65638        -8.220386       8.222539       0.002152
    895    9.05427    4.07798   -1.14460        -8.419609       8.421655       0.002045
    896   10.56605   -3.48092   -1.14460        -7.605778       7.606828       0.001050
    897   10.56605   -1.96914   -1.14460        -7.850768       7.852237       0.001469

 NET CHARGES:
 -------------------------------------
 ATOM                CHARGE    E.S.D.
 -------------------------------------
 O                  -0.6501    0.0434
 C                   0.0768    0.3581
 C                   0.4203    0.4409
 C                   0.0796    0.3632
 C                   0.3425    0.4293
 C                  -0.0228    0.4648
 C                  -0.2566    0.4027
 C                  -0.2093    0.5066
 C                  -0.4004    0.4196
 C                  -0.5150    0.5807
 C                  -0.3139    0.4641
 H                  -0.0202    0.0250
 H                  -0.0337    0.0450
 H                   0.0342    0.0403
 H                   0.0138    0.0303
 H                   0.0740    0.0241
 H                   0.0375    0.0297
 H                   0.0649    0.0329
 H                   0.0394    0.0345
 H                   0.1112    0.0284
 H                   0.0934    0.0299
 H                   0.0905    0.0330
 H                   0.1116    0.0414
 H                   0.1119    0.0448
 H                   0.1174    0.0526
 H                   0.0645    0.0254
 H                   0.0534    0.0252
 H                   0.0803    0.0407
 H                   0.4049    0.0090
 -------------------------------------

 RMS DEVIATION IS            0.644 KCAL/MOLE
 RELATIVE RMS DEVIATION IS  12.185 %

 MULTIPOLE MOMENTS:
 ---------------------------------------------------------
 STATUS  ACTUAL VALUE       QUANTITY        FITTED VALUE 
 ---------------------------------------------------------
 FIXED       0.0000       TOTAL CHARGE         0.0000
             1.4927 D    DIPOLE MOMENT         1.4845 D
 FREE        0.5647 D          DX              0.5476 D
 FREE        1.2982 D          DY              1.2927 D
 FREE       -0.4733 D          DZ             -0.4825 D
 FREE        0.0000 BU         QXX            -4.3220 BU
 FREE        0.0000 BU         QYY             6.5115 BU
 FREE        0.0000 BU         QZZ            -2.1895 BU
 FREE        0.0000 BU         QXY            -4.8257 BU
 FREE        0.0000 BU         QXZ             1.0390 BU
 FREE        0.0000 BU         QYZ             0.3368 BU
 ---------------------------------------------------------
 ...... END OF PROPERTY EVALUATION ......
 CPU     0: STEP CPU TIME=     0.65 TOTAL CPU TIME=         54.9 (      0.9 MIN)
 TOTAL WALL CLOCK TIME=         81.8 SECONDS, CPU UTILIZATION IS    67.05%
              1116036  WORDS OF DYNAMIC MEMORY USED
 EXECUTION OF GAMESS TERMINATED NORMALLY Mon May 25 18:10:07 2020
 DDI: 263640 bytes (0.3 MB / 0 MWords) used by master data server.
Note: The following floating-point exceptions are signalling: IEEE_UNDERFLOW_FLAGNote: The following floating-point exceptions are signalling: IEEE_UNDERFLOW_FLAG IEEE_DENORMAL
Note: The following floating-point exceptions are signalling: IEEE_UNDERFLOW_FLAGNote: The following floating-point exceptions are signalling:
 ----------------------------------------
 CPU timing information for all processes
 ========================================
 0: 54.481 + 0.392 = 54.873
 1: 53.374 + 0.148 = 53.523
 2: 52.622 + 0.120 = 52.742
 3: 53.450 + 0.139 = 53.590
 4: 52.217 + 0.160 = 52.377
 5: 52.702 + 0.129 = 52.831
 ----------------------------------------
 IEEE_DENORMAL
 IEEE_DENORMAL
 IEEE_UNDERFLOW_FLAG IEEE_DENORMALNote: The following floating-point exceptions are signalling:Note: The following floating-point exceptions are signalling: IEEE_UNDERFLOW_FLAG
 IEEE_UNDERFLOW_FLAG IEEE_DENORMAL
 IEEE_DENORMAL
 ddikick.x: exited gracefully.
unset echo
----- accounting info -----
Files used on the master node pietdev were:
-rwxr-xr-x 1 piet piet     1332 mei 25 18:08 /home/piet/scr/borneol_charge_chelpg.F05*
-rw-r--r-- 1 piet piet 50790400 mei 25 18:10 /home/piet/scr/borneol_charge_chelpg.F10
ls: No match.
ls: No match.
ls: No match.
ma 25 mei 2020 18:10:10 CEST
0.116u 0.017s 1:25.00 0.1%	0+0k 0+8io 0pf+0w
