----- GAMESS execution script 'rungms' -----
This job is running on host pietdev
under operating system Linux at ma 25 mei 2020 18:10:27 CEST
Available scratch disk space (Kbyte units) at beginning of the job is
Filesystem     1K-blocks     Used Available Use% Mounted on
/dev/sda2      244568380 31071244 201004080  14% /
GAMESS temporary binary files will be written to /home/piet/scr
GAMESS supplementary output files will be written to /home/piet/gamess/scr
Copying input file borneol_fukui_neu.inp to your run's scratch directory...
cp borneol_fukui_neu.inp /home/piet/scr/borneol_fukui_neu.F05
unset echo
 
Assuming a single but multicore node.
 
/home/piet/gamess/ddikick.x /home/piet/gamess/gamess.03.x borneol_fukui_neu -ddi 1 6 pietdev:cpus=6 -scr /home/piet/scr

 Distributed Data Interface kickoff program.
 Initiating 6 compute processes on 1 nodes to run the following command:
 /home/piet/gamess/gamess.03.x borneol_fukui_neu 

          ******************************************************
          *         GAMESS VERSION = 30 SEP 2019 (R2)          *
          *             FROM IOWA STATE UNIVERSITY             *
          * M.W.SCHMIDT, K.K.BALDRIDGE, J.A.BOATZ, S.T.ELBERT, *
          *   M.S.GORDON, J.H.JENSEN, S.KOSEKI, N.MATSUNAGA,   *
          *          K.A.NGUYEN, S.J.SU, T.L.WINDUS,           *
          *       TOGETHER WITH M.DUPUIS, J.A.MONTGOMERY       *
          *         J.COMPUT.CHEM.  14, 1347-1363(1993)        *
          **************** 64 BIT LINUX VERSION ****************

  SINCE 1993, STUDENTS AND POSTDOCS WORKING AT IOWA STATE UNIVERSITY
  AND ALSO IN THEIR VARIOUS JOBS AFTER LEAVING ISU HAVE MADE IMPORTANT
  CONTRIBUTIONS TO THE CODE:
     IVANA ADAMOVIC, CHRISTINE AIKENS, YURI ALEXEEV, POOJA ARORA,
     ANDREY ASADCHEV, ROB BELL, PRADIPTA BANDYOPADHYAY, JONATHAN BENTZ,
     COLLEEN BERTONI, BRETT BODE, KURT BRORSEN, CALEB CARLIN, GALINA CHABAN,
     WEI CHEN, CHEOL HO CHOI, PAUL DAY, ALBERT DEFUSCO, NUWAN DESILVA,
     TIM DUDLEY, DMITRI FEDOROV, ALEX FINDLATER, GRAHAM FLETCHER, 
     MARK FREITAG, KURT GLAESEMANN, EMILIE B GUIDEZ, ANASTASIA GUNINA, 
     DAN KEMP, SAROM SOK LEANG, GRANT MERRILL,
     NORIYUKI MINEZAWA, JONATHAN MULLIN,
     TAKESHI NAGATA, SEAN NEDD, HEATHER NETZLOFF, BOSILJKA NJEGIC, RYAN OLSON,
     MIKE PAK, BUU PHAM, DAVID POOLE,
     SPENCER PRUITT, LUKE ROSKOP, TOSAPORN SATTASATHUCHANA,
     JIM SHOEMAKER, LYUDMILA SLIPCHENKO,
     TONY SMITH, JIE SONG, TETSUYA TAKETSUGU, SIMON WEBB,
     JORGE LUIS GALVEZ VALLEJO, PENG XU, SOOHAENG YOO,
     FEDERICO ZAHARIEV

  ADDITIONAL CODE HAS BEEN PROVIDED BY COLLABORATORS IN OTHER GROUPS:
     IOWA STATE UNIVERSITY:
          JOE IVANIC, AARON WEST, LAIMUTIS BYTAUTAS, KLAUS RUEDENBERG
     UNIVERSITY OF TOKYO: KIMIHIKO HIRAO, TAKAHITO NAKAJIMA,
          TAKAO TSUNEDA, MUNEAKI KAMIYA, SUSUMU YANAGISAWA,
          KIYOSHI YAGI, MAHITO CHIBA, SEIKEN TOKURA, NAOAKI KAWAKAMI
     UNIVERSITY OF AARHUS: FRANK JENSEN
     UNIVERSITY OF IOWA: VISVALDAS KAIRYS, HUI LI
     NATIONAL INST. OF STANDARDS AND TECHNOLOGY: WALT STEVENS, DAVID GARMER
     UNIVERSITY OF PISA: BENEDETTA MENNUCCI, JACOPO TOMASI
     UNIVERSITY OF MEMPHIS: HENRY KURTZ, PRAKASHAN KORAMBATH
     UNIVERSITY OF ALBERTA: TOBY ZENG, MARIUSZ KLOBUKOWSKI
     UNIVERSITY OF NEW ENGLAND: MARK SPACKMAN
     MIE UNIVERSITY: HIROAKI UMEDA
     NAT. INST. OF ADVANCED INDUSTRIAL SCIENCE AND TECHNOLOGY: KAZUO KITAURA
     MICHIGAN STATE UNIVERSITY:
          KAROL KOWALSKI, MARTA WLOCH, JEFFREY GOUR, JESSE LUTZ,
          WEI LI, JUN SHEN, J. EMILIANO DEUSTUA, PIOTR PIECUCH
     UNIVERSITY OF MINNESOTA:
          ANDREW SAND, PRACHI SHARMA, YINAN SHU
     UNIVERSITY OF SILESIA: MONIKA MUSIAL, STANISLAW KUCHARSKI
     FACULTES UNIVERSITAIRES NOTRE-DAME DE LA PAIX:
          OLIVIER QUINET, BENOIT CHAMPAGNE
     UNIVERSITY OF CALIFORNIA - SANTA BARBARA: BERNARD KIRTMAN
     INSTITUTE FOR MOLECULAR SCIENCE:
          KAZUYA ISHIMURA, MICHIO KATOUDA, AND SHIGERU NAGASE
     UNIVERSITY OF NOTRE DAME: ANNA POMOGAEVA, DAN CHIPMAN
     KYUSHU UNIVERSITY:
          HARUYUKI NAKANO,
          FENG LONG GU, JACEK KORCHOWIEC, MARCIN MAKOWSKI, AND YURIKO AOKI,
          HIROTOSHI MORI AND EISAKU MIYOSHI
     PENNSYLVANIA STATE UNIVERSITY:
          TZVETELIN IORDANOV, CHET SWALINA, JONATHAN SKONE,
          SHARON HAMMES-SCHIFFER
     WASEDA UNIVERSITY:
          MASATO KOBAYASHI, TOMOKO AKAMA, TSUGUKI TOUMA,
          TAKESHI YOSHIKAWA, YASUHIRO IKABATA, JUNJI SEINO,
          YUYA NAKAJIMA, HIROMI NAKAI
     NANJING UNIVERSITY: SHUHUA LI
     UNIVERSITY OF NEBRASKA:
          PEIFENG SU, DEJUN SI, NANDUN THELLAMUREGE, YALI WANG, HUI LI
     UNIVERSITY OF ZURICH: ROBERTO PEVERATI, KIM BALDRIDGE
     N. COPERNICUS UNIVERSITY AND JACKSON STATE UNIVERSITY:
          MARIA BARYSZ
     UNIVERSITY OF COPENHAGEN: Jimmy Kromann, CASPER STEINMANN
     TOKYO INSTITUTE OF TECHNOLOGY: HIROYA NAKATA
     NAGOYA UNIVERSITY: YOSHIO NISHIMOTO, STEPHAN IRLE
     MOSCOW STATE UNIVERSITY: VLADIMIR MIRONOV
     A.N.NESMEYANOV INSTITUTE OF ORGANOELEMENT COMPOUNDS OF RUSSIAN ACADEMY OF SCIENCES:
          IGOR S. GERASIMOV
     JOHANNES KEPLER UNIVERSITY LINZ:
          CHRISTIAN FRIEDL


 PARALLEL VERSION RUNNING ON        6 PROCESSORS IN        1 NODES.

 EXECUTION OF GAMESS BEGUN Mon May 25 18:10:27 2020

            ECHO OF THE FIRST FEW INPUT CARDS -
 INPUT CARD> $BASIS GBASIS=N21 NGAUSS=3 $END                                                
 INPUT CARD> $CONTRL SCFTYP=RHF MAXIT=60 MULT=1 ICHARG=0 $END                               
 INPUT CARD> $SYSTEM MEMDDI=1000 MWORDS=30 $END                                             
 INPUT CARD> $SCF DIRSCF=.TRUE. $END                                                        
 INPUT CARD> $DATA                                                                          
 INPUT CARD>                                                                                
 INPUT CARD>C1                                                                              
 INPUT CARD>O 8.0000000 -2.38748 1.32351 0.55636                                            
 INPUT CARD>C 6.0000000 -0.72030 -0.26732 -0.27159                                          
 INPUT CARD>C 6.0000000 0.85272 -0.18680 -0.36597                                           
 INPUT CARD>C 6.0000000 0.98850 0.50143 1.03046                                             
 INPUT CARD>C 6.0000000 -1.08283 1.22367 -0.02965                                           
 INPUT CARD>C 6.0000000 -0.92205 -0.99925 1.08758                                           
 INPUT CARD>C 6.0000000 0.07450 1.74162 0.88182                                             
 INPUT CARD>C 6.0000000 0.25975 -0.48850 1.97069                                            
 INPUT CARD>C 6.0000000 -1.47220 -0.89782 -1.43798                                          
 INPUT CARD>C 6.0000000 1.39878 0.65916 -1.53508                                            
 INPUT CARD>C 6.0000000 1.54560 -1.56030 -0.46173                                           
 INPUT CARD>H 1.0000000 2.01367 0.73720 1.33761                                             
 INPUT CARD>H 1.0000000 -1.09873 1.75736 -0.98969                                           
 INPUT CARD>H 1.0000000 -1.89915 -0.76564 1.51570                                           
 INPUT CARD>H 1.0000000 -0.88168 -2.08401 0.94346                                           
 INPUT CARD>H 1.0000000 -0.31761 2.07695 1.84845                                            
 INPUT CARD>H 1.0000000 0.59717 2.59015 0.42734                                             
 INPUT CARD>H 1.0000000 -0.08488 0.00675 2.88477                                            
 INPUT CARD>H 1.0000000 0.91808 -1.30684 2.27933                                            
 INPUT CARD>H 1.0000000 -2.55254 -0.86559 -1.25883                                          
 INPUT CARD>H 1.0000000 -1.18737 -1.94729 -1.57516                                          
 INPUT CARD>H 1.0000000 -1.27515 -0.36812 -2.37812                                          
 INPUT CARD>H 1.0000000 2.48976 0.74172 -1.45696                                            
 INPUT CARD>H 1.0000000 1.17897 0.17974 -2.49616                                            
 INPUT CARD>H 1.0000000 1.00084 1.67534 -1.57829                                            
 INPUT CARD>H 1.0000000 1.36141 -2.01506 -1.44206                                           
 INPUT CARD>H 1.0000000 2.63112 -1.44065 -0.35858                                           
 INPUT CARD>H 1.0000000 1.21982 -2.27420 0.29703                                            
 INPUT CARD>H 1.0000000 -2.64849 2.25269 0.57535                                            
 INPUT CARD> $END                                                                           
   30000000 WORDS OF MEMORY AVAILABLE

     BASIS OPTIONS
     -------------
     GBASIS=N21          IGAUSS=       3      POLAR=NONE    
     NDFUNC=       0     NFFUNC=       0     DIFFSP=       F
     NPFUNC=       0      DIFFS=       F     BASNAM=        


     RUN TITLE
     ---------
                                                                                 

 THE POINT GROUP OF THE MOLECULE IS C1      
 THE ORDER OF THE PRINCIPAL AXIS IS     0

 ATOM      ATOMIC                      COORDINATES (BOHR)
           CHARGE         X                   Y                   Z
 O           8.0    -4.5116830012        2.5010712420        1.0513679505
 C           6.0    -1.3611696290       -0.5051615510       -0.5132306810
 C           6.0     1.6114071443       -0.3530008145       -0.6915830197
 C           6.0     1.8679941389        0.9475653020        1.9472870413
 C           6.0    -2.0462519913        2.3124009994       -0.0560303755
 C           6.0    -1.7424218470       -1.8883086932        2.0552281897
 C           6.0     0.1407845861        3.2911845747        1.6663981705
 C           6.0     0.4908563253       -0.9231311450        3.7240641067
 C           6.0    -2.7820545991       -1.6966337863       -2.7173881758
 C           6.0     2.6433109171        1.2456317821       -2.9008805692
 C           6.0     2.9207604866       -2.9485394586       -0.8725431803
 H           1.0     3.8052845297        1.3931059981        2.5277163784
 H           1.0    -2.0762986345        3.3209288618       -1.8702429128
 H           1.0    -3.5888731096       -1.4468498052        2.8642576796
 H           1.0    -1.6661336089       -3.9382078557        1.7828808804
 H           1.0    -0.6001958710        3.9248663902        3.4930640020
 H           1.0     1.1284876681        4.8946737671        0.8075555036
 H           1.0    -0.1603999418        0.0127556504        5.4514248376
 H           1.0     1.7349196348       -2.4695695098        4.3073091356
 H           1.0    -4.8236011727       -1.6357279177       -2.3788437651
 H           1.0    -2.2438039460       -3.6798445186       -2.9766207868
 H           1.0    -2.4096840932       -0.6956459306       -4.4939951659
 H           1.0     4.7049641752        1.4016475596       -2.7532551751
 H           1.0     2.2279302477        0.3396593490       -4.7170584215
 H           1.0     1.8913133576        3.1659335363       -2.9825356292
 H           1.0     2.5726918569       -3.8079112488       -2.7250982579
 H           1.0     4.9720958408       -2.7224337442       -0.6776179447
 H           1.0     2.3051255543       -4.2976148413        0.5613053101
 H           1.0    -5.0049203812        4.2569668353        1.0872538470

          INTERNUCLEAR DISTANCES (ANGS.)
          ------------------------------

                1 O          2 C          3 C          4 C          5 C     

   1 O       0.0000000    2.4486181 *  3.6919676    3.5068258    1.4336971 *
   2 C       2.4486181 *  0.0000000    1.5779046 *  2.2817336 *  1.5533880 *
   3 C       3.6919676    1.5779046 *  0.0000000    1.5627263 *  2.4184480 *
   4 C       3.5068258    2.2817336 *  1.5627263 *  0.0000000    2.4363645 *
   5 C       1.4336971 *  1.5533880 *  2.4184480 *  2.4363645 *  0.0000000  
   6 C       2.7973012 *  1.5568454 *  2.4336580 *  2.4301244 *  2.4930757 *
   7 C       2.5183498 *  2.4490614 *  2.4251618 *  1.5477600 *  1.5615577 *
   8 C       3.5059287    2.4570792 *  2.4295301 *  1.5476015 *  2.9555722 *
   9 C       3.1224088    1.5242537 *  2.6570675 *  3.7558143    2.5759896 *
  10 C       4.3762138    2.6353884 *  1.5429349 *  2.6029222 *  2.9569206 *
  11 C       4.9821668    2.6157701 *  1.5413484 *  2.6053257 *  3.8530282  
  12 H       4.5082405    3.3276384    2.2591515 *  1.0958568 *  3.4197025  
  13 H       2.0589738 *  2.1813312 *  2.8243480 *  3.1646319    1.0985238 *
  14 H       2.3501802 *  2.1982756 *  3.3835671    3.1905245    2.6479878 *
  15 H       3.7454603    2.1915183 *  2.8848147 *  3.1921219    3.4537156  
  16 H       2.5537287 *  3.1862722    3.3760765    2.2039270 *  2.2002064 *
  17 H       3.2448665    3.2232538    2.8993271 *  2.2089917 *  2.2132572 *
  18 H       3.5294924    3.2313281    3.3887853    2.1989358 *  3.3121960  
  19 H       4.5622466    3.2050092    2.8733906 *  2.1987441 *  3.9671791  
  20 H       2.8485643 *  2.1655653 *  3.5852128    4.4326692    2.8347731 *
  21 H       4.0843328    2.1770963 *  2.9535458 *  4.1856774    3.5290958  
  22 H       3.5651175    2.1807081 *  2.9341873 *  4.1831383    2.8436058 *
  23 H       5.3084279    3.5675971    2.1753870 *  2.9152666 *  3.8772270  
  24 H       4.8317340    2.9590203 *  2.1859781 *  3.5463801    3.5055956  
  25 H       4.0201029    2.9058072 *  2.2269317 *  2.8607330 *  2.6351418 *
  26 H       5.4031388    2.9594107 *  2.1815751 *  3.5475539    4.2963453  
  27 H       5.8020722    3.5519412    2.1759828 *  2.8981558 *  4.5825998  
  28 H       5.1013118    2.8486772 *  2.2207139 *  2.8801997 *  4.2004775  
  29 H       0.9653302 *  3.2841551    4.3698588    4.0622325    1.9688063 *

                6 C          7 C          8 C          9 C         10 C     

   1 O       2.7973012 *  2.5183498 *  3.5059287    3.1224088    4.3762138  
   2 C       1.5568454 *  2.4490614 *  2.4570792 *  1.5242537 *  2.6353884 *
   3 C       2.4336580 *  2.4251618 *  2.4295301 *  2.6570675 *  1.5429349 *
   4 C       2.4301244 *  1.5477600 *  1.5476015 *  3.7558143    2.6029222 *
   5 C       2.4930757 *  1.5615577 *  2.9555722 *  2.5759896 *  2.9569206 *
   6 C       0.0000000    2.9236651 *  1.5612175 *  2.5867753 *  3.8749092  
   7 C       2.9236651 *  0.0000000    2.4886524 *  3.8393224    2.9608855 *
   8 C       1.5612175 *  2.4886524 *  0.0000000    3.8452861    3.8606911  
   9 C       2.5867753 *  3.8393224    3.8452861    0.0000000    3.2674365  
  10 C       3.8749092    2.9608855 *  3.8606911    3.2674365    0.0000000  
  11 C       2.9672268 *  3.8564151    2.9527669 *  3.2402254    2.4697447 *
  12 H       3.4199745    2.2309156 *  2.2314493 *  4.7464176    2.9387970 *
  13 H       3.4561778    2.2089061 *  3.9564131    2.7185335 *  2.7822742 *
  14 H       1.0920553 *  3.2532216    2.2236618 *  2.9873037 *  4.7131365  
  15 H       1.0950363 *  3.9437957    2.2144336 *  2.7252554 *  4.3438048  
  16 H       3.2260312    1.0957053 *  2.6324553 *  4.5807157    4.0502344  
  17 H       3.9531935    1.0953261 *  3.4603276    4.4640392    2.8674716 *
  18 H       2.2232367 *  2.6546157 *  1.0952555 *  4.6291545    4.7076491  
  19 H       2.2138108 *  3.4580008    1.0946860 *  4.4383701    4.3180959  
  20 H       2.8604200 *  4.2756597    4.2989500    1.0955674 *  4.2443028  
  21 H       2.8389010 *  4.6083754    4.0982041    1.0960537 *  3.6719695  
  22 H       3.5403504    4.1109326    4.6133023    1.0969385 *  2.9859542 *
  23 H       4.5984897    3.5075879    4.2702658    4.2878408    1.0968848 *
  24 H       4.3182745    3.8820191    4.6091495    3.0511609    1.0962822 *
  25 H       4.2376645    2.6295703 *  4.2221650    3.5716615    1.0921745 *
  26 H       3.5560003    4.6009999    3.8975509    3.0459132    2.6760983 *
  27 H       3.8615062    4.2663498    3.4576703    4.2774997    2.7040740 *
  28 H       2.6149711 *  4.2166987    2.6289916 *  3.4859222    3.4631279  
  29 H       3.7172689    2.7874345 *  4.2330788    3.9195496    4.8346300  

               11 C         12 H         13 H         14 H         15 H     

   1 O       4.9821668    4.5082405    2.0589738 *  2.3501802 *  3.7454603  
   2 C       2.6157701 *  3.3276384    2.1813312 *  2.1982756 *  2.1915183 *
   3 C       1.5413484 *  2.2591515 *  2.8243480 *  3.3835671    2.8848147 *
   4 C       2.6053257 *  1.0958568 *  3.1646319    3.1905245    3.1921219  
   5 C       3.8530282    3.4197025    1.0985238 *  2.6479878 *  3.4537156  
   6 C       2.9672268 *  3.4199745    3.4561778    1.0920553 *  1.0950363 *
   7 C       3.8564151    2.2309156 *  2.2089061 *  3.2532216    3.9437957  
   8 C       2.9527669 *  2.2314493 *  3.9564131    2.2236618 *  2.2144336 *
   9 C       3.2402254    4.7464176    2.7185335 *  2.9873037 *  2.7252554 *
  10 C       2.4697447 *  2.9387970 *  2.7822742 *  4.7131365    4.3438048  
  11 C       0.0000000    2.9555406 *  4.2752884    4.0506810    2.8531595 *
  12 H       2.9555406 *  0.0000000    4.0179703    4.1952836    4.0617277  
  13 H       4.2752884    4.0179703    0.0000000    3.6446097    4.3058452  
  14 H       4.0506810    4.1952836    3.6446097    0.0000000    1.7609098 *
  15 H       2.8531595 *  4.0617277    4.3058452    1.7609098 *  0.0000000  
  16 H       4.6944724    2.7369242 *  2.9609669 *  3.2699097    4.2954359  
  17 H       4.3492758    2.5036948 *  2.3616922 *  4.3217436    4.9296195  
  18 H       4.0389569    2.7076140 *  4.3708086    2.4005238 *  2.9622377 *
  19 H       2.8233727 *  2.5030488 *  4.9135869    2.9686383 *  2.3722727 *
  20 H       4.2323447    5.4918767    3.0109577    2.8521790 *  3.0209935  
  21 H       2.9763422 *  5.0928747    3.7516748    3.3847220    2.5407844 *
  22 H       3.6125440    5.0837701    2.5449022 *  3.9634874    3.7592540  
  23 H       2.6797793 *  2.8348375 *  3.7586070    5.5110228    5.0113246  
  24 H       2.7020478 *  3.9629885    3.1537682    5.1442771    4.6045443  
  25 H       3.4659538    3.2262058    2.1820567 *  4.8929643    4.9026337  
  26 H       1.0962571 *  3.9657211    4.5263760    4.5760951    3.2751966  
  27 H       1.0969547 *  2.8286632 *  4.9535188    4.9489302    3.8011819  
  28 H       1.0915597 *  3.2835247    4.8254325    3.6727216    2.2068861 *
  29 H       5.7623622    4.9611981    2.2575336 *  3.2490129    4.6972427  

               16 H         17 H         18 H         19 H         20 H     

   1 O       2.5537287 *  3.2448665    3.5294924    4.5622466    2.8485643 *
   2 C       3.1862722    3.2232538    3.2313281    3.2050092    2.1655653 *
   3 C       3.3760765    2.8993271 *  3.3887853    2.8733906 *  3.5852128  
   4 C       2.2039270 *  2.2089917 *  2.1989358 *  2.1987441 *  4.4326692  
   5 C       2.2002064 *  2.2132572 *  3.3121960    3.9671791    2.8347731 *
   6 C       3.2260312    3.9531935    2.2232367 *  2.2138108 *  2.8604200 *
   7 C       1.0957053 *  1.0953261 *  2.6546157 *  3.4580008    4.2756597  
   8 C       2.6324553 *  3.4603276    1.0952555 *  1.0946860 *  4.2989500  
   9 C       4.5807157    4.4640392    4.6291545    4.4383701    1.0955674 *
  10 C       4.0502344    2.8674716 *  4.7076491    4.3180959    4.2443028  
  11 C       4.6944724    4.3492758    4.0389569    2.8233727 *  4.2323447  
  12 H       2.7369242 *  2.5036948 *  2.7076140 *  2.5030488 *  5.4918767  
  13 H       2.9609669 *  2.3616922 *  4.3708086    4.9135869    3.0109577  
  14 H       3.2699097    4.3217436    2.4005238 *  2.9686383 *  2.8521790 *
  15 H       4.2954359    4.9296195    2.9622377 *  2.3722727 *  3.0209935  
  16 H       0.0000000    1.7662815 *  2.3267682 *  3.6280328    4.8279025  
  17 H       1.7662815 *  0.0000000    3.6301667    4.3265900    4.9705112  
  18 H       2.3267682 *  3.6301667    0.0000000    1.7601151 *  4.9009942  
  19 H       3.6280328    4.3265900    1.7601151 *  0.0000000    4.9757895  
  20 H       4.8279025    4.9705112    4.9009942    4.9757895    0.0000000  
  21 H       5.3546331    5.2709535    4.9924675    4.4384895    1.7702623 *
  22 H       4.9758561    4.4863737    5.4088152    5.2329049    1.7697491 *
  23 H       4.5376096    3.2479496    5.1009383    4.5416560    5.2959881  
  24 H       4.9713975    3.8334606    5.5300678    5.0083219    4.0679070  
  25 H       3.6935279    2.2410664 *  4.8869096    4.8766258    4.3800559  
  26 H       5.5128133    5.0285861    4.9900830    3.8140347    4.0833637  
  27 H       5.0930835    4.5827908    4.4711231    3.1481709    5.2925868  
  28 H       4.8685831    4.9057695    3.6880040    2.2262852 *  4.3168950  
  29 H       2.6617043 *  3.2665111    4.1170090    5.3192315    3.6189906  

               21 H         22 H         23 H         24 H         25 H     

   1 O       4.0843328    3.5651175    5.3084279    4.8317340    4.0201029  
   2 C       2.1770963 *  2.1807081 *  3.5675971    2.9590203 *  2.9058072 *
   3 C       2.9535458 *  2.9341873 *  2.1753870 *  2.1859781 *  2.2269317 *
   4 C       4.1856774    4.1831383    2.9152666 *  3.5463801    2.8607330 *
   5 C       3.5290958    2.8436058 *  3.8772270    3.5055956    2.6351418 *
   6 C       2.8389010 *  3.5403504    4.5984897    4.3182745    4.2376645  
   7 C       4.6083754    4.1109326    3.5075879    3.8820191    2.6295703 *
   8 C       4.0982041    4.6133023    4.2702658    4.6091495    4.2221650  
   9 C       1.0960537 *  1.0969385 *  4.2878408    3.0511609    3.5716615  
  10 C       3.6719695    2.9859542 *  1.0968848 *  1.0962822 *  1.0921745 *
  11 C       2.9763422 *  3.6125440    2.6797793 *  2.7020478 *  3.4659538  
  12 H       5.0928747    5.0837701    2.8348375 *  3.9629885    3.2262058  
  13 H       3.7516748    2.5449022 *  3.7586070    3.1537682    2.1820567 *
  14 H       3.3847220    3.9634874    5.5110228    5.1442771    4.8929643  
  15 H       2.5407844 *  3.7592540    5.0113246    4.6045443    4.9026337  
  16 H       5.3546331    4.9758561    4.5376096    4.9713975    3.6935279  
  17 H       5.2709535    4.4863737    3.2479496    3.8334606    2.2410664 *
  18 H       4.9924675    5.4088152    5.1009383    5.5300678    4.8869096  
  19 H       4.4384895    5.2329049    4.5416560    5.0083219    4.8766258  
  20 H       1.7702623 *  1.7697491 *  5.2959881    4.0679070    4.3800559  
  21 H       0.0000000    1.7737610 *  4.5569761    3.3124104    4.2322241  
  22 H       1.7737610 *  0.0000000    4.0317277    2.5172980 *  3.1615799  
  23 H       4.5569761    4.0317277    0.0000000    1.7646327 *  1.7616044 *
  24 H       3.3124104    2.5172980 *  1.7646327 *  0.0000000    1.7638126 *
  25 H       4.2322241    3.1615799    1.7616044 *  1.7638126 *  0.0000000  
  26 H       2.5531525 *  3.2465471    2.9787970 *  2.4416302 *  3.7104746  
  27 H       4.0395070    4.5263460    2.4472761 *  3.0501888    3.7222170  
  28 H       3.0670066    4.1248568    3.7128159    3.7182524    4.3776299  
  29 H       4.9395746    4.1806331    5.7284315    5.3273582    4.2765766  

               26 H         27 H         28 H         29 H     

   1 O       5.4031388    5.8020722    5.1013118    0.9653302 *
   2 C       2.9594107 *  3.5519412    2.8486772 *  3.2841551  
   3 C       2.1815751 *  2.1759828 *  2.2207139 *  4.3698588  
   4 C       3.5475539    2.8981558 *  2.8801997 *  4.0622325  
   5 C       4.2963453    4.5825998    4.2004775    1.9688063 *
   6 C       3.5560003    3.8615062    2.6149711 *  3.7172689  
   7 C       4.6009999    4.2663498    4.2166987    2.7874345 *
   8 C       3.8975509    3.4576703    2.6289916 *  4.2330788  
   9 C       3.0459132    4.2774997    3.4859222    3.9195496  
  10 C       2.6760983 *  2.7040740 *  3.4631279    4.8346300  
  11 C       1.0962571 *  1.0969547 *  1.0915597 *  5.7623622  
  12 H       3.9657211    2.8286632 *  3.2835247    4.9611981  
  13 H       4.5263760    4.9535188    4.8254325    2.2575336 *
  14 H       4.5760951    4.9489302    3.6727216    3.2490129  
  15 H       3.2751966    3.8011819    2.2068861 *  4.6972427  
  16 H       5.5128133    5.0930835    4.8685831    2.6617043 *
  17 H       5.0285861    4.5827908    4.9057695    3.2665111  
  18 H       4.9900830    4.4711231    3.6880040    4.1170090  
  19 H       3.8140347    3.1481709    2.2262852 *  5.3192315  
  20 H       4.0833637    5.2925868    4.3168950    3.6189906  
  21 H       2.5531525 *  4.0395070    3.0670066    4.9395746  
  22 H       3.2465471    4.5263460    4.1248568    4.1806331  
  23 H       2.9787970 *  2.4472761 *  3.7128159    5.7284315  
  24 H       2.4416302 *  3.0501888    3.7182524    5.3273582  
  25 H       3.7104746    3.7222170    4.3776299    4.2765766  
  26 H       0.0000000    1.7652306 *  1.7639828 *  6.1937817  
  27 H       1.7652306 *  0.0000000    1.7653322 *  6.5105505  
  28 H       1.7639828 *  1.7653322 *  0.0000000    5.9610416  
  29 H       6.1937817    6.5105505    5.9610416    0.0000000  

  * ... LESS THAN  3.000


     ATOMIC BASIS SET
     ----------------
 THE CONTRACTED PRIMITIVE FUNCTIONS HAVE BEEN UNNORMALIZED
 THE CONTRACTED BASIS FUNCTIONS ARE NOW NORMALIZED TO UNITY

  SHELL TYPE  PRIMITIVE        EXPONENT          CONTRACTION COEFFICIENT(S)

 O         

      1   S       1           322.0370000    0.059239393389
      1   S       2            48.4308000    0.351499960776
      1   S       3            10.4206000    0.707657921031

      2   L       4             7.4029400   -0.404453583190    0.244586106967
      2   L       5             1.5762000    1.221561761397    0.853955373466

      3   L       6             0.3736840    1.000000000000    1.000000000000

 C         

      4   S       7           172.2560000    0.061766907377
      4   S       8            25.9109000    0.358794042852
      4   S       9             5.5333500    0.700713083689

      5   L      10             3.6649800   -0.395895162119    0.236459946619
      5   L      11             0.7705450    1.215834355681    0.860618805716

      6   L      12             0.1958570    1.000000000000    1.000000000000

 C         

      7   S      13           172.2560000    0.061766907377
      7   S      14            25.9109000    0.358794042852
      7   S      15             5.5333500    0.700713083689

      8   L      16             3.6649800   -0.395895162119    0.236459946619
      8   L      17             0.7705450    1.215834355681    0.860618805716

      9   L      18             0.1958570    1.000000000000    1.000000000000

 C         

     10   S      19           172.2560000    0.061766907377
     10   S      20            25.9109000    0.358794042852
     10   S      21             5.5333500    0.700713083689

     11   L      22             3.6649800   -0.395895162119    0.236459946619
     11   L      23             0.7705450    1.215834355681    0.860618805716

     12   L      24             0.1958570    1.000000000000    1.000000000000

 C         

     13   S      25           172.2560000    0.061766907377
     13   S      26            25.9109000    0.358794042852
     13   S      27             5.5333500    0.700713083689

     14   L      28             3.6649800   -0.395895162119    0.236459946619
     14   L      29             0.7705450    1.215834355681    0.860618805716

     15   L      30             0.1958570    1.000000000000    1.000000000000

 C         

     16   S      31           172.2560000    0.061766907377
     16   S      32            25.9109000    0.358794042852
     16   S      33             5.5333500    0.700713083689

     17   L      34             3.6649800   -0.395895162119    0.236459946619
     17   L      35             0.7705450    1.215834355681    0.860618805716

     18   L      36             0.1958570    1.000000000000    1.000000000000

 C         

     19   S      37           172.2560000    0.061766907377
     19   S      38            25.9109000    0.358794042852
     19   S      39             5.5333500    0.700713083689

     20   L      40             3.6649800   -0.395895162119    0.236459946619
     20   L      41             0.7705450    1.215834355681    0.860618805716

     21   L      42             0.1958570    1.000000000000    1.000000000000

 C         

     22   S      43           172.2560000    0.061766907377
     22   S      44            25.9109000    0.358794042852
     22   S      45             5.5333500    0.700713083689

     23   L      46             3.6649800   -0.395895162119    0.236459946619
     23   L      47             0.7705450    1.215834355681    0.860618805716

     24   L      48             0.1958570    1.000000000000    1.000000000000

 C         

     25   S      49           172.2560000    0.061766907377
     25   S      50            25.9109000    0.358794042852
     25   S      51             5.5333500    0.700713083689

     26   L      52             3.6649800   -0.395895162119    0.236459946619
     26   L      53             0.7705450    1.215834355681    0.860618805716

     27   L      54             0.1958570    1.000000000000    1.000000000000

 C         

     28   S      55           172.2560000    0.061766907377
     28   S      56            25.9109000    0.358794042852
     28   S      57             5.5333500    0.700713083689

     29   L      58             3.6649800   -0.395895162119    0.236459946619
     29   L      59             0.7705450    1.215834355681    0.860618805716

     30   L      60             0.1958570    1.000000000000    1.000000000000

 C         

     31   S      61           172.2560000    0.061766907377
     31   S      62            25.9109000    0.358794042852
     31   S      63             5.5333500    0.700713083689

     32   L      64             3.6649800   -0.395895162119    0.236459946619
     32   L      65             0.7705450    1.215834355681    0.860618805716

     33   L      66             0.1958570    1.000000000000    1.000000000000

 H         

     34   S      67             5.4471780    0.156284978695
     34   S      68             0.8245472    0.904690876670

     35   S      69             0.1831916    1.000000000000

 H         

     36   S      70             5.4471780    0.156284978695
     36   S      71             0.8245472    0.904690876670

     37   S      72             0.1831916    1.000000000000

 H         

     38   S      73             5.4471780    0.156284978695
     38   S      74             0.8245472    0.904690876670

     39   S      75             0.1831916    1.000000000000

 H         

     40   S      76             5.4471780    0.156284978695
     40   S      77             0.8245472    0.904690876670

     41   S      78             0.1831916    1.000000000000

 H         

     42   S      79             5.4471780    0.156284978695
     42   S      80             0.8245472    0.904690876670

     43   S      81             0.1831916    1.000000000000

 H         

     44   S      82             5.4471780    0.156284978695
     44   S      83             0.8245472    0.904690876670

     45   S      84             0.1831916    1.000000000000

 H         

     46   S      85             5.4471780    0.156284978695
     46   S      86             0.8245472    0.904690876670

     47   S      87             0.1831916    1.000000000000

 H         

     48   S      88             5.4471780    0.156284978695
     48   S      89             0.8245472    0.904690876670

     49   S      90             0.1831916    1.000000000000

 H         

     50   S      91             5.4471780    0.156284978695
     50   S      92             0.8245472    0.904690876670

     51   S      93             0.1831916    1.000000000000

 H         

     52   S      94             5.4471780    0.156284978695
     52   S      95             0.8245472    0.904690876670

     53   S      96             0.1831916    1.000000000000

 H         

     54   S      97             5.4471780    0.156284978695
     54   S      98             0.8245472    0.904690876670

     55   S      99             0.1831916    1.000000000000

 H         

     56   S     100             5.4471780    0.156284978695
     56   S     101             0.8245472    0.904690876670

     57   S     102             0.1831916    1.000000000000

 H         

     58   S     103             5.4471780    0.156284978695
     58   S     104             0.8245472    0.904690876670

     59   S     105             0.1831916    1.000000000000

 H         

     60   S     106             5.4471780    0.156284978695
     60   S     107             0.8245472    0.904690876670

     61   S     108             0.1831916    1.000000000000

 H         

     62   S     109             5.4471780    0.156284978695
     62   S     110             0.8245472    0.904690876670

     63   S     111             0.1831916    1.000000000000

 H         

     64   S     112             5.4471780    0.156284978695
     64   S     113             0.8245472    0.904690876670

     65   S     114             0.1831916    1.000000000000

 H         

     66   S     115             5.4471780    0.156284978695
     66   S     116             0.8245472    0.904690876670

     67   S     117             0.1831916    1.000000000000

 H         

     68   S     118             5.4471780    0.156284978695
     68   S     119             0.8245472    0.904690876670

     69   S     120             0.1831916    1.000000000000

 TOTAL NUMBER OF BASIS SET SHELLS             =   69
 NUMBER OF CARTESIAN GAUSSIAN BASIS FUNCTIONS =  135
 NUMBER OF ELECTRONS                          =   86
 CHARGE OF MOLECULE                           =    0
 SPIN MULTIPLICITY                            =    1
 NUMBER OF OCCUPIED ORBITALS (ALPHA)          =   43
 NUMBER OF OCCUPIED ORBITALS (BETA )          =   43
 TOTAL NUMBER OF ATOMS                        =   29
 THE NUCLEAR REPULSION ENERGY IS      713.2541296246

     $CONTRL OPTIONS
     ---------------
 SCFTYP=RHF          RUNTYP=ENERGY       EXETYP=RUN     
 MPLEVL=       0     CITYP =NONE         CCTYP =NONE         VBTYP =NONE    
 DFTTYP=NONE         TDDFT =NONE    
 MULT  =       1     ICHARG=       0     NZVAR =       0     COORD =UNIQUE  
 PP    =NONE         RELWFN=NONE         LOCAL =NONE         NUMGRD=       F
 ISPHER=      -1     NOSYM =       0     MAXIT =      60     UNITS =ANGS    
 PLTORB=       F     MOLPLT=       F     AIMPAC=       F     FRIEND=        
 NPRINT=       7     IREST =       0     GEOM  =INPUT   
 NORMF =       0     NORMP =       0     ITOL  =      20     ICUT  =       9
 INTTYP=BEST         GRDTYP=BEST         QMTTOL= 1.0E-06

     $SYSTEM OPTIONS
     ---------------
  REPLICATED MEMORY=    30000000 WORDS (ON EVERY NODE).
 DISTRIBUTED MEMDDI=        1000 MILLION WORDS IN AGGREGATE,
 MEMDDI DISTRIBUTED OVER   6 PROCESSORS IS   166666666 WORDS/PROCESSOR.
 TOTAL MEMORY REQUESTED ON EACH PROCESSOR=   196666666 WORDS.
 TIMLIM=      525600.00 MINUTES, OR     365.0 DAYS.
 PARALL= T  BALTYP=  DLB     KDIAG=    0  COREFL= F
 MXSEQ2=     300 MXSEQ3=     150  mem10=         0

          ----------------
          PROPERTIES INPUT
          ----------------

     MOMENTS            FIELD           POTENTIAL          DENSITY
 IEMOM =       1   IEFLD =       0   IEPOT =       0   IEDEN =       0
 WHERE =COMASS     WHERE =NUCLEI     WHERE =NUCLEI     WHERE =NUCLEI  
 OUTPUT=BOTH       OUTPUT=BOTH       OUTPUT=BOTH       OUTPUT=BOTH    
 IEMINT=       0   IEFINT=       0                     IEDINT=       0
                                                       MORB  =       0
          EXTRAPOLATION IN EFFECT
          SOSCF IN EFFECT
 ORBITAL PRINTING OPTION: NPREO=     1   135     2     1

     -------------------------------
     INTEGRAL TRANSFORMATION OPTIONS
     -------------------------------
     NWORD  =            0
     CUTOFF = 1.0E-09     MPTRAN =       0
     DIRTRF =       T     AOINTS =DUP     

          ----------------------
          INTEGRAL INPUT OPTIONS
          ----------------------
 NOPK  =       1 NORDER=       0 SCHWRZ=       T

     ------------------------------------------
     THE POINT GROUP IS C1 , NAXIS= 0, ORDER= 1
     ------------------------------------------

     DIMENSIONS OF THE SYMMETRY SUBSPACES ARE
 A   =  135

 ..... DONE SETTING UP THE RUN .....
 CPU     0: STEP CPU TIME=     0.02 TOTAL CPU TIME=          0.0 (      0.0 MIN)
 TOTAL WALL CLOCK TIME=          0.0 SECONDS, CPU UTILIZATION IS    50.00%

          ********************
          1 ELECTRON INTEGRALS
          ********************
 ...... END OF ONE-ELECTRON INTEGRALS ......
 CPU     0: STEP CPU TIME=     0.02 TOTAL CPU TIME=          0.0 (      0.0 MIN)
 TOTAL WALL CLOCK TIME=          0.1 SECONDS, CPU UTILIZATION IS    66.67%

          -------------
          GUESS OPTIONS
          -------------
          GUESS =HUCKEL            NORB  =       0          NORDER=       0
          MIX   =       F          PRTMO =       F          PUNMO =       F
          TOLZ  = 1.0E-08          TOLE  = 1.0E-05
          SYMDEN=       F          PURIFY=       F

 INITIAL GUESS ORBITALS GENERATED BY HUCKEL   ROUTINE.
 HUCKEL GUESS REQUIRES    174540 WORDS.

 SYMMETRIES FOR INITIAL GUESS ORBITALS FOLLOW.   BOTH SET(S).
    43 ORBITALS ARE OCCUPIED (   11 CORE ORBITALS).
    12=A       13=A       14=A       15=A       16=A       17=A       18=A   
    19=A       20=A       21=A       22=A       23=A       24=A       25=A   
    26=A       27=A       28=A       29=A       30=A       31=A       32=A   
    33=A       34=A       35=A       36=A       37=A       38=A       39=A   
    40=A       41=A       42=A       43=A       44=A       45=A       46=A   
    47=A       48=A       49=A       50=A       51=A       52=A       53=A   
 ...... END OF INITIAL ORBITAL SELECTION ......
 CPU     0: STEP CPU TIME=     0.04 TOTAL CPU TIME=          0.1 (      0.0 MIN)
 TOTAL WALL CLOCK TIME=          0.1 SECONDS, CPU UTILIZATION IS    72.73%

                    ----------------------
                    AO INTEGRAL TECHNOLOGY
                    ----------------------
     S,P,L SHELL ROTATED AXIS INTEGRALS, REPROGRAMMED BY
        KAZUYA ISHIMURA (IMS) AND JOSE SIERRA (SYNSTAR).
     S,P,D,L SHELL ROTATED AXIS INTEGRALS PROGRAMMED BY
        KAZUYA ISHIMURA (INSTITUTE FOR MOLECULAR SCIENCE).
     S,P,D,F,G SHELL TO TOTAL QUARTET ANGULAR MOMENTUM SUM 5,
        ERIC PROGRAM BY GRAHAM FLETCHER (ELORET AND NASA ADVANCED
        SUPERCOMPUTING DIVISION, AMES RESEARCH CENTER).
     S,P,D,F,G,L SHELL GENERAL RYS QUADRATURE PROGRAMMED BY
        MICHEL DUPUIS (PACIFIC NORTHWEST NATIONAL LABORATORY).

          --------------------
          2 ELECTRON INTEGRALS
          --------------------

 DIRECT SCF METHOD SKIPS INTEGRAL STORAGE ON DISK.
 DIRECT TRANSFORMATION SKIPS AO INTEGRAL STORAGE ON DISK.
  ...... END OF TWO-ELECTRON INTEGRALS .....
 CPU     0: STEP CPU TIME=     0.01 TOTAL CPU TIME=          0.1 (      0.0 MIN)
 TOTAL WALL CLOCK TIME=          0.1 SECONDS, CPU UTILIZATION IS    75.00%

          --------------------------
                 RHF SCF CALCULATION
          --------------------------

     NUCLEAR ENERGY =       713.2541296246
     MAXIT =   60     NPUNCH=    2
     EXTRAP=T  DAMP=F  SHIFT=F  RSTRCT=F  DIIS=F  DEM=F  SOSCF=T
     DENSITY MATRIX CONV=  2.00E-05
     SOSCF WILL OPTIMIZE    3956 ORBITAL ROTATIONS, SOGTOL=   0.250
     MEMORY REQUIRED FOR RHF ITERS=    194475 WORDS.

 DIRECT SCF CALCULATION, SCHWRZ=T   FDIFF=T,  DIRTHR=  0.00E+00 NITDIR=10
 SCHWARZ INEQUALITY OVERHEAD:      8972 INTEGRALS, T=        0.00

                                                                                   NONZERO     BLOCKS
 ITER EX DEM     TOTAL ENERGY        E CHANGE  DENSITY CHANGE     ORB. GRAD      INTEGRALS    SKIPPED
   1  0  0     -460.4811279716  -460.4811279716   0.884273473   0.000000000       31733434    1169745
          ---------------START SECOND ORDER SCF---------------
   2  1  0     -461.4026961755    -0.9215682039   0.149230896   0.030148448       31594515    1208694
   3  2  0     -461.4487534061    -0.0460572306   0.120523985   0.010086464       31146552    1283981
   4  3  0     -461.4580406000    -0.0092871939   0.013103673   0.003618266       30448071    1378832
   5  4  0     -461.4582489755    -0.0002083755   0.002259607   0.000962183       29202867    1497941
   6  5  0     -461.4582748752    -0.0000258997   0.000976358   0.000267678       27993134    1591962
   7  6  0     -461.4582767291    -0.0000018538   0.000481948   0.000055727       26188368    1742139
   8  7  0     -461.4582769452    -0.0000002162   0.000100315   0.000027037       25097994    1826705
   9  8  0     -461.4582769622    -0.0000000169   0.000013410   0.000004449       23112819    1967462
  10  9  0     -461.4582769633    -0.0000000012   0.000004511   0.000000613       21448095    2062577

          -----------------
          DENSITY CONVERGED
          -----------------
     TIME TO FORM FOCK OPERATORS=       4.8 SECONDS (       0.5 SEC/ITER)
     FOCK TIME ON FIRST ITERATION=       0.5, LAST ITERATION=       0.4
     TIME TO SOLVE SCF EQUATIONS=       0.1 SECONDS (       0.0 SEC/ITER)

 FINAL RHF ENERGY IS     -461.4582769633 AFTER  10 ITERATIONS

          ------------
          EIGENVECTORS
          ------------

                      1          2          3          4          5
                  -20.4363   -11.2175   -11.1769   -11.1709   -11.1649
                     A          A          A          A          A   
    1  O  1  S    0.983569  -0.000222  -0.000046   0.000115  -0.000035
    2  O  1  S    0.098714  -0.000749  -0.000458   0.000671  -0.000218
    3  O  1  X    0.002663   0.000306  -0.000156  -0.000156  -0.000016
    4  O  1  Y    0.002278   0.000298   0.000234   0.000228   0.000060
    5  O  1  Z   -0.001431  -0.000478   0.000137   0.000260  -0.000033
    6  O  1  S   -0.048289   0.009344   0.001500  -0.003805   0.001182
    7  O  1  X   -0.009541   0.004292   0.000959  -0.001387   0.000932
    8  O  1  Y   -0.003538  -0.002152  -0.001014   0.000262  -0.000441
    9  O  1  Z    0.004395   0.000144  -0.000550  -0.000269   0.000201
   10  C  2  S    0.000310  -0.001934  -0.002447   0.986925   0.067093
   11  C  2  S    0.001568  -0.002248  -0.002607   0.113145   0.002701
   12  C  2  X    0.000058  -0.000275   0.001581   0.001463  -0.001530
   13  C  2  Y   -0.000477   0.001040   0.000255   0.001005  -0.000967
   14  C  2  Z    0.000469  -0.000112   0.000311   0.001742  -0.001895
   15  C  2  S   -0.007993   0.018779   0.024576  -0.124364   0.005514
   16  C  2  X    0.002455  -0.003575   0.014372  -0.008873   0.009388
   17  C  2  Y   -0.002969   0.015060   0.000191  -0.009415   0.010690
   18  C  2  Z   -0.006209   0.002371  -0.003584  -0.015901   0.019788
   19  C  3  S   -0.000100  -0.004820   0.988841   0.001455  -0.000678
   20  C  3  S   -0.000724  -0.002218   0.110750  -0.001737  -0.001817
   21  C  3  X    0.000211   0.001077  -0.000679  -0.002045   0.000406
   22  C  3  Y   -0.000828  -0.000946   0.000356  -0.000245   0.000887
   23  C  3  Z   -0.000193   0.000000   0.000816  -0.000224   0.001749
   24  C  3  S    0.001062   0.002725  -0.113337   0.019588   0.021911
   25  C  3  X   -0.001577  -0.003865   0.005141  -0.015682   0.001881
   26  C  3  Y    0.005413   0.006686  -0.002199  -0.002697   0.006044
   27  C  3  Z    0.002222   0.001951  -0.005701  -0.002920   0.012427
   28  C  4  S   -0.000036  -0.000586  -0.000188  -0.068767   0.986442
   29  C  4  S   -0.000262   0.000240  -0.002151  -0.012869   0.111099
   30  C  4  X    0.000177   0.000482  -0.000250   0.001328  -0.003185
   31  C  4  Y    0.000441  -0.000832  -0.000792   0.000656  -0.000850
   32  C  4  Z    0.000067   0.000362  -0.001555   0.000950  -0.001230
   33  C  4  S   -0.000813  -0.006501   0.024437   0.025817  -0.114093
   34  C  4  X   -0.002538   0.002672   0.000355  -0.015096   0.027812
   35  C  4  Y   -0.002180  -0.000380  -0.006226  -0.003357   0.006170
   36  C  4  Z    0.002544   0.003492  -0.012771  -0.003840   0.007967
   37  C  5  S   -0.000962   0.988353   0.004452   0.000679   0.001007
   38  C  5  S   -0.004020   0.106149  -0.000963  -0.003771   0.000927
   39  C  5  X   -0.001055   0.000903  -0.000523   0.000598  -0.000831
   40  C  5  Y    0.000535  -0.000984   0.000400  -0.001627   0.000382
   41  C  5  Z    0.000096   0.000656   0.000291  -0.000242  -0.000319
   42  C  5  S    0.024469  -0.095433   0.000633   0.037538  -0.014179
   43  C  5  X   -0.012113  -0.012673   0.001559   0.006680  -0.004282
   44  C  5  Y   -0.002215   0.008877   0.000386  -0.016764   0.003561
   45  C  5  Z    0.009380  -0.006562  -0.001604   0.001918  -0.004717
   46  C  6  S    0.000041  -0.005050  -0.006232  -0.001045  -0.004478
   47  C  6  S    0.000577  -0.003603  -0.002218  -0.003257  -0.000210
   48  C  6  X    0.000069  -0.000028  -0.000608   0.000425  -0.000731
   49  C  6  Y    0.000514  -0.001974  -0.000161   0.001249  -0.000767
   50  C  6  Z   -0.000150   0.000496   0.000673  -0.001556   0.000152
   51  C  6  S    0.001604   0.006379   0.002260   0.034759  -0.011663
   52  C  6  X    0.000362   0.001298   0.001158   0.005221  -0.004010
   53  C  6  Y   -0.000791   0.008125  -0.000342   0.009429  -0.004526
   54  C  6  Z   -0.002496  -0.000324  -0.001518  -0.012590   0.000816
   55  C  7  S    0.000258  -0.003675  -0.008866  -0.002893  -0.005099
   56  C  7  S    0.001232  -0.004272  -0.002361   0.000804  -0.003720
   57  C  7  X    0.000217  -0.000416  -0.000461   0.000267   0.000919
   58  C  7  Y    0.000061  -0.000099   0.000616   0.000859  -0.001769
   59  C  7  Z    0.000514  -0.000918   0.000429   0.000336  -0.000085
   60  C  7  S   -0.005432   0.030209   0.001651  -0.015367   0.036085
   61  C  7  X    0.005707  -0.011955   0.001123   0.000177   0.004062
   62  C  7  Y    0.001399  -0.009509  -0.000338   0.007715  -0.016174
   63  C  7  Z   -0.003093  -0.006947  -0.001159   0.001957   0.000466
   64  C  8  S   -0.000001   0.001284  -0.007066  -0.002543  -0.001911
   65  C  8  S   -0.000037   0.001330  -0.002100   0.000672  -0.003113
   66  C  8  X   -0.000062   0.000392  -0.000419   0.000332   0.000684
   67  C  8  Y   -0.000103   0.000407  -0.000002  -0.000375   0.001248
   68  C  8  Z    0.000012   0.000059   0.000809   0.000838  -0.001467
   69  C  8  S   -0.001085  -0.005195   0.001315  -0.014509   0.034402
   70  C  8  X   -0.001492   0.002033   0.001470   0.000102   0.002798
   71  C  8  Y   -0.000430  -0.002369  -0.001226  -0.002490   0.010235
   72  C  8  Z    0.000775   0.001877  -0.001033   0.007012  -0.012481
   73  C  9  S    0.000081  -0.002517  -0.004218  -0.001063  -0.008357
   74  C  9  S    0.000687  -0.001491  -0.000938  -0.001786  -0.002994
   75  C  9  X   -0.000040  -0.000097  -0.000896   0.000241  -0.000051
   76  C  9  Y    0.000335  -0.000818  -0.000243   0.000294   0.000173
   77  C  9  Z    0.000131  -0.000421  -0.000296   0.000528   0.000354
   78  C  9  S   -0.002271   0.002397  -0.001170   0.015274   0.016556
   79  C  9  X   -0.000943   0.000967  -0.000385   0.004624   0.005654
   80  C  9  Y   -0.001355   0.000560  -0.000381   0.003819   0.002970
   81  C  9  Z   -0.000075   0.000790  -0.000540   0.006858   0.005339
   82  C 10  S    0.000037  -0.000763  -0.001083  -0.007332  -0.013869
   83  C 10  S    0.000140  -0.000189  -0.002231  -0.001478  -0.002472
   84  C 10  X    0.000345   0.000498  -0.000312   0.000676   0.000210
   85  C 10  Y    0.000128  -0.000114  -0.000737   0.000254   0.000035
   86  C 10  Z   -0.000183  -0.000324   0.000838  -0.000387  -0.000817
   87  C 10  S   -0.002013  -0.001054   0.021849   0.000751   0.002149
   88  C 10  X   -0.000417  -0.000226  -0.005565   0.000337  -0.000647
   89  C 10  Y   -0.001569  -0.000051  -0.004576   0.000393   0.000018
   90  C 10  Z   -0.000507  -0.000483   0.009699   0.000784   0.000155
   91  C 11  S   -0.000042  -0.001852  -0.001098  -0.006422  -0.010629
   92  C 11  S   -0.000169  -0.001527  -0.002266  -0.001446  -0.002116
   93  C 11  X   -0.000195   0.000221  -0.000430   0.000733   0.000287
   94  C 11  Y    0.000122   0.000018   0.001073  -0.000384  -0.000622
   95  C 11  Z    0.000007   0.000036  -0.000027  -0.000066  -0.000488
   96  C 11  S    0.002946   0.006589   0.022114   0.000729   0.001800
   97  C 11  X   -0.000301  -0.002518  -0.006612   0.000248  -0.000826
   98  C 11  Y    0.001469   0.002462   0.009894   0.000269  -0.000098
   99  C 11  Z   -0.000301  -0.000276   0.002761   0.000637   0.000101
  100  H 12  S    0.000357  -0.000153  -0.001381   0.000280  -0.000291
  101  H 12  S    0.000909   0.000125  -0.000587   0.004673   0.006107
  102  H 13  S   -0.000906   0.000752  -0.000162  -0.001641   0.000304
  103  H 13  S   -0.000273   0.012783  -0.001746   0.000893  -0.000867
  104  H 14  S   -0.000411  -0.001106  -0.000079  -0.001768   0.000566
  105  H 14  S    0.001549  -0.000332   0.001554   0.000204  -0.000453
  106  H 15  S   -0.000164   0.000258  -0.000118  -0.001747   0.000292
  107  H 15  S   -0.001051   0.004068  -0.001524  -0.000057  -0.000204
  108  H 16  S    0.000900  -0.002218  -0.000089   0.000730  -0.001860
  109  H 16  S    0.002455   0.000300   0.001534  -0.000479  -0.001008
  110  H 17  S   -0.000153  -0.001220  -0.000019   0.000480  -0.001433
  111  H 17  S   -0.001366   0.001938  -0.001705  -0.000248   0.001266
  112  H 18  S   -0.000024   0.000702   0.000011   0.000500  -0.001700
  113  H 18  S   -0.000417  -0.000107   0.001691  -0.000565  -0.000424
  114  H 19  S    0.000145  -0.000067  -0.000094   0.000628  -0.001491
  115  H 19  S    0.000186  -0.000930  -0.002041   0.000039   0.001010
  116  H 20  S    0.000033  -0.000295  -0.000244  -0.001011  -0.000488
  117  H 20  S   -0.000054   0.000148   0.001485   0.000380   0.000604
  118  H 21  S    0.000097  -0.000273   0.000230  -0.001020  -0.000867
  119  H 21  S   -0.000594   0.000933  -0.000922   0.000143  -0.000441
  120  H 22  S    0.000240   0.000023   0.000203  -0.001033  -0.000865
  121  H 22  S    0.000683  -0.001248  -0.000826   0.000118  -0.000403
  122  H 23  S    0.000127   0.000063  -0.001120  -0.000354   0.000052
  123  H 23  S    0.000660   0.000480   0.000514   0.001115  -0.000665
  124  H 24  S    0.000012   0.000141  -0.001196   0.000233  -0.000256
  125  H 24  S   -0.000455  -0.000300   0.000740  -0.000605   0.000701
  126  H 25  S   -0.000247  -0.000000  -0.001459  -0.000025  -0.000047
  127  H 25  S    0.002300  -0.000230  -0.001104  -0.000759  -0.001219
  128  H 26  S   -0.000154  -0.000482  -0.001196   0.000234  -0.000248
  129  H 26  S    0.000023  -0.000403   0.000739  -0.000792   0.000686
  130  H 27  S   -0.000127  -0.000222  -0.001146  -0.000338   0.000051
  131  H 27  S   -0.000291   0.000505   0.000522   0.001135  -0.000436
  132  H 28  S   -0.000043  -0.000336  -0.001479  -0.000052  -0.000035
  133  H 28  S    0.000235  -0.000379  -0.001115  -0.000728  -0.001288
  134  H 29  S    0.003108   0.000055   0.000151   0.000302  -0.000061
  135  H 29  S    0.004592   0.002070   0.000573   0.001129   0.000374

                      6          7          8          9         10
                  -11.1572   -11.1533   -11.1525   -11.1500   -11.1472
                     A          A          A          A          A   
    1  O  1  S    0.000096   0.000006  -0.000026   0.000006   0.000042
    2  O  1  S    0.000503   0.000014  -0.000137   0.000024   0.000422
    3  O  1  X   -0.000035  -0.000041   0.000038  -0.000037   0.000062
    4  O  1  Y   -0.000035   0.000058  -0.000034   0.000005  -0.000211
    5  O  1  Z    0.000043   0.000006   0.000061   0.000025  -0.000185
    6  O  1  S   -0.003137  -0.000235   0.001090  -0.000204  -0.001343
    7  O  1  X   -0.002307   0.000019   0.000460  -0.000010  -0.000494
    8  O  1  Y    0.000118  -0.000225  -0.000127   0.000080   0.000924
    9  O  1  Z   -0.000328   0.000046  -0.000275  -0.000016   0.001056
   10  C  2  S    0.003246   0.007272   0.003854   0.007749   0.001083
   11  C  2  S    0.000596  -0.000007   0.000432  -0.000110  -0.000183
   12  C  2  X   -0.000062  -0.000595  -0.000212  -0.000837   0.000176
   13  C  2  Y   -0.000741  -0.000551  -0.000063   0.000907   0.000292
   14  C  2  Z   -0.000255   0.000891  -0.000729   0.000230   0.000256
   15  C  2  S   -0.006365   0.000334  -0.006487  -0.000658   0.009449
   16  C  2  X   -0.000968   0.002040  -0.002284   0.002450  -0.006460
   17  C  2  Y   -0.003293   0.000736   0.004623  -0.003828  -0.006154
   18  C  2  Z    0.001721  -0.003440  -0.000504  -0.002080  -0.014351
   19  C  3  S    0.008096  -0.000333   0.007157   0.000829   0.003213
   20  C  3  S   -0.000509  -0.000410  -0.000820  -0.000641  -0.000074
   21  C  3  X    0.000386   0.000133   0.000342   0.000167   0.000404
   22  C  3  Y   -0.001356  -0.000169   0.000444   0.000002   0.000274
   23  C  3  Z   -0.000363   0.000130  -0.001261  -0.000147   0.000881
   24  C  3  S    0.000196   0.010401   0.002000   0.012632   0.000195
   25  C  3  X   -0.004425   0.003331  -0.004301   0.004853  -0.001156
   26  C  3  Y    0.007256   0.009716  -0.002531  -0.010883  -0.000980
   27  C  3  Z    0.000581  -0.009635   0.004653   0.000486  -0.004379
   28  C  4  S    0.003552   0.012257   0.002019   0.011018   0.006681
   29  C  4  S   -0.000956   0.000535  -0.001161   0.000084  -0.000855
   30  C  4  X   -0.000536  -0.000218  -0.000595  -0.000402   0.000290
   31  C  4  Y    0.001028  -0.000393  -0.000857   0.000893  -0.000059
   32  C  4  Z   -0.000258   0.000844   0.000722   0.000338   0.000074
   33  C  4  S    0.015385  -0.002078   0.017108   0.000459   0.006529
   34  C  4  X   -0.004991   0.001505  -0.002469   0.001358  -0.003545
   35  C  4  Y    0.010735   0.002440  -0.007014  -0.002410  -0.001932
   36  C  4  Z   -0.001543  -0.003704   0.007348  -0.000668  -0.002383
   37  C  5  S    0.002339   0.000750  -0.000722   0.001516   0.001461
   38  C  5  S   -0.003578  -0.000205   0.001065  -0.001092  -0.000877
   39  C  5  X    0.000753  -0.000135  -0.000312  -0.000205   0.000462
   40  C  5  Y    0.000205   0.000080  -0.000197   0.000023   0.000434
   41  C  5  Z   -0.000102   0.000379  -0.000098   0.000011   0.001014
   42  C  5  S    0.029812   0.001180  -0.005917   0.005154   0.003695
   43  C  5  X    0.009625  -0.000306  -0.000346   0.001179  -0.001892
   44  C  5  Y    0.002044   0.000060   0.002582  -0.002367  -0.002521
   45  C  5  Z    0.011563   0.000015  -0.002337  -0.000524  -0.002449
   46  C  6  S    0.004047  -0.011924  -0.022423  -0.013623  -0.169386
   47  C  6  S    0.001518  -0.001997  -0.005462  -0.001695  -0.019286
   48  C  6  X   -0.000334  -0.000305   0.000622  -0.000149   0.000374
   49  C  6  Y   -0.000122  -0.000061   0.000039   0.000164   0.000144
   50  C  6  Z   -0.000301  -0.000031   0.000243   0.000254   0.000856
   51  C  6  S   -0.007358   0.002068   0.027935   0.002417   0.019492
   52  C  6  X   -0.001567  -0.000183   0.010670  -0.000489   0.000144
   53  C  6  Y   -0.003218   0.000157   0.006323   0.000140   0.001779
   54  C  6  Z   -0.000643  -0.002688   0.005796   0.000179  -0.002685
   55  C  7  S    0.985865   0.002148   0.064098   0.014628   0.005983
   56  C  7  S    0.105794   0.000440   0.003971   0.000494   0.000039
   57  C  7  X    0.000045  -0.000373   0.000266  -0.000019  -0.000145
   58  C  7  Y   -0.001198  -0.000151   0.001378   0.000145   0.000166
   59  C  7  Z   -0.000134   0.000340  -0.000734   0.000210  -0.000016
   60  C  7  S   -0.094219  -0.000934   0.001310   0.002006   0.000969
   61  C  7  X    0.003829   0.000598  -0.003060   0.001460  -0.001100
   62  C  7  Y    0.011347   0.001545  -0.006141  -0.001268   0.000051
   63  C  7  Z    0.003901  -0.000129   0.002425  -0.000545  -0.000665
   64  C  8  S   -0.064567  -0.115004   0.978586   0.026835   0.006188
   65  C  8  S   -0.009698  -0.013223   0.104196   0.002488   0.000744
   66  C  8  X    0.000525   0.000037   0.000073  -0.000379   0.000095
   67  C  8  Y   -0.001486   0.000009   0.000456   0.000189  -0.000083
   68  C  8  Z    0.000719   0.000337  -0.001007   0.000307   0.000287
   69  C  8  S    0.012509   0.013815  -0.090593  -0.001897  -0.004835
   70  C  8  X   -0.004187   0.001134   0.002978   0.000885   0.000835
   71  C  8  Y    0.005392   0.001050  -0.002065  -0.000544  -0.000161
   72  C  8  Z   -0.003918  -0.002835   0.010399   0.000134   0.001460
   73  C  9  S   -0.005366   0.003122  -0.010189   0.004273   0.972893
   74  C  9  S   -0.001241   0.000669  -0.001767   0.000753   0.100894
   75  C  9  X    0.000060  -0.000014   0.000043  -0.000098  -0.000002
   76  C  9  Y   -0.000268  -0.000191   0.000107   0.000059   0.000104
   77  C  9  Z    0.000031   0.000019  -0.000144  -0.000157   0.000237
   78  C  9  S    0.002804  -0.001819   0.003650  -0.002159  -0.082145
   79  C  9  X    0.000427  -0.001246   0.001125  -0.001231  -0.002569
   80  C  9  Y    0.002681   0.000023  -0.001075   0.000153  -0.002528
   81  C  9  Z    0.000170  -0.000168   0.002153  -0.000067  -0.004430
   82  C 10  S   -0.010471   0.978299   0.111649   0.071783  -0.004855
   83  C 10  S   -0.001081   0.101491   0.010423   0.005068  -0.000018
   84  C 10  X    0.000324   0.000169  -0.000049  -0.000323  -0.000112
   85  C 10  Y   -0.000180  -0.000330  -0.000201   0.001091   0.000123
   86  C 10  Z   -0.000515   0.000074  -0.000150  -0.000190  -0.000013
   87  C 10  S   -0.001015  -0.081483  -0.002946   0.000509  -0.001774
   88  C 10  X    0.000528   0.000729  -0.000404   0.001009   0.001676
   89  C 10  Y   -0.000029   0.003343  -0.000707  -0.004153   0.000807
   90  C 10  Z    0.000013  -0.003300   0.003087   0.000937  -0.000323
   91  C 11  S   -0.012449  -0.069214  -0.036177   0.984232  -0.006449
   92  C 11  S   -0.002484  -0.009478  -0.004278   0.101654  -0.000399
   93  C 11  X   -0.000110  -0.000288   0.000274   0.000051  -0.000147
   94  C 11  Y   -0.000015  -0.000848  -0.000368   0.000184  -0.000064
   95  C 11  Z   -0.000136   0.000817  -0.000393  -0.000160   0.000126
   96  C 11  S    0.007767   0.012261   0.003007  -0.080273  -0.000217
   97  C 11  X   -0.001052   0.000496   0.000542   0.001428   0.001386
   98  C 11  Y    0.003441   0.004015   0.000916  -0.003659  -0.000062
   99  C 11  Z    0.001118  -0.002546  -0.000069   0.000247   0.000626
  100  H 12  S   -0.000979  -0.000047  -0.001260  -0.000178  -0.000015
  101  H 12  S   -0.000051  -0.000468  -0.000640  -0.000689   0.001484
  102  H 13  S   -0.001262   0.000003  -0.000021  -0.000284  -0.000627
  103  H 13  S    0.001583  -0.001087  -0.000785  -0.000449  -0.001057
  104  H 14  S    0.000630   0.000001  -0.001538  -0.000300  -0.000374
  105  H 14  S    0.000086   0.000245   0.000036  -0.000169  -0.003458
  106  H 15  S    0.000061  -0.000102  -0.001349   0.000158  -0.000614
  107  H 15  S   -0.000508  -0.000572   0.000557  -0.001600  -0.002568
  108  H 16  S    0.001211  -0.000011  -0.000946  -0.000130  -0.000122
  109  H 16  S    0.013878   0.000370  -0.000502   0.000739   0.000154
  110  H 17  S    0.000736   0.000113   0.000225  -0.000234  -0.000140
  111  H 17  S    0.012475  -0.001842   0.004422  -0.000273   0.000228
  112  H 18  S   -0.000906  -0.000212   0.000841  -0.000047   0.000195
  113  H 18  S   -0.002517  -0.000984   0.012835   0.000855   0.000230
  114  H 19  S    0.000074  -0.000345   0.000830  -0.000020   0.000170
  115  H 19  S    0.002825  -0.001875   0.013319  -0.000978   0.000162
  116  H 20  S   -0.000298  -0.000044  -0.000299  -0.000082   0.000485
  117  H 20  S    0.000031  -0.000196   0.000174  -0.000041   0.014125
  118  H 21  S    0.000101   0.000226  -0.000386   0.000131   0.000309
  119  H 21  S    0.000733   0.000346  -0.000805   0.000278   0.014069
  120  H 22  S   -0.000394   0.000135   0.000026   0.000215   0.000374
  121  H 22  S   -0.000827  -0.000112   0.000440   0.000193   0.013929
  122  H 23  S    0.000240   0.000614  -0.000462  -0.000638  -0.000092
  123  H 23  S   -0.000564   0.014386   0.001508  -0.000552  -0.000474
  124  H 24  S    0.000079   0.000453  -0.000101  -0.000624   0.000345
  125  H 24  S    0.000326   0.014402   0.002218  -0.000631  -0.000304
  126  H 25  S   -0.000138  -0.000007  -0.000335  -0.000067   0.000265
  127  H 25  S    0.000451   0.014198   0.001243   0.003124  -0.000042
  128  H 26  S   -0.000216  -0.000729  -0.000067   0.000370   0.000191
  129  H 26  S    0.000244  -0.002516  -0.000167   0.014284  -0.000045
  130  H 27  S   -0.000572  -0.000691   0.000074   0.000423  -0.000158
  131  H 27  S   -0.000201  -0.002763  -0.001317   0.014139  -0.000526
  132  H 28  S   -0.000302  -0.000039  -0.000149  -0.000047   0.000287
  133  H 28  S   -0.000570   0.000961  -0.000083   0.014617  -0.000443
  134  H 29  S    0.000005   0.000062  -0.000036  -0.000065  -0.000125
  135  H 29  S   -0.000586   0.000084   0.000016   0.000381  -0.000220

                     11         12         13         14         15
                  -11.1463    -1.3437    -1.1692    -1.0239    -1.0164
                     A          A          A          A          A   
    1  O  1  S    0.000103  -0.219764   0.043273  -0.019172   0.011542
    2  O  1  S    0.000797   0.202265  -0.040041   0.017515  -0.011095
    3  O  1  X    0.000009   0.042430   0.011932  -0.018766   0.009583
    4  O  1  Y   -0.000169   0.054115  -0.022400   0.014032  -0.023782
    5  O  1  Z    0.000040  -0.024506  -0.000141  -0.000101  -0.010767
    6  O  1  S   -0.003329   0.695155  -0.147009   0.070957  -0.038778
    7  O  1  X   -0.001460   0.067449   0.001020  -0.012051   0.006453
    8  O  1  Y    0.001433   0.061658  -0.020079   0.013358  -0.023277
    9  O  1  Z   -0.000138  -0.037720   0.004388  -0.002035  -0.008719
   10  C  2  S    0.000900  -0.020364  -0.099901   0.000581  -0.119747
   11  C  2  S   -0.001010   0.015554   0.090795   0.002656   0.095808
   12  C  2  X    0.000027  -0.005603   0.029060   0.032247  -0.052257
   13  C  2  Y   -0.000425   0.014604   0.011070  -0.012450  -0.029471
   14  C  2  Z    0.000989   0.004284   0.019514  -0.044562  -0.026929
   15  C  2  S    0.015229   0.046681   0.242139  -0.024262   0.364706
   16  C  2  X   -0.003012  -0.012561   0.019395  -0.020748   0.021054
   17  C  2  Y   -0.010131   0.001560   0.018466   0.000921   0.023748
   18  C  2  Z    0.006502   0.019251   0.028652   0.001592   0.034010
   19  C  3  S    0.006666  -0.005984  -0.104158  -0.106468   0.028514
   20  C  3  S   -0.001051   0.008233   0.098157   0.085080  -0.021748
   21  C  3  X    0.000876  -0.005414  -0.024736   0.043211  -0.053921
   22  C  3  Y    0.000625   0.004145   0.010085  -0.022480  -0.025202
   23  C  3  Z   -0.000727   0.002505   0.024772  -0.060157  -0.023236
   24  C  3  S    0.002091   0.011358   0.219323   0.329545  -0.092084
   25  C  3  X   -0.003216   0.005973   0.011609  -0.012769   0.010698
   26  C  3  Y   -0.002543  -0.018601   0.001532   0.007098   0.001434
   27  C  3  Z    0.005522  -0.008085  -0.003501   0.015083   0.006296
   28  C  4  S    0.006210  -0.006798  -0.096597   0.040749   0.094556
   29  C  4  S   -0.000077   0.007641   0.089793  -0.029406  -0.075581
   30  C  4  X    0.000584  -0.005963  -0.033513   0.037707   0.005168
   31  C  4  Y    0.000715   0.000315  -0.013994  -0.016363  -0.015752
   32  C  4  Z   -0.000278  -0.002150  -0.023817  -0.047715   0.000661
   33  C  4  S   -0.002379   0.017326   0.217935  -0.140533  -0.286428
   34  C  4  X   -0.001059   0.004499  -0.048697   0.028333   0.050373
   35  C  4  Y    0.002068   0.005250  -0.009082   0.011911   0.009849
   36  C  4  Z    0.001181  -0.009491  -0.009991   0.021122   0.012743
   37  C  5  S    0.004606  -0.077212  -0.049273   0.034231  -0.019936
   38  C  5  S   -0.003077   0.082353   0.056086  -0.031845   0.024531
   39  C  5  X   -0.000153  -0.066383   0.049958  -0.024432  -0.018864
   40  C  5  Y    0.001494   0.006777  -0.032894  -0.001066  -0.056722
   41  C  5  Z   -0.001110   0.031774   0.002007  -0.021741  -0.033472
   42  C  5  S    0.009381   0.118339   0.082706  -0.093437   0.020084
   43  C  5  X    0.001196   0.027069   0.010124  -0.009819  -0.003851
   44  C  5  Y   -0.006667   0.005460   0.008153   0.005791   0.014316
   45  C  5  Z    0.006356  -0.014587  -0.002699  -0.000460  -0.009503
   46  C  6  S    0.972981  -0.007412  -0.064108   0.055591  -0.061728
   47  C  6  S    0.103568   0.008731   0.068688  -0.050671   0.060825
   48  C  6  X    0.000805  -0.000458   0.025859  -0.013230  -0.016637
   49  C  6  Y    0.000844   0.004492   0.025518  -0.016721   0.004048
   50  C  6  Z   -0.000442  -0.002860  -0.017323  -0.016994  -0.043905
   51  C  6  S   -0.089143  -0.002512   0.117830  -0.150444   0.135083
   52  C  6  X   -0.007470   0.003513   0.003058  -0.001476  -0.003412
   53  C  6  Y   -0.006796   0.002507  -0.007798  -0.005012  -0.011752
   54  C  6  Z    0.002330   0.006233   0.005756   0.004150   0.004989
   55  C  7  S   -0.001060  -0.017590  -0.063311   0.064991   0.072802
   56  C  7  S    0.000710   0.016499   0.067617  -0.061047  -0.069068
   57  C  7  X    0.000418  -0.013842   0.003754   0.007081  -0.024389
   58  C  7  Y    0.000170  -0.005671  -0.038856   0.017699   0.016637
   59  C  7  Z    0.000294  -0.006849  -0.011835  -0.006033  -0.008646
   60  C  7  S   -0.005475   0.025057   0.115767  -0.165350  -0.175160
   61  C  7  X    0.001278  -0.011988   0.002890  -0.001387   0.003789
   62  C  7  Y    0.003089  -0.000363   0.004541   0.000041  -0.009522
   63  C  7  Z   -0.000724   0.013339  -0.006622  -0.000959   0.006148
   64  C  8  S    0.021688  -0.003972  -0.064762   0.074194   0.030657
   65  C  8  S   -0.000634   0.004486   0.068415  -0.069162  -0.031701
   66  C  8  X   -0.000509  -0.001557  -0.003340   0.012924  -0.030961
   67  C  8  Y   -0.000495   0.001886   0.014029  -0.012172  -0.029354
   68  C  8  Z   -0.000509  -0.003169  -0.037548   0.011838   0.002857
   69  C  8  S    0.022039   0.009399   0.117372  -0.187261  -0.056809
   70  C  8  X   -0.010000   0.004660   0.000679  -0.001534  -0.001006
   71  C  8  Y   -0.002480   0.000980  -0.005287  -0.002311   0.009711
   72  C  8  Z   -0.008094  -0.001255  -0.000494   0.003739  -0.012261
   73  C  9  S    0.168963  -0.004699  -0.032146  -0.015478  -0.125007
   74  C  9  S    0.016443   0.005100   0.034993   0.012989   0.120447
   75  C  9  X   -0.000138   0.001031   0.014846   0.009282   0.017368
   76  C  9  Y    0.000175   0.002489   0.010274   0.000948   0.016596
   77  C  9  Z   -0.000791   0.003383   0.018867  -0.002116   0.035153
   78  C  9  S   -0.013190   0.006336   0.069538   0.049418   0.346355
   79  C  9  X   -0.000588   0.003782  -0.002573   0.012255   0.004475
   80  C  9  Y   -0.000407   0.004186  -0.001300   0.001603   0.006255
   81  C  9  Z   -0.000346  -0.002100   0.000083   0.000842   0.012891
   82  C 10  S    0.014355  -0.001739  -0.039561  -0.109656   0.032301
   83  C 10  S    0.000300   0.001977   0.045152   0.107487  -0.032240
   84  C 10  X    0.000164  -0.002121  -0.013295  -0.006068  -0.004951
   85  C 10  Y    0.000060  -0.000430  -0.012174  -0.029574   0.001323
   86  C 10  Z   -0.000011   0.001825   0.023719   0.021417  -0.013489
   87  C 10  S    0.004594   0.006828   0.067492   0.284754  -0.082636
   88  C 10  X   -0.001628   0.001844   0.003852   0.002956  -0.008304
   89  C 10  Y   -0.001785   0.004764   0.003660  -0.008266  -0.001983
   90  C 10  Z    0.001810   0.000490  -0.010095  -0.000585  -0.003155
   91  C 11  S    0.011013  -0.000793  -0.039316  -0.103764   0.020199
   92  C 11  S    0.001125   0.002764   0.044652   0.102158  -0.021166
   93  C 11  X    0.000429  -0.000661  -0.015861  -0.009605  -0.006840
   94  C 11  Y   -0.000173   0.000715   0.024647   0.034792  -0.011817
   95  C 11  Z   -0.000283   0.000249   0.005866  -0.010719  -0.003483
   96  C 11  S   -0.002084  -0.011896   0.068805   0.266528  -0.046032
   97  C 11  X    0.000108   0.003951   0.004262   0.002454  -0.009661
   98  C 11  Y    0.000121  -0.007121  -0.008834   0.004475  -0.000903
   99  C 11  Z   -0.000313   0.000650  -0.003282  -0.007896  -0.002349
  100  H 12  S   -0.000027   0.000987   0.034047  -0.013886  -0.049461
  101  H 12  S    0.001269  -0.003907   0.008250  -0.004376  -0.025527
  102  H 13  S    0.000092   0.024074   0.020035  -0.010525   0.013800
  103  H 13  S    0.003931  -0.007205  -0.006846   0.010171  -0.002709
  104  H 14  S    0.000716   0.004507   0.023893  -0.027991   0.033652
  105  H 14  S    0.013177   0.009621  -0.008887  -0.000191   0.001354
  106  H 15  S    0.000677   0.002661   0.024458  -0.021858   0.034944
  107  H 15  S    0.013126   0.001868  -0.007037   0.007692   0.001704
  108  H 16  S    0.000635   0.005463   0.024149  -0.035975  -0.037971
  109  H 16  S   -0.000062  -0.004855  -0.003762  -0.005735  -0.004126
  110  H 17  S   -0.000091   0.006036   0.023592  -0.027153  -0.037666
  111  H 17  S   -0.000562   0.001532  -0.007067   0.008122  -0.002534
  112  H 18  S   -0.001528   0.001502   0.024238  -0.039264  -0.018377
  113  H 18  S    0.000475   0.000428  -0.003264  -0.007836  -0.002693
  114  H 19  S   -0.001228   0.000582   0.024274  -0.031321  -0.015507
  115  H 19  S    0.001385  -0.001899  -0.005777   0.006936   0.001776
  116  H 20  S   -0.000047   0.001855   0.012956   0.004725   0.062408
  117  H 20  S    0.001742   0.005617  -0.007513   0.000265   0.001409
  118  H 21  S    0.000108   0.001363   0.013381   0.008577   0.061141
  119  H 21  S    0.001296   0.001072  -0.000899   0.001942   0.003421
  120  H 22  S   -0.000128   0.001399   0.013380   0.009513   0.059958
  121  H 22  S    0.003364  -0.002167  -0.000101   0.003089   0.001611
  122  H 23  S   -0.000267   0.000244   0.016675   0.057206  -0.019170
  123  H 23  S    0.000588  -0.002515  -0.003844   0.004100  -0.003952
  124  H 24  S   -0.000386   0.000492   0.016303   0.057989  -0.013203
  125  H 24  S   -0.000138   0.001121  -0.004504   0.005201   0.004269
  126  H 25  S   -0.000239   0.002001   0.019528   0.049348  -0.017886
  127  H 25  S   -0.000093  -0.005753   0.002048  -0.000918  -0.001590
  128  H 26  S    0.000168   0.001004   0.016087   0.055470  -0.008184
  129  H 26  S    0.000024  -0.000082  -0.004471   0.004899   0.003515
  130  H 27  S    0.000027   0.000708   0.016447   0.054002  -0.014033
  131  H 27  S    0.000489  -0.000225  -0.003774   0.004155  -0.003975
  132  H 28  S   -0.000047   0.000919   0.019389   0.044977  -0.008062
  133  H 28  S    0.000513  -0.000558   0.001517  -0.002461   0.001044
  134  H 29  S   -0.000114   0.104690  -0.031125   0.019433  -0.019150
  135  H 29  S   -0.000108   0.019546  -0.013536   0.008579  -0.010227

                     16         17         18         19         20
                   -0.9951    -0.9182    -0.9007    -0.8571    -0.8202
                     A          A          A          A          A   
    1  O  1  S   -0.039766  -0.008379  -0.026291   0.014297   0.026168
    2  O  1  S    0.036058   0.007431   0.023689  -0.013983  -0.023258
    3  O  1  X   -0.043363  -0.014383  -0.054771   0.027977   0.080529
    4  O  1  Y    0.023887   0.002902   0.039180  -0.001478  -0.050171
    5  O  1  Z    0.013802   0.003417   0.016091   0.001343  -0.061308
    6  O  1  S    0.151389   0.033939   0.104410  -0.052883  -0.113870
    7  O  1  X   -0.026613  -0.010194  -0.041551   0.025878   0.063584
    8  O  1  Y    0.017639   0.001888   0.032687  -0.004030  -0.040615
    9  O  1  Z    0.010016   0.002904   0.010525   0.001770  -0.056200
   10  C  2  S    0.023277   0.000528   0.031166   0.062013   0.008397
   11  C  2  S   -0.019093  -0.000999  -0.021107  -0.048892  -0.006167
   12  C  2  X    0.014434  -0.001111  -0.019172  -0.072749  -0.019597
   13  C  2  Y   -0.064570   0.000210  -0.051264  -0.031607   0.099936
   14  C  2  Z    0.041479   0.012630  -0.092580  -0.013666  -0.050099
   15  C  2  S   -0.074452  -0.002010  -0.117511  -0.211524  -0.024973
   16  C  2  X   -0.009053  -0.000269  -0.024771  -0.031929  -0.001129
   17  C  2  Y   -0.009800  -0.000983  -0.027478  -0.020651   0.028790
   18  C  2  Z    0.000565   0.004510  -0.051856  -0.027476  -0.021359
   19  C  3  S   -0.010688   0.002791   0.000699   0.082979   0.017001
   20  C  3  S    0.007773  -0.002470  -0.001784  -0.063918  -0.011640
   21  C  3  X    0.019570  -0.005278   0.019818   0.065086   0.007035
   22  C  3  Y   -0.049382   0.095301   0.022577  -0.034434  -0.003317
   23  C  3  Z    0.024681  -0.049768   0.025483  -0.075698  -0.009836
   24  C  3  S    0.037655  -0.007613  -0.001802  -0.281495  -0.067352
   25  C  3  X   -0.002959  -0.001358  -0.002391   0.037527   0.011503
   26  C  3  Y   -0.005792   0.025277   0.006770  -0.022887  -0.005816
   27  C  3  Z    0.002259  -0.012200   0.006732  -0.042971  -0.010091
   28  C  4  S   -0.013042   0.008140  -0.092706   0.062066   0.006073
   29  C  4  S    0.011097  -0.006565   0.077355  -0.049091  -0.005300
   30  C  4  X    0.007838  -0.000235   0.018904  -0.015411   0.004468
   31  C  4  Y   -0.073935  -0.008802   0.006666   0.044665  -0.076902
   32  C  4  Z    0.034441   0.003810   0.026621   0.065614   0.054907
   33  C  4  S    0.037928  -0.026884   0.300322  -0.218357  -0.019261
   34  C  4  X   -0.003729   0.002923  -0.018697   0.029027   0.000480
   35  C  4  Y   -0.004672  -0.001718  -0.000766   0.017780  -0.021815
   36  C  4  Z    0.001807   0.001922   0.005109   0.023875   0.012477
   37  C  5  S    0.099579   0.021158   0.080005  -0.019244  -0.103930
   38  C  5  S   -0.094006  -0.021216  -0.074950   0.017632   0.087415
   39  C  5  X   -0.055486  -0.011487  -0.015389   0.007275  -0.035400
   40  C  5  Y   -0.008613  -0.012235   0.018158   0.068284  -0.009773
   41  C  5  Z    0.004643  -0.009459   0.002807   0.025988  -0.075917
   42  C  5  S   -0.264374  -0.053081  -0.234664   0.057990   0.394125
   43  C  5  X   -0.035269  -0.002552  -0.020736   0.006357   0.024425
   44  C  5  Y    0.005430  -0.005862  -0.001032   0.023604  -0.009209
   45  C  5  Z    0.008164  -0.003285   0.010402   0.001787  -0.027766
   46  C  6  S   -0.093012  -0.041041   0.078371  -0.049277   0.091421
   47  C  6  S    0.083359   0.038217  -0.070410   0.041068  -0.075059
   48  C  6  X    0.032600   0.001845   0.012558  -0.013785   0.047627
   49  C  6  Y   -0.003467   0.002419  -0.007865  -0.026652   0.034749
   50  C  6  Z    0.026983   0.017078   0.010450   0.052204   0.047242
   51  C  6  S    0.252940   0.114145  -0.234680   0.172659  -0.339977
   52  C  6  X    0.016903  -0.003857   0.003354  -0.002394  -0.002064
   53  C  6  Y    0.012056   0.002579   0.005172  -0.004265  -0.004193
   54  C  6  Z   -0.010339   0.005752  -0.001157   0.009737   0.019156
   55  C  7  S    0.103544   0.038102  -0.011997  -0.084229   0.082146
   56  C  7  S   -0.093690  -0.035487   0.011987   0.071282  -0.064257
   57  C  7  X    0.023401   0.009131   0.059224  -0.031622  -0.050276
   58  C  7  Y   -0.000193  -0.003724  -0.011484   0.057776  -0.030743
   59  C  7  Z    0.033352   0.000158   0.036921   0.014586  -0.032713
   60  C  7  S   -0.289713  -0.109047   0.024037   0.300199  -0.325150
   61  C  7  X   -0.002893   0.005793   0.012907  -0.013331  -0.002133
   62  C  7  Y    0.015613  -0.003326   0.008627   0.007974   0.008498
   63  C  7  Z    0.010729  -0.003935   0.007001   0.005414   0.002139
   64  C  8  S   -0.110890  -0.035748  -0.031200  -0.052925  -0.105401
   65  C  8  S    0.100988   0.032819   0.030129   0.045755   0.086217
   66  C  8  X   -0.012850  -0.018769   0.055389  -0.034951   0.052670
   67  C  8  Y   -0.019321  -0.009295   0.039406  -0.025761   0.003608
   68  C  8  Z   -0.018527   0.003333   0.008637   0.043410   0.052762
   69  C  8  S    0.301566   0.103410   0.080698   0.183167   0.394231
   70  C  8  X    0.000290  -0.007283   0.015820  -0.009392   0.010966
   71  C  8  Y    0.000630   0.000278   0.001972  -0.001027   0.007839
   72  C  8  Z   -0.018166   0.001973   0.011771   0.009330  -0.001461
   73  C  9  S    0.027501   0.014812  -0.144627  -0.051998  -0.002991
   74  C  9  S   -0.026324  -0.013733   0.135036   0.047504   0.002275
   75  C  9  X   -0.002776  -0.000702  -0.011558  -0.022853  -0.004846
   76  C  9  Y   -0.014566   0.002578  -0.014410  -0.017511   0.027792
   77  C  9  Z   -0.000373   0.000968  -0.027724  -0.021622  -0.016768
   78  C  9  S   -0.077833  -0.045343   0.438166   0.171071   0.012036
   79  C  9  X    0.001854   0.000546  -0.006961  -0.006165  -0.005208
   80  C  9  Y   -0.001810   0.002199  -0.006679  -0.007739   0.019396
   81  C  9  Z   -0.001871  -0.000052  -0.014157  -0.008773  -0.009637
   82  C 10  S    0.025910  -0.146965   0.005840  -0.066600  -0.005033
   83  C 10  S   -0.022678   0.134177  -0.006338   0.059192   0.004563
   84  C 10  X    0.010188   0.002277   0.003147   0.027619  -0.002216
   85  C 10  Y   -0.010009   0.021845   0.001658   0.015553   0.002771
   86  C 10  Z   -0.003266  -0.015005   0.004571  -0.046832  -0.011338
   87  C 10  S   -0.086548   0.454919  -0.016528   0.230759   0.020599
   88  C 10  X    0.005654   0.003239  -0.001715   0.005159  -0.004854
   89  C 10  Y    0.001273   0.001274  -0.001052   0.007131   0.001247
   90  C 10  Z   -0.005600  -0.004877   0.004172  -0.012235  -0.006323
   91  C 11  S   -0.051908   0.140084   0.032193  -0.070785  -0.013379
   92  C 11  S    0.048161  -0.128054  -0.030382   0.063289   0.011949
   93  C 11  X   -0.006677  -0.003020   0.000718   0.030254   0.012502
   94  C 11  Y    0.003966   0.020776   0.008038  -0.043625  -0.009808
   95  C 11  Z    0.010201  -0.008177   0.003834  -0.019372   0.000574
   96  C 11  S    0.154805  -0.431306  -0.097029   0.240880   0.045270
   97  C 11  X   -0.001700  -0.003344  -0.003067   0.006003   0.007001
   98  C 11  Y    0.006290   0.002734   0.005376  -0.014783  -0.003603
   99  C 11  Z    0.002673   0.002199   0.002788  -0.004243   0.003829
  100  H 12  S    0.007584  -0.005073   0.067379  -0.031587  -0.002251
  101  H 12  S    0.003399  -0.002348   0.028574  -0.015752   0.000364
  102  H 13  S   -0.059756  -0.009833  -0.045145   0.020051   0.098057
  103  H 13  S   -0.007948   0.002891  -0.000600   0.008059   0.040961
  104  H 14  S    0.041676   0.026067  -0.050835   0.042241  -0.062941
  105  H 14  S    0.006603   0.004308  -0.003144   0.014109  -0.025924
  106  H 15  S    0.050796   0.020486  -0.042477   0.041148  -0.076023
  107  H 15  S    0.012801   0.000036  -0.003250   0.018136  -0.034439
  108  H 16  S   -0.047170  -0.024014   0.011985   0.072533  -0.059850
  109  H 16  S    0.000613  -0.002074   0.007182   0.027029  -0.025053
  110  H 17  S   -0.058130  -0.020534   0.009015   0.065274  -0.067856
  111  H 17  S   -0.011976  -0.000567   0.000180   0.025956  -0.032014
  112  H 18  S    0.051960   0.022584   0.023030   0.050639   0.078744
  113  H 18  S    0.002971   0.003498   0.005311   0.022885   0.028594
  114  H 19  S    0.061257   0.017795   0.021264   0.039511   0.087777
  115  H 19  S    0.012248   0.000218   0.001842   0.014862   0.039673
  116  H 20  S   -0.014020  -0.008138   0.087625   0.040313   0.003176
  117  H 20  S    0.002704   0.000240   0.016999   0.013938  -0.001856
  118  H 21  S   -0.009518  -0.011241   0.092005   0.039861  -0.011002
  119  H 21  S    0.005476  -0.004110   0.020217   0.014168  -0.008322
  120  H 22  S   -0.018175  -0.007047   0.092595   0.036133   0.015826
  121  H 22  S   -0.007739   0.000641   0.020675   0.011750   0.011274
  122  H 23  S   -0.009370   0.085531  -0.002385   0.053233   0.002324
  123  H 23  S    0.001808   0.012750   0.002635   0.021602   0.000132
  124  H 24  S   -0.011055   0.085915  -0.004742   0.055636   0.007841
  125  H 24  S    0.000107   0.012424  -0.000089   0.024063   0.004887
[...]
              1  O  1  S      1.98607     1.98017
              2  O  1  S      0.41173     0.56830
              3  O  1  X      0.63770     0.63328
              4  O  1  Y      0.63837     0.62191
              5  O  1  Z      0.82302     0.83315
              6  O  1  S      1.51550     1.02973
              7  O  1  X      0.83686     0.86655
              8  O  1  Y      0.80701     0.82718
              9  O  1  Z      1.02843     1.03332
             10  C  2  S      1.99228     1.97619
             11  C  2  S      0.31863     0.41556
             12  C  2  X      0.50903     0.51187
             13  C  2  Y      0.51670     0.51628
             14  C  2  Z      0.52627     0.52470
             15  C  2  S      1.13901     0.54124
             16  C  2  X      0.37395     0.50787
             17  C  2  Y      0.36095     0.51602
             18  C  2  Z      0.43934     0.52951
             19  C  3  S      1.99146     1.97614
             20  C  3  S      0.31999     0.41164
             21  C  3  X      0.50840     0.51265
             22  C  3  Y      0.51539     0.51035
             23  C  3  Z      0.51460     0.51453
             24  C  3  S      1.10330     0.54247
             25  C  3  X      0.37393     0.51762
             26  C  3  Y      0.42220     0.53080
             27  C  3  Z      0.37574     0.51649
             28  C  4  S      1.99172     1.97637
             29  C  4  S      0.32458     0.41767
             30  C  4  X      0.53415     0.51998
             31  C  4  Y      0.51652     0.50907
             32  C  4  Z      0.51332     0.51003
             33  C  4  S      1.14696     0.55255
             34  C  4  X      0.54078     0.55952
             35  C  4  Y      0.35041     0.51817
             36  C  4  Z      0.35184     0.51555
             37  C  5  S      1.98997     1.97570
             38  C  5  S      0.35190     0.42045
             39  C  5  X      0.44348     0.43472
             40  C  5  Y      0.55268     0.54598
             41  C  5  Z      0.52600     0.50053
             42  C  5  S      0.95457     0.54858
             43  C  5  X      0.19847     0.41830
             44  C  5  Y      0.39811     0.52867
             45  C  5  Z      0.40748     0.52315
             46  C  6  S      1.98955     1.97632
             47  C  6  S      0.34140     0.41452
             48  C  6  X      0.54274     0.52386
             49  C  6  Y      0.53502     0.51294
             50  C  6  Z      0.50917     0.50083
             51  C  6  S      1.08718     0.56376
             52  C  6  X      0.49634     0.56832
             53  C  6  Y      0.48849     0.56704
             54  C  6  Z      0.36618     0.52821
             55  C  7  S      1.98980     1.97644
             56  C  7  S      0.34180     0.42021
             57  C  7  X      0.52858     0.51409
             58  C  7  Y      0.53379     0.51909
             59  C  7  Z      0.53477     0.51365
             60  C  7  S      1.09660     0.56918
             61  C  7  X      0.42637     0.55095
             62  C  7  Y      0.42536     0.54845
             63  C  7  Z      0.52579     0.57804
             64  C  8  S      1.98955     1.97635
             65  C  8  S      0.34194     0.41427
             66  C  8  X      0.52054     0.50195
             67  C  8  Y      0.53298     0.51541
             68  C  8  Z      0.53328     0.51464
             69  C  8  S      1.08829     0.56464
             70  C  8  X      0.44295     0.55758
             71  C  8  Y      0.47622     0.56002
             72  C  8  Z      0.44459     0.55304
             73  C  9  S      1.98839     1.97634
             74  C  9  S      0.35288     0.41296
             75  C  9  X      0.54330     0.51506
             76  C  9  Y      0.53794     0.50861
             77  C  9  Z      0.53335     0.51019
             78  C  9  S      1.12154     0.57435
             79  C  9  X      0.52276     0.59412
             80  C  9  Y      0.51932     0.58981
             81  C  9  Z      0.43655     0.56120
             82  C 10  S      1.98840     1.97642
             83  C 10  S      0.35139     0.41566
             84  C 10  X      0.53618     0.50677
             85  C 10  Y      0.53916     0.51361
             86  C 10  Z      0.53206     0.51050
             87  C 10  S      1.11092     0.57738
             88  C 10  X      0.53171     0.59793
             89  C 10  Y      0.50170     0.57945
             90  C 10  Z      0.44794     0.56837
             91  C 11  S      1.98841     1.97642
             92  C 11  S      0.35170     0.41548
             93  C 11  X      0.53437     0.50591
             94  C 11  Y      0.53161     0.51432
             95  C 11  Z      0.54223     0.51147
             96  C 11  S      1.10968     0.57680
             97  C 11  X      0.51223     0.59049
             98  C 11  Y      0.40933     0.55066
             99  C 11  Z      0.55515     0.60133
            100  H 12  S      0.46851     0.47951
            101  H 12  S      0.33224     0.44128
            102  H 13  S      0.48228     0.49979
            103  H 13  S      0.32388     0.44229
            104  H 14  S      0.46366     0.47233
            105  H 14  S      0.28747     0.42377
            106  H 15  S      0.46980     0.48086
            107  H 15  S      0.33076     0.44093
            108  H 16  S      0.46465     0.47417
            109  H 16  S      0.31773     0.43690
            110  H 17  S      0.46936     0.47952
            111  H 17  S      0.32741     0.43932
            112  H 18  S      0.46859     0.47882
            113  H 18  S      0.32495     0.43854
            114  H 19  S      0.47015     0.48107
            115  H 19  S      0.32556     0.43871
            116  H 20  S      0.46392     0.46655
            117  H 20  S      0.31765     0.43509
            118  H 21  S      0.46745     0.47040
            119  H 21  S      0.33742     0.44449
            120  H 22  S      0.46786     0.47114
            121  H 22  S      0.34371     0.44763
            122  H 23  S      0.46608     0.47014
            123  H 23  S      0.33572     0.44297
            124  H 24  S      0.46681     0.47045
            125  H 24  S      0.33368     0.44283
            126  H 25  S      0.47187     0.47492
            127  H 25  S      0.33270     0.44267
            128  H 26  S      0.46716     0.47095
            129  H 26  S      0.33565     0.44337
            130  H 27  S      0.46645     0.47035
            131  H 27  S      0.33915     0.44463
            132  H 28  S      0.47034     0.47309
            133  H 28  S      0.32239     0.43778
            134  H 29  S      0.43203     0.44632
            135  H 29  S      0.19665     0.31049

          ----- MULLIKEN ATOMIC OVERLAP POPULATIONS -----
          (OFF-DIAGONAL ELEMENTS NEED TO BE MULTIPLIED BY 2)

             1           2           3           4           5

    1    8.2960818
    2   -0.0451893   5.9828415
    3    0.0014854   0.2095168   5.8737597
    4    0.0018319  -0.2122108   0.2357740   5.7467840
    5    0.2272926   0.2293947  -0.1143212  -0.0534548   5.2279648
    6   -0.0016294   0.2448806  -0.1029255  -0.0695014  -0.1052923
    7   -0.0461240  -0.0763929  -0.1000733   0.2217741   0.1957900
    8   -0.0002088  -0.0635938  -0.1115369   0.2459987   0.0153530
    9    0.0010569   0.2813375  -0.0459191   0.0030918  -0.0643374
   10    0.0000235  -0.0565969   0.2769618  -0.0613617  -0.0036922
   11   -0.0000069  -0.0578896   0.2803013  -0.0585819   0.0034555
   12   -0.0000118   0.0037174  -0.0303416   0.4112263   0.0024004
   13   -0.0373753  -0.0529920   0.0013024   0.0053670   0.3915910
   14    0.0125323  -0.0412627   0.0043890   0.0023174  -0.0073135
   15    0.0001130  -0.0475011   0.0000591   0.0042508   0.0038590
   16    0.0015101   0.0015280   0.0047497  -0.0344120  -0.0396718
   17    0.0012853   0.0047753  -0.0011664  -0.0365619  -0.0362655
   18    0.0000301   0.0024981   0.0044340  -0.0407589   0.0003312
   19    0.0000001   0.0041216  -0.0006166  -0.0414588  -0.0002992
   20    0.0034016  -0.0477315   0.0033067  -0.0001694  -0.0026375
   21   -0.0000104  -0.0456470  -0.0025350   0.0000347   0.0033950
   22   -0.0000585  -0.0467871  -0.0025891   0.0000397  -0.0011281
   23   -0.0000000   0.0032789  -0.0463723  -0.0020308  -0.0000656
   24   -0.0000005  -0.0026472  -0.0451380   0.0033018   0.0001544
   25   -0.0000029  -0.0009266  -0.0372717  -0.0012114  -0.0015533
   26   -0.0000000  -0.0025602  -0.0459309   0.0032337   0.0000013
   27    0.0000000   0.0034329  -0.0474461  -0.0021539  -0.0000789
   28   -0.0000000  -0.0014212  -0.0366042  -0.0008486  -0.0000047
   29    0.2686504   0.0061934  -0.0002339  -0.0000213  -0.0482094

             6           7           8           9          10

    6    5.4966188
    7    0.0097183   5.6375348
    8    0.2330034  -0.1151575   5.4810701
    9   -0.0585024   0.0042792   0.0033488   5.2930636
   10    0.0034687  -0.0050188   0.0039390   0.0006346   5.3421049
   11   -0.0050009   0.0039586  -0.0049860   0.0006326  -0.0999646
   12    0.0026050  -0.0277359  -0.0277196  -0.0000217  -0.0001232
   13    0.0042873  -0.0573297  -0.0003882  -0.0043789  -0.0005354
   14    0.3863754   0.0007667  -0.0326766   0.0004646  -0.0000430
   15    0.3938461  -0.0004172  -0.0395012  -0.0024193  -0.0000320
   16    0.0003722   0.3794481  -0.0048456  -0.0000570   0.0000583
   17   -0.0001755   0.3809395   0.0034464  -0.0000893   0.0001157
   18   -0.0362066  -0.0047568   0.3931326  -0.0000370  -0.0000469
   19   -0.0383860   0.0036591   0.3938602  -0.0000723  -0.0000362
   20   -0.0012623   0.0001281   0.0000021   0.3816329  -0.0000530
   21   -0.0014350  -0.0000924   0.0000127   0.3818140   0.0000911
   22    0.0031443  -0.0000259  -0.0001007   0.3794707   0.0005018
   23   -0.0000703   0.0002153  -0.0000139  -0.0000274   0.3796295
   24    0.0000125  -0.0000645  -0.0000897   0.0005666   0.3790128
   25   -0.0000106  -0.0019187  -0.0000136   0.0000253   0.3806001
   26    0.0001963  -0.0000933  -0.0000192   0.0005542  -0.0018624
   27   -0.0000529   0.0000022   0.0001964  -0.0000192  -0.0014274
   28   -0.0019616  -0.0000190  -0.0021700   0.0000515   0.0031138
   29   -0.0000367  -0.0001263  -0.0000078  -0.0001063   0.0000056

            11          12          13          14          15

   11    5.3314025
   12   -0.0001920   0.4702680
   13   -0.0000558  -0.0001008   0.5573092
   14    0.0000529  -0.0000299   0.0002803   0.4488505
   15   -0.0004516  -0.0000703  -0.0000198  -0.0224984   0.5127840
   16   -0.0000501  -0.0003696   0.0024572   0.0000786   0.0000150
   17   -0.0000307  -0.0023161  -0.0029651  -0.0000049   0.0000025
   18    0.0000561  -0.0001343   0.0000081  -0.0031923   0.0016527
   19    0.0001891  -0.0020609   0.0000028   0.0014705  -0.0049824
   20   -0.0000532   0.0000007  -0.0000392   0.0009537  -0.0001084
   21    0.0004794  -0.0000004  -0.0000261  -0.0000531   0.0016359
   22    0.0000732  -0.0000007   0.0020963  -0.0000553   0.0000141
   23   -0.0018321   0.0008825   0.0000233   0.0000006  -0.0000002
   24   -0.0015198  -0.0000252   0.0001232  -0.0000004   0.0000006
   25    0.0031867  -0.0000224   0.0008938   0.0000001  -0.0000002
   26    0.3796108  -0.0000262   0.0000014  -0.0000041   0.0000755
   27    0.3794079   0.0009745  -0.0000002   0.0000005   0.0000031
   28    0.3825203  -0.0000218  -0.0000011   0.0000793   0.0002596
   29    0.0000010   0.0000001  -0.0033744  -0.0003551  -0.0000010

            16          17          18          19          20

   16    0.4895799
   17   -0.0220540   0.5075653
   18    0.0030060   0.0000400   0.4984943
   19    0.0000535  -0.0000431  -0.0250941   0.5052980
   20   -0.0000011  -0.0000012  -0.0000005   0.0000003   0.4960349
   21    0.0000008   0.0000009  -0.0000001  -0.0000027  -0.0257843
   22    0.0000001  -0.0000010   0.0000008   0.0000011  -0.0258874
   23   -0.0000046   0.0000925  -0.0000003   0.0000007   0.0000006
   24    0.0000006   0.0000054   0.0000006  -0.0000001  -0.0000143
   25    0.0000970   0.0001365  -0.0000001  -0.0000005  -0.0000033
   26    0.0000007   0.0000000   0.0000005   0.0000111  -0.0000095
   27   -0.0000002  -0.0000009  -0.0000068   0.0001161   0.0000005
   28    0.0000001  -0.0000005   0.0000866  -0.0000196  -0.0000046
   29    0.0008889   0.0000429  -0.0000028   0.0000001  -0.0001385

            21          22          23          24          25

   21    0.5181582
   22   -0.0259074   0.5277937
   23   -0.0000053  -0.0000001   0.5197116
   24    0.0000283   0.0009333  -0.0274684   0.5175661
   25   -0.0000006  -0.0000072  -0.0262859  -0.0263193   0.5152456
   26    0.0006774   0.0000521  -0.0000250   0.0020921   0.0000040
   27    0.0000003  -0.0000056   0.0021684  -0.0000080  -0.0000200
   28    0.0000429   0.0000006  -0.0000044  -0.0000129  -0.0000478
   29    0.0000023  -0.0000009  -0.0000001   0.0000001  -0.0000017

            26          27          28          29

   26    0.5204136
   27   -0.0277457   0.5239696
   28   -0.0258335  -0.0257058   0.5012530
   29    0.0000000  -0.0000000   0.0000000   0.4055186

          TOTAL MULLIKEN AND LOWDIN ATOMIC POPULATIONS
       ATOM         MULL.POP.    CHARGE          LOW.POP.     CHARGE
    1 O             8.684677   -0.684677         8.393594   -0.393594
    2 C             6.176167   -0.176167         6.039251   -0.039251
    3 C             6.125018   -0.125018         6.032685   -0.032685
    4 C             6.270288   -0.270288         6.078914   -0.078914
    5 C             5.822658    0.177342         5.896078    0.103922
    6 C             6.356080   -0.356080         6.155790   -0.155790
    7 C             6.402868   -0.402868         6.190101   -0.190101
    8 C             6.370334   -0.370334         6.157905   -0.157905
    9 C             6.556038   -0.556038         6.242634   -0.242634
   10 C             6.539468   -0.539468         6.246099   -0.246099
   11 C             6.534713   -0.534713         6.242885   -0.242885
   12 H             0.800751    0.199249         0.920791    0.079209
   13 H             0.806161    0.193839         0.942082    0.057918
   14 H             0.751123    0.248877         0.896093    0.103907
   15 H             0.800568    0.199432         0.921788    0.078212
   16 H             0.782379    0.217621         0.911068    0.088932
   17 H             0.796772    0.203228         0.918846    0.081154
   18 H             0.793534    0.206466         0.917366    0.082634
   19 H             0.795712    0.204288         0.919786    0.080214
   20 H             0.781563    0.218437         0.901641    0.098359
   21 H             0.804874    0.195126         0.914887    0.085113
   22 H             0.811567    0.188433         0.918772    0.081228
   23 H             0.801797    0.198203         0.913112    0.086888
   24 H             0.800490    0.199510         0.913278    0.086722
   25 H             0.804571    0.195429         0.917582    0.082418
   26 H             0.802815    0.197185         0.914320    0.085680
   27 H             0.805601    0.194399         0.914977    0.085023
   28 H             0.792726    0.207274         0.910866    0.089134
   29 H             0.628687    0.371313         0.756808    0.243192

          -------------------------------
          BOND ORDER AND VALENCE ANALYSIS     BOND ORDER THRESHOLD=0.050
          -------------------------------

                   BOND                       BOND                       BOND
  ATOM PAIR DIST  ORDER      ATOM PAIR DIST  ORDER      ATOM PAIR DIST  ORDER
    1   5  1.434  0.841        1  29  0.965  0.816        2   3  1.578  0.849
    2   5  1.553  0.883        2   6  1.557  0.896        2   9  1.524  0.950
    3   4  1.563  0.870        3  10  1.543  0.926        3  11  1.541  0.930
    4   7  1.548  0.905        4   8  1.548  0.903        4  12  1.096  0.953
    5   7  1.562  0.871        5  13  1.099  0.911        6   8  1.561  0.906
    6  14  1.092  0.910        6  15  1.095  0.934        7  16  1.096  0.925
    7  17  1.095  0.931        8  18  1.095  0.934        8  19  1.095  0.934
    9  20  1.096  0.920        9  21  1.096  0.930        9  22  1.097  0.931
   10  23  1.097  0.928       10  24  1.096  0.926       10  25  1.092  0.931
   11  26  1.096  0.927       11  27  1.097  0.929       11  28  1.092  0.928

                       TOTAL       BONDED        FREE
      ATOM            VALENCE     VALENCE     VALENCE
    1 O                 1.729       1.729      -0.000
    2 C                 3.448       3.448      -0.000
    3 C                 3.452       3.452       0.000
    4 C                 3.515       3.515       0.000
    5 C                 3.427       3.427      -0.000
    6 C                 3.567       3.567       0.000
    7 C                 3.575       3.575      -0.000
    8 C                 3.600       3.600       0.000
    9 C                 3.678       3.678      -0.000
   10 C                 3.657       3.657      -0.000
   11 C                 3.657       3.657      -0.000
   12 H                 0.936       0.936       0.000
   13 H                 0.912       0.912       0.000
   14 H                 0.913       0.913       0.000
   15 H                 0.920       0.920      -0.000
   16 H                 0.918       0.918      -0.000
   17 H                 0.919       0.919       0.000
   18 H                 0.919       0.919       0.000
   19 H                 0.918       0.918       0.000
   20 H                 0.914       0.914       0.000
   21 H                 0.921       0.921      -0.000
   22 H                 0.923       0.923       0.000
   23 H                 0.918       0.918      -0.000
   24 H                 0.918       0.918       0.000
   25 H                 0.921       0.921       0.000
   26 H                 0.919       0.919       0.000
   27 H                 0.920       0.920      -0.000
   28 H                 0.917       0.917      -0.000
   29 H                 0.835       0.835       0.000

          ---------------------
          ELECTROSTATIC MOMENTS
          ---------------------

 POINT   1           X           Y           Z (BOHR)    CHARGE
                -0.314364    0.206245    0.219280       -0.00 (A.U.)
         DX          DY          DZ         /D/  (DEBYE)
     0.834960    1.354043   -0.552821    1.684103
 ...... END OF PROPERTY EVALUATION ......
 CPU     0: STEP CPU TIME=     0.07 TOTAL CPU TIME=          5.2 (      0.1 MIN)
 TOTAL WALL CLOCK TIME=         15.3 SECONDS, CPU UTILIZATION IS    33.70%
               580000  WORDS OF DYNAMIC MEMORY USED
 EXECUTION OF GAMESS TERMINATED NORMALLY Mon May 25 18:10:42 2020
 DDI: 263640 bytes (0.3 MB / 0 MWords) used by master data server.
Note: The following floating-point exceptions are signalling: IEEE_DENORMALNote: The following floating-point exceptions are signalling:Note: The following floating-point exceptions are signalling:Note: The following floating-point exceptions are signalling: IEEE_DENORMAL

 IEEE_DENORMAL
Note: The following floating-point exceptions are signalling: IEEE_DENORMAL IEEE_DENORMAL

 ----------------------------------------
 CPU timing information for all processes
 ========================================
 0: 5.12 + 0.141 = 5.153
 1: 5.215 + 0.24 = 5.239
 2: 4.799 + 0.24 = 4.823
 3: 4.935 + 0.36 = 4.971
 4: 5.202 + 0.40 = 5.242
 5: 4.922 + 0.20 = 4.942
 ----------------------------------------
Note: The following floating-point exceptions are signalling:
 IEEE_DENORMAL
 ddikick.x: exited gracefully.
unset echo
----- accounting info -----
Files used on the master node pietdev were:
-rwxr-xr-x 1 piet piet     1249 mei 25 18:10 /home/piet/scr/borneol_fukui_neu.F05*
-rw-r--r-- 1 piet piet 49152000 mei 25 18:10 /home/piet/scr/borneol_fukui_neu.F10
ls: No match.
ls: No match.
ls: No match.
ma 25 mei 2020 18:10:45 CEST
0.118u 0.031s 0:18.56 0.7%	0+0k 0+8io 0pf+0w
