----- GAMESS execution script 'rungms' -----
This job is running on host pietdev
under operating system Linux at ma 25 mei 2020 18:10:27 CEST
Available scratch disk space (Kbyte units) at beginning of the job is
Filesystem     1K-blocks     Used Available Use% Mounted on
/dev/sda2      244568380 31071248 201004076  14% /
GAMESS temporary binary files will be written to /home/piet/scr
GAMESS supplementary output files will be written to /home/piet/gamess/scr
Copying input file borneol_fukui_base.inp to your run's scratch directory...
cp borneol_fukui_base.inp /home/piet/scr/borneol_fukui_base.F05
unset echo
 
Assuming a single but multicore node.
 
/home/piet/gamess/ddikick.x /home/piet/gamess/gamess.03.x borneol_fukui_base -ddi 1 6 pietdev:cpus=6 -scr /home/piet/scr

 Distributed Data Interface kickoff program.
 Initiating 6 compute processes on 1 nodes to run the following command:
 /home/piet/gamess/gamess.03.x borneol_fukui_base 

          ******************************************************
          *         GAMESS VERSION = 30 SEP 2019 (R2)          *
          *             FROM IOWA STATE UNIVERSITY             *
          * M.W.SCHMIDT, K.K.BALDRIDGE, J.A.BOATZ, S.T.ELBERT, *
          *   M.S.GORDON, J.H.JENSEN, S.KOSEKI, N.MATSUNAGA,   *
          *          K.A.NGUYEN, S.J.SU, T.L.WINDUS,           *
          *       TOGETHER WITH M.DUPUIS, J.A.MONTGOMERY       *
          *         J.COMPUT.CHEM.  14, 1347-1363(1993)        *
          **************** 64 BIT LINUX VERSION ****************

  SINCE 1993, STUDENTS AND POSTDOCS WORKING AT IOWA STATE UNIVERSITY
  AND ALSO IN THEIR VARIOUS JOBS AFTER LEAVING ISU HAVE MADE IMPORTANT
  CONTRIBUTIONS TO THE CODE:
     IVANA ADAMOVIC, CHRISTINE AIKENS, YURI ALEXEEV, POOJA ARORA,
     ANDREY ASADCHEV, ROB BELL, PRADIPTA BANDYOPADHYAY, JONATHAN BENTZ,
     COLLEEN BERTONI, BRETT BODE, KURT BRORSEN, CALEB CARLIN, GALINA CHABAN,
     WEI CHEN, CHEOL HO CHOI, PAUL DAY, ALBERT DEFUSCO, NUWAN DESILVA,
     TIM DUDLEY, DMITRI FEDOROV, ALEX FINDLATER, GRAHAM FLETCHER, 
     MARK FREITAG, KURT GLAESEMANN, EMILIE B GUIDEZ, ANASTASIA GUNINA, 
     DAN KEMP, SAROM SOK LEANG, GRANT MERRILL,
     NORIYUKI MINEZAWA, JONATHAN MULLIN,
     TAKESHI NAGATA, SEAN NEDD, HEATHER NETZLOFF, BOSILJKA NJEGIC, RYAN OLSON,
     MIKE PAK, BUU PHAM, DAVID POOLE,
     SPENCER PRUITT, LUKE ROSKOP, TOSAPORN SATTASATHUCHANA,
     JIM SHOEMAKER, LYUDMILA SLIPCHENKO,
     TONY SMITH, JIE SONG, TETSUYA TAKETSUGU, SIMON WEBB,
     JORGE LUIS GALVEZ VALLEJO, PENG XU, SOOHAENG YOO,
     FEDERICO ZAHARIEV

  ADDITIONAL CODE HAS BEEN PROVIDED BY COLLABORATORS IN OTHER GROUPS:
     IOWA STATE UNIVERSITY:
          JOE IVANIC, AARON WEST, LAIMUTIS BYTAUTAS, KLAUS RUEDENBERG
     UNIVERSITY OF TOKYO: KIMIHIKO HIRAO, TAKAHITO NAKAJIMA,
          TAKAO TSUNEDA, MUNEAKI KAMIYA, SUSUMU YANAGISAWA,
          KIYOSHI YAGI, MAHITO CHIBA, SEIKEN TOKURA, NAOAKI KAWAKAMI
     UNIVERSITY OF AARHUS: FRANK JENSEN
     UNIVERSITY OF IOWA: VISVALDAS KAIRYS, HUI LI
     NATIONAL INST. OF STANDARDS AND TECHNOLOGY: WALT STEVENS, DAVID GARMER
     UNIVERSITY OF PISA: BENEDETTA MENNUCCI, JACOPO TOMASI
     UNIVERSITY OF MEMPHIS: HENRY KURTZ, PRAKASHAN KORAMBATH
     UNIVERSITY OF ALBERTA: TOBY ZENG, MARIUSZ KLOBUKOWSKI
     UNIVERSITY OF NEW ENGLAND: MARK SPACKMAN
     MIE UNIVERSITY: HIROAKI UMEDA
     NAT. INST. OF ADVANCED INDUSTRIAL SCIENCE AND TECHNOLOGY: KAZUO KITAURA
     MICHIGAN STATE UNIVERSITY:
          KAROL KOWALSKI, MARTA WLOCH, JEFFREY GOUR, JESSE LUTZ,
          WEI LI, JUN SHEN, J. EMILIANO DEUSTUA, PIOTR PIECUCH
     UNIVERSITY OF MINNESOTA:
          ANDREW SAND, PRACHI SHARMA, YINAN SHU
     UNIVERSITY OF SILESIA: MONIKA MUSIAL, STANISLAW KUCHARSKI
     FACULTES UNIVERSITAIRES NOTRE-DAME DE LA PAIX:
          OLIVIER QUINET, BENOIT CHAMPAGNE
     UNIVERSITY OF CALIFORNIA - SANTA BARBARA: BERNARD KIRTMAN
     INSTITUTE FOR MOLECULAR SCIENCE:
          KAZUYA ISHIMURA, MICHIO KATOUDA, AND SHIGERU NAGASE
     UNIVERSITY OF NOTRE DAME: ANNA POMOGAEVA, DAN CHIPMAN
     KYUSHU UNIVERSITY:
          HARUYUKI NAKANO,
          FENG LONG GU, JACEK KORCHOWIEC, MARCIN MAKOWSKI, AND YURIKO AOKI,
          HIROTOSHI MORI AND EISAKU MIYOSHI
     PENNSYLVANIA STATE UNIVERSITY:
          TZVETELIN IORDANOV, CHET SWALINA, JONATHAN SKONE,
          SHARON HAMMES-SCHIFFER
     WASEDA UNIVERSITY:
          MASATO KOBAYASHI, TOMOKO AKAMA, TSUGUKI TOUMA,
          TAKESHI YOSHIKAWA, YASUHIRO IKABATA, JUNJI SEINO,
          YUYA NAKAJIMA, HIROMI NAKAI
     NANJING UNIVERSITY: SHUHUA LI
     UNIVERSITY OF NEBRASKA:
          PEIFENG SU, DEJUN SI, NANDUN THELLAMUREGE, YALI WANG, HUI LI
     UNIVERSITY OF ZURICH: ROBERTO PEVERATI, KIM BALDRIDGE
     N. COPERNICUS UNIVERSITY AND JACKSON STATE UNIVERSITY:
          MARIA BARYSZ
     UNIVERSITY OF COPENHAGEN: Jimmy Kromann, CASPER STEINMANN
     TOKYO INSTITUTE OF TECHNOLOGY: HIROYA NAKATA
     NAGOYA UNIVERSITY: YOSHIO NISHIMOTO, STEPHAN IRLE
     MOSCOW STATE UNIVERSITY: VLADIMIR MIRONOV
     A.N.NESMEYANOV INSTITUTE OF ORGANOELEMENT COMPOUNDS OF RUSSIAN ACADEMY OF SCIENCES:
          IGOR S. GERASIMOV
     JOHANNES KEPLER UNIVERSITY LINZ:
          CHRISTIAN FRIEDL


 PARALLEL VERSION RUNNING ON        6 PROCESSORS IN        1 NODES.

 EXECUTION OF GAMESS BEGUN Mon May 25 18:10:27 2020

            ECHO OF THE FIRST FEW INPUT CARDS -
 INPUT CARD> $BASIS GBASIS=N21 NGAUSS=3 $END                                                
 INPUT CARD> $CONTRL SCFTYP=UHF MAXIT=60 MULT=2 ICHARG=1 $END                               
 INPUT CARD> $SYSTEM MEMDDI=1000 MWORDS=30 $END                                             
 INPUT CARD> $SCF DIRSCF=.TRUE. $END                                                        
 INPUT CARD> $STATPT OPTTOL=0.0001 NSTEP=999 $END                                           
 INPUT CARD> $DATA                                                                          
 INPUT CARD>                                                                                
 INPUT CARD>C1                                                                              
 INPUT CARD>O 8.0000000 -2.38748 1.32351 0.55636                                            
 INPUT CARD>C 6.0000000 -0.72030 -0.26732 -0.27159                                          
 INPUT CARD>C 6.0000000 0.85272 -0.18680 -0.36597                                           
 INPUT CARD>C 6.0000000 0.98850 0.50143 1.03046                                             
 INPUT CARD>C 6.0000000 -1.08283 1.22367 -0.02965                                           
 INPUT CARD>C 6.0000000 -0.92205 -0.99925 1.08758                                           
 INPUT CARD>C 6.0000000 0.07450 1.74162 0.88182                                             
 INPUT CARD>C 6.0000000 0.25975 -0.48850 1.97069                                            
 INPUT CARD>C 6.0000000 -1.47220 -0.89782 -1.43798                                          
 INPUT CARD>C 6.0000000 1.39878 0.65916 -1.53508                                            
 INPUT CARD>C 6.0000000 1.54560 -1.56030 -0.46173                                           
 INPUT CARD>H 1.0000000 2.01367 0.73720 1.33761                                             
 INPUT CARD>H 1.0000000 -1.09873 1.75736 -0.98969                                           
 INPUT CARD>H 1.0000000 -1.89915 -0.76564 1.51570                                           
 INPUT CARD>H 1.0000000 -0.88168 -2.08401 0.94346                                           
 INPUT CARD>H 1.0000000 -0.31761 2.07695 1.84845                                            
 INPUT CARD>H 1.0000000 0.59717 2.59015 0.42734                                             
 INPUT CARD>H 1.0000000 -0.08488 0.00675 2.88477                                            
 INPUT CARD>H 1.0000000 0.91808 -1.30684 2.27933                                            
 INPUT CARD>H 1.0000000 -2.55254 -0.86559 -1.25883                                          
 INPUT CARD>H 1.0000000 -1.18737 -1.94729 -1.57516                                          
 INPUT CARD>H 1.0000000 -1.27515 -0.36812 -2.37812                                          
 INPUT CARD>H 1.0000000 2.48976 0.74172 -1.45696                                            
 INPUT CARD>H 1.0000000 1.17897 0.17974 -2.49616                                            
 INPUT CARD>H 1.0000000 1.00084 1.67534 -1.57829                                            
 INPUT CARD>H 1.0000000 1.36141 -2.01506 -1.44206                                           
 INPUT CARD>H 1.0000000 2.63112 -1.44065 -0.35858                                           
 INPUT CARD>H 1.0000000 1.21982 -2.27420 0.29703                                            
 INPUT CARD>H 1.0000000 -2.64849 2.25269 0.57535                                            
 INPUT CARD> $END                                                                           
   30000000 WORDS OF MEMORY AVAILABLE

     BASIS OPTIONS
     -------------
     GBASIS=N21          IGAUSS=       3      POLAR=NONE    
     NDFUNC=       0     NFFUNC=       0     DIFFSP=       F
     NPFUNC=       0      DIFFS=       F     BASNAM=        


     RUN TITLE
     ---------
                                                                                 

 THE POINT GROUP OF THE MOLECULE IS C1      
 THE ORDER OF THE PRINCIPAL AXIS IS     0

 ATOM      ATOMIC                      COORDINATES (BOHR)
           CHARGE         X                   Y                   Z
 O           8.0    -4.5116830012        2.5010712420        1.0513679505
 C           6.0    -1.3611696290       -0.5051615510       -0.5132306810
 C           6.0     1.6114071443       -0.3530008145       -0.6915830197
 C           6.0     1.8679941389        0.9475653020        1.9472870413
 C           6.0    -2.0462519913        2.3124009994       -0.0560303755
 C           6.0    -1.7424218470       -1.8883086932        2.0552281897
 C           6.0     0.1407845861        3.2911845747        1.6663981705
 C           6.0     0.4908563253       -0.9231311450        3.7240641067
 C           6.0    -2.7820545991       -1.6966337863       -2.7173881758
 C           6.0     2.6433109171        1.2456317821       -2.9008805692
 C           6.0     2.9207604866       -2.9485394586       -0.8725431803
 H           1.0     3.8052845297        1.3931059981        2.5277163784
 H           1.0    -2.0762986345        3.3209288618       -1.8702429128
 H           1.0    -3.5888731096       -1.4468498052        2.8642576796
 H           1.0    -1.6661336089       -3.9382078557        1.7828808804
 H           1.0    -0.6001958710        3.9248663902        3.4930640020
 H           1.0     1.1284876681        4.8946737671        0.8075555036
 H           1.0    -0.1603999418        0.0127556504        5.4514248376
 H           1.0     1.7349196348       -2.4695695098        4.3073091356
 H           1.0    -4.8236011727       -1.6357279177       -2.3788437651
 H           1.0    -2.2438039460       -3.6798445186       -2.9766207868
 H           1.0    -2.4096840932       -0.6956459306       -4.4939951659
 H           1.0     4.7049641752        1.4016475596       -2.7532551751
 H           1.0     2.2279302477        0.3396593490       -4.7170584215
 H           1.0     1.8913133576        3.1659335363       -2.9825356292
 H           1.0     2.5726918569       -3.8079112488       -2.7250982579
 H           1.0     4.9720958408       -2.7224337442       -0.6776179447
 H           1.0     2.3051255543       -4.2976148413        0.5613053101
 H           1.0    -5.0049203812        4.2569668353        1.0872538470

          INTERNUCLEAR DISTANCES (ANGS.)
          ------------------------------

                1 O          2 C          3 C          4 C          5 C     

   1 O       0.0000000    2.4486181 *  3.6919676    3.5068258    1.4336971 *
   2 C       2.4486181 *  0.0000000    1.5779046 *  2.2817336 *  1.5533880 *
   3 C       3.6919676    1.5779046 *  0.0000000    1.5627263 *  2.4184480 *
   4 C       3.5068258    2.2817336 *  1.5627263 *  0.0000000    2.4363645 *
   5 C       1.4336971 *  1.5533880 *  2.4184480 *  2.4363645 *  0.0000000  
   6 C       2.7973012 *  1.5568454 *  2.4336580 *  2.4301244 *  2.4930757 *
   7 C       2.5183498 *  2.4490614 *  2.4251618 *  1.5477600 *  1.5615577 *
   8 C       3.5059287    2.4570792 *  2.4295301 *  1.5476015 *  2.9555722 *
   9 C       3.1224088    1.5242537 *  2.6570675 *  3.7558143    2.5759896 *
  10 C       4.3762138    2.6353884 *  1.5429349 *  2.6029222 *  2.9569206 *
  11 C       4.9821668    2.6157701 *  1.5413484 *  2.6053257 *  3.8530282  
  12 H       4.5082405    3.3276384    2.2591515 *  1.0958568 *  3.4197025  
  13 H       2.0589738 *  2.1813312 *  2.8243480 *  3.1646319    1.0985238 *
  14 H       2.3501802 *  2.1982756 *  3.3835671    3.1905245    2.6479878 *
  15 H       3.7454603    2.1915183 *  2.8848147 *  3.1921219    3.4537156  
  16 H       2.5537287 *  3.1862722    3.3760765    2.2039270 *  2.2002064 *
  17 H       3.2448665    3.2232538    2.8993271 *  2.2089917 *  2.2132572 *
  18 H       3.5294924    3.2313281    3.3887853    2.1989358 *  3.3121960  
  19 H       4.5622466    3.2050092    2.8733906 *  2.1987441 *  3.9671791  
  20 H       2.8485643 *  2.1655653 *  3.5852128    4.4326692    2.8347731 *
  21 H       4.0843328    2.1770963 *  2.9535458 *  4.1856774    3.5290958  
  22 H       3.5651175    2.1807081 *  2.9341873 *  4.1831383    2.8436058 *
  23 H       5.3084279    3.5675971    2.1753870 *  2.9152666 *  3.8772270  
  24 H       4.8317340    2.9590203 *  2.1859781 *  3.5463801    3.5055956  
  25 H       4.0201029    2.9058072 *  2.2269317 *  2.8607330 *  2.6351418 *
  26 H       5.4031388    2.9594107 *  2.1815751 *  3.5475539    4.2963453  
  27 H       5.8020722    3.5519412    2.1759828 *  2.8981558 *  4.5825998  
  28 H       5.1013118    2.8486772 *  2.2207139 *  2.8801997 *  4.2004775  
  29 H       0.9653302 *  3.2841551    4.3698588    4.0622325    1.9688063 *

                6 C          7 C          8 C          9 C         10 C     

   1 O       2.7973012 *  2.5183498 *  3.5059287    3.1224088    4.3762138  
   2 C       1.5568454 *  2.4490614 *  2.4570792 *  1.5242537 *  2.6353884 *
   3 C       2.4336580 *  2.4251618 *  2.4295301 *  2.6570675 *  1.5429349 *
   4 C       2.4301244 *  1.5477600 *  1.5476015 *  3.7558143    2.6029222 *
   5 C       2.4930757 *  1.5615577 *  2.9555722 *  2.5759896 *  2.9569206 *
   6 C       0.0000000    2.9236651 *  1.5612175 *  2.5867753 *  3.8749092  
   7 C       2.9236651 *  0.0000000    2.4886524 *  3.8393224    2.9608855 *
   8 C       1.5612175 *  2.4886524 *  0.0000000    3.8452861    3.8606911  
   9 C       2.5867753 *  3.8393224    3.8452861    0.0000000    3.2674365  
  10 C       3.8749092    2.9608855 *  3.8606911    3.2674365    0.0000000  
  11 C       2.9672268 *  3.8564151    2.9527669 *  3.2402254    2.4697447 *
  12 H       3.4199745    2.2309156 *  2.2314493 *  4.7464176    2.9387970 *
  13 H       3.4561778    2.2089061 *  3.9564131    2.7185335 *  2.7822742 *
  14 H       1.0920553 *  3.2532216    2.2236618 *  2.9873037 *  4.7131365  
  15 H       1.0950363 *  3.9437957    2.2144336 *  2.7252554 *  4.3438048  
  16 H       3.2260312    1.0957053 *  2.6324553 *  4.5807157    4.0502344  
  17 H       3.9531935    1.0953261 *  3.4603276    4.4640392    2.8674716 *
  18 H       2.2232367 *  2.6546157 *  1.0952555 *  4.6291545    4.7076491  
  19 H       2.2138108 *  3.4580008    1.0946860 *  4.4383701    4.3180959  
  20 H       2.8604200 *  4.2756597    4.2989500    1.0955674 *  4.2443028  
  21 H       2.8389010 *  4.6083754    4.0982041    1.0960537 *  3.6719695  
  22 H       3.5403504    4.1109326    4.6133023    1.0969385 *  2.9859542 *
  23 H       4.5984897    3.5075879    4.2702658    4.2878408    1.0968848 *
  24 H       4.3182745    3.8820191    4.6091495    3.0511609    1.0962822 *
  25 H       4.2376645    2.6295703 *  4.2221650    3.5716615    1.0921745 *
  26 H       3.5560003    4.6009999    3.8975509    3.0459132    2.6760983 *
  27 H       3.8615062    4.2663498    3.4576703    4.2774997    2.7040740 *
  28 H       2.6149711 *  4.2166987    2.6289916 *  3.4859222    3.4631279  
  29 H       3.7172689    2.7874345 *  4.2330788    3.9195496    4.8346300  

               11 C         12 H         13 H         14 H         15 H     

   1 O       4.9821668    4.5082405    2.0589738 *  2.3501802 *  3.7454603  
   2 C       2.6157701 *  3.3276384    2.1813312 *  2.1982756 *  2.1915183 *
   3 C       1.5413484 *  2.2591515 *  2.8243480 *  3.3835671    2.8848147 *
   4 C       2.6053257 *  1.0958568 *  3.1646319    3.1905245    3.1921219  
   5 C       3.8530282    3.4197025    1.0985238 *  2.6479878 *  3.4537156  
   6 C       2.9672268 *  3.4199745    3.4561778    1.0920553 *  1.0950363 *
   7 C       3.8564151    2.2309156 *  2.2089061 *  3.2532216    3.9437957  
   8 C       2.9527669 *  2.2314493 *  3.9564131    2.2236618 *  2.2144336 *
   9 C       3.2402254    4.7464176    2.7185335 *  2.9873037 *  2.7252554 *
  10 C       2.4697447 *  2.9387970 *  2.7822742 *  4.7131365    4.3438048  
  11 C       0.0000000    2.9555406 *  4.2752884    4.0506810    2.8531595 *
  12 H       2.9555406 *  0.0000000    4.0179703    4.1952836    4.0617277  
  13 H       4.2752884    4.0179703    0.0000000    3.6446097    4.3058452  
  14 H       4.0506810    4.1952836    3.6446097    0.0000000    1.7609098 *
  15 H       2.8531595 *  4.0617277    4.3058452    1.7609098 *  0.0000000  
  16 H       4.6944724    2.7369242 *  2.9609669 *  3.2699097    4.2954359  
  17 H       4.3492758    2.5036948 *  2.3616922 *  4.3217436    4.9296195  
  18 H       4.0389569    2.7076140 *  4.3708086    2.4005238 *  2.9622377 *
  19 H       2.8233727 *  2.5030488 *  4.9135869    2.9686383 *  2.3722727 *
  20 H       4.2323447    5.4918767    3.0109577    2.8521790 *  3.0209935  
  21 H       2.9763422 *  5.0928747    3.7516748    3.3847220    2.5407844 *
  22 H       3.6125440    5.0837701    2.5449022 *  3.9634874    3.7592540  
  23 H       2.6797793 *  2.8348375 *  3.7586070    5.5110228    5.0113246  
  24 H       2.7020478 *  3.9629885    3.1537682    5.1442771    4.6045443  
  25 H       3.4659538    3.2262058    2.1820567 *  4.8929643    4.9026337  
  26 H       1.0962571 *  3.9657211    4.5263760    4.5760951    3.2751966  
  27 H       1.0969547 *  2.8286632 *  4.9535188    4.9489302    3.8011819  
  28 H       1.0915597 *  3.2835247    4.8254325    3.6727216    2.2068861 *
  29 H       5.7623622    4.9611981    2.2575336 *  3.2490129    4.6972427  

               16 H         17 H         18 H         19 H         20 H     

   1 O       2.5537287 *  3.2448665    3.5294924    4.5622466    2.8485643 *
   2 C       3.1862722    3.2232538    3.2313281    3.2050092    2.1655653 *
   3 C       3.3760765    2.8993271 *  3.3887853    2.8733906 *  3.5852128  
   4 C       2.2039270 *  2.2089917 *  2.1989358 *  2.1987441 *  4.4326692  
   5 C       2.2002064 *  2.2132572 *  3.3121960    3.9671791    2.8347731 *
   6 C       3.2260312    3.9531935    2.2232367 *  2.2138108 *  2.8604200 *
   7 C       1.0957053 *  1.0953261 *  2.6546157 *  3.4580008    4.2756597  
   8 C       2.6324553 *  3.4603276    1.0952555 *  1.0946860 *  4.2989500  
   9 C       4.5807157    4.4640392    4.6291545    4.4383701    1.0955674 *
  10 C       4.0502344    2.8674716 *  4.7076491    4.3180959    4.2443028  
  11 C       4.6944724    4.3492758    4.0389569    2.8233727 *  4.2323447  
  12 H       2.7369242 *  2.5036948 *  2.7076140 *  2.5030488 *  5.4918767  
  13 H       2.9609669 *  2.3616922 *  4.3708086    4.9135869    3.0109577  
  14 H       3.2699097    4.3217436    2.4005238 *  2.9686383 *  2.8521790 *
  15 H       4.2954359    4.9296195    2.9622377 *  2.3722727 *  3.0209935  
  16 H       0.0000000    1.7662815 *  2.3267682 *  3.6280328    4.8279025  
  17 H       1.7662815 *  0.0000000    3.6301667    4.3265900    4.9705112  
  18 H       2.3267682 *  3.6301667    0.0000000    1.7601151 *  4.9009942  
  19 H       3.6280328    4.3265900    1.7601151 *  0.0000000    4.9757895  
  20 H       4.8279025    4.9705112    4.9009942    4.9757895    0.0000000  
  21 H       5.3546331    5.2709535    4.9924675    4.4384895    1.7702623 *
  22 H       4.9758561    4.4863737    5.4088152    5.2329049    1.7697491 *
  23 H       4.5376096    3.2479496    5.1009383    4.5416560    5.2959881  
  24 H       4.9713975    3.8334606    5.5300678    5.0083219    4.0679070  
  25 H       3.6935279    2.2410664 *  4.8869096    4.8766258    4.3800559  
  26 H       5.5128133    5.0285861    4.9900830    3.8140347    4.0833637  
  27 H       5.0930835    4.5827908    4.4711231    3.1481709    5.2925868  
  28 H       4.8685831    4.9057695    3.6880040    2.2262852 *  4.3168950  
  29 H       2.6617043 *  3.2665111    4.1170090    5.3192315    3.6189906  

               21 H         22 H         23 H         24 H         25 H     

   1 O       4.0843328    3.5651175    5.3084279    4.8317340    4.0201029  
   2 C       2.1770963 *  2.1807081 *  3.5675971    2.9590203 *  2.9058072 *
   3 C       2.9535458 *  2.9341873 *  2.1753870 *  2.1859781 *  2.2269317 *
   4 C       4.1856774    4.1831383    2.9152666 *  3.5463801    2.8607330 *
   5 C       3.5290958    2.8436058 *  3.8772270    3.5055956    2.6351418 *
   6 C       2.8389010 *  3.5403504    4.5984897    4.3182745    4.2376645  
   7 C       4.6083754    4.1109326    3.5075879    3.8820191    2.6295703 *
   8 C       4.0982041    4.6133023    4.2702658    4.6091495    4.2221650  
   9 C       1.0960537 *  1.0969385 *  4.2878408    3.0511609    3.5716615  
  10 C       3.6719695    2.9859542 *  1.0968848 *  1.0962822 *  1.0921745 *
  11 C       2.9763422 *  3.6125440    2.6797793 *  2.7020478 *  3.4659538  
  12 H       5.0928747    5.0837701    2.8348375 *  3.9629885    3.2262058  
  13 H       3.7516748    2.5449022 *  3.7586070    3.1537682    2.1820567 *
  14 H       3.3847220    3.9634874    5.5110228    5.1442771    4.8929643  
  15 H       2.5407844 *  3.7592540    5.0113246    4.6045443    4.9026337  
  16 H       5.3546331    4.9758561    4.5376096    4.9713975    3.6935279  
  17 H       5.2709535    4.4863737    3.2479496    3.8334606    2.2410664 *
  18 H       4.9924675    5.4088152    5.1009383    5.5300678    4.8869096  
  19 H       4.4384895    5.2329049    4.5416560    5.0083219    4.8766258  
  20 H       1.7702623 *  1.7697491 *  5.2959881    4.0679070    4.3800559  
  21 H       0.0000000    1.7737610 *  4.5569761    3.3124104    4.2322241  
  22 H       1.7737610 *  0.0000000    4.0317277    2.5172980 *  3.1615799  
  23 H       4.5569761    4.0317277    0.0000000    1.7646327 *  1.7616044 *
  24 H       3.3124104    2.5172980 *  1.7646327 *  0.0000000    1.7638126 *
  25 H       4.2322241    3.1615799    1.7616044 *  1.7638126 *  0.0000000  
  26 H       2.5531525 *  3.2465471    2.9787970 *  2.4416302 *  3.7104746  
  27 H       4.0395070    4.5263460    2.4472761 *  3.0501888    3.7222170  
  28 H       3.0670066    4.1248568    3.7128159    3.7182524    4.3776299  
  29 H       4.9395746    4.1806331    5.7284315    5.3273582    4.2765766  

               26 H         27 H         28 H         29 H     

   1 O       5.4031388    5.8020722    5.1013118    0.9653302 *
   2 C       2.9594107 *  3.5519412    2.8486772 *  3.2841551  
   3 C       2.1815751 *  2.1759828 *  2.2207139 *  4.3698588  
   4 C       3.5475539    2.8981558 *  2.8801997 *  4.0622325  
   5 C       4.2963453    4.5825998    4.2004775    1.9688063 *
   6 C       3.5560003    3.8615062    2.6149711 *  3.7172689  
   7 C       4.6009999    4.2663498    4.2166987    2.7874345 *
   8 C       3.8975509    3.4576703    2.6289916 *  4.2330788  
   9 C       3.0459132    4.2774997    3.4859222    3.9195496  
  10 C       2.6760983 *  2.7040740 *  3.4631279    4.8346300  
  11 C       1.0962571 *  1.0969547 *  1.0915597 *  5.7623622  
  12 H       3.9657211    2.8286632 *  3.2835247    4.9611981  
  13 H       4.5263760    4.9535188    4.8254325    2.2575336 *
  14 H       4.5760951    4.9489302    3.6727216    3.2490129  
  15 H       3.2751966    3.8011819    2.2068861 *  4.6972427  
  16 H       5.5128133    5.0930835    4.8685831    2.6617043 *
  17 H       5.0285861    4.5827908    4.9057695    3.2665111  
  18 H       4.9900830    4.4711231    3.6880040    4.1170090  
  19 H       3.8140347    3.1481709    2.2262852 *  5.3192315  
  20 H       4.0833637    5.2925868    4.3168950    3.6189906  
  21 H       2.5531525 *  4.0395070    3.0670066    4.9395746  
  22 H       3.2465471    4.5263460    4.1248568    4.1806331  
  23 H       2.9787970 *  2.4472761 *  3.7128159    5.7284315  
  24 H       2.4416302 *  3.0501888    3.7182524    5.3273582  
  25 H       3.7104746    3.7222170    4.3776299    4.2765766  
  26 H       0.0000000    1.7652306 *  1.7639828 *  6.1937817  
  27 H       1.7652306 *  0.0000000    1.7653322 *  6.5105505  
  28 H       1.7639828 *  1.7653322 *  0.0000000    5.9610416  
  29 H       6.1937817    6.5105505    5.9610416    0.0000000  

  * ... LESS THAN  3.000


     ATOMIC BASIS SET
     ----------------
 THE CONTRACTED PRIMITIVE FUNCTIONS HAVE BEEN UNNORMALIZED
 THE CONTRACTED BASIS FUNCTIONS ARE NOW NORMALIZED TO UNITY

  SHELL TYPE  PRIMITIVE        EXPONENT          CONTRACTION COEFFICIENT(S)

 O         

      1   S       1           322.0370000    0.059239393389
      1   S       2            48.4308000    0.351499960776
      1   S       3            10.4206000    0.707657921031

      2   L       4             7.4029400   -0.404453583190    0.244586106967
      2   L       5             1.5762000    1.221561761397    0.853955373466

      3   L       6             0.3736840    1.000000000000    1.000000000000

 C         

      4   S       7           172.2560000    0.061766907377
      4   S       8            25.9109000    0.358794042852
      4   S       9             5.5333500    0.700713083689

      5   L      10             3.6649800   -0.395895162119    0.236459946619
      5   L      11             0.7705450    1.215834355681    0.860618805716

      6   L      12             0.1958570    1.000000000000    1.000000000000

 C         

      7   S      13           172.2560000    0.061766907377
      7   S      14            25.9109000    0.358794042852
      7   S      15             5.5333500    0.700713083689

      8   L      16             3.6649800   -0.395895162119    0.236459946619
      8   L      17             0.7705450    1.215834355681    0.860618805716

      9   L      18             0.1958570    1.000000000000    1.000000000000

 C         

     10   S      19           172.2560000    0.061766907377
     10   S      20            25.9109000    0.358794042852
     10   S      21             5.5333500    0.700713083689

     11   L      22             3.6649800   -0.395895162119    0.236459946619
     11   L      23             0.7705450    1.215834355681    0.860618805716

     12   L      24             0.1958570    1.000000000000    1.000000000000

 C         

     13   S      25           172.2560000    0.061766907377
     13   S      26            25.9109000    0.358794042852
     13   S      27             5.5333500    0.700713083689

     14   L      28             3.6649800   -0.395895162119    0.236459946619
     14   L      29             0.7705450    1.215834355681    0.860618805716

     15   L      30             0.1958570    1.000000000000    1.000000000000

 C         

     16   S      31           172.2560000    0.061766907377
     16   S      32            25.9109000    0.358794042852
     16   S      33             5.5333500    0.700713083689

     17   L      34             3.6649800   -0.395895162119    0.236459946619
     17   L      35             0.7705450    1.215834355681    0.860618805716

     18   L      36             0.1958570    1.000000000000    1.000000000000

 C         

     19   S      37           172.2560000    0.061766907377
     19   S      38            25.9109000    0.358794042852
     19   S      39             5.5333500    0.700713083689

     20   L      40             3.6649800   -0.395895162119    0.236459946619
     20   L      41             0.7705450    1.215834355681    0.860618805716

     21   L      42             0.1958570    1.000000000000    1.000000000000

 C         

     22   S      43           172.2560000    0.061766907377
     22   S      44            25.9109000    0.358794042852
     22   S      45             5.5333500    0.700713083689

     23   L      46             3.6649800   -0.395895162119    0.236459946619
     23   L      47             0.7705450    1.215834355681    0.860618805716

     24   L      48             0.1958570    1.000000000000    1.000000000000

 C         

     25   S      49           172.2560000    0.061766907377
     25   S      50            25.9109000    0.358794042852
     25   S      51             5.5333500    0.700713083689

     26   L      52             3.6649800   -0.395895162119    0.236459946619
     26   L      53             0.7705450    1.215834355681    0.860618805716

     27   L      54             0.1958570    1.000000000000    1.000000000000

 C         

     28   S      55           172.2560000    0.061766907377
     28   S      56            25.9109000    0.358794042852
     28   S      57             5.5333500    0.700713083689

     29   L      58             3.6649800   -0.395895162119    0.236459946619
     29   L      59             0.7705450    1.215834355681    0.860618805716

     30   L      60             0.1958570    1.000000000000    1.000000000000

 C         

     31   S      61           172.2560000    0.061766907377
     31   S      62            25.9109000    0.358794042852
     31   S      63             5.5333500    0.700713083689

     32   L      64             3.6649800   -0.395895162119    0.236459946619
     32   L      65             0.7705450    1.215834355681    0.860618805716

     33   L      66             0.1958570    1.000000000000    1.000000000000

 H         

     34   S      67             5.4471780    0.156284978695
     34   S      68             0.8245472    0.904690876670

     35   S      69             0.1831916    1.000000000000

 H         

     36   S      70             5.4471780    0.156284978695
     36   S      71             0.8245472    0.904690876670

     37   S      72             0.1831916    1.000000000000

 H         

     38   S      73             5.4471780    0.156284978695
     38   S      74             0.8245472    0.904690876670

     39   S      75             0.1831916    1.000000000000

 H         

     40   S      76             5.4471780    0.156284978695
     40   S      77             0.8245472    0.904690876670

     41   S      78             0.1831916    1.000000000000

 H         

     42   S      79             5.4471780    0.156284978695
     42   S      80             0.8245472    0.904690876670

     43   S      81             0.1831916    1.000000000000

 H         

     44   S      82             5.4471780    0.156284978695
     44   S      83             0.8245472    0.904690876670

     45   S      84             0.1831916    1.000000000000

 H         

     46   S      85             5.4471780    0.156284978695
     46   S      86             0.8245472    0.904690876670

     47   S      87             0.1831916    1.000000000000

 H         

     48   S      88             5.4471780    0.156284978695
     48   S      89             0.8245472    0.904690876670

     49   S      90             0.1831916    1.000000000000

 H         

     50   S      91             5.4471780    0.156284978695
     50   S      92             0.8245472    0.904690876670

     51   S      93             0.1831916    1.000000000000

 H         

     52   S      94             5.4471780    0.156284978695
     52   S      95             0.8245472    0.904690876670

     53   S      96             0.1831916    1.000000000000

 H         

     54   S      97             5.4471780    0.156284978695
     54   S      98             0.8245472    0.904690876670

     55   S      99             0.1831916    1.000000000000

 H         

     56   S     100             5.4471780    0.156284978695
     56   S     101             0.8245472    0.904690876670

     57   S     102             0.1831916    1.000000000000

 H         

     58   S     103             5.4471780    0.156284978695
     58   S     104             0.8245472    0.904690876670

     59   S     105             0.1831916    1.000000000000

 H         

     60   S     106             5.4471780    0.156284978695
     60   S     107             0.8245472    0.904690876670

     61   S     108             0.1831916    1.000000000000

 H         

     62   S     109             5.4471780    0.156284978695
     62   S     110             0.8245472    0.904690876670

     63   S     111             0.1831916    1.000000000000

 H         

     64   S     112             5.4471780    0.156284978695
     64   S     113             0.8245472    0.904690876670

     65   S     114             0.1831916    1.000000000000

 H         

     66   S     115             5.4471780    0.156284978695
     66   S     116             0.8245472    0.904690876670

     67   S     117             0.1831916    1.000000000000

 H         

     68   S     118             5.4471780    0.156284978695
     68   S     119             0.8245472    0.904690876670

     69   S     120             0.1831916    1.000000000000

 TOTAL NUMBER OF BASIS SET SHELLS             =   69
 NUMBER OF CARTESIAN GAUSSIAN BASIS FUNCTIONS =  135
 NUMBER OF ELECTRONS                          =   85
 CHARGE OF MOLECULE                           =    1
 SPIN MULTIPLICITY                            =    2
 NUMBER OF OCCUPIED ORBITALS (ALPHA)          =   43
 NUMBER OF OCCUPIED ORBITALS (BETA )          =   42
 TOTAL NUMBER OF ATOMS                        =   29
 THE NUCLEAR REPULSION ENERGY IS      713.2541296246

     $CONTRL OPTIONS
     ---------------
 SCFTYP=UHF          RUNTYP=ENERGY       EXETYP=RUN     
 MPLEVL=       0     CITYP =NONE         CCTYP =NONE         VBTYP =NONE    
 DFTTYP=NONE         TDDFT =NONE    
 MULT  =       2     ICHARG=       1     NZVAR =       0     COORD =UNIQUE  
 PP    =NONE         RELWFN=NONE         LOCAL =NONE         NUMGRD=       F
 ISPHER=      -1     NOSYM =       0     MAXIT =      60     UNITS =ANGS    
 PLTORB=       F     MOLPLT=       F     AIMPAC=       F     FRIEND=        
 NPRINT=       7     IREST =       0     GEOM  =INPUT   
 NORMF =       0     NORMP =       0     ITOL  =      20     ICUT  =       9
 INTTYP=BEST         GRDTYP=BEST         QMTTOL= 1.0E-06

     $SYSTEM OPTIONS
     ---------------
  REPLICATED MEMORY=    30000000 WORDS (ON EVERY NODE).
 DISTRIBUTED MEMDDI=        1000 MILLION WORDS IN AGGREGATE,
 MEMDDI DISTRIBUTED OVER   6 PROCESSORS IS   166666666 WORDS/PROCESSOR.
 TOTAL MEMORY REQUESTED ON EACH PROCESSOR=   196666666 WORDS.
 TIMLIM=      525600.00 MINUTES, OR     365.0 DAYS.
 PARALL= T  BALTYP=  DLB     KDIAG=    0  COREFL= F
 MXSEQ2=     300 MXSEQ3=     150  mem10=         0

          ----------------
          PROPERTIES INPUT
          ----------------

     MOMENTS            FIELD           POTENTIAL          DENSITY
 IEMOM =       1   IEFLD =       0   IEPOT =       0   IEDEN =       0
 WHERE =COMASS     WHERE =NUCLEI     WHERE =NUCLEI     WHERE =NUCLEI  
 OUTPUT=BOTH       OUTPUT=BOTH       OUTPUT=BOTH       OUTPUT=BOTH    
 IEMINT=       0   IEFINT=       0                     IEDINT=       0
                                                       MORB  =       0
          EXTRAPOLATION IN EFFECT
          SOSCF IN EFFECT
          DIIS or SOSCF will be reset if energy rises
 ORBITAL PRINTING OPTION: NPREO=     1   135     2     1

     -------------------------------
     INTEGRAL TRANSFORMATION OPTIONS
     -------------------------------
     NWORD  =            0
     CUTOFF = 1.0E-09     MPTRAN =       0
     DIRTRF =       T     AOINTS =DUP     

          ----------------------
          INTEGRAL INPUT OPTIONS
          ----------------------
 NOPK  =       1 NORDER=       0 SCHWRZ=       T

     ------------------------------------------
     THE POINT GROUP IS C1 , NAXIS= 0, ORDER= 1
     ------------------------------------------

     DIMENSIONS OF THE SYMMETRY SUBSPACES ARE
 A   =  135

 ..... DONE SETTING UP THE RUN .....
 CPU     0: STEP CPU TIME=     0.02 TOTAL CPU TIME=          0.0 (      0.0 MIN)
 TOTAL WALL CLOCK TIME=          0.0 SECONDS, CPU UTILIZATION IS    66.67%

          ********************
          1 ELECTRON INTEGRALS
          ********************
 ...... END OF ONE-ELECTRON INTEGRALS ......
 CPU     0: STEP CPU TIME=     0.01 TOTAL CPU TIME=          0.0 (      0.0 MIN)
 TOTAL WALL CLOCK TIME=          0.1 SECONDS, CPU UTILIZATION IS    60.00%

          -------------
          GUESS OPTIONS
          -------------
          GUESS =HUCKEL            NORB  =       0          NORDER=       0
          MIX   =       F          PRTMO =       F          PUNMO =       F
          TOLZ  = 1.0E-08          TOLE  = 1.0E-05
          SYMDEN=       F          PURIFY=       F

 INITIAL GUESS ORBITALS GENERATED BY HUCKEL   ROUTINE.
 HUCKEL GUESS REQUIRES    174540 WORDS.

 SYMMETRIES FOR INITIAL GUESS ORBITALS FOLLOW.  ALPHA SET(S).
    43 ORBITALS ARE OCCUPIED (   11 CORE ORBITALS).
    12=A       13=A       14=A       15=A       16=A       17=A       18=A   
    19=A       20=A       21=A       22=A       23=A       24=A       25=A   
    26=A       27=A       28=A       29=A       30=A       31=A       32=A   
    33=A       34=A       35=A       36=A       37=A       38=A       39=A   
    40=A       41=A       42=A       43=A       44=A       45=A       46=A   
    47=A       48=A       49=A       50=A       51=A       52=A       53=A   

 SYMMETRIES FOR INITIAL GUESS ORBITALS FOLLOW.   BETA SET(S).
    42 ORBITALS ARE OCCUPIED (   11 CORE ORBITALS).
    12=A       13=A       14=A       15=A       16=A       17=A       18=A   
    19=A       20=A       21=A       22=A       23=A       24=A       25=A   
    26=A       27=A       28=A       29=A       30=A       31=A       32=A   
    33=A       34=A       35=A       36=A       37=A       38=A       39=A   
    40=A       41=A       42=A       43=A       44=A       45=A       46=A   
    47=A       48=A       49=A       50=A       51=A       52=A   
 ...... END OF INITIAL ORBITAL SELECTION ......
 CPU     0: STEP CPU TIME=     0.06 TOTAL CPU TIME=          0.1 (      0.0 MIN)
 TOTAL WALL CLOCK TIME=          0.1 SECONDS, CPU UTILIZATION IS    81.82%

                    ----------------------
                    AO INTEGRAL TECHNOLOGY
                    ----------------------
     S,P,L SHELL ROTATED AXIS INTEGRALS, REPROGRAMMED BY
        KAZUYA ISHIMURA (IMS) AND JOSE SIERRA (SYNSTAR).
     S,P,D,L SHELL ROTATED AXIS INTEGRALS PROGRAMMED BY
        KAZUYA ISHIMURA (INSTITUTE FOR MOLECULAR SCIENCE).
     S,P,D,F,G SHELL TO TOTAL QUARTET ANGULAR MOMENTUM SUM 5,
        ERIC PROGRAM BY GRAHAM FLETCHER (ELORET AND NASA ADVANCED
        SUPERCOMPUTING DIVISION, AMES RESEARCH CENTER).
     S,P,D,F,G,L SHELL GENERAL RYS QUADRATURE PROGRAMMED BY
        MICHEL DUPUIS (PACIFIC NORTHWEST NATIONAL LABORATORY).

          --------------------
          2 ELECTRON INTEGRALS
          --------------------

 DIRECT SCF METHOD SKIPS INTEGRAL STORAGE ON DISK.
 DIRECT TRANSFORMATION SKIPS AO INTEGRAL STORAGE ON DISK.
  ...... END OF TWO-ELECTRON INTEGRALS .....
 CPU     0: STEP CPU TIME=     0.01 TOTAL CPU TIME=          0.1 (      0.0 MIN)
 TOTAL WALL CLOCK TIME=          0.1 SECONDS, CPU UTILIZATION IS    83.33%

          ---------------------------
                  UHF SCF CALCULATION
          ---------------------------

     NUCLEAR ENERGY =       713.2541296246
     MAXIT = 60     NPUNCH=  2     MULT=  2
     EXTRAP=T  DAMP=F  SHIFT=F  RSTRCT=F  DIIS=F  SOSCF=T
     DENSITY MATRIX CONV=  2.00E-05
     SOSCF WILL OPTIMIZE    3956 ALPHA AND    3906 BETA ROTATION ANGLES.
     SOGTOL= 2.500E-01
     MEMORY REQUIRED FOR UHF/ROHF ITERS=    288630 WORDS.

 DIRECT SCF CALCULATION, SCHWRZ=T   FDIFF=T
 SCHWARZ INEQUALITY OVERHEAD:      8972 INTEGRALS, T=        0.00

                                                                                NONZERO     BLOCKS
 ITER EX      TOTAL ENERGY        E CHANGE  DENSITY CHANGE    ORB. GRAD       INTEGRALS    SKIPPED
   1  0     -459.9837021592  -459.9837021592   1.189280760   0.000000000       31627278    1202726
          ---------------START SECOND ORDER SCF---------------
   2  1     -460.9953000013    -1.0115978421   0.181030910   0.044444254       31417974    1243689
   3  2     -461.0673814086    -0.0720814073   0.198809249   0.019054474       31071663    1304272
   4  3     -461.0986084572    -0.0312270486   0.048839611   0.007490291       30326466    1395812
   5  4     -461.1005979265    -0.0019894693   0.035756203   0.004473551       29603036    1462591
   6  5     -461.1016321994    -0.0010342729   0.009308422   0.002101067       29657011    1460262
   7  6     -461.1020865596    -0.0004543602   0.012237472   0.001337834       29379508    1492186
   8  7     -461.1023205813    -0.0002340217   0.008546256   0.001711747       29153619    1510384
   9  8     -461.1024944494    -0.0001738682   0.010457055   0.001652529       29022446    1520655
  10  9     -461.1027433222    -0.0002488728   0.014938495   0.001559742       29493658    1479677
  11 10     -461.1030901105    -0.0003467882   0.018266328   0.002545253       29930859    1438553
  12 11     -461.1034560423    -0.0003659318   0.013036389   0.002770901       30097969    1421287
  13 12     -461.1037765937    -0.0003205514   0.009242175   0.001933069       29712378    1458220
  14 13     -461.1040416089    -0.0002650153   0.010338703   0.001307028       29515678    1474155
  15 14     -461.1042004986    -0.0001588897   0.026626763   0.001295992       29461679    1480433
  16 15     -461.1046282760    -0.0004277774   0.211001858   0.002037888       30144995    1414996
  17 16     -461.0884501118     0.0161781642   0.179284423   0.015873463       31315259    1269430
  18 17     -461.0987545508    -0.0103044391   0.054704486   0.024634606       31295542    1271709
  19 18     -461.1065171752    -0.0077626244   0.023686370   0.008323780       30973593    1317830
  20 19     -461.1086556783    -0.0021385030   0.036461735   0.007079246       29677973    1459756
  21 20     -461.1104529378    -0.0017972596   0.030986084   0.006574874       30361547    1398918
  22 21     -461.1126704000    -0.0022174622   0.023946741   0.003894319       30336043    1398844
  23 22     -461.1138327425    -0.0011623425   0.019500571   0.004418271       29762470    1442572
  24 23     -461.1142136702    -0.0003809277   0.010229487   0.001520803       29915458    1440179
  25 24     -461.1143741279    -0.0001604577   0.002758798   0.000842294       29155578    1517427
  26 25     -461.1144125514    -0.0000384234   0.001929937   0.000505119       28235171    1592161
  27 26     -461.1144327610    -0.0000202096   0.002370970   0.000366825       27490849    1647692
  28 27     -461.1144463998    -0.0000136388   0.001825418   0.000249706       27574938    1644778
  29 28     -461.1144533908    -0.0000069910   0.002237648   0.000192500       27267391    1670396
  30 29     -461.1144594818    -0.0000060909   0.001396929   0.000177985       27486469    1651067
  31 30     -461.1144623819    -0.0000029001   0.000909087   0.000137137       26876102    1703081
  32 31     -461.1144639923    -0.0000016104   0.000656564   0.000088975       26452854    1738417
  33 32     -461.1144646463    -0.0000006541   0.000312358   0.000042691       25768671    1787471
  34 33     -461.1144649031    -0.0000002567   0.000170027   0.000030447       25229738    1828863
  35 34     -461.1144649853    -0.0000000823   0.000103973   0.000020145       24292706    1895095
  36 35     -461.1144650131    -0.0000000277   0.000065825   0.000013072       23550193    1947956
  37 36     -461.1144650217    -0.0000000087   0.000025779   0.000004608       22524533    2009735
  38 37     -461.1144650237    -0.0000000020   0.000010213   0.000001468       21348078    2078850
  39 38     -461.1144650236     0.0000000002   0.000004741   0.000000678       19965143    2157686

          -----------------
          DENSITY CONVERGED
          -----------------
     TIME TO FORM FOCK OPERATORS=      22.5 SECONDS (       0.6 SEC/ITER)
     FOCK TIME ON FIRST ITERATION=       0.6, LAST ITERATION=       0.3
     TIME TO SOLVE SCF EQUATIONS=       0.7 SECONDS (       0.0 SEC/ITER)

 FINAL UHF ENERGY IS     -461.1144650236 AFTER  39 ITERATIONS

          --------------------
          SPIN SZ   =    0.500
          S-SQUARED =    0.760
          --------------------

  ----- ALPHA SET ----- 

          ------------
          EIGENVECTORS
          ------------

                      1          2          3          4          5
                  -20.6043   -11.4347   -11.4198   -11.4045   -11.3813
                     A          A          A          A          A   
    1  O  1  S    0.983566  -0.000042   0.000114  -0.000222  -0.000041
    2  O  1  S    0.098735  -0.000443   0.000662  -0.000768  -0.000255
    3  O  1  X    0.002766  -0.000159  -0.000154   0.000304  -0.000009
    4  O  1  Y    0.002208   0.000227   0.000212   0.000304   0.000046
    5  O  1  Z   -0.001496   0.000145   0.000258  -0.000474  -0.000049
    6  O  1  S   -0.048312   0.001356  -0.003745   0.009361   0.001390
    7  O  1  X   -0.009601   0.000884  -0.001363   0.004308   0.001012
    8  O  1  Y   -0.003497  -0.000969   0.000311  -0.002189  -0.000447
    9  O  1  Z    0.004426  -0.000563  -0.000265   0.000128   0.000222
   10  C  2  S    0.000310  -0.000008   0.989099   0.003942   0.010020
   11  C  2  S    0.001568  -0.002264   0.113540  -0.001530  -0.003895
   12  C  2  X    0.000062   0.001623   0.002113  -0.000239  -0.001619
   13  C  2  Y   -0.000480   0.000249   0.000945   0.001065  -0.001028
   14  C  2  Z    0.000469   0.000329   0.001480  -0.000087  -0.001992
   15  C  2  S   -0.008008   0.024109  -0.123787   0.018154   0.013004
   16  C  2  X    0.002442   0.014351  -0.009091  -0.003531   0.010025
   17  C  2  Y   -0.002978  -0.000122  -0.008981   0.014942   0.011189
   18  C  2  Z   -0.006219  -0.003765  -0.014742   0.002137   0.020681
   19  C  3  S   -0.000101   0.988770  -0.000964   0.006181  -0.000646
   20  C  3  S   -0.000729   0.111233  -0.002070  -0.001014  -0.001663
   21  C  3  X    0.000211  -0.001231  -0.002060   0.001054   0.000525
   22  C  3  Y   -0.000830   0.000344  -0.000190  -0.000956   0.000908
   23  C  3  Z   -0.000193   0.000829  -0.000122   0.000005   0.001784
   24  C  3  S    0.001081  -0.112930   0.021327   0.001647   0.020820
   25  C  3  X   -0.001588   0.005625  -0.015592  -0.003970   0.002943
   26  C  3  Y    0.005424  -0.002284  -0.002424   0.006712   0.006196
   27  C  3  Z    0.002227  -0.005775  -0.002312   0.001872   0.012440
   28  C  4  S   -0.000036  -0.000200  -0.011532  -0.001680   0.988888
   29  C  4  S   -0.000262  -0.002176  -0.006476   0.000051   0.111829
   30  C  4  X    0.000177  -0.000251   0.001140   0.000498  -0.003189
   31  C  4  Y    0.000442  -0.000782   0.000621  -0.000834  -0.001119
   32  C  4  Z    0.000067  -0.001571   0.000894   0.000360  -0.001780
   33  C  4  S   -0.000813   0.024701   0.019407  -0.006015  -0.115157
   34  C  4  X   -0.002541   0.000094  -0.013595   0.002515   0.028635
   35  C  4  Y   -0.002181  -0.006164  -0.003023  -0.000517   0.006545
   36  C  4  Z    0.002551  -0.012710  -0.003480   0.003311   0.008487
   37  C  5  S   -0.000964  -0.006515  -0.005122   0.988320   0.002041
   38  C  5  S   -0.004023  -0.002218  -0.004350   0.106150   0.001229
   39  C  5  X   -0.001059  -0.000532   0.000538   0.000987  -0.000864
   40  C  5  Y    0.000535   0.000416  -0.001598  -0.001400   0.000492
   41  C  5  Z    0.000097   0.000278  -0.000261   0.000609  -0.000300
   42  C  5  S    0.024514   0.002128   0.037258  -0.095086  -0.016365
   43  C  5  X   -0.012146   0.001842   0.006688  -0.012624  -0.004695
   44  C  5  Y   -0.002229   0.000181  -0.016497   0.009043   0.004472
   45  C  5  Z    0.009400  -0.001411   0.001733  -0.006573  -0.004823
   46  C  6  S    0.000042  -0.002027  -0.000743  -0.005257  -0.001711
   47  C  6  S    0.000578  -0.001782  -0.003186  -0.003697   0.000256
   48  C  6  X    0.000070  -0.000604   0.000380  -0.000029  -0.000756
   49  C  6  Y    0.000514  -0.000130   0.001221  -0.001977  -0.000842
   50  C  6  Z   -0.000150   0.000661  -0.001554   0.000490   0.000253
   51  C  6  S    0.001602   0.002109   0.033898   0.006782  -0.013960
   52  C  6  X    0.000364   0.001219   0.005162   0.001360  -0.004377
   53  C  6  Y   -0.000790  -0.000381   0.009066   0.008291  -0.005083
   54  C  6  Z   -0.002497  -0.001536  -0.012391  -0.000426   0.001500
   55  C  7  S    0.000258  -0.001798  -0.000237  -0.003113  -0.001265
   56  C  7  S    0.001232  -0.001576   0.000921  -0.004223  -0.003393
   57  C  7  X    0.000218  -0.000453   0.000319  -0.000427   0.000905
   58  C  7  Y    0.000061   0.000624   0.000765  -0.000083  -0.001823
   59  C  7  Z    0.000515   0.000444   0.000333  -0.000922  -0.000095
   60  C  7  S   -0.005433   0.000568  -0.013795   0.030028   0.036622
   61  C  7  X    0.005712   0.001301   0.000521  -0.011897   0.003982
   62  C  7  Y    0.001406  -0.000139   0.006852  -0.009516  -0.016556
   63  C  7  Z   -0.003104  -0.001080   0.002092  -0.006890   0.000225
   64  C  8  S   -0.000001  -0.001778  -0.000356   0.001095  -0.000873
   65  C  8  S   -0.000037  -0.001587   0.000719   0.001311  -0.003093
   66  C  8  X   -0.000063  -0.000422   0.000367   0.000391   0.000667
   67  C  8  Y   -0.000103  -0.000014  -0.000315   0.000406   0.001273
   68  C  8  Z    0.000012   0.000816   0.000759   0.000080  -0.001510
   69  C  8  S   -0.001088   0.000945  -0.012740  -0.005368   0.035223
   70  C  8  X   -0.001493   0.001426   0.000291   0.002081   0.002702
   71  C  8  Y   -0.000432  -0.001225  -0.001819  -0.002428   0.010259
   72  C  8  Z    0.000775  -0.001055   0.006299   0.001946  -0.012974
   73  C  9  S    0.000081  -0.001239  -0.000561  -0.002514  -0.003184
   74  C  9  S    0.000690  -0.000637  -0.001827  -0.001519  -0.002358
   75  C  9  X   -0.000041  -0.000904   0.000233  -0.000105  -0.000061
   76  C  9  Y    0.000335  -0.000235   0.000305  -0.000832   0.000155
   77  C  9  Z    0.000131  -0.000295   0.000546  -0.000425   0.000321
   78  C  9  S   -0.002284  -0.001425   0.015827   0.002457   0.015247
   79  C  9  X   -0.000941  -0.000380   0.004982   0.000967   0.005325
   80  C  9  Y   -0.001360  -0.000387   0.003903   0.000633   0.002748
   81  C  9  Z   -0.000081  -0.000559   0.006959   0.000823   0.004935
   82  C 10  S    0.000037  -0.000558  -0.001798  -0.000774  -0.003725
   83  C 10  S    0.000140  -0.002173  -0.001000  -0.000218  -0.001419
   84  C 10  X    0.000346  -0.000312   0.000699   0.000505   0.000171
   85  C 10  Y    0.000128  -0.000731   0.000264  -0.000119   0.000021
   86  C 10  Z   -0.000183   0.000833  -0.000438  -0.000320  -0.000808
   87  C 10  S   -0.002016   0.021646   0.000399  -0.000838   0.001383
   88  C 10  X   -0.000418  -0.005609   0.000266  -0.000285  -0.000667
   89  C 10  Y   -0.001571  -0.004486   0.000413  -0.000111   0.000038
   90  C 10  Z   -0.000507   0.009609   0.000772  -0.000381   0.000148
   91  C 11  S   -0.000042  -0.000570  -0.001795  -0.001816  -0.003433
   92  C 11  S   -0.000169  -0.002192  -0.001055  -0.001552  -0.001372
   93  C 11  X   -0.000195  -0.000425   0.000761   0.000217   0.000243
   94  C 11  Y    0.000122   0.001064  -0.000428   0.000030  -0.000612
   95  C 11  Z    0.000007  -0.000030  -0.000093   0.000037  -0.000489
   96  C 11  S    0.002950   0.021810   0.000410   0.006870   0.001312
   97  C 11  X   -0.000300  -0.006607   0.000191  -0.002581  -0.000841
   98  C 11  Y    0.001471   0.009726   0.000226   0.002593  -0.000078
   99  C 11  Z   -0.000301   0.002782   0.000645  -0.000246   0.000119
  100  H 12  S    0.000358  -0.001369   0.000269  -0.000159  -0.000308
  101  H 12  S    0.000910  -0.000548   0.005051   0.000174   0.005709
  102  H 13  S   -0.000907  -0.000190  -0.001636   0.000762   0.000398
  103  H 13  S   -0.000267  -0.001852   0.000785   0.012656  -0.000908
  104  H 14  S   -0.000411  -0.000076  -0.001707  -0.001134   0.000666
  105  H 14  S    0.001551   0.001625   0.000220  -0.000332  -0.000423
  106  H 15  S   -0.000164  -0.000137  -0.001738   0.000249   0.000399
  107  H 15  S   -0.001049  -0.001508  -0.000079   0.004076  -0.000177
  108  H 16  S    0.000901  -0.000046   0.000636  -0.002213  -0.001885
  109  H 16  S    0.002458   0.001636  -0.000504   0.000314  -0.000907
  110  H 17  S   -0.000154  -0.000008   0.000415  -0.001205  -0.001465
  111  H 17  S   -0.001370  -0.001620  -0.000145   0.001940   0.001305
  112  H 18  S   -0.000024   0.000006   0.000396   0.000714  -0.001719
  113  H 18  S   -0.000416   0.001765  -0.000561  -0.000093  -0.000361
  114  H 19  S    0.000145  -0.000101   0.000551  -0.000063  -0.001537
  115  H 19  S    0.000186  -0.001927   0.000143  -0.000965   0.001012
  116  H 20  S    0.000034  -0.000242  -0.001004  -0.000310  -0.000434
  117  H 20  S   -0.000051   0.001538   0.000445   0.000160   0.000638
  118  H 21  S    0.000097   0.000230  -0.001066  -0.000269  -0.000800
  119  H 21  S   -0.000596  -0.000900   0.000114   0.000950  -0.000371
  120  H 22  S    0.000241   0.000198  -0.001083   0.000009  -0.000799
  121  H 22  S    0.000682  -0.000773   0.000096  -0.001255  -0.000335
  122  H 23  S    0.000127  -0.001102  -0.000347   0.000050   0.000064
  123  H 23  S    0.000662   0.000529   0.001178   0.000502  -0.000591
  124  H 24  S    0.000012  -0.001197   0.000212   0.000129  -0.000265
  125  H 24  S   -0.000455   0.000751  -0.000486  -0.000301   0.000892
  126  H 25  S   -0.000247  -0.001462  -0.000033  -0.000017  -0.000056
  127  H 25  S    0.002302  -0.001125  -0.000754  -0.000226  -0.001047
  128  H 26  S   -0.000154  -0.001188   0.000217  -0.000494  -0.000260
  129  H 26  S    0.000023   0.000757  -0.000689  -0.000402   0.000845
  130  H 27  S   -0.000128  -0.001125  -0.000331  -0.000240   0.000056
  131  H 27  S   -0.000290   0.000534   0.001188   0.000512  -0.000413
  132  H 28  S   -0.000043  -0.001477  -0.000058  -0.000352  -0.000043
  133  H 28  S    0.000235  -0.001138  -0.000739  -0.000389  -0.001156
  134  H 29  S    0.003111   0.000145   0.000272   0.000068  -0.000081
  135  H 29  S    0.004557   0.000555   0.001130   0.002047   0.000313

                      6          7          8          9         10
                  -11.3380   -11.3349   -11.3348   -11.3322   -11.3300
                     A          A          A          A          A   
    1  O  1  S   -0.000001  -0.000039   0.000085   0.000064   0.000097
    2  O  1  S   -0.000026  -0.000307   0.000627   0.000591   0.000515
    3  O  1  X   -0.000036  -0.000029  -0.000022   0.000063  -0.000038
    4  O  1  Y    0.000056   0.000058  -0.000096  -0.000242  -0.000037
    5  O  1  Z    0.000011  -0.000019   0.000081  -0.000176   0.000031
    6  O  1  S    0.000008   0.001268  -0.002787  -0.002047  -0.003225
    7  O  1  X    0.000131   0.000669  -0.001208  -0.000780  -0.002335
    8  O  1  Y   -0.000261  -0.000473   0.001087   0.001234   0.000149
    9  O  1  Z    0.000018   0.000178  -0.000324   0.001025  -0.000271
   10  C  2  S    0.001603   0.001659   0.000807   0.000183   0.000616
   11  C  2  S   -0.000610  -0.000261  -0.001197  -0.000451   0.000278
   12  C  2  X   -0.000606  -0.000731  -0.000392   0.000187  -0.000092
   13  C  2  Y   -0.000543   0.001067  -0.000010   0.000204  -0.000715
   14  C  2  Z    0.000816  -0.000194   0.000986   0.000505  -0.000180
   15  C  2  S    0.000208  -0.005347   0.011388   0.012798  -0.005647
   16  C  2  X    0.001784   0.002968  -0.000116  -0.006916  -0.000882
   17  C  2  Y    0.001428   0.000436  -0.009555  -0.008347  -0.003820
   18  C  2  Z   -0.003814  -0.006306   0.007351  -0.012505   0.001235
   19  C  3  S   -0.000044  -0.000762   0.001437   0.001285   0.001302
   20  C  3  S   -0.000415   0.000183  -0.001527  -0.000625  -0.001159
   21  C  3  X    0.000156  -0.000214   0.000738   0.000583   0.000379
   22  C  3  Y   -0.000107  -0.000220   0.000457   0.000434  -0.001405
   23  C  3  Z   -0.000007   0.000321  -0.000829   0.000734  -0.000240
   24  C  3  S    0.010017   0.009623   0.007853   0.000894   0.001246
   25  C  3  X    0.002986   0.005899  -0.000076  -0.001692  -0.003884
   26  C  3  Y    0.009226  -0.008806  -0.006676  -0.001662   0.007409
   27  C  3  Z   -0.009225  -0.002670   0.005467  -0.003257  -0.000165
   28  C  4  S    0.003239   0.002233   0.003326   0.002680   0.000384
   29  C  4  S   -0.000585  -0.000520  -0.000440  -0.001354  -0.001215
   30  C  4  X   -0.000260  -0.000554   0.000311   0.000452  -0.000501
   31  C  4  Y   -0.000515   0.000452   0.001084   0.000103   0.001107
   32  C  4  Z    0.000936   0.000423  -0.000104   0.000002  -0.000275
   33  C  4  S    0.000611   0.001990  -0.003566   0.005506   0.014246
   34  C  4  X    0.001142   0.001475   0.000430  -0.003577  -0.004773
   35  C  4  Y    0.001474  -0.003617   0.001424  -0.001489   0.011198
   36  C  4  Z   -0.003006  -0.001485   0.000740  -0.002197  -0.002226
   37  C  5  S    0.000549  -0.000740   0.004518   0.002414   0.001798
   38  C  5  S    0.000020   0.000429  -0.003033  -0.001514  -0.003721
   39  C  5  X   -0.000178  -0.000080  -0.000300   0.000413   0.000790
   40  C  5  Y    0.000042  -0.000601   0.001221   0.000767   0.000219
   41  C  5  Z    0.000394   0.000624  -0.001157   0.000746  -0.000048
   42  C  5  S   -0.000164  -0.000261   0.010056   0.005243   0.030341
   43  C  5  X   -0.000479  -0.000040   0.001946  -0.001830   0.009575
   44  C  5  Y    0.000479   0.000572  -0.006496  -0.004158   0.001746
   45  C  5  Z   -0.000468  -0.003946   0.005949  -0.001185   0.011578
   46  C  6  S   -0.029817  -0.463800   0.869714   0.058884  -0.009448
   47  C  6  S   -0.004235  -0.049708   0.092891   0.005088   0.000286
   48  C  6  X   -0.000232  -0.000473   0.000548   0.000551  -0.000392
   49  C  6  Y   -0.000070  -0.000296   0.000928   0.000352  -0.000130
   50  C  6  Z    0.000020   0.000653  -0.000676   0.000723  -0.000283
   51  C  6  S    0.006571   0.043566  -0.081103  -0.001943  -0.008115
   52  C  6  X    0.001100   0.002817  -0.007245  -0.001823  -0.002361
   53  C  6  Y    0.000995   0.003383  -0.006553   0.000081  -0.003622
   54  C  6  Z   -0.002037  -0.001235   0.002444  -0.002269  -0.001211
   55  C  7  S   -0.005141  -0.020902  -0.001731  -0.020684   0.977323
   56  C  7  S   -0.000650  -0.003574   0.000338  -0.002523   0.105088
   57  C  7  X   -0.000362  -0.000232   0.000357  -0.000057   0.000064
   58  C  7  Y    0.000033   0.000097   0.000120   0.000202  -0.001548
   59  C  7  Z    0.000263   0.000063   0.000399   0.000073  -0.000127
   60  C  7  S    0.000367   0.007478  -0.004047   0.001872  -0.093828
   61  C  7  X    0.000132   0.000498   0.002152  -0.000849   0.004029
   62  C  7  Y    0.000760  -0.002752   0.002496   0.000715   0.011966
   63  C  7  Z    0.000053  -0.000395  -0.000875  -0.000978   0.003717
   64  C  8  S   -0.008477   0.001124  -0.021141  -0.012572  -0.143669
   65  C  8  S   -0.001762   0.001221  -0.004976  -0.001846  -0.018117
   66  C  8  X    0.000039  -0.000125  -0.000644  -0.000039   0.000520
   67  C  8  Y    0.000074   0.000422  -0.000357  -0.000176  -0.001531
   68  C  8  Z    0.000228   0.000536  -0.000292   0.000172   0.000855
   69  C  8  S    0.003231  -0.011133   0.023705   0.002251   0.019527
   70  C  8  X    0.001639   0.005392  -0.008518  -0.001502  -0.004284
   71  C  8  Y    0.000717   0.000369  -0.002256  -0.000849   0.005606
   72  C  8  Z   -0.001407   0.003880  -0.007756  -0.000546  -0.004699
   73  C  9  S    0.003009   0.031688  -0.050065   0.985484   0.019220
   74  C  9  S    0.000636   0.004102  -0.005924   0.102033   0.001408
   75  C  9  X   -0.000013  -0.000031  -0.000175   0.000148   0.000064
   76  C  9  Y   -0.000180  -0.000007   0.000142   0.000304  -0.000271
   77  C  9  Z    0.000009   0.000246  -0.000819   0.000334   0.000060
   78  C  9  S   -0.001814  -0.005054   0.003968  -0.082957   0.000362
   79  C  9  X   -0.001197  -0.001181  -0.000688  -0.002767   0.000197
   80  C  9  Y   -0.000211  -0.000036   0.000237  -0.002669   0.002689
   81  C  9  Z   -0.000034  -0.000511   0.000432  -0.004573  -0.000146
   82  C 10  S    0.984199   0.052163   0.061144  -0.001720   0.004917
   83  C 10  S    0.102028   0.003893   0.004196   0.000069   0.000583
   84  C 10  X    0.000022  -0.000395   0.000006  -0.000072   0.000317
   85  C 10  Y   -0.000564   0.000959   0.000520   0.000144  -0.000134
   86  C 10  Z    0.000356  -0.000123  -0.000061   0.000001  -0.000512
   87  C 10  S   -0.081186  -0.001386   0.002981  -0.000880  -0.002898
   88  C 10  X    0.000748   0.001790  -0.001208   0.001270   0.000715
   89  C 10  Y    0.003397  -0.002867  -0.003527   0.000441   0.000044
   90  C 10  Z   -0.003092  -0.000036   0.001808  -0.000015  -0.000366
   91  C 11  S   -0.075578   0.869575   0.461465  -0.004672   0.017021
   92  C 11  S   -0.010163   0.089915   0.047597  -0.000176   0.000579
   93  C 11  X   -0.000259  -0.000315   0.000329  -0.000043  -0.000148
   94  C 11  Y   -0.000904   0.000549   0.000105  -0.000099   0.000007
   95  C 11  Z    0.000787   0.000030  -0.000292   0.000076  -0.000078
   96  C 11  S    0.012667  -0.070501  -0.038401  -0.000871   0.005378
   97  C 11  X    0.000580   0.001434   0.000505   0.001404  -0.000967
   98  C 11  Y    0.004118  -0.003563  -0.001624  -0.000163   0.003282
   99  C 11  Z   -0.002601   0.000410  -0.000367   0.000510   0.001059
  100  H 12  S   -0.000175  -0.000107  -0.000028   0.000033  -0.000874
  101  H 12  S   -0.000637  -0.001083   0.000475   0.001689  -0.000057
  102  H 13  S    0.000021  -0.000313   0.000091  -0.000570  -0.001273
  103  H 13  S   -0.001230  -0.002322   0.003452  -0.000147   0.001548
  104  H 14  S   -0.000186  -0.000626   0.000655  -0.000181   0.000731
  105  H 14  S    0.000025  -0.006347   0.011948  -0.000349  -0.000151
  106  H 15  S   -0.000255  -0.000211   0.000869  -0.000420   0.000150
  107  H 15  S   -0.000707  -0.007482   0.011023   0.000506  -0.000808
  108  H 16  S   -0.000125  -0.000437   0.000573   0.000026   0.001301
  109  H 16  S    0.000143   0.000227   0.000242  -0.000202   0.013792
  110  H 17  S    0.000137  -0.000206  -0.000161  -0.000176   0.000735
  111  H 17  S   -0.001518  -0.000469  -0.000966  -0.000335   0.011953
  112  H 18  S   -0.000074   0.000687  -0.001414  -0.000157  -0.000967
  113  H 18  S    0.000420   0.000473   0.000107   0.000055  -0.003510
  114  H 19  S   -0.000224   0.000534  -0.001140  -0.000133   0.000020
  115  H 19  S   -0.000502  -0.001784   0.000024   0.000069   0.001720
  116  H 20  S   -0.000058   0.000026  -0.000161   0.000505  -0.000257
  117  H 20  S   -0.000152   0.000682  -0.001414   0.014047   0.000348
  118  H 21  S    0.000194   0.000118   0.000115   0.000356   0.000150
  119  H 21  S    0.000269   0.001153  -0.001564   0.013911   0.001163
  120  H 22  S    0.000160   0.000307  -0.000074   0.000367  -0.000372
  121  H 22  S   -0.000035   0.000148   0.000148   0.014260  -0.000527
  122  H 23  S    0.000591  -0.000467  -0.000470  -0.000138   0.000280
  123  H 23  S    0.014385  -0.000854   0.000566  -0.000303  -0.000395
  124  H 24  S    0.000474  -0.000358  -0.000674   0.000255   0.000101
  125  H 24  S    0.014476  -0.000629  -0.000168  -0.000348   0.000455
  126  H 25  S   -0.000011   0.000088  -0.000264   0.000219  -0.000097
  127  H 25  S    0.014137   0.002758   0.001617  -0.000071   0.000804
  128  H 26  S   -0.000744   0.000304   0.000280   0.000234  -0.000206
  129  H 26  S   -0.002561   0.012608   0.006473  -0.000070   0.000595
  130  H 27  S   -0.000685   0.000389   0.000249  -0.000133  -0.000576
  131  H 27  S   -0.002931   0.012248   0.006975  -0.000387   0.000223
  132  H 28  S   -0.000045   0.000041  -0.000096   0.000283  -0.000273
  133  H 28  S    0.000959   0.012629   0.007230  -0.000318  -0.000126
  134  H 29  S    0.000058  -0.000019  -0.000096  -0.000145   0.000003
  135  H 29  S    0.000086   0.000372   0.000121  -0.000228  -0.000586

                     11         12         13         14         15
                  -11.3278    -1.5133    -1.3963    -1.2301    -1.2239
                     A          A          A          A          A   
    1  O  1  S   -0.000014  -0.215759   0.054400   0.030157   0.006637
    2  O  1  S   -0.000054   0.199202  -0.050346  -0.028114  -0.005933
    3  O  1  X    0.000041   0.045470   0.003617   0.019418   0.006637
    4  O  1  Y   -0.000056   0.050544  -0.022492  -0.028627   0.002977
    5  O  1  Z    0.000061  -0.026284   0.002561  -0.006757   0.006518
    6  O  1  S    0.000690   0.681667  -0.180429  -0.106038  -0.025852
    7  O  1  X    0.000200   0.071278  -0.008415   0.010380   0.004025
    8  O  1  Y   -0.000006   0.057820  -0.020906  -0.027252   0.003495
    9  O  1  Z   -0.000287  -0.039362   0.007986  -0.002912   0.006364
   10  C  2  S    0.000833  -0.030899  -0.111207  -0.105702   0.078968
   11  C  2  S    0.000112   0.025419   0.102815   0.085625  -0.065418
   12  C  2  X   -0.000200  -0.003686   0.047689  -0.064083   0.002871
   13  C  2  Y   -0.000047   0.017963   0.008820  -0.007521   0.027842
   14  C  2  Z   -0.000793   0.005553   0.013284   0.010721   0.063756
   15  C  2  S   -0.006002   0.077134   0.289078   0.361891  -0.251077
   16  C  2  X   -0.002760  -0.012437   0.023487   0.032980  -0.001646
   17  C  2  Y    0.003600   0.003963   0.021149   0.021999  -0.014202
   18  C  2  Z    0.000034   0.022906   0.029656   0.031396  -0.014265
   19  C  3  S    0.001732  -0.013563  -0.125901   0.101736   0.056516
   20  C  3  S   -0.001607   0.015429   0.117660  -0.083360  -0.045885
   21  C  3  X    0.000422  -0.009649  -0.037032  -0.082240   0.015786
   22  C  3  Y    0.000385   0.005071   0.008525  -0.002217   0.039759
   23  C  3  Z   -0.001325   0.003978   0.023932   0.019704   0.079525
   24  C  3  S    0.002199   0.030367   0.309269  -0.349628  -0.199811
   25  C  3  X   -0.004954   0.005986   0.003398   0.010090   0.007106
   26  C  3  Y   -0.003527  -0.018319   0.006509  -0.004807  -0.000947
   27  C  3  Z    0.005933  -0.007815   0.004158  -0.005045  -0.005510
   28  C  4  S    0.000153  -0.011409  -0.089940   0.043685  -0.115135
   29  C  4  S   -0.001405   0.012647   0.088062  -0.037118   0.091544
   30  C  4  X   -0.000601  -0.008049  -0.028599  -0.026668  -0.032517
   31  C  4  Y   -0.000660  -0.000564  -0.019256   0.008059   0.014551
   32  C  4  Z    0.000614  -0.004553  -0.034897   0.036565   0.031906
   33  C  4  S    0.018247   0.025464   0.188551  -0.123031   0.373828
   34  C  4  X   -0.002960   0.003190  -0.038390   0.017759  -0.069462
   35  C  4  Y   -0.006327   0.005324  -0.005262  -0.000710  -0.020454
   36  C  4  Z    0.007606  -0.009354  -0.002003  -0.004911  -0.031870
   37  C  5  S   -0.000266  -0.082762  -0.035312  -0.045992  -0.011877
   38  C  5  S    0.000630   0.088953   0.044238   0.048776   0.006663
   39  C  5  X   -0.000242  -0.065796   0.050487   0.012760   0.029962
   40  C  5  Y   -0.000112   0.002428  -0.036104  -0.045746   0.032798
   41  C  5  Z   -0.000175   0.032044  -0.004230  -0.010697   0.037866
   42  C  5  S   -0.003092   0.128182   0.038159   0.085533   0.062657
   43  C  5  X    0.000487   0.027361   0.000897   0.006072   0.013519
   44  C  5  Y    0.002338   0.004981   0.013863   0.010484  -0.018984
   45  C  5  Z   -0.001207  -0.014623  -0.000007  -0.007966   0.004001
   46  C  6  S    0.017338  -0.010772  -0.054241  -0.077822  -0.015492
   47  C  6  S   -0.001040   0.012973   0.061382   0.076024   0.010820
   48  C  6  X    0.000662   0.000572   0.023793  -0.003931   0.024134
   49  C  6  Y    0.000081   0.006454   0.023453   0.018202   0.012421
   50  C  6  Z    0.000223  -0.004807  -0.021613  -0.027190   0.040986
   51  C  6  S    0.023369  -0.000429   0.081868   0.173508   0.068227
   52  C  6  X    0.010093   0.002804  -0.001839  -0.002775   0.008521
   53  C  6  Y    0.005726   0.000726  -0.010439  -0.008796   0.013341
   54  C  6  Z    0.006045   0.008187   0.010241   0.004210  -0.011871
   55  C  7  S    0.142638  -0.020196  -0.046624  -0.002204  -0.091458
   56  C  7  S    0.012378   0.019571   0.052062   0.000754   0.088689
   57  C  7  X    0.000336  -0.014130   0.005805  -0.023096   0.014466
   58  C  7  Y    0.001263  -0.008073  -0.034933  -0.001079  -0.032785
   59  C  7  Z   -0.000769  -0.007838  -0.011348  -0.004313   0.009180
   60  C  7  S   -0.006169   0.028472   0.076232   0.019770   0.203671
   61  C  7  X   -0.002735  -0.011340   0.001987   0.007001  -0.002007
   62  C  7  Y   -0.005298  -0.000011   0.003915  -0.011047   0.010905
   63  C  7  Z    0.002687   0.013085  -0.007399   0.002758  -0.004054
   64  C  8  S    0.977233  -0.006131  -0.049780  -0.021025  -0.087165
   65  C  8  S    0.103809   0.006915   0.054427   0.017102   0.085180
   66  C  8  X    0.000081  -0.001862  -0.001666  -0.029406   0.010206
   67  C  8  Y    0.000425   0.002457   0.011867  -0.010019   0.029848
   68  C  8  Z   -0.001202  -0.005074  -0.034856  -0.005755  -0.020329
   69  C  8  S   -0.089203   0.012825   0.081380   0.069371   0.188453
   70  C  8  X    0.002108   0.004447  -0.001564   0.003020   0.001619
   71  C  8  Y   -0.001901   0.001074  -0.005157   0.010287  -0.007441
   72  C  8  Z    0.010103  -0.001573  -0.000211  -0.013442   0.006482
   73  C  9  S    0.014264  -0.007054  -0.031005  -0.077455   0.082251
   74  C  9  S    0.000657   0.008002   0.035243   0.076890  -0.079300
   75  C  9  X    0.000048   0.002233   0.017282   0.010064  -0.021050
   76  C  9  Y    0.000120   0.003703   0.010911   0.015612  -0.013843
   77  C  9  Z   -0.000171   0.005166   0.019743   0.032730  -0.023460
   78  C  9  S    0.001886   0.009190   0.058074   0.202041  -0.222173
   79  C  9  X    0.001158   0.003201  -0.005501  -0.003586  -0.010222
   80  C  9  Y   -0.000915   0.003485  -0.003030   0.003329  -0.004291
   81  C  9  Z    0.002054  -0.002954  -0.001819   0.008641  -0.007718
   82  C 10  S    0.010174  -0.003450  -0.039754   0.086986   0.053472
   83  C 10  S   -0.000216   0.004314   0.047454  -0.086817  -0.052318
   84  C 10  X   -0.000050  -0.003111  -0.015173   0.000886   0.009611
   85  C 10  Y   -0.000128  -0.001114  -0.014903   0.024151   0.021917
   86  C 10  Z   -0.000203   0.003184   0.026235  -0.028452  -0.006490
   87  C 10  S    0.005654   0.007533   0.052356  -0.210354  -0.134444
   88  C 10  X   -0.000401   0.002622   0.007920  -0.007149   0.002288
   89  C 10  Y   -0.001271   0.005099   0.004515   0.002565   0.005466
   90  C 10  Z    0.003451  -0.000682  -0.014945   0.000081   0.001190
   91  C 11  S    0.010781  -0.002347  -0.039715   0.080335   0.052962
   92  C 11  S    0.000748   0.004915   0.046971  -0.080689  -0.052013
   93  C 11  X    0.000311  -0.001671  -0.018279   0.003445   0.012409
   94  C 11  Y   -0.000282   0.002036   0.028156  -0.036907  -0.017826
   95  C 11  Z   -0.000505   0.000522   0.005525   0.002969   0.012382
   96  C 11  S   -0.001207  -0.011478   0.055949  -0.191191  -0.131730
   97  C 11  X    0.000541   0.004783   0.008301  -0.007335   0.002683
   98  C 11  Y    0.000561  -0.008218  -0.012053  -0.001913  -0.001621
   99  C 11  Z    0.000273   0.000239  -0.005542   0.002941   0.005543
  100  H 12  S   -0.001321   0.002315   0.030575  -0.027796   0.053469
  101  H 12  S   -0.000580  -0.004363   0.001904  -0.012759   0.020959
  102  H 13  S   -0.000135   0.025851   0.014486   0.020702  -0.002330
  103  H 13  S   -0.000398  -0.008800  -0.005708  -0.011405  -0.006461
  104  H 14  S   -0.001454   0.006025   0.019025   0.040341   0.005469
  105  H 14  S    0.000505   0.008323  -0.011553  -0.002514   0.000760
  106  H 15  S   -0.001286   0.003747   0.020073   0.035407   0.000257
  107  H 15  S    0.001039   0.001032  -0.007046  -0.009163  -0.006657
  108  H 16  S   -0.000828   0.006233   0.015915   0.001805   0.046094
  109  H 16  S    0.000584  -0.005573  -0.004813   0.001848   0.002802
  110  H 17  S    0.000260   0.006714   0.015895  -0.002827   0.039420
  111  H 17  S    0.005553   0.000721  -0.006544  -0.006341  -0.009606
  112  H 18  S    0.000743   0.002095   0.016754   0.009604   0.043826
  113  H 18  S    0.012562   0.000102  -0.005344   0.003426   0.003585
  114  H 19  S    0.000838   0.001208   0.017346   0.005673   0.037224
  115  H 19  S    0.013551  -0.002114  -0.005073  -0.004888  -0.009540
  116  H 20  S   -0.000307   0.002944   0.011776   0.039661  -0.037733
  117  H 20  S    0.000513   0.004788  -0.009535  -0.002673   0.002382
  118  H 21  S   -0.000383   0.002127   0.012435   0.034109  -0.038460
  119  H 21  S   -0.000451   0.000642  -0.001589  -0.003592   0.001069
  120  H 22  S   -0.000010   0.002280   0.012557   0.033347  -0.039101
  121  H 22  S    0.000787  -0.002333  -0.000446  -0.004440   0.000448
  122  H 23  S   -0.000534   0.000875   0.016275  -0.046775  -0.025371
  123  H 23  S   -0.000080  -0.002969  -0.005767  -0.002815   0.002137
  124  H 24  S   -0.000172   0.001159   0.016084  -0.041441  -0.030781
  125  H 24  S    0.000658   0.000838  -0.005647   0.003757  -0.005448
  126  H 25  S   -0.000340   0.002829   0.018252  -0.037630  -0.020670
  127  H 25  S   -0.000092  -0.005378   0.001984   0.004750   0.003911
  128  H 26  S    0.000028   0.001622   0.015808  -0.038822  -0.030416
  129  H 26  S    0.000700  -0.000323  -0.005540   0.003358  -0.004855
  130  H 27  S    0.000124   0.001303   0.016044  -0.043649  -0.024691
  131  H 27  S   -0.000454  -0.000633  -0.005811  -0.003055   0.002055
  132  H 28  S   -0.000159   0.001647   0.018312  -0.032399  -0.020774
  133  H 28  S    0.000413  -0.000332   0.001227   0.005937   0.004095
  134  H 29  S   -0.000053   0.099634  -0.032925  -0.030742  -0.002889
  135  H 29  S   -0.000041   0.014114  -0.011868  -0.012723   0.000504

                     16         17         18         19         20
                   -1.1802    -1.1047    -1.0931    -1.0601    -1.0029
                     A          A          A          A          A   
    1  O  1  S    0.039733  -0.008637  -0.026772  -0.020251   0.025880
    2  O  1  S   -0.036089   0.007708   0.024135   0.019553  -0.022770
    3  O  1  X    0.037028  -0.012475  -0.045493  -0.034567   0.067314
    4  O  1  Y   -0.021185   0.001841   0.032939   0.013445  -0.048678
    5  O  1  Z   -0.011068   0.003535   0.011062   0.003940  -0.055360
    6  O  1  S   -0.150656   0.034781   0.105514   0.074932  -0.112923
    7  O  1  X    0.019787  -0.007994  -0.032179  -0.028980   0.049410
    8  O  1  Y   -0.014558   0.000671   0.026752   0.013444  -0.038977
    9  O  1  Z   -0.007346   0.003131   0.005207   0.002849  -0.049204
   10  C  2  S   -0.012168   0.000633   0.027673  -0.053694   0.001930
   11  C  2  S    0.010507  -0.001471  -0.017947   0.041764  -0.001175
   12  C  2  X   -0.007931  -0.000829  -0.037311   0.101710  -0.020213
   13  C  2  Y    0.082348  -0.000731  -0.061938   0.022526   0.121226
   14  C  2  Z   -0.046368   0.025716  -0.106470   0.007720  -0.055753
   15  C  2  S    0.043976  -0.001534  -0.118876   0.205420  -0.002118
   16  C  2  X    0.007923  -0.000050  -0.033783   0.045265  -0.001607
   17  C  2  Y    0.016753   0.002514  -0.035146   0.019524   0.051307
   18  C  2  Z   -0.009191   0.010313  -0.065721   0.022804  -0.028456
   19  C  3  S    0.007777   0.003139   0.005435  -0.077689   0.014046
   20  C  3  S   -0.005936  -0.002566  -0.005687   0.058333  -0.009309
   21  C  3  X   -0.018333  -0.004507   0.030509  -0.093825   0.004571
   22  C  3  Y    0.068759   0.107958   0.035152   0.039145  -0.002274
   23  C  3  Z   -0.028703  -0.063237   0.025471   0.083455  -0.008583
   24  C  3  S   -0.030997  -0.010230  -0.019881   0.308354  -0.065977
   25  C  3  X   -0.001518  -0.001247   0.007629  -0.058935   0.010670
   26  C  3  Y    0.023125   0.037636   0.011112   0.028933  -0.004570
   27  C  3  Z   -0.010118  -0.020947   0.006792   0.055842  -0.009788
   28  C  4  S    0.001290   0.016737  -0.092419  -0.045777   0.002840
   29  C  4  S   -0.001592  -0.013834   0.077789   0.037714  -0.002950
   30  C  4  X   -0.009250  -0.002381   0.028010   0.014880   0.004919
   31  C  4  Y    0.079584  -0.011111   0.003376  -0.046699  -0.089952
   32  C  4  Z   -0.036230   0.005009   0.024591  -0.069482   0.059749
   33  C  4  S   -0.002354  -0.057501   0.317907   0.155506  -0.006423
   34  C  4  X   -0.002703   0.004677  -0.014263  -0.014615  -0.001600
   35  C  4  Y    0.005629  -0.002284  -0.002716  -0.014114  -0.030605
   36  C  4  Z   -0.004174   0.003046   0.002096  -0.017699   0.015783
   37  C  5  S   -0.095951   0.021676   0.075222   0.037055  -0.098581
   38  C  5  S    0.090034  -0.021302  -0.071157  -0.033341   0.082405
   39  C  5  X    0.060076  -0.013085  -0.024252  -0.010627  -0.032945
   40  C  5  Y    0.007777  -0.012836   0.018204  -0.053060  -0.026352
   41  C  5  Z   -0.005361  -0.007467  -0.002237  -0.020064  -0.082414
   42  C  5  S    0.259628  -0.057243  -0.213677  -0.122826   0.379555
   43  C  5  X    0.038211  -0.004535  -0.020530  -0.018999   0.027860
   44  C  5  Y   -0.012222  -0.002736   0.001160  -0.009816  -0.019310
   45  C  5  Z   -0.006953  -0.002903   0.011281   0.002823  -0.028365
   46  C  6  S    0.101782  -0.055735   0.066154   0.051786   0.089006
   47  C  6  S   -0.091597   0.051042  -0.060097  -0.043313  -0.072414
   48  C  6  X   -0.029793   0.001556   0.007784   0.015212   0.050384
   49  C  6  Y    0.002862   0.002940  -0.011990   0.017975   0.036911
   50  C  6  Z   -0.017420   0.018057   0.010906  -0.043308   0.050270
   51  C  6  S   -0.278769   0.160939  -0.192770  -0.184764  -0.338477
   52  C  6  X   -0.018281  -0.002149   0.003673  -0.002334  -0.001491
   53  C  6  Y   -0.014155   0.004108   0.006171  -0.000219  -0.006529
   54  C  6  Z    0.012952   0.002557   0.000041  -0.002699   0.019561
   55  C  7  S   -0.104212   0.041249  -0.001554   0.081721   0.090748
   56  C  7  S    0.094835  -0.038469   0.003151  -0.070720  -0.071005
   57  C  7  X   -0.017762   0.005823   0.055944   0.029348  -0.046301
   58  C  7  Y   -0.006718  -0.000951  -0.010440  -0.037994  -0.031298
   59  C  7  Z   -0.032912   0.000245   0.033500  -0.007564  -0.029206
   60  C  7  S    0.284698  -0.113913  -0.014531  -0.272525  -0.356362
   61  C  7  X    0.005739   0.004208   0.010204   0.006229   0.001607
   62  C  7  Y   -0.018001  -0.001975   0.011696  -0.000165   0.015005
   63  C  7  Z   -0.012316  -0.002469   0.006468  -0.002225   0.005738
   64  C  8  S    0.100908  -0.039511  -0.030110   0.051211  -0.107477
   65  C  8  S   -0.091877   0.035968   0.029577  -0.045058   0.087421
   66  C  8  X    0.016201  -0.025102   0.049884   0.029733   0.052143
   67  C  8  Y    0.021275  -0.013465   0.034517   0.017003   0.005561
   68  C  8  Z    0.021598   0.001604   0.007052  -0.031398   0.044493
   69  C  8  S   -0.273071   0.114440   0.070016  -0.166204   0.402355
   70  C  8  X   -0.002045  -0.007493   0.012570   0.003466   0.007914
   71  C  8  Y   -0.003330   0.000968  -0.000542  -0.002238   0.009431
   72  C  8  Z    0.021594  -0.001769   0.012445  -0.004177  -0.010893
[...]
             44  C  5  Y      0.33656     0.50052
             45  C  5  Z      0.43138     0.52949
             46  C  6  S      1.98965     1.97644
             47  C  6  S      0.34294     0.41852
             48  C  6  X      0.55968     0.54237
             49  C  6  Y      0.54967     0.52944
             50  C  6  Z      0.47824     0.46959
             51  C  6  S      1.10962     0.56709
             52  C  6  X      0.52195     0.57565
             53  C  6  Y      0.50407     0.56874
             54  C  6  Z      0.30874     0.49708
             55  C  7  S      1.98980     1.97641
             56  C  7  S      0.34097     0.42069
             57  C  7  X      0.52356     0.50918
             58  C  7  Y      0.53297     0.51910
             59  C  7  Z      0.54691     0.52831
             60  C  7  S      1.11136     0.57083
             61  C  7  X      0.40950     0.54119
             62  C  7  Y      0.40311     0.53950
             63  C  7  Z      0.55463     0.58542
             64  C  8  S      1.98956     1.97634
             65  C  8  S      0.34148     0.41512
             66  C  8  X      0.51692     0.49863
             67  C  8  Y      0.53737     0.52113
             68  C  8  Z      0.53801     0.52101
             69  C  8  S      1.10456     0.56645
             70  C  8  X      0.43337     0.54999
             71  C  8  Y      0.48216     0.55747
             72  C  8  Z      0.44000     0.55103
             73  C  9  S      1.98845     1.97639
             74  C  9  S      0.35323     0.41585
             75  C  9  X      0.53663     0.51011
             76  C  9  Y      0.55328     0.52511
             77  C  9  Z      0.53203     0.50931
             78  C  9  S      1.14822     0.57815
             79  C  9  X      0.52536     0.59045
             80  C  9  Y      0.53168     0.59195
             81  C  9  Z      0.41178     0.54760
             82  C 10  S      1.98842     1.97642
             83  C 10  S      0.35089     0.41727
             84  C 10  X      0.54340     0.51610
             85  C 10  Y      0.54663     0.52243
             86  C 10  Z      0.52789     0.50709
             87  C 10  S      1.13217     0.58021
             88  C 10  X      0.55254     0.60250
             89  C 10  Y      0.50300     0.57690
             90  C 10  Z      0.42062     0.55430
             91  C 11  S      1.98843     1.97642
             92  C 11  S      0.35126     0.41721
             93  C 11  X      0.53744     0.51093
             94  C 11  Y      0.51796     0.50102
             95  C 11  Z      0.56280     0.53390
             96  C 11  S      1.13109     0.57970
             97  C 11  X      0.52273     0.59067
             98  C 11  Y      0.35931     0.52695
             99  C 11  Z      0.58738     0.61171
            100  H 12  S      0.45380     0.45995
            101  H 12  S      0.24541     0.39862
            102  H 13  S      0.47654     0.49291
            103  H 13  S      0.27581     0.42050
            104  H 14  S      0.44937     0.45350
            105  H 14  S      0.22668     0.39246
            106  H 15  S      0.46322     0.47258
            107  H 15  S      0.27783     0.41697
            108  H 16  S      0.45618     0.46341
            109  H 16  S      0.26510     0.41155
            110  H 17  S      0.46339     0.47233
            111  H 17  S      0.28186     0.41876
            112  H 18  S      0.45816     0.46512
            113  H 18  S      0.26848     0.41096
            114  H 19  S      0.46412     0.47384
            115  H 19  S      0.27907     0.41783
            116  H 20  S      0.44601     0.44163
            117  H 20  S      0.24715     0.39634
            118  H 21  S      0.46061     0.46113
            119  H 21  S      0.28703     0.42057
            120  H 22  S      0.46098     0.46173
            121  H 22  S      0.29333     0.42352
            122  H 23  S      0.45144     0.44975
            123  H 23  S      0.27019     0.40800
            124  H 24  S      0.45683     0.45670
            125  H 24  S      0.27838     0.41498
            126  H 25  S      0.46580     0.46676
            127  H 25  S      0.28498     0.42150
            128  H 26  S      0.45756     0.45779
            129  H 26  S      0.28058     0.41588
            130  H 27  S      0.45210     0.45034
            131  H 27  S      0.27357     0.40959
            132  H 28  S      0.46450     0.46524
            133  H 28  S      0.27679     0.41753
            134  H 29  S      0.41818     0.43201
            135  H 29  S      0.16671     0.29130

          ----- MULLIKEN ATOMIC OVERLAP POPULATIONS -----
          (OFF-DIAGONAL ELEMENTS NEED TO BE MULTIPLIED BY 2)

             1           2           3           4           5

    1    8.2549825
    2   -0.0424052   6.4202709
    3    0.0012690  -0.0608263   6.3888980
    4    0.0022158  -0.1908551   0.1035076   5.9203170
    5    0.2397580   0.1611160  -0.1055500  -0.0599286   5.2536074
    6   -0.0013806   0.1853836  -0.0954952  -0.0764099  -0.0979202
    7   -0.0466803  -0.0852240  -0.1062015   0.2015410   0.1873359
    8   -0.0002644  -0.0653711  -0.1203107   0.2195018   0.0155418
    9    0.0005620   0.2236287  -0.0336143   0.0019413  -0.0601293
   10    0.0000343  -0.0450738   0.2243161  -0.0552212  -0.0047542
   11   -0.0000061  -0.0475153   0.2253053  -0.0529416   0.0029682
   12   -0.0000116   0.0018631  -0.0222378   0.3941734   0.0022494
   13   -0.0332682  -0.0539219   0.0024160   0.0046236   0.3906552
   14    0.0122405  -0.0350750   0.0033567   0.0027153  -0.0048405
   15    0.0001266  -0.0473069   0.0011786   0.0035710   0.0031488
   16    0.0016541   0.0017446   0.0044715  -0.0317382  -0.0361372
   17    0.0011202   0.0047275  -0.0007497  -0.0362909  -0.0344197
   18    0.0000457   0.0026929   0.0041199  -0.0363950   0.0000997
   19   -0.0000001   0.0037064  -0.0000295  -0.0409379  -0.0002408
   20    0.0028703  -0.0353524   0.0020688  -0.0000844  -0.0008856
   21   -0.0000032  -0.0465282  -0.0011111  -0.0000366   0.0028525
   22   -0.0000430  -0.0475229  -0.0009755  -0.0000395  -0.0011863
   23   -0.0000001   0.0020473  -0.0370811   0.0001741   0.0000460
   24    0.0000003  -0.0004958  -0.0423187   0.0023241  -0.0001436
   25   -0.0000019  -0.0005319  -0.0381270  -0.0012635  -0.0011651
   26    0.0000000  -0.0005756  -0.0434579   0.0023355  -0.0000399
   27    0.0000000   0.0022002  -0.0377852  -0.0000606  -0.0000493
   28   -0.0000000  -0.0009969  -0.0376132  -0.0009396  -0.0000186
   29    0.2728869   0.0055148  -0.0001948  -0.0000575  -0.0430816

             6           7           8           9          10

    6    5.5749888
    7    0.0100349   5.6748542
    8    0.2263863  -0.1105873   5.5245418
    9   -0.0551976   0.0041436   0.0031346   5.3861204
   10    0.0030051  -0.0047790   0.0036305  -0.0005291   5.4222653
   11   -0.0065263   0.0036505  -0.0046308  -0.0005587  -0.0951191
   12    0.0024727  -0.0228903  -0.0231638   0.0000017  -0.0004406
   13    0.0037311  -0.0517026  -0.0003433  -0.0037468  -0.0001997
   14    0.3700800   0.0003853  -0.0276366  -0.0002242  -0.0000259
   15    0.3913181  -0.0003576  -0.0359540  -0.0019008  -0.0000368
   16    0.0003476   0.3796780  -0.0036054  -0.0000515   0.0000564
   17   -0.0001381   0.3812908   0.0029638  -0.0000789   0.0003296
   18   -0.0318593  -0.0031563   0.3885606  -0.0000321  -0.0000356
   19   -0.0365639   0.0031261   0.3930714  -0.0000599  -0.0000433
   20   -0.0009208   0.0001051  -0.0000041   0.3621985   0.0000194
   21   -0.0014123  -0.0000783   0.0000298   0.3783786  -0.0000387
   22    0.0026130  -0.0000072  -0.0000876   0.3765954   0.0003150
   23   -0.0000359  -0.0000595  -0.0000415   0.0000338   0.3677524
   24   -0.0000335   0.0000360  -0.0000713   0.0000847   0.3723800
   25   -0.0000184  -0.0016006  -0.0000113  -0.0000760   0.3785203
   26   -0.0001688  -0.0000718   0.0000670   0.0001026  -0.0015904
   27    0.0001335  -0.0000275  -0.0001446   0.0000435  -0.0018037
   28   -0.0018487  -0.0000148  -0.0017652  -0.0000569   0.0026135
   29   -0.0000034   0.0000505  -0.0000133  -0.0000518   0.0000024

            11          12          13          14          15

   11    5.4131536
   12   -0.0004890   0.3716504
   13   -0.0000609  -0.0000737   0.4944240
   14    0.0001075  -0.0000348   0.0002946   0.3699730
   15   -0.0002112  -0.0000462  -0.0000109  -0.0150052   0.4433541
   16   -0.0000384  -0.0002395   0.0019060   0.0002106   0.0000097
   17   -0.0000383  -0.0019922  -0.0022412  -0.0000041   0.0000018
   18    0.0000524   0.0000346   0.0000041  -0.0016183   0.0011225
   19    0.0003626  -0.0019623   0.0000021   0.0009915  -0.0037273
   20    0.0000213   0.0000002   0.0000003   0.0002830  -0.0000233
   21    0.0003101  -0.0000000  -0.0000265  -0.0000095   0.0012938
   22   -0.0000897  -0.0000002   0.0016985  -0.0000271   0.0000070
   23   -0.0020293   0.0001762   0.0000469   0.0000002   0.0000004
   24   -0.0013978   0.0000060  -0.0000103   0.0000004  -0.0000012
   25    0.0026759  -0.0000506   0.0011660   0.0000002  -0.0000001
   26    0.3737609   0.0000033  -0.0000007   0.0000008  -0.0000230
   27    0.3680135   0.0002483   0.0000003  -0.0000015   0.0000234
   28    0.3796658  -0.0000421  -0.0000008   0.0000887   0.0005020
   29    0.0000008   0.0000009  -0.0030124  -0.0001836  -0.0000019

            16          17          18          19          20

   16    0.4165250
   17   -0.0159535   0.4461515
   18    0.0018154   0.0000422   0.4189975
   19    0.0000638  -0.0000320  -0.0179227   0.4430018
   20    0.0000009  -0.0000009   0.0000012  -0.0000001   0.3989103
   21    0.0000005   0.0000007  -0.0000004  -0.0000015  -0.0179914
   22   -0.0000002  -0.0000005   0.0000005   0.0000009  -0.0180276
   23    0.0000013   0.0000436   0.0000006  -0.0000010  -0.0000004
   24   -0.0000004   0.0000111   0.0000003   0.0000002   0.0000155
   25    0.0000925   0.0004924  -0.0000003  -0.0000004  -0.0000006
   26    0.0000003   0.0000000  -0.0000005   0.0000252   0.0000166
   27    0.0000006  -0.0000007   0.0000012  -0.0000082  -0.0000004
   28   -0.0000002  -0.0000004   0.0000797   0.0003661  -0.0000010
   29    0.0004651   0.0000165  -0.0000106   0.0000002  -0.0000586

            21          22          23          24          25

   21    0.4533679
   22   -0.0217373   0.4622815
   23   -0.0000014   0.0000180   0.4278243
   24   -0.0000516   0.0006293  -0.0177251   0.4419303
   25   -0.0000004  -0.0000491  -0.0203691  -0.0214141   0.4525448
   26    0.0004345  -0.0000462   0.0001821   0.0012756   0.0000064
   27    0.0000159  -0.0000009   0.0006106   0.0001916  -0.0000038
   28   -0.0000126  -0.0000002   0.0000113  -0.0000096  -0.0000358
   29    0.0000013  -0.0000039  -0.0000000  -0.0000001  -0.0000015

            26          27          28          29

   26    0.4452868
   27   -0.0182546   0.4321309
   28   -0.0211302  -0.0198027   0.4422581
   29   -0.0000000  -0.0000000  -0.0000000   0.3526323

          TOTAL MULLIKEN AND LOWDIN ATOMIC POPULATIONS
       ATOM         MULL.POP.    CHARGE          LOW.POP.     CHARGE
    1 O             8.665701   -0.665701         8.373309   -0.373309
    2 C             6.209318   -0.209318         5.946562    0.053438
    3 C             6.177228   -0.177228         5.923064    0.076936
    4 C             6.275742   -0.275742         6.028888   -0.028888
    5 C             5.808889    0.191111         5.885243    0.114757
    6 C             6.364561   -0.364561         6.144920   -0.144920
    7 C             6.412793   -0.412793         6.190627   -0.190627
    8 C             6.383423   -0.383423         6.157150   -0.157150
    9 C             6.580662   -0.580662         6.244924   -0.244924
   10 C             6.565549   -0.565549         6.253221   -0.253221
   11 C             6.558396   -0.558396         6.248510   -0.248510
   12 H             0.699205    0.300795         0.858567    0.141433
   13 H             0.752349    0.247651         0.913401    0.086599
   14 H             0.676042    0.323958         0.845956    0.154044
   15 H             0.741052    0.258948         0.889543    0.110457
   16 H             0.721280    0.278720         0.874963    0.125037
   17 H             0.745250    0.254750         0.891093    0.108907
   18 H             0.726640    0.273360         0.876088    0.123912
   19 H             0.743188    0.256812         0.891663    0.108337
   20 H             0.693160    0.306840         0.837974    0.162026
   21 H             0.747645    0.252355         0.881698    0.118302
   22 H             0.754314    0.245686         0.885249    0.114751
   23 H             0.721625    0.278375         0.857749    0.142251
   24 H             0.735212    0.264788         0.871681    0.128319
   25 H             0.750777    0.249223         0.888260    0.111740
   26 H             0.738138    0.261862         0.873675    0.126325
   27 H             0.725670    0.274330         0.859938    0.140062
   28 H             0.741296    0.258704         0.882773    0.117227
   29 H             0.584897    0.415103         0.723307    0.276693

          -------------------------------
          BOND ORDER AND VALENCE ANALYSIS     BOND ORDER THRESHOLD=0.050
          -------------------------------

                   BOND                       BOND                       BOND
  ATOM PAIR DIST  ORDER      ATOM PAIR DIST  ORDER      ATOM PAIR DIST  ORDER
    1   5  1.434  0.890        1  29  0.965  0.782        2   3  1.578  0.479
    2   5  1.553  0.831        2   6  1.557  0.852        2   9  1.524  0.938
    3   4  1.563  0.709        3  10  1.543  0.918        3  11  1.541  0.919
    4   7  1.548  0.890        4   8  1.548  0.880        4  12  1.096  0.902
    5   7  1.562  0.862        5  13  1.099  0.892        6   8  1.561  0.903
    6  14  1.092  0.858        6  15  1.095  0.911        7  16  1.096  0.900
    7  17  1.095  0.912        8  18  1.095  0.903        8  19  1.095  0.914
    9  20  1.096  0.855        9  21  1.096  0.906        9  22  1.097  0.907
   10  23  1.097  0.877       10  24  1.096  0.894       10  25  1.092  0.911
   11  26  1.096  0.896       11  27  1.097  0.879       11  28  1.092  0.908

                       TOTAL       BONDED        FREE
      ATOM            VALENCE     VALENCE     VALENCE
    1 O                 1.756       1.756       0.000
    2 C                 3.168       3.058       0.110
    3 C                 3.146       2.984       0.163
    4 C                 3.355       3.331       0.024
    5 C                 3.412       3.411       0.001
    6 C                 3.470       3.468       0.001
    7 C                 3.513       3.513       0.000
    8 C                 3.536       3.536       0.000
    9 C                 3.572       3.570       0.002
   10 C                 3.559       3.557       0.002
   11 C                 3.556       3.554       0.002
   12 H                 0.892       0.891       0.000
   13 H                 0.892       0.892       0.000
   14 H                 0.878       0.877       0.001
   15 H                 0.898       0.898       0.000
   16 H                 0.894       0.894       0.000
   17 H                 0.901       0.901       0.000
   18 H                 0.895       0.895       0.000
   19 H                 0.899       0.899       0.000
   20 H                 0.877       0.875       0.002
   21 H                 0.900       0.900       0.000
   22 H                 0.903       0.903       0.000
   23 H                 0.889       0.887       0.002
   24 H                 0.895       0.894       0.000
   25 H                 0.903       0.903       0.000
   26 H                 0.896       0.895       0.000
   27 H                 0.891       0.889       0.002
   28 H                 0.898       0.898       0.000
   29 H                 0.805       0.805       0.000

          -----------------------------------------
          ATOMIC SPIN DENSITY AT THE NUCLEUS (A.U.)
          -----------------------------------------
                            SPIN DENS    ALPHA DENS     BETA DENS
    1  O            8.0     0.0150819     116.72893     116.71385
    2  C            6.0     0.0247797      47.27092      47.24614
    3  C            6.0     0.0036310      47.24992      47.24628
    4  C            6.0     0.0167364      47.18629      47.16956
    5  C            6.0    -0.0044439      47.06010      47.06454
    6  C            6.0    -0.0126808      47.05196      47.06464
    7  C            6.0    -0.0108540      47.06031      47.07117
    8  C            6.0    -0.0100921      47.04333      47.05342
    9  C            6.0    -0.0149519      46.99283      47.00778
   10  C            6.0    -0.0216770      46.99192      47.01360
   11  C            6.0    -0.0205017      46.99278      47.01328
   12  H            1.0     0.0117193       0.18304       0.17132
   13  H            1.0    -0.0001903       0.18733       0.18752
   14  H            1.0     0.0142213       0.18308       0.16885
   15  H            1.0     0.0008057       0.18239       0.18158
   16  H            1.0     0.0035389       0.18063       0.17709
   17  H            1.0     0.0002480       0.18207       0.18182
   18  H            1.0     0.0064246       0.18281       0.17639
   19  H            1.0     0.0003936       0.18255       0.18215
   20  H            1.0     0.0216222       0.18456       0.16294
   21  H            1.0     0.0014308       0.18084       0.17940
   22  H            1.0     0.0018614       0.18119       0.17933
   23  H            1.0     0.0165056       0.18446       0.16795
   24  H            1.0     0.0077436       0.18245       0.17471
   25  H            1.0     0.0004656       0.18269       0.18223
   26  H            1.0     0.0068216       0.18232       0.17550
   27  H            1.0     0.0161331       0.18451       0.16838
   28  H            1.0     0.0004166       0.18215       0.18173
   29  H            1.0     0.0017037       0.17124       0.16953

          ---------------------
          ELECTROSTATIC MOMENTS
          ---------------------

 POINT   1           X           Y           Z (BOHR)    CHARGE
                -0.314364    0.206245    0.219280        1.00 (A.U.)
         DX          DY          DZ         /D/  (DEBYE)
     2.161484    0.467718   -1.351227    2.591638
 ...... END OF PROPERTY EVALUATION ......
 CPU     0: STEP CPU TIME=     0.08 TOTAL CPU TIME=         23.5 (      0.4 MIN)
 TOTAL WALL CLOCK TIME=         35.7 SECONDS, CPU UTILIZATION IS    65.69%
               580000  WORDS OF DYNAMIC MEMORY USED
 EXECUTION OF GAMESS TERMINATED NORMALLY Mon May 25 18:11:02 2020
 DDI: 263640 bytes (0.3 MB / 0 MWords) used by master data server.
Note: The following floating-point exceptions are signalling: IEEE_DENORMAL
Note: The following floating-point exceptions are signalling: IEEE_DENORMALNote: The following floating-point exceptions are signalling: IEEE_DENORMALNote: The following floating-point exceptions are signalling: IEEE_DENORMAL
 ----------------------------------------
 CPU timing information for all processes
 ========================================
 0: 23.207 + 0.254 = 23.461
 1: 23.161 + 0.91 = 23.253
 2: 22.850 + 0.83 = 22.934
 3: 23.44 + 0.67 = 23.112
 4: 22.447 + 0.36 = 22.484
 5: 22.617 + 0.71 = 22.689
 ----------------------------------------



Note: The following floating-point exceptions are signalling: IEEE_DENORMALNote: The following floating-point exceptions are signalling:
 IEEE_DENORMAL
 ddikick.x: exited gracefully.
unset echo
----- accounting info -----
Files used on the master node pietdev were:
-rwxr-xr-x 1 piet piet     1287 mei 25 18:10 /home/piet/scr/borneol_fukui_base.F05*
-rw-r--r-- 1 piet piet 68812800 mei 25 18:11 /home/piet/scr/borneol_fukui_base.F10
ls: No match.
ls: No match.
ls: No match.
ma 25 mei 2020 18:11:05 CEST
0.107u 0.025s 0:38.84 0.3%	0+0k 0+8io 0pf+0w
