----- GAMESS execution script 'rungms' -----
This job is running on host pietdev
under operating system Linux at zo 17 mei 2020 17:53:51 CEST
Available scratch disk space (Kbyte units) at beginning of the job is
Filesystem     1K-blocks     Used Available Use% Mounted on
/dev/sda2      244568380 30400436 201674888  14% /
GAMESS temporary binary files will be written to /home/piet/scr
GAMESS supplementary output files will be written to /home/piet/gamess/scr
Copying input file valine_fukui_base.inp to your run's scratch directory...
cp valine_fukui_base.inp /home/piet/scr/valine_fukui_base.F05
unset echo
 
Assuming a single but multicore node.
 
/home/piet/gamess/ddikick.x /home/piet/gamess/gamess.03.x valine_fukui_base -ddi 1 6 pietdev:cpus=6 -scr /home/piet/scr

 Distributed Data Interface kickoff program.
 Initiating 6 compute processes on 1 nodes to run the following command:
 /home/piet/gamess/gamess.03.x valine_fukui_base 

          ******************************************************
          *         GAMESS VERSION = 30 SEP 2019 (R2)          *
          *             FROM IOWA STATE UNIVERSITY             *
          * M.W.SCHMIDT, K.K.BALDRIDGE, J.A.BOATZ, S.T.ELBERT, *
          *   M.S.GORDON, J.H.JENSEN, S.KOSEKI, N.MATSUNAGA,   *
          *          K.A.NGUYEN, S.J.SU, T.L.WINDUS,           *
          *       TOGETHER WITH M.DUPUIS, J.A.MONTGOMERY       *
          *         J.COMPUT.CHEM.  14, 1347-1363(1993)        *
          **************** 64 BIT LINUX VERSION ****************

  SINCE 1993, STUDENTS AND POSTDOCS WORKING AT IOWA STATE UNIVERSITY
  AND ALSO IN THEIR VARIOUS JOBS AFTER LEAVING ISU HAVE MADE IMPORTANT
  CONTRIBUTIONS TO THE CODE:
     IVANA ADAMOVIC, CHRISTINE AIKENS, YURI ALEXEEV, POOJA ARORA,
     ANDREY ASADCHEV, ROB BELL, PRADIPTA BANDYOPADHYAY, JONATHAN BENTZ,
     COLLEEN BERTONI, BRETT BODE, KURT BRORSEN, CALEB CARLIN, GALINA CHABAN,
     WEI CHEN, CHEOL HO CHOI, PAUL DAY, ALBERT DEFUSCO, NUWAN DESILVA,
     TIM DUDLEY, DMITRI FEDOROV, ALEX FINDLATER, GRAHAM FLETCHER, 
     MARK FREITAG, KURT GLAESEMANN, EMILIE B GUIDEZ, ANASTASIA GUNINA, 
     DAN KEMP, SAROM SOK LEANG, GRANT MERRILL,
     NORIYUKI MINEZAWA, JONATHAN MULLIN,
     TAKESHI NAGATA, SEAN NEDD, HEATHER NETZLOFF, BOSILJKA NJEGIC, RYAN OLSON,
     MIKE PAK, BUU PHAM, DAVID POOLE,
     SPENCER PRUITT, LUKE ROSKOP, TOSAPORN SATTASATHUCHANA,
     JIM SHOEMAKER, LYUDMILA SLIPCHENKO,
     TONY SMITH, JIE SONG, TETSUYA TAKETSUGU, SIMON WEBB,
     JORGE LUIS GALVEZ VALLEJO, PENG XU, SOOHAENG YOO,
     FEDERICO ZAHARIEV

  ADDITIONAL CODE HAS BEEN PROVIDED BY COLLABORATORS IN OTHER GROUPS:
     IOWA STATE UNIVERSITY:
          JOE IVANIC, AARON WEST, LAIMUTIS BYTAUTAS, KLAUS RUEDENBERG
     UNIVERSITY OF TOKYO: KIMIHIKO HIRAO, TAKAHITO NAKAJIMA,
          TAKAO TSUNEDA, MUNEAKI KAMIYA, SUSUMU YANAGISAWA,
          KIYOSHI YAGI, MAHITO CHIBA, SEIKEN TOKURA, NAOAKI KAWAKAMI
     UNIVERSITY OF AARHUS: FRANK JENSEN
     UNIVERSITY OF IOWA: VISVALDAS KAIRYS, HUI LI
     NATIONAL INST. OF STANDARDS AND TECHNOLOGY: WALT STEVENS, DAVID GARMER
     UNIVERSITY OF PISA: BENEDETTA MENNUCCI, JACOPO TOMASI
     UNIVERSITY OF MEMPHIS: HENRY KURTZ, PRAKASHAN KORAMBATH
     UNIVERSITY OF ALBERTA: TOBY ZENG, MARIUSZ KLOBUKOWSKI
     UNIVERSITY OF NEW ENGLAND: MARK SPACKMAN
     MIE UNIVERSITY: HIROAKI UMEDA
     NAT. INST. OF ADVANCED INDUSTRIAL SCIENCE AND TECHNOLOGY: KAZUO KITAURA
     MICHIGAN STATE UNIVERSITY:
          KAROL KOWALSKI, MARTA WLOCH, JEFFREY GOUR, JESSE LUTZ,
          WEI LI, JUN SHEN, J. EMILIANO DEUSTUA, PIOTR PIECUCH
     UNIVERSITY OF MINNESOTA:
          ANDREW SAND, PRACHI SHARMA, YINAN SHU
     UNIVERSITY OF SILESIA: MONIKA MUSIAL, STANISLAW KUCHARSKI
     FACULTES UNIVERSITAIRES NOTRE-DAME DE LA PAIX:
          OLIVIER QUINET, BENOIT CHAMPAGNE
     UNIVERSITY OF CALIFORNIA - SANTA BARBARA: BERNARD KIRTMAN
     INSTITUTE FOR MOLECULAR SCIENCE:
          KAZUYA ISHIMURA, MICHIO KATOUDA, AND SHIGERU NAGASE
     UNIVERSITY OF NOTRE DAME: ANNA POMOGAEVA, DAN CHIPMAN
     KYUSHU UNIVERSITY:
          HARUYUKI NAKANO,
          FENG LONG GU, JACEK KORCHOWIEC, MARCIN MAKOWSKI, AND YURIKO AOKI,
          HIROTOSHI MORI AND EISAKU MIYOSHI
     PENNSYLVANIA STATE UNIVERSITY:
          TZVETELIN IORDANOV, CHET SWALINA, JONATHAN SKONE,
          SHARON HAMMES-SCHIFFER
     WASEDA UNIVERSITY:
          MASATO KOBAYASHI, TOMOKO AKAMA, TSUGUKI TOUMA,
          TAKESHI YOSHIKAWA, YASUHIRO IKABATA, JUNJI SEINO,
          YUYA NAKAJIMA, HIROMI NAKAI
     NANJING UNIVERSITY: SHUHUA LI
     UNIVERSITY OF NEBRASKA:
          PEIFENG SU, DEJUN SI, NANDUN THELLAMUREGE, YALI WANG, HUI LI
     UNIVERSITY OF ZURICH: ROBERTO PEVERATI, KIM BALDRIDGE
     N. COPERNICUS UNIVERSITY AND JACKSON STATE UNIVERSITY:
          MARIA BARYSZ
     UNIVERSITY OF COPENHAGEN: Jimmy Kromann, CASPER STEINMANN
     TOKYO INSTITUTE OF TECHNOLOGY: HIROYA NAKATA
     NAGOYA UNIVERSITY: YOSHIO NISHIMOTO, STEPHAN IRLE
     MOSCOW STATE UNIVERSITY: VLADIMIR MIRONOV
     A.N.NESMEYANOV INSTITUTE OF ORGANOELEMENT COMPOUNDS OF RUSSIAN ACADEMY OF SCIENCES:
          IGOR S. GERASIMOV
     JOHANNES KEPLER UNIVERSITY LINZ:
          CHRISTIAN FRIEDL


 PARALLEL VERSION RUNNING ON        6 PROCESSORS IN        1 NODES.

 EXECUTION OF GAMESS BEGUN Sun May 17 17:53:51 2020

            ECHO OF THE FIRST FEW INPUT CARDS -
 INPUT CARD> $BASIS GBASIS=N21 NGAUSS=3 $END                                                
 INPUT CARD> $CONTRL SCFTYP=UHF MAXIT=60 MULT=2 ICHARG=1 $END                               
 INPUT CARD> $SYSTEM MEMDDI=1000 MWORDS=30 $END                                             
 INPUT CARD> $SCF DIRSCF=.TRUE. $END                                                        
 INPUT CARD> $STATPT OPTTOL=0.0001 NSTEP=999 $END                                           
 INPUT CARD> $DATA                                                                          
 INPUT CARD>                                                                                
 INPUT CARD>C1                                                                              
 INPUT CARD>H 1.0000000 -2.7886199311 0.0390124814 1.0771501014                             
 INPUT CARD>H 1.0000000 -2.6705181812 1.3539159358 -0.1139253780                            
 INPUT CARD>H 1.0000000 -0.2445111684 0.2437676115 1.5236704926                             
 INPUT CARD>C 6.0000000 -2.5938947276 0.2684320041 0.0215550706                             
 INPUT CARD>H 1.0000000 -0.1498151129 1.5544695629 0.3257484526                             
 INPUT CARD>C 6.0000000 -0.1016528882 0.4669525950 0.4585244991                             
 INPUT CARD>H 1.0000000 -3.3725012147 -0.2114753602 -0.5834557566                           
 INPUT CARD>C 6.0000000 -1.1908954251 -0.2391148761 -0.3795998474                           
 INPUT CARD>H 1.0000000 -1.2619095470 -2.0365379430 0.8496103776                            
 INPUT CARD>H 1.0000000 0.8990643288 0.1268054168 0.1665596713                              
 INPUT CARD>C 6.0000000 -1.0998554613 -1.7716233694 -0.2029347830                           
 INPUT CARD>H 1.0000000 -1.0234396878 -0.0004529780 -1.4393864615                           
 INPUT CARD>H 1.0000000 -1.8601869319 -2.2808628085 -0.8071475201                           
 INPUT CARD>H 1.0000000 -0.1129540514 -2.1423982722 -0.5043389184                           
 INPUT CARD> $END                                                                           
   30000000 WORDS OF MEMORY AVAILABLE

     BASIS OPTIONS
     -------------
     GBASIS=N21          IGAUSS=       3      POLAR=NONE    
     NDFUNC=       0     NFFUNC=       0     DIFFSP=       F
     NPFUNC=       0      DIFFS=       F     BASNAM=        


     RUN TITLE
     ---------
                                                                                 

 THE POINT GROUP OF THE MOLECULE IS C1      
 THE ORDER OF THE PRINCIPAL AXIS IS     0

 ATOM      ATOMIC                      COORDINATES (BOHR)
           CHARGE         X                   Y                   Z
 H           1.0    -5.2697275537        0.0737228999        2.0355185393
 H           1.0    -5.0465476077        2.5585301291       -0.2152877475
 H           1.0    -0.4620591092        0.4606539904        2.8793197266
 C           6.0    -4.9017502762        0.5072629341        0.0407331771
 H           1.0    -0.2831095122        2.9375215301        0.6155753163
 C           6.0    -0.1920961046        0.8824124538        0.8664856620
 H           1.0    -6.3731031890       -0.3996304839       -1.1025715059
 C           6.0    -2.2504660335       -0.4518615954       -0.7173396966
 H           1.0    -2.3846632651       -3.8484986759        1.6055308100
 H           1.0     1.6989852268        0.2396274915        0.3147521394
 C           6.0    -2.0784254480       -3.3478827216       -0.3834911332
 H           1.0    -1.9340205749       -0.0008560043       -2.7200460027
 H           1.0    -3.5152435872       -4.3102057237       -1.5252876447
 H           1.0    -0.2134522063       -4.0485456910       -0.9530623607

          INTERNUCLEAR DISTANCES (ANGS.)
          ------------------------------

                1 H          2 H          3 H          4 C          5 H     

   1 H       0.0000000    1.7780832 *  2.5910991 *  1.0976484 *  3.1344067  
   2 H       1.7780832 *  0.0000000    3.1304408    1.0965863 *  2.5666084 *
   3 H       2.5910991 *  3.1304408    0.0000000    2.7886488 *  1.7781800 *
   4 C       1.0976484 *  1.0965863 *  2.7886488 *  0.0000000    2.7784800 *
   5 H       3.1344067    2.5666084 *  1.7781800 *  2.7784800 *  0.0000000  
   6 C       2.7902728 *  2.7773138 *  1.0976138 *  2.5380351 *  1.0966505 *
   7 H       1.7779970 *  1.7786762 *  3.7988879    1.0966208 *  3.7856201  
   8 C       2.1799539 *  2.1903455 *  2.1797377 *  1.5449712 *  2.1905044 *
   9 H       2.5866056 *  3.7957551    2.5863584 *  2.7879646 *  3.7955922  
  10 H       3.7994602    3.7850220    1.7785373 *  3.4988351    1.7786832 *
  11 C       2.7872827 *  3.4991285    2.7882935 *  2.5385773 *  3.4992823  
  12 H       3.0741462    2.5107827 *  3.0734476    2.1617073 *  2.5093237 *
  13 H       3.1295985    3.7879823    3.7969566    2.7792048 *  4.3495516  
  14 H       3.7972159    4.3494563    3.1343129    3.4991047    3.7890943  

                6 C          7 H          8 C          9 H         10 H     

   1 H       2.7902728 *  1.7779970 *  2.1799539 *  2.5866056 *  3.7994602  
   2 H       2.7773138 *  1.7786762 *  2.1903455 *  3.7957551    3.7850220  
   3 H       1.0976138 *  3.7988879    2.1797377 *  2.5863584 *  1.7785373 *
   4 C       2.5380351 *  1.0966208 *  1.5449712 *  2.7879646 *  3.4988351  
   5 H       1.0966505 *  3.7856201    2.1905044 *  3.7955922    1.7786832 *
   6 C       0.0000000    3.4992051    1.5451320 *  2.7868636 *  1.0965302 *
   7 H       3.4992051    0.0000000    2.1912839 *  3.1367386    4.3500838  
   8 C       1.5451320 *  2.1912839 *  0.0000000    2.1786993 *  2.1909175 *
   9 H       2.7868636 *  3.1367386    2.1786993 *  0.0000000    3.1331168  
  10 H       1.0965302 *  4.3500838    2.1909175 *  3.1331168    0.0000000  
  11 C       2.5387318 *  2.7827642 *  1.5453417 *  1.0974026 *  2.7814094 *
  12 H       2.1610703 *  2.5090313 *  1.0991581 *  3.0727864    2.5082423 *
  13 H       3.4992652    2.5728383 *  2.1907722 *  1.7783355 *  3.7892532  
  14 H       2.7813568 *  3.7893760    2.1908914 *  1.7788996 *  2.5736300 *

               11 C         12 H         13 H         14 H     

   1 H       2.7872827 *  3.0741462    3.1295985    3.7972159  
   2 H       3.4991285    2.5107827 *  3.7879823    4.3494563  
   3 H       2.7882935 *  3.0734476    3.7969566    3.1343129  
   4 C       2.5385773 *  2.1617073 *  2.7792048 *  3.4991047  
   5 H       3.4992823    2.5093237 *  4.3495516    3.7890943  
   6 C       2.5387318 *  2.1610703 *  3.4992652    2.7813568 *
   7 H       2.7827642 *  2.5090313 *  2.5728383 *  3.7893760  
   8 C       1.5453417 *  1.0991581 *  2.1907722 *  2.1908914 *
   9 H       1.0974026 *  3.0727864    1.7783355 *  1.7788996 *
  10 H       2.7814094 *  2.5082423 *  3.7892532    2.5736300 *
  11 C       0.0000000    2.1614108 *  1.0965864 *  1.0964912 *
  12 H       2.1614108 *  0.0000000    2.5100082 *  2.5082320 *
  13 H       1.0965864 *  2.5100082 *  0.0000000    1.7786760 *
  14 H       1.0964912 *  2.5082320 *  1.7786760 *  0.0000000  

  * ... LESS THAN  3.000


     ATOMIC BASIS SET
     ----------------
 THE CONTRACTED PRIMITIVE FUNCTIONS HAVE BEEN UNNORMALIZED
 THE CONTRACTED BASIS FUNCTIONS ARE NOW NORMALIZED TO UNITY

  SHELL TYPE  PRIMITIVE        EXPONENT          CONTRACTION COEFFICIENT(S)

 H         

      1   S       1             5.4471780    0.156284978695
      1   S       2             0.8245472    0.904690876670

      2   S       3             0.1831916    1.000000000000

 H         

      3   S       4             5.4471780    0.156284978695
      3   S       5             0.8245472    0.904690876670

      4   S       6             0.1831916    1.000000000000

 H         

      5   S       7             5.4471780    0.156284978695
      5   S       8             0.8245472    0.904690876670

      6   S       9             0.1831916    1.000000000000

 C         

      7   S      10           172.2560000    0.061766907377
      7   S      11            25.9109000    0.358794042852
      7   S      12             5.5333500    0.700713083689

      8   L      13             3.6649800   -0.395895162119    0.236459946619
      8   L      14             0.7705450    1.215834355681    0.860618805716

      9   L      15             0.1958570    1.000000000000    1.000000000000

 H         

     10   S      16             5.4471780    0.156284978695
     10   S      17             0.8245472    0.904690876670

     11   S      18             0.1831916    1.000000000000

 C         

     12   S      19           172.2560000    0.061766907377
     12   S      20            25.9109000    0.358794042852
     12   S      21             5.5333500    0.700713083689

     13   L      22             3.6649800   -0.395895162119    0.236459946619
     13   L      23             0.7705450    1.215834355681    0.860618805716

     14   L      24             0.1958570    1.000000000000    1.000000000000

 H         

     15   S      25             5.4471780    0.156284978695
     15   S      26             0.8245472    0.904690876670

     16   S      27             0.1831916    1.000000000000

 C         

     17   S      28           172.2560000    0.061766907377
     17   S      29            25.9109000    0.358794042852
     17   S      30             5.5333500    0.700713083689

     18   L      31             3.6649800   -0.395895162119    0.236459946619
     18   L      32             0.7705450    1.215834355681    0.860618805716

     19   L      33             0.1958570    1.000000000000    1.000000000000

 H         

     20   S      34             5.4471780    0.156284978695
     20   S      35             0.8245472    0.904690876670

     21   S      36             0.1831916    1.000000000000

 H         

     22   S      37             5.4471780    0.156284978695
     22   S      38             0.8245472    0.904690876670

     23   S      39             0.1831916    1.000000000000

 C         

     24   S      40           172.2560000    0.061766907377
     24   S      41            25.9109000    0.358794042852
     24   S      42             5.5333500    0.700713083689

     25   L      43             3.6649800   -0.395895162119    0.236459946619
     25   L      44             0.7705450    1.215834355681    0.860618805716

     26   L      45             0.1958570    1.000000000000    1.000000000000

 H         

     27   S      46             5.4471780    0.156284978695
     27   S      47             0.8245472    0.904690876670

     28   S      48             0.1831916    1.000000000000

 H         

     29   S      49             5.4471780    0.156284978695
     29   S      50             0.8245472    0.904690876670

     30   S      51             0.1831916    1.000000000000

 H         

     31   S      52             5.4471780    0.156284978695
     31   S      53             0.8245472    0.904690876670

     32   S      54             0.1831916    1.000000000000

 TOTAL NUMBER OF BASIS SET SHELLS             =   32
 NUMBER OF CARTESIAN GAUSSIAN BASIS FUNCTIONS =   56
 NUMBER OF ELECTRONS                          =   33
 CHARGE OF MOLECULE                           =    1
 SPIN MULTIPLICITY                            =    2
 NUMBER OF OCCUPIED ORBITALS (ALPHA)          =   17
 NUMBER OF OCCUPIED ORBITALS (BETA )          =   16
 TOTAL NUMBER OF ATOMS                        =   14
 THE NUCLEAR REPULSION ENERGY IS      133.7871771975

     $CONTRL OPTIONS
     ---------------
 SCFTYP=UHF          RUNTYP=ENERGY       EXETYP=RUN     
 MPLEVL=       0     CITYP =NONE         CCTYP =NONE         VBTYP =NONE    
 DFTTYP=NONE         TDDFT =NONE    
 MULT  =       2     ICHARG=       1     NZVAR =       0     COORD =UNIQUE  
 PP    =NONE         RELWFN=NONE         LOCAL =NONE         NUMGRD=       F
 ISPHER=      -1     NOSYM =       0     MAXIT =      60     UNITS =ANGS    
 PLTORB=       F     MOLPLT=       F     AIMPAC=       F     FRIEND=        
 NPRINT=       7     IREST =       0     GEOM  =INPUT   
 NORMF =       0     NORMP =       0     ITOL  =      20     ICUT  =       9
 INTTYP=BEST         GRDTYP=BEST         QMTTOL= 1.0E-06

     $SYSTEM OPTIONS
     ---------------
  REPLICATED MEMORY=    30000000 WORDS (ON EVERY NODE).
 DISTRIBUTED MEMDDI=        1000 MILLION WORDS IN AGGREGATE,
 MEMDDI DISTRIBUTED OVER   6 PROCESSORS IS   166666666 WORDS/PROCESSOR.
 TOTAL MEMORY REQUESTED ON EACH PROCESSOR=   196666666 WORDS.
 TIMLIM=      525600.00 MINUTES, OR     365.0 DAYS.
 PARALL= T  BALTYP=  DLB     KDIAG=    0  COREFL= F
 MXSEQ2=     300 MXSEQ3=     150  mem10=         0

          ----------------
          PROPERTIES INPUT
          ----------------

     MOMENTS            FIELD           POTENTIAL          DENSITY
 IEMOM =       1   IEFLD =       0   IEPOT =       0   IEDEN =       0
 WHERE =COMASS     WHERE =NUCLEI     WHERE =NUCLEI     WHERE =NUCLEI  
 OUTPUT=BOTH       OUTPUT=BOTH       OUTPUT=BOTH       OUTPUT=BOTH    
 IEMINT=       0   IEFINT=       0                     IEDINT=       0
                                                       MORB  =       0
          EXTRAPOLATION IN EFFECT
          SOSCF IN EFFECT
          DIIS or SOSCF will be reset if energy rises
 ORBITAL PRINTING OPTION: NPREO=     1    56     2     1

     -------------------------------
     INTEGRAL TRANSFORMATION OPTIONS
     -------------------------------
     NWORD  =            0
     CUTOFF = 1.0E-09     MPTRAN =       0
     DIRTRF =       T     AOINTS =DUP     

          ----------------------
          INTEGRAL INPUT OPTIONS
          ----------------------
 NOPK  =       1 NORDER=       0 SCHWRZ=       T

     ------------------------------------------
     THE POINT GROUP IS C1 , NAXIS= 0, ORDER= 1
     ------------------------------------------

     DIMENSIONS OF THE SYMMETRY SUBSPACES ARE
 A   =   56

 ..... DONE SETTING UP THE RUN .....
 CPU     0: STEP CPU TIME=     0.02 TOTAL CPU TIME=          0.0 (      0.0 MIN)
 TOTAL WALL CLOCK TIME=          0.0 SECONDS, CPU UTILIZATION IS    66.67%

          ********************
          1 ELECTRON INTEGRALS
          ********************
 ...... END OF ONE-ELECTRON INTEGRALS ......
 CPU     0: STEP CPU TIME=     0.01 TOTAL CPU TIME=          0.0 (      0.0 MIN)
 TOTAL WALL CLOCK TIME=          0.0 SECONDS, CPU UTILIZATION IS    75.00%

          -------------
          GUESS OPTIONS
          -------------
          GUESS =HUCKEL            NORB  =       0          NORDER=       0
          MIX   =       F          PRTMO =       F          PUNMO =       F
          TOLZ  = 1.0E-08          TOLE  = 1.0E-05
          SYMDEN=       F          PURIFY=       F

 INITIAL GUESS ORBITALS GENERATED BY HUCKEL   ROUTINE.
 HUCKEL GUESS REQUIRES     36338 WORDS.

 SYMMETRIES FOR INITIAL GUESS ORBITALS FOLLOW.  ALPHA SET(S).
    17 ORBITALS ARE OCCUPIED (    4 CORE ORBITALS).
     5=A        6=A        7=A        8=A        9=A       10=A       11=A   
    12=A       13=A       14=A       15=A       16=A       17=A       18=A   
    19=A       20=A       21=A       22=A       23=A       24=A       25=A   
    26=A       27=A   

 SYMMETRIES FOR INITIAL GUESS ORBITALS FOLLOW.   BETA SET(S).
    16 ORBITALS ARE OCCUPIED (    4 CORE ORBITALS).
     5=A        6=A        7=A        8=A        9=A       10=A       11=A   
    12=A       13=A       14=A       15=A       16=A       17=A       18=A   
    19=A       20=A       21=A       22=A       23=A       24=A       25=A   
    26=A   
 ...... END OF INITIAL ORBITAL SELECTION ......
 CPU     0: STEP CPU TIME=     0.02 TOTAL CPU TIME=          0.0 (      0.0 MIN)
 TOTAL WALL CLOCK TIME=          0.1 SECONDS, CPU UTILIZATION IS    83.33%

                    ----------------------
                    AO INTEGRAL TECHNOLOGY
                    ----------------------
     S,P,L SHELL ROTATED AXIS INTEGRALS, REPROGRAMMED BY
        KAZUYA ISHIMURA (IMS) AND JOSE SIERRA (SYNSTAR).
     S,P,D,L SHELL ROTATED AXIS INTEGRALS PROGRAMMED BY
        KAZUYA ISHIMURA (INSTITUTE FOR MOLECULAR SCIENCE).
     S,P,D,F,G SHELL TO TOTAL QUARTET ANGULAR MOMENTUM SUM 5,
        ERIC PROGRAM BY GRAHAM FLETCHER (ELORET AND NASA ADVANCED
        SUPERCOMPUTING DIVISION, AMES RESEARCH CENTER).
     S,P,D,F,G,L SHELL GENERAL RYS QUADRATURE PROGRAMMED BY
        MICHEL DUPUIS (PACIFIC NORTHWEST NATIONAL LABORATORY).

          --------------------
          2 ELECTRON INTEGRALS
          --------------------

 DIRECT SCF METHOD SKIPS INTEGRAL STORAGE ON DISK.
 DIRECT TRANSFORMATION SKIPS AO INTEGRAL STORAGE ON DISK.
  ...... END OF TWO-ELECTRON INTEGRALS .....
 CPU     0: STEP CPU TIME=     0.00 TOTAL CPU TIME=          0.0 (      0.0 MIN)
 TOTAL WALL CLOCK TIME=          0.1 SECONDS, CPU UTILIZATION IS    83.33%

          ---------------------------
                  UHF SCF CALCULATION
          ---------------------------

     NUCLEAR ENERGY =       133.7871771975
     MAXIT = 60     NPUNCH=  2     MULT=  2
     EXTRAP=T  DAMP=F  SHIFT=F  RSTRCT=F  DIIS=F  SOSCF=T
     DENSITY MATRIX CONV=  2.00E-05
     SOSCF WILL OPTIMIZE     663 ALPHA AND     640 BETA ROTATION ANGLES.
     SOGTOL= 2.500E-01
     MEMORY REQUIRED FOR UHF/ROHF ITERS=     86789 WORDS.

 DIRECT SCF CALCULATION, SCHWRZ=T   FDIFF=T
 SCHWARZ INEQUALITY OVERHEAD:      1593 INTEGRALS, T=        0.00

                                                                                NONZERO     BLOCKS
 ITER EX      TOTAL ENERGY        E CHANGE  DENSITY CHANGE    ORB. GRAD       INTEGRALS    SKIPPED
   1  0     -155.6124358337  -155.6124358337   0.871151900   0.000000000        1193290      20712
          ---------------START SECOND ORDER SCF---------------
   2  1     -155.9875906684    -0.3751548347   0.078706185   0.045422065        1186850      23173
   3  2     -156.0189756509    -0.0313849825   0.090684734   0.020331211        1178270      26093
   4  3     -156.0274065181    -0.0084308672   0.041156586   0.010744378        1166855      28875
   5  4     -156.0284865277    -0.0010800095   0.028328582   0.006739660        1162812      29622
   6  5     -156.0290039915    -0.0005174638   0.006444146   0.002044307        1163405      29652
   7  6     -156.0291552384    -0.0001512469   0.008531516   0.001895592        1153572      31499
   8  7     -156.0292803847    -0.0001251463   0.006943030   0.001862032        1156253      30850
   9  8     -156.0293944275    -0.0001140429   0.008912787   0.001561672        1157738      30603
  10  9     -156.0295170703    -0.0001226427   0.007216530   0.001285902        1160943      29850
  11 10     -156.0295761127    -0.0000590425   0.003648096   0.000600117        1157264      30636
  12 11     -156.0295948358    -0.0000187230   0.001621007   0.000291194        1141752      33048
  13 12     -156.0295996400    -0.0000048042   0.000766386   0.000202741        1118627      36599
  14 13     -156.0296015615    -0.0000019215   0.000930500   0.000195569        1110723      38246
  15 14     -156.0296030508    -0.0000014893   0.001446693   0.000194342        1112298      37967
  16 15     -156.0296052427    -0.0000021919   0.002731509   0.000195135        1126233      36102
  17 16     -156.0296095339    -0.0000042912   0.004696529   0.000373813        1142601      33653
  18 17     -156.0296170271    -0.0000074932   0.005814769   0.000526532        1153448      31903
  19 18     -156.0296262429    -0.0000092157   0.004834059   0.000483349        1156499      31320
  20 19     -156.0296337614    -0.0000075186   0.002185948   0.000263775        1153252      32033
  21 20     -156.0296369202    -0.0000031587   0.000605405   0.000117951        1134830      34539
  22 21     -156.0296373920    -0.0000004718   0.000317663   0.000069490        1091244      41677
  23 22     -156.0296375520    -0.0000001600   0.000214519   0.000040149        1079812      43898
  24 23     -156.0296375832    -0.0000000312   0.000077812   0.000008592        1072258      45537
  25 24     -156.0296375882    -0.0000000050   0.000025398   0.000005551        1057845      49120
  26 25     -156.0296375893    -0.0000000011   0.000016038   0.000002667        1037650      52837
  27 26     -156.0296375896    -0.0000000003   0.000007988   0.000000869         983388      59990

          -----------------
          DENSITY CONVERGED
          -----------------
     TIME TO FORM FOCK OPERATORS=       0.6 SECONDS (       0.0 SEC/ITER)
     FOCK TIME ON FIRST ITERATION=       0.0, LAST ITERATION=       0.0
     TIME TO SOLVE SCF EQUATIONS=       0.1 SECONDS (       0.0 SEC/ITER)

 FINAL UHF ENERGY IS     -156.0296375896 AFTER  27 ITERATIONS

          --------------------
          SPIN SZ   =    0.500
          S-SQUARED =    0.759
          --------------------

  ----- ALPHA SET ----- 

          ------------
          EIGENVECTORS
          ------------

                      1          2          3          4          5
                  -11.4694   -11.4594   -11.3826   -11.3822    -1.3686
                     A          A          A          A          A   
    1  H  1  S   -0.001520  -0.000493  -0.000576  -0.000084   0.033496
    2  H  1  S    0.000123  -0.001420  -0.010684   0.009624  -0.001350
    3  H  2  S   -0.001168  -0.000080  -0.000414  -0.000054   0.030515
    4  H  2  S   -0.000063   0.002240  -0.010159   0.009299  -0.009480
    5  H  3  S   -0.001521  -0.000491   0.000567  -0.000140   0.033501
    6  H  3  S    0.000121  -0.001432   0.011510   0.008614  -0.001338
    7  C  4  S   -0.001037  -0.002864  -0.665648   0.729384  -0.072400
    8  C  4  S   -0.002515  -0.002008  -0.069835   0.073987   0.081045
    9  C  4  X    0.000939  -0.000403  -0.001222  -0.000152   0.046165
   10  C  4  Y   -0.000379   0.001066  -0.000018  -0.000397  -0.021366
   11  C  4  Z   -0.000152  -0.000041  -0.000316  -0.000312  -0.009269
   12  C  4  S    0.023649   0.003880   0.055762  -0.055760   0.125320
   13  C  4  X    0.011737   0.001110   0.004952  -0.001119  -0.016304
   14  C  4  Y   -0.004606  -0.003356  -0.000534   0.001752   0.011664
   15  C  4  Z   -0.002358   0.000606   0.000980   0.001683  -0.002700
   16  H  5  S   -0.001168  -0.000080   0.000407  -0.000090   0.030508
   17  H  5  S   -0.000055   0.002240   0.010976   0.008322  -0.009496
   18  C  6  S   -0.001036  -0.002866   0.729638   0.665369  -0.072404
   19  C  6  S   -0.002516  -0.002008   0.076317   0.067282   0.081051
   20  C  6  X   -0.000764   0.000226  -0.001212   0.000419  -0.036440
   21  C  6  Y   -0.000513   0.001116  -0.000209  -0.000343  -0.027947
   22  C  6  Z   -0.000452   0.000067  -0.000140  -0.000221  -0.023758
   23  C  6  S    0.023655   0.003882  -0.060640  -0.050420   0.125315
   24  C  6  X   -0.009389  -0.000730   0.004857  -0.000238   0.014257
   25  C  6  Y   -0.006301  -0.003501   0.001471   0.001735   0.014128
   26  C  6  Z   -0.006061   0.000294   0.000926   0.001839   0.002633
   27  H  7  S   -0.001195  -0.000347  -0.000212   0.000113   0.030594
   28  H  7  S   -0.000024  -0.001289  -0.007560   0.011635  -0.006388
   29  C  8  S    0.988283   0.003561   0.000023   0.000537  -0.165882
   30  C  8  S    0.107912  -0.000762  -0.000073  -0.001579   0.154784
   31  C  8  X   -0.000043   0.000029   0.000449  -0.000070  -0.000068
   32  C  8  Y   -0.000831  -0.000412   0.000046   0.000220  -0.040815
   33  C  8  Z    0.000632   0.000025   0.000088   0.000187   0.018940
   34  C  8  S   -0.102561   0.013374   0.000893   0.019339   0.474142
   35  C  8  X    0.001102   0.000974   0.013097  -0.001855  -0.003604
   36  C  8  Y    0.002238  -0.011126   0.001373   0.006876  -0.011102
   37  C  8  Z   -0.007359  -0.000516   0.002492   0.003880   0.025975
   38  H  9  S   -0.001521   0.000325  -0.000032  -0.000678   0.053103
   39  H  9  S    0.000144   0.014258  -0.000079  -0.001929  -0.012277
   40  H 10  S   -0.001196  -0.000350   0.000221   0.000092   0.030630
   41  H 10  S   -0.000033  -0.001277   0.008593   0.010895  -0.006383
   42  C 11  S   -0.004231   0.987324   0.000163   0.003521  -0.123637
   43  C 11  S   -0.002848   0.102223  -0.000093  -0.002038   0.133029
   44  C 11  X   -0.000083  -0.000116  -0.001049   0.000223  -0.005276
   45  C 11  Y    0.001029   0.001340  -0.000132  -0.001045   0.076943
   46  C 11  Z    0.000014   0.000046  -0.000207  -0.000511  -0.004913
   47  C 11  S    0.024224  -0.078657   0.000222   0.004772   0.299067
   48  C 11  X   -0.000940   0.000412   0.003198  -0.000774   0.000967
   49  C 11  Y    0.012991  -0.004852   0.000388   0.002884  -0.002438
   50  C 11  Z   -0.000561  -0.000089   0.000655   0.002247  -0.004686
   51  H 12  S    0.001559  -0.001108  -0.000073  -0.001573   0.067256
   52  H 12  S    0.013993   0.000867   0.000053   0.001149  -0.019654
   53  H 13  S   -0.001205   0.000233   0.000170  -0.000306   0.051449
   54  H 13  S   -0.000074   0.013605   0.002500   0.000663  -0.015312
   55  H 14  S   -0.001205   0.000229  -0.000196  -0.000285   0.051447
   56  H 14  S   -0.000066   0.013603  -0.002440   0.000883  -0.015298

                      6          7          8          9         10
                   -1.2015    -1.1573    -1.0257    -0.8953    -0.8535
                     A          A          A          A          A   
    1  H  1  S   -0.046820   0.080068  -0.078277   0.050931   0.038481
    2  H  1  S    0.003224  -0.000434  -0.029086   0.035244   0.025461
    3  H  2  S   -0.061793   0.087523  -0.071702  -0.078423   0.089801
    4  H  2  S   -0.012421   0.007957  -0.027705  -0.052935   0.058348
    5  H  3  S   -0.046909  -0.079979  -0.078315   0.051072  -0.038183
    6  H  3  S    0.003240   0.000420  -0.029076   0.035288  -0.025235
    7  C  4  S    0.095264  -0.150248   0.079586   0.013435  -0.022089
    8  C  4  S   -0.090093   0.139335  -0.069101  -0.006914   0.014311
    9  C  4  X   -0.023343  -0.010488   0.078945   0.061028  -0.066619
   10  C  4  Y   -0.016137  -0.006501  -0.033473  -0.092442   0.115974
   11  C  4  Z    0.002094  -0.009242  -0.052123   0.089970   0.055459
   12  C  4  S   -0.274148   0.467304  -0.324983  -0.082201   0.123330
   13  C  4  X   -0.008516   0.010843   0.008416   0.017871  -0.024181
   14  C  4  Y    0.002560  -0.007226  -0.000987  -0.047421   0.074398
   15  C  4  Z    0.000111   0.000330  -0.020664   0.056581   0.027046
   16  H  5  S   -0.061823  -0.087477  -0.071709  -0.078361  -0.090118
   17  H  5  S   -0.012413  -0.007929  -0.027725  -0.052886  -0.058605
   18  C  6  S    0.095366   0.150160   0.079652   0.013348   0.022021
   19  C  6  S   -0.090184  -0.139251  -0.069162  -0.006853  -0.014245
   20  C  6  X    0.023436  -0.013883  -0.050529  -0.072851  -0.024769
   21  C  6  Y   -0.012389   0.004580  -0.043799  -0.102866  -0.123851
   22  C  6  Z    0.010319   0.005022  -0.074801   0.066762  -0.071006
   23  C  6  S   -0.274489  -0.467073  -0.325247  -0.081702  -0.122971
   24  C  6  X    0.007528   0.009112  -0.000625  -0.028462  -0.001545
   25  C  6  Y    0.003837   0.008788  -0.001678  -0.051071  -0.076819
   26  C  6  Z    0.002952   0.003249  -0.022241   0.048624  -0.031264
   27  H  7  S   -0.041613   0.089829  -0.055932  -0.039930  -0.010369
   28  H  7  S    0.007464   0.012588  -0.016053  -0.027056  -0.011744
   29  C  8  S    0.042758  -0.000016  -0.131680  -0.024305   0.000047
   30  C  8  S   -0.040325   0.000023   0.110968   0.015471  -0.000064
   31  C  8  X    0.015938  -0.147287   0.023246  -0.031239   0.168609
   32  C  8  Y   -0.143665  -0.011682  -0.018663  -0.120658   0.012729
   33  C  8  Z   -0.025990  -0.025767  -0.123972   0.231704   0.029734
   34  C  8  S   -0.137318   0.000030   0.589270   0.121749  -0.000158
   35  C  8  X    0.004110  -0.042406   0.012458  -0.032117   0.166277
   36  C  8  Y   -0.034998  -0.003333  -0.008415  -0.099480   0.012622
   37  C  8  Z   -0.007591  -0.007392  -0.066734   0.226799   0.029334
   38  H  9  S    0.085863  -0.000050  -0.084001   0.071792   0.000041
   39  H  9  S   -0.009552   0.000012  -0.031106   0.037171   0.000045
   40  H 10  S   -0.041663  -0.089820  -0.055977  -0.039793   0.010837
   41  H 10  S    0.007440  -0.012598  -0.016063  -0.026988   0.012012
   42  C 11  S   -0.164314   0.000048   0.062001   0.015153   0.000008
   43  C 11  S    0.158319  -0.000050  -0.055271  -0.007226   0.000031
   44  C 11  X    0.002564  -0.035170  -0.001461  -0.047069   0.320822
   45  C 11  Y   -0.016139  -0.002789   0.144377   0.187438   0.026117
   46  C 11  Z   -0.007517  -0.006151  -0.056899   0.181447   0.055968
   47  C 11  S    0.549774  -0.000144  -0.278409  -0.100139  -0.000219
   48  C 11  X   -0.000951  -0.014113   0.001843  -0.033582   0.261065
   49  C 11  Y    0.006974  -0.001114   0.054254   0.108702   0.021133
   50  C 11  Z    0.001855  -0.002490  -0.034874   0.140678   0.045537
   51  H 12  S   -0.025139  -0.000041   0.139198  -0.133044  -0.000197
   52  H 12  S   -0.000395  -0.000005   0.032215  -0.058470  -0.000099
   53  H 13  S    0.094634   0.012592  -0.058861  -0.102502  -0.169027
   54  H 13  S    0.000230   0.008753  -0.020805  -0.059872  -0.101777
   55  H 14  S    0.094660  -0.012618  -0.058774  -0.103237   0.168511
   56  H 14  S    0.000253  -0.008763  -0.020779  -0.060257   0.101429

                     11         12         13         14         15
                   -0.8407    -0.7844    -0.7537    -0.7501    -0.7347
                     A          A          A          A          A   
    1  H  1  S   -0.039044  -0.078761   0.154367  -0.109550  -0.043832
    2  H  1  S   -0.025372  -0.054099   0.119943  -0.081155  -0.033256
    3  H  2  S    0.043017  -0.000103   0.023736   0.180853   0.172921
    4  H  2  S    0.031833   0.000028   0.018263   0.133432   0.145672
    5  H  3  S   -0.038848  -0.079723  -0.154074   0.109371  -0.043492
    6  H  3  S   -0.025271  -0.054755  -0.119720   0.080964  -0.032993
    7  C  4  S    0.021204  -0.001209  -0.000846   0.005106   0.008550
    8  C  4  S   -0.016042   0.000130  -0.000879  -0.003817  -0.004719
    9  C  4  X    0.177613  -0.088517  -0.032430   0.028142  -0.027254
   10  C  4  Y    0.099262  -0.025749   0.060205   0.237841   0.222673
   11  C  4  Z    0.011700  -0.148242   0.241448  -0.102072  -0.009445
   12  C  4  S   -0.122097   0.016447   0.031526  -0.019512  -0.026950
   13  C  4  X    0.104119  -0.066588  -0.004695   0.028421  -0.007829
   14  C  4  Y    0.076840  -0.027556   0.045303   0.223385   0.221441
   15  C  4  Z    0.016936  -0.127315   0.205955  -0.094998  -0.013019
   16  H  5  S    0.042397  -0.000153  -0.023392  -0.181056   0.172752
   17  H  5  S    0.031439   0.000037  -0.017970  -0.133602   0.145574
   18  C  6  S    0.021308  -0.001161   0.000893  -0.005130   0.008551
   19  C  6  S   -0.016138   0.000084   0.000830   0.003824  -0.004734
   20  C  6  X   -0.184204   0.136516   0.059928   0.028191  -0.005549
   21  C  6  Y    0.069823  -0.008419  -0.057918  -0.233493   0.224244
   22  C  6  Z   -0.051838  -0.110079  -0.235878   0.112097  -0.005603
   23  C  6  S   -0.122566   0.016086  -0.031736   0.019716  -0.026888
   24  C  6  X   -0.114211   0.109424   0.071535   0.028461  -0.022234
   25  C  6  Y    0.058988  -0.014059  -0.039922  -0.218998   0.220112
   26  C  6  Z   -0.021322  -0.097491  -0.193568   0.105144  -0.015488
   27  H  7  S   -0.125649   0.103767  -0.093707  -0.050131  -0.060090
   28  H  7  S   -0.083642   0.074451  -0.065325  -0.033838  -0.045786
   29  C  8  S   -0.025084   0.005398  -0.000012   0.000016   0.012611
   30  C  8  S    0.019472  -0.003746   0.000003  -0.000009  -0.009998
   31  C  8  X   -0.031508   0.015994   0.161218   0.033574   0.020191
   32  C  8  Y    0.249915   0.027220   0.012803   0.002671  -0.224756
   33  C  8  Z    0.068277  -0.100392   0.028594   0.005790  -0.013304
   34  C  8  S    0.128786  -0.025002   0.000051  -0.000108  -0.066327
   35  C  8  X   -0.029915   0.017273   0.157631   0.028192   0.016008
   36  C  8  Y    0.220083   0.021535   0.012590   0.002175  -0.175930
   37  C  8  Z    0.072694  -0.105369   0.027878   0.004759  -0.011826
   38  H  9  S    0.123027   0.201586  -0.000688  -0.000231   0.000620
   39  H  9  S    0.080885   0.136618  -0.000546  -0.000198  -0.019607
   40  H 10  S   -0.125726   0.104141   0.092896   0.050560  -0.060265
   41  H 10  S   -0.083675   0.074657   0.064676   0.034239  -0.045914
   42  C 11  S   -0.010232   0.000616   0.000005   0.000014  -0.026807
   43  C 11  S    0.003774  -0.001999  -0.000023  -0.000015   0.024021
   44  C 11  X   -0.009699  -0.053624  -0.173741  -0.144123  -0.024645
   45  C 11  Y   -0.193656  -0.010302  -0.013808  -0.011504   0.245376
   46  C 11  Z    0.147452   0.308707  -0.031208  -0.025413   0.029279
   47  C 11  S    0.075903   0.004569   0.000048  -0.000058   0.113405
   48  C 11  X   -0.008187  -0.051272  -0.177946  -0.138836  -0.023445
   49  C 11  Y   -0.129263   0.005402  -0.014140  -0.011094   0.207377
   50  C 11  Z    0.108574   0.288058  -0.031846  -0.024455   0.039624
   51  H 12  S    0.009314   0.066503  -0.000155   0.000042  -0.035986
   52  H 12  S    0.008914   0.046091  -0.000196  -0.000023  -0.033095
   53  H 13  S    0.013558  -0.087762   0.102646   0.085954  -0.061912
   54  H 13  S    0.007414  -0.053968   0.070342   0.060699  -0.060631
   55  H 14  S    0.014120  -0.088780  -0.102012  -0.085699  -0.062032
   56  H 14  S    0.007799  -0.054607  -0.069870  -0.060475  -0.060709

                     16         17         18         19         20
                   -0.6971    -0.6965     0.0404     0.0874     0.0984
                     A          A          A          A          A   
    1  H  1  S   -0.143834  -0.041657   0.019593   0.021469   0.028158
    2  H  1  S   -0.146742  -0.024888  -0.333233   0.664080  -0.017354
    3  H  2  S    0.012781  -0.008448  -0.017550  -0.015973  -0.043119
    4  H  2  S    0.005514   0.000893  -0.494262  -0.245035  -0.469050
    5  H  3  S   -0.149828   0.002417   0.019461   0.021293  -0.028168
    6  H  3  S   -0.148184  -0.014647  -0.333619   0.662304   0.017238
    7  C  4  S   -0.012093   0.013458  -0.058741  -0.000101  -0.037174
    8  C  4  S    0.011215  -0.009042   0.032451   0.002687   0.026059
    9  C  4  X    0.103124  -0.250592  -0.062050   0.041087   0.095520
   10  C  4  Y   -0.016657  -0.024768   0.022959   0.034285   0.035111
   11  C  4  Z   -0.189820  -0.093196   0.012431  -0.122617   0.009724
   12  C  4  S    0.025705  -0.030474   0.713203  -0.055150   0.321562
   13  C  4  X    0.060147  -0.217677  -0.397311   0.187828   0.325306
   14  C  4  Y   -0.005608  -0.043648   0.179434   0.123473   0.262345
   15  C  4  Z   -0.183756  -0.116110   0.091853  -0.419175   0.016334
   16  H  5  S    0.010334   0.011387  -0.017540  -0.015921   0.043332
   17  H  5  S    0.005692   0.000475  -0.494390  -0.246089   0.471718
   18  C  6  S   -0.008117  -0.016155  -0.058814  -0.000462   0.037314
   19  C  6  S    0.008422   0.011645   0.032478   0.002774  -0.026164
   20  C  6  X    0.042766  -0.266202   0.049884  -0.002217   0.097040
   21  C  6  Y   -0.022025  -0.022982   0.031856   0.030567  -0.019935
   22  C  6  Z   -0.206100  -0.053998   0.032012  -0.130425   0.024277
   23  C  6  S    0.016878   0.036184   0.714044  -0.050413  -0.323033
   24  C  6  X    0.072228  -0.237431   0.310216  -0.052085   0.346184
   25  C  6  Y   -0.011312   0.003824   0.235522   0.102609  -0.210997
   26  C  6  Z   -0.195336  -0.017710   0.215661  -0.462097   0.103459
   27  H  7  S    0.041417   0.172226  -0.004933   0.001698   0.022120
   28  H  7  S    0.028534   0.152857  -0.448220  -0.083144   0.312432
   29  C  8  S   -0.009876  -0.001324  -0.071949   0.004559  -0.000185
   30  C  8  S    0.009227   0.001217   0.020368  -0.000399   0.000082
   31  C  8  X   -0.087199   0.272895   0.013543   0.018412   0.081087
   32  C  8  Y    0.015300   0.024659   0.008244   0.051897   0.006473
   33  C  8  Z    0.268228   0.085975  -0.081054  -0.130384   0.013635
   34  C  8  S    0.031027   0.004241   1.086699  -0.057617   0.002486
   35  C  8  X   -0.086629   0.253791   0.043841   0.061323   0.138868
   36  C  8  Y    0.015767   0.023249   0.032539   0.131117   0.011404
   37  C  8  Z    0.279625   0.084162  -0.265186  -0.419538   0.021117
   38  H  9  S   -0.084915  -0.011544   0.011320   0.074481  -0.000159
   39  H  9  S   -0.094927  -0.012896  -0.491144   1.232281   0.000044
   40  H 10  S    0.085266  -0.155253  -0.004890   0.001843  -0.022362
   41  H 10  S    0.067727  -0.139954  -0.448474  -0.083749  -0.311512
   42  C 11  S   -0.004980  -0.000673  -0.081987   0.012572   0.000146
   43  C 11  S    0.006112   0.000831   0.046348   0.000372  -0.000073
   44  C 11  X    0.028146  -0.082114   0.008651   0.030217   0.241830
   45  C 11  Y    0.019937  -0.004081  -0.099600   0.064681   0.019211
   46  C 11  Z   -0.102561  -0.028859  -0.004099  -0.203460   0.042054
   47  C 11  S    0.022938   0.003103   1.051851  -0.248592  -0.001735
   48  C 11  X    0.032205  -0.096677   0.045113   0.115424   1.104423
   49  C 11  Y    0.007050  -0.007048  -0.585056   0.266200   0.087875
   50  C 11  Z   -0.107446  -0.032193   0.007969  -0.785714   0.192595
   51  H 12  S   -0.194592  -0.026144  -0.012169  -0.100057  -0.000184
   52  H 12  S   -0.173869  -0.023425  -0.724044  -0.824702  -0.004564
   53  H 13  S    0.028798   0.065478  -0.023501  -0.023166   0.097458
   54  H 13  S    0.024172   0.064103  -0.687663  -0.262635   1.208225
   55  H 14  S    0.045260  -0.055397  -0.023548  -0.022930  -0.097317
   56  H 14  S    0.040244  -0.055332  -0.688305  -0.262499  -1.205567

                     21         22         23         24         25
                    0.1086     0.1268     0.1359     0.1417     0.1539
                     A          A          A          A          A   
    1  H  1  S    0.015702   0.035839  -0.013626   0.050268  -0.046494
    2  H  1  S    0.308219   0.535141  -0.173124   0.905707  -0.284266
    3  H  2  S   -0.072667   0.013320  -0.002374   0.002044  -0.019306
    4  H  2  S   -0.453089   0.920261  -0.324542   0.508762   0.467189
    5  H  3  S    0.015577   0.035534  -0.013119  -0.050869  -0.046107
    6  H  3  S    0.307852   0.531905  -0.160556  -0.914521  -0.275188
    7  C  4  S    0.035590   0.037238  -0.048270   0.125983   0.063734
    8  C  4  S   -0.015757  -0.003490   0.019177  -0.029669  -0.022887
    9  C  4  X    0.013182  -0.003105   0.009772   0.018485   0.045004
   10  C  4  Y    0.093838  -0.155425  -0.002393   0.018678  -0.040250
   11  C  4  Z    0.009347  -0.078536   0.000855  -0.013250   0.092424
   12  C  4  S   -0.461492  -0.641934   0.587824  -1.850533  -0.839927
   13  C  4  X    0.100431  -0.103118   0.041508  -0.069102   0.279702
   14  C  4  Y    0.399301  -0.657753   0.139142   0.178799   0.031639
   15  C  4  Z    0.005089  -0.420044  -0.182011  -0.104516   0.571754
   16  H  5  S   -0.072483   0.013512  -0.001885  -0.002091  -0.019330
   17  H  5  S   -0.451299   0.922202  -0.311736  -0.509713   0.468391
   18  C  6  S    0.035784   0.037056  -0.046640  -0.126334   0.064310
   19  C  6  S   -0.015821  -0.003466   0.018588   0.029778  -0.023112
   20  C  6  X   -0.029495   0.052903  -0.008278   0.014739  -0.067406
   21  C  6  Y    0.090468  -0.151628  -0.004535  -0.016233  -0.048712
   22  C  6  Z    0.001895  -0.068126  -0.003116   0.020424   0.071695
   23  C  6  S   -0.463894  -0.639142   0.566015   1.855008  -0.848301
   24  C  6  X   -0.154905   0.337147   0.006314  -0.076158  -0.459605
   25  C  6  Y    0.378736  -0.626140   0.132306  -0.189370  -0.024886
   26  C  6  Z   -0.039618  -0.340148  -0.192392   0.083371   0.437334
   27  H  7  S    0.053510  -0.027901   0.014013  -0.034544   0.076415
   28  H  7  S    0.600002  -0.487245  -0.207632   0.589623   0.972284
   29  C  8  S    0.063749   0.027468   0.080641   0.000426  -0.073361
   30  C  8  S   -0.022579  -0.008617  -0.034350  -0.000165   0.025401
   31  C  8  X   -0.023756  -0.002255  -0.023604  -0.127786   0.006471
   32  C  8  Y    0.215424   0.007526  -0.089183  -0.010554  -0.067478
   33  C  8  Z    0.038664   0.008129   0.179463  -0.021272  -0.006812
   34  C  8  S   -0.867154  -0.407072  -1.130074  -0.006215   1.015697
   35  C  8  X   -0.103134  -0.062678  -0.126359  -0.916879   0.055786
   36  C  8  Y    0.892365   0.388912  -0.539777  -0.075554  -0.362253
   37  C  8  Z    0.187108   0.172428   0.986410  -0.155405  -0.154243
   38  H  9  S   -0.007395  -0.058310   0.061610   0.000609   0.036252
   39  H  9  S   -0.614635  -0.523860   0.792817   0.005493   0.362099
   40  H 10  S    0.053497  -0.027741   0.013202   0.035109   0.076253
   41  H 10  S    0.600353  -0.487390  -0.207420  -0.585410   0.975667
   42  C 11  S   -0.134513  -0.084351  -0.013360  -0.000127  -0.004122
   43  C 11  S    0.061653   0.013121   0.011168   0.000049   0.005157
   44  C 11  X   -0.013749   0.014190   0.028737   0.088627   0.031082
   45  C 11  Y    0.136488  -0.094510  -0.066839   0.006535  -0.159698
   46  C 11  Z    0.017439  -0.037983  -0.136842   0.014462  -0.108280
   47  C 11  S    1.760941   1.390239   0.102876   0.001528   0.094992
   48  C 11  X   -0.059752   0.020858   0.180587   0.383260   0.134846
   49  C 11  Y    0.679045  -0.127296  -0.344671   0.028187  -0.760590
   50  C 11  Z    0.037248  -0.060711  -0.883800   0.060337  -0.431888
   51  H 12  S    0.005075  -0.006991   0.042331   0.000316   0.004006
   52  H 12  S    0.329677   0.189710   1.586906   0.009484  -0.406437
   53  H 13  S    0.014541   0.006454  -0.040856  -0.029950  -0.051774
   54  H 13  S   -0.338412  -0.615622  -0.650741   0.276795  -0.661805
   55  H 14  S    0.014263   0.006577  -0.041448   0.029129  -0.051852
   56  H 14  S   -0.340196  -0.616002  -0.651287  -0.286255  -0.660694

                     26         27         28         29         30
                    0.1744     0.1775     0.2014     0.2041     0.2162
                     A          A          A          A          A   
    1  H  1  S    0.061855   0.003122  -0.029310   0.008908   0.037132
    2  H  1  S    0.740915   0.913444  -0.314798   0.098411   0.876453
    3  H  2  S   -0.075945  -0.011249  -0.013510  -0.031736   0.023928
    4  H  2  S   -0.957027  -0.381128   0.303860  -0.803912   0.344487
    5  H  3  S   -0.062128   0.000996  -0.029724  -0.006593  -0.037202
    6  H  3  S   -0.773670   0.884207  -0.317902  -0.084228  -0.878182
    7  C  4  S   -0.017679   0.064051   0.045765   0.000410  -0.018753
    8  C  4  S    0.007692  -0.003281   0.010412   0.000173  -0.017521
    9  C  4  X   -0.121704  -0.049324  -0.130511   0.142506   0.128161
   10  C  4  Y    0.101413   0.098075  -0.004881   0.171896  -0.066022
   11  C  4  Z   -0.136117  -0.091249   0.069557   0.051400  -0.156408
   12  C  4  S    0.282981  -0.939711  -0.755059  -0.039139   0.405451
   13  C  4  X   -0.498034  -0.455456  -1.062508   0.637545   0.781695
   14  C  4  Y    0.592152   0.656394  -0.154779   0.706181  -0.550239
   15  C  4  Z   -0.628251  -0.523703   0.260324   0.185391  -0.895993
   16  H  5  S    0.076248  -0.008370  -0.011614   0.032956  -0.023979
   17  H  5  S    0.969308  -0.343227   0.359099   0.783473  -0.343800
   18  C  6  S    0.016052   0.064219   0.045686  -0.004688   0.018466
   19  C  6  S   -0.007489  -0.003414   0.010404  -0.001041   0.017513
   20  C  6  X   -0.145057   0.059737   0.113593   0.166569   0.055091
   21  C  6  Y   -0.124972   0.101257   0.002893  -0.148718   0.080296
   22  C  6  Z    0.093245  -0.068385   0.109779  -0.002985   0.188447
   23  C  6  S   -0.259344  -0.942093  -0.751108   0.109478  -0.400930
   24  C  6  X   -0.594592   0.492074   0.986089   0.677274   0.330439
   25  C  6  Y   -0.697495   0.702757  -0.036511  -0.604157   0.638875
   26  C  6  Z    0.456718  -0.340038   0.612823   0.018062   1.090399
   27  H  7  S   -0.021573  -0.007885  -0.011433   0.043694   0.014895
   28  H  7  S   -0.700028   0.039670  -0.291652   1.113344  -0.246333
   29  C  8  S    0.001463  -0.124618  -0.082277   0.003895   0.000288
   30  C  8  S   -0.000283   0.024882   0.015816  -0.000706  -0.000064
   31  C  8  X   -0.072678  -0.018935  -0.038905   0.059482   0.268580
   32  C  8  Y   -0.003139  -0.128047   0.235003  -0.003879   0.020641
   33  C  8  Z   -0.014752   0.162201   0.135206   0.002954   0.046879
   34  C  8  S   -0.021275   1.826710   1.253360  -0.059487  -0.004653
   35  C  8  X   -0.427517  -0.134269  -0.239589   0.252922   1.670190
   36  C  8  Y   -0.019770  -0.669907   1.386611  -0.031613   0.128360
   37  C  8  Z   -0.088165   1.039484   0.829628  -0.001210   0.290382
   38  H  9  S    0.001062  -0.066532   0.021442  -0.000446   0.000106
   39  H  9  S    0.008029  -0.254736   0.891489  -0.035858   0.001393
   40  H 10  S    0.021722  -0.007830  -0.015282  -0.042339  -0.014495
   41  H 10  S    0.698809   0.045824  -0.383949  -1.084131   0.250624
   42  C 11  S   -0.000590   0.051830   0.008682  -0.000635  -0.000052
   43  C 11  S   -0.000258   0.007668  -0.011649   0.000414   0.000005
   44  C 11  X   -0.075203  -0.003467   0.005658  -0.168807  -0.006886
   45  C 11  Y   -0.003849  -0.104976   0.126283  -0.017776  -0.001187
   46  C 11  Z   -0.014499   0.056847  -0.128573  -0.024204  -0.001720
   47  C 11  S    0.011007  -0.888068  -0.004441   0.005350   0.000596
   48  C 11  X   -0.007269   0.044421   0.036204  -0.716246  -0.447138
   49  C 11  Y    0.015733  -0.951631   0.625176  -0.075171  -0.038226
   50  C 11  Z   -0.005956   0.157813  -0.669627  -0.096158  -0.079446
   51  H 12  S   -0.000319   0.025380   0.031922  -0.001441  -0.000069
   52  H 12  S   -0.007027   0.470614   0.116386  -0.012600   0.000037
   53  H 13  S    0.038524   0.000175   0.024069  -0.035076   0.008493
   54  H 13  S   -0.083725   0.067138   0.027227  -0.723860  -0.217121
   55  H 14  S   -0.038455  -0.000517   0.027271   0.033204  -0.008923
   56  H 14  S    0.083544   0.076477   0.085225   0.720970   0.211432

                     31         32         33         34         35
                    0.6396     0.6517     0.6722     0.7226     0.7624
                     A          A          A          A          A   
    1  H  1  S   -0.201405   0.122536   0.230689   0.148962  -0.348660
    2  H  1  S   -0.024830  -0.051855  -0.013721  -0.039746   0.025759
    3  H  2  S    0.292872  -0.240149   0.133573  -0.037506   0.026927
    4  H  2  S   -0.087221   0.178728  -0.004746   0.060216  -0.003252
    5  H  3  S   -0.201110  -0.121275   0.231135   0.150042   0.346534
    6  H  3  S   -0.024564   0.052148  -0.012739  -0.039303  -0.025549
    7  C  4  S    0.003126   0.003050   0.003350  -0.008711   0.001931
    8  C  4  S   -0.036262   0.055171   0.042893   0.045053  -0.008832
    9  C  4  X   -0.038290   0.156174   0.389581   0.079959   0.314487
   10  C  4  Y    0.308942  -0.376088   0.148082   0.059009   0.031202
   11  C  4  Z   -0.069330   0.055560   0.283133   0.198787  -0.422092
   12  C  4  S    0.093925  -0.316557  -0.222849  -0.180980   0.305872
   13  C  4  X    0.050611  -0.152437  -0.554044  -0.090814  -0.323624
   14  C  4  Y   -0.445033   0.467366  -0.231592  -0.125685  -0.121787
   15  C  4  Z    0.179809   0.013180  -0.404913  -0.286208   0.586894
   16  H  5  S    0.293514   0.239714   0.132162  -0.038221  -0.024866
   17  H  5  S   -0.087979  -0.178200  -0.004777   0.059846   0.002381
   18  C  6  S    0.003081  -0.003074   0.003362  -0.008752  -0.002056
   19  C  6  S   -0.036378  -0.055057   0.042908   0.045187   0.010089
   20  C  6  X    0.011855   0.105556  -0.480578  -0.150325   0.149846
   21  C  6  Y    0.313836   0.396301   0.078425   0.040592   0.004055
   22  C  6  Z   -0.060575  -0.009595   0.129795   0.158870   0.500115
   23  C  6  S    0.095201   0.316432  -0.223234  -0.181614  -0.306352
   24  C  6  X   -0.040150  -0.063900   0.687784   0.200858  -0.116543
   25  C  6  Y   -0.453126  -0.484351  -0.131789  -0.101660   0.088568
   26  C  6  Z    0.163287  -0.052072  -0.186928  -0.236620  -0.660325
   27  H  7  S   -0.054696   0.119177  -0.396702  -0.043604   0.117020
   28  H  7  S    0.046782   0.064749   0.127430   0.014224  -0.055988
   29  C  8  S   -0.000022   0.000010  -0.012709   0.028006   0.000293
   30  C  8  S    0.069912  -0.000123  -0.002989  -0.101897  -0.001136
   31  C  8  X    0.017398  -0.024079  -0.022575   0.051709  -0.559641
   32  C  8  Y    0.003931  -0.001581   0.013351  -0.327112  -0.040149
   33  C  8  Z   -0.102051  -0.003759   0.125094  -0.151942  -0.099135
   34  C  8  S   -0.606846   0.000921   0.256017   0.376640   0.005278
   35  C  8  X   -0.011358  -0.393521  -0.035849  -0.061573   0.706658
   36  C  8  Y    0.294560  -0.031789   0.316697   0.349309   0.049817
   37  C  8  Z   -0.074156  -0.069134   0.061806   0.198709   0.126479
   38  H  9  S   -0.302959  -0.000359   0.135524  -0.455137   0.000439
   39  H  9  S    0.023030   0.000136   0.052650  -0.072805   0.000163
   40  H 10  S   -0.055605  -0.120478  -0.396396  -0.043957  -0.117364
   41  H 10  S    0.046848  -0.065277   0.127021   0.013808   0.055979
   42  C 11  S    0.003749  -0.000015   0.000289  -0.014715  -0.000212
   43  C 11  S   -0.092330  -0.000029  -0.035696   0.045630   0.000918
   44  C 11  X    0.099120  -0.546805   0.007446   0.044566   0.094089
   45  C 11  Y   -0.502401  -0.042866  -0.235920   0.605872   0.009194
   46  C 11  Z   -0.343574  -0.095111   0.065872  -0.530983   0.016989
   47  C 11  S    0.346424  -0.000342   0.161251   0.230246  -0.003520
   48  C 11  X   -0.149142   0.873040   0.014321  -0.078494  -0.197519
   49  C 11  Y    0.742335   0.068446   0.299098  -0.801356  -0.019624
   50  C 11  Z    0.521379   0.151911  -0.223324   0.811452  -0.036436
   51  H 12  S    0.294538  -0.000703  -0.260099   0.074569   0.001568
   52  H 12  S   -0.159028   0.000372   0.085354   0.051185   0.000382
   53  H 13  S    0.213000   0.382178  -0.053740   0.037799   0.109568
   54  H 13  S   -0.044301  -0.041408  -0.035966  -0.077364  -0.101957
   55  H 14  S    0.212935  -0.382365  -0.052994   0.038269  -0.111089
   56  H 14  S   -0.043689   0.041646  -0.035633  -0.076588   0.100769

                     36         37         38         39         40
                    0.7731     0.8364     0.8629     0.9387     0.9870
                     A          A          A          A          A   
    1  H  1  S   -0.204955  -0.141704   0.202449   0.048296  -0.070221
    2  H  1  S    0.004323  -0.078761   0.140132   0.453137  -0.224678
    3  H  2  S    0.159946  -0.236157   0.160369   0.195721   0.041005
    4  H  2  S   -0.055267  -0.040018   0.128698  -0.167401   0.581390
    5  H  3  S   -0.209261  -0.142745  -0.202057   0.047414  -0.070309
    6  H  3  S    0.004168  -0.079013  -0.140438   0.451866  -0.214445
    7  C  4  S   -0.015030  -0.031702   0.041953   0.017198   0.003389
    8  C  4  S    0.087832   0.088493  -0.074676   0.064144   0.042689
    9  C  4  X    0.425681   0.373256  -0.409497  -0.025920   0.035295
   10  C  4  Y   -0.079316  -0.179804   0.119825  -0.054467   0.499049
   11  C  4  Z   -0.250618  -0.144560   0.151407   0.394000  -0.145690
   12  C  4  S   -0.046235  -0.228993   0.285601  -0.553612  -0.463035
   13  C  4  X   -0.419734  -0.715293   0.920796  -0.121102  -0.340786
   14  C  4  Y    0.075989   0.262410  -0.337425   0.196351  -1.118435
   15  C  4  Z    0.319577   0.233885  -0.373606  -0.911562   0.415266
   16  H  5  S    0.160456  -0.235903  -0.160284   0.196981   0.027308
   17  H  5  S   -0.055377  -0.040546  -0.128372  -0.167220   0.584332
   18  C  6  S   -0.015013  -0.031833  -0.041850   0.017150   0.002428
   19  C  6  S    0.087611   0.088810   0.074019   0.064362   0.039560
   20  C  6  X   -0.300840  -0.270887  -0.309059  -0.102675  -0.072676
   21  C  6  Y   -0.137254  -0.230959  -0.176593  -0.057559   0.489961
   22  C  6  Z   -0.383828  -0.258198  -0.277259   0.379456  -0.151360
   23  C  6  S   -0.041850  -0.231362  -0.282611  -0.554539  -0.433666
   24  C  6  X    0.271755   0.546685   0.672928   0.394180   0.370698
   25  C  6  Y    0.129904   0.363502   0.463775   0.232372  -1.062696
   26  C  6  Z    0.449112   0.457274   0.652964  -0.818309   0.505408
   27  H  7  S   -0.057705   0.000565   0.261231   0.183636   0.139111
   28  H  7  S    0.030918  -0.118711   0.092098  -0.235617  -0.291866
   29  C  8  S    0.056761   0.025415  -0.000076  -0.019549   0.004460
   30  C  8  S   -0.236888  -0.089366   0.000208   0.097906  -0.041167
   31  C  8  X   -0.008194   0.099596  -0.767018   0.123352   0.058516
   32  C  8  Y    0.523941  -0.685014  -0.059322   0.123183  -0.469648
   33  C  8  Z   -0.169771  -0.269832  -0.133142  -0.764460  -0.082671
   34  C  8  S    0.857026   0.346457  -0.001125  -0.125709  -0.028932
   35  C  8  X   -0.002862  -0.188736   1.424542  -0.329443  -0.189934
   36  C  8  Y   -0.826116   1.236807   0.109934  -0.302799   1.696993
   37  C  8  Z    0.363215   0.537305   0.246211   2.027969   0.169879
   38  H  9  S   -0.067586   0.165598  -0.000615  -0.061831  -0.180627
   39  H  9  S   -0.070629   0.145400  -0.000361   0.639170   0.426812
   40  H 10  S   -0.056751  -0.000416  -0.261540   0.182745   0.129056
   41  H 10  S    0.030655  -0.118578  -0.091002  -0.235960  -0.305216
   42  C 11  S   -0.034679   0.035543  -0.000072   0.011876  -0.043348
   43  C 11  S    0.130073  -0.026297   0.000004   0.047510  -0.113254
   44  C 11  X   -0.037149   0.010748  -0.032391  -0.084588  -0.099512
   45  C 11  Y    0.385923  -0.237734  -0.002630   0.027831   0.131553
   46  C 11  Z    0.034021   0.048057  -0.006170   0.482287   0.447830
   47  C 11  S   -0.405329   0.219360  -0.000780  -0.367007   1.183231
   48  C 11  X    0.071293  -0.035278  -0.032941   0.211613   0.212576
   49  C 11  Y   -0.754360   0.825821  -0.003773  -0.169528   0.010819
   50  C 11  Z   -0.057505  -0.177353  -0.004364  -1.152576  -1.085253
   51  H 12  S    0.253972   0.104326  -0.000827   0.165500  -0.078544
   52  H 12  S    0.132853   0.084966  -0.000743   0.774990  -0.026276
   53  H 13  S   -0.103693   0.247051   0.145018   0.177858  -0.419612
   54  H 13  S   -0.084852   0.088313  -0.073251  -0.336208  -0.149928
   55  H 14  S   -0.102108   0.246598  -0.145897   0.178067  -0.414359
   56  H 14  S   -0.086519   0.088590   0.073323  -0.335349  -0.175204

                     41         42         43         44         45
                    0.9908     1.0167     1.1099     1.1192     1.1237
                     A          A          A          A          A   
    1  H  1  S   -0.018440  -0.345249  -0.091498   0.074319   0.015479
    2  H  1  S    0.285912   0.121559   0.083555  -0.194825   0.022829
    3  H  2  S   -0.367330  -0.369973   0.546988  -0.339990   0.028430
    4  H  2  S    0.086050  -0.020856  -0.410720   0.282660   0.579425
    5  H  3  S    0.017973  -0.344363   0.093236   0.071783  -0.015537
    6  H  3  S   -0.296096   0.119804  -0.087852  -0.192105  -0.019601
    7  C  4  S   -0.024784  -0.045110   0.009923  -0.020318  -0.012479
    8  C  4  S   -0.085825  -0.040034  -0.010339   0.029493   0.003071
    9  C  4  X    0.247789  -0.131734  -0.008642   0.042233   0.260891
   10  C  4  Y   -0.002576  -0.053352   0.007015   0.099046   0.522037
   11  C  4  Z    0.425403   0.069145   0.039988  -0.022762   0.183577
   12  C  4  S    0.841628   0.229491  -0.249142   0.306032   0.269139
   13  C  4  X   -0.315592  -0.058695  -0.188419   0.181078  -0.529605
   14  C  4  Y   -0.071310   0.306241  -0.198190  -0.021530  -1.293334
   15  C  4  Z   -1.045100  -0.081936   0.019466   0.105570  -0.564026
   16  H  5  S    0.370429  -0.367699  -0.552255  -0.329748  -0.023422
   17  H  5  S   -0.063963  -0.021073   0.415451   0.264980  -0.583749
   18  C  6  S    0.025151  -0.044974  -0.010146  -0.019948   0.012919
   19  C  6  S    0.087426  -0.039554   0.010977   0.029164  -0.003376
   20  C  6  X    0.370365   0.109019   0.005270  -0.040380   0.384055
   21  C  6  Y    0.069973  -0.034089  -0.005634   0.083730  -0.472039
   22  C  6  Z   -0.323116   0.109680  -0.042092  -0.037855  -0.069219
   23  C  6  S   -0.857296   0.226301   0.252862   0.297573  -0.276691
   24  C  6  X   -0.646180   0.031969  -0.200687  -0.211014  -0.873267
   25  C  6  Y   -0.045846   0.312436   0.166998  -0.035514   1.184777
   26  C  6  Z    0.895011  -0.062632  -0.085328   0.043274   0.312640
   27  H  7  S   -0.229695  -0.331328  -0.313072  -0.047939  -0.263140
   28  H  7  S   -0.393622   0.117149   0.248305   0.080285  -0.518116
   29  C  8  S    0.000120  -0.009153   0.000069   0.015935  -0.000217
   30  C  8  S   -0.000597  -0.122687  -0.000627  -0.116771   0.001530
   31  C  8  X   -0.392775   0.065776   0.199458  -0.083992  -0.173491
   32  C  8  Y   -0.039709   0.195975   0.017403   0.168649  -0.014531
   33  C  8  Z   -0.068283  -0.465840   0.037428   0.385417  -0.036253
   34  C  8  S   -0.000212   0.008769   0.001309   0.122970  -0.001065
   35  C  8  X    1.445325  -0.049742  -0.560001   0.201949   0.559266
   36  C  8  Y    0.145659  -0.430830  -0.048788  -0.554136   0.047723
   37  C  8  Z    0.252728   0.490492  -0.103286  -0.846773   0.113333
   38  H  9  S   -0.002384  -0.398349  -0.008568  -0.840283   0.005758
   39  H  9  S    0.006808   0.073775   0.011937   1.141288  -0.006183
   40  H 10  S    0.236067  -0.331072   0.314066  -0.049735   0.265541
   41  H 10  S    0.382894   0.119760  -0.248185   0.092945   0.514127
   42  C 11  S   -0.000762  -0.040239   0.000041   0.004556  -0.000042
   43  C 11  S   -0.001969   0.015812  -0.000024   0.009494   0.000168
   44  C 11  X    0.589649   0.034354   0.215423  -0.105504  -0.692385
   45  C 11  Y    0.049645  -0.235052   0.016943   0.008615  -0.055633
   46  C 11  Z    0.110329  -0.077000   0.042875   0.562544  -0.124220
   47  C 11  S    0.021546  -0.177160  -0.002514  -0.293182   0.000433
   48  C 11  X   -1.332858  -0.044261   0.199250   0.089939   1.324974
   49  C 11  Y   -0.106148   0.001232   0.015294  -0.120194   0.105931
   50  C 11  Z   -0.251103   0.228063   0.030066  -0.420245   0.230555
   51  H 12  S   -0.000167  -0.550128   0.000572   0.135444  -0.001277
   52  H 12  S   -0.003448   0.673268  -0.003201  -0.583363   0.009281
   53  H 13  S    0.139168  -0.277490   0.712869   0.432164  -0.095552
   54  H 13  S   -0.705328   0.192985  -0.645707  -0.542193   0.744406
   55  H 14  S   -0.154187  -0.278601  -0.704013   0.446602   0.088948
   56  H 14  S    0.699390   0.197979   0.634732  -0.563834  -0.737127

                     46         47         48         49         50
                    1.1483     1.1558     1.1800     1.1866     1.2185
                     A          A          A          A          A   
    1  H  1  S    0.494464   0.464336  -0.420489   0.258663  -0.469400
    2  H  1  S   -0.665449  -0.628576   0.799344  -0.518585   0.293305
    3  H  2  S   -0.294538   0.005492   0.455332   0.481417   0.085565
    4  H  2  S    0.460561  -0.150364  -0.887274  -0.504263   0.196613
    5  H  3  S    0.490972  -0.467397   0.417765   0.262876  -0.470114
    6  H  3  S   -0.661670   0.632818  -0.793356  -0.526935   0.293172
    7  C  4  S    0.015488  -0.016654  -0.009793   0.019676  -0.028214
    8  C  4  S   -0.053181   0.011812  -0.005161  -0.079539   0.077614
    9  C  4  X    0.051893  -0.107026   0.020086  -0.188959  -0.146428
   10  C  4  Y    0.298894  -0.208906  -0.457397  -0.316785   0.152134
   11  C  4  Z   -0.360521  -0.371845   0.323959  -0.365033   0.062634
   12  C  4  S    0.040367   0.455347   0.397816  -0.118707  -0.084224
   13  C  4  X   -0.038292   0.259482   0.057984   0.022350   0.221079
   14  C  4  Y   -0.205085   0.153547   0.503237   0.170172  -0.543386
   15  C  4  Z    0.318516   0.212827  -0.643561   0.561594   0.164460
   16  H  5  S   -0.294701  -0.005177  -0.462063   0.476380   0.083759
   17  H  5  S    0.463900   0.149266   0.892624  -0.494217   0.198457
   18  C  6  S    0.015541   0.016397   0.009461   0.019800  -0.028250
   19  C  6  S   -0.053130  -0.010872   0.006592  -0.079385   0.078350
   20  C  6  X    0.026162  -0.256978   0.055508   0.348639   0.093380
   21  C  6  Y    0.299663   0.179926   0.465407  -0.269403   0.171652
   22  C  6  Z   -0.362913   0.310299  -0.307796  -0.273315   0.104220
   23  C  6  S    0.037402  -0.456593  -0.395750  -0.125291  -0.089138
   24  C  6  X   -0.037313   0.336943  -0.086887  -0.238572  -0.182024
   25  C  6  Y   -0.209655  -0.106499  -0.503792   0.145377  -0.573392
   26  C  6  Z    0.317835  -0.111252   0.632735   0.523080   0.097586
   27  H  7  S    0.057122  -0.689747  -0.151290  -0.450478  -0.257950
   28  H  7  S    0.015833   0.820065   0.026833   0.735016   0.227623
   29  C  8  S   -0.032355   0.000174   0.000129  -0.011750  -0.010641
   30  C  8  S    0.228689  -0.001305  -0.000996   0.087356   0.043304
   31  C  8  X    0.056671  -0.321761  -0.252626   0.046631  -0.008925
   32  C  8  Y    0.297139  -0.026388  -0.018033  -0.276207  -0.049927
   33  C  8  Z   -0.463583  -0.055008  -0.042728  -0.152320   0.067342
   34  C  8  S   -0.220293   0.001139   0.001105  -0.093210  -0.077437
   35  C  8  X   -0.078923   0.920545   0.741202  -0.100000   0.086109
   36  C  8  Y   -0.724989   0.075101   0.051930   0.873915   0.076648
   37  C  8  Z    0.794949   0.159595   0.127571   0.209873  -0.505167
   38  H  9  S    0.235463  -0.000733   0.001111  -0.341350   0.437060
   39  H  9  S   -0.283764   0.001147  -0.002232   0.586124  -0.549856
   40  H 10  S    0.060611   0.687559   0.155573  -0.448441  -0.256590
   41  H 10  S    0.009614  -0.819062  -0.033684   0.734973   0.229511
   42  C 11  S    0.042295  -0.000246   0.000029  -0.017161   0.062152
   43  C 11  S   -0.156864   0.001236   0.000500   0.025185  -0.452705
   44  C 11  X    0.021513  -0.039872  -0.254501  -0.049043  -0.060776
   45  C 11  Y    0.068642  -0.003756  -0.021267   0.076172   0.529095
   46  C 11  Z   -0.151370  -0.006618  -0.045255   0.240968   0.105944
   47  C 11  S   -0.203034  -0.000649  -0.004791   0.459118   1.033684
   48  C 11  X   -0.001423  -0.316591  -0.011780   0.067956   0.088399
   49  C 11  Y   -0.359314  -0.023972  -0.001366   0.149154  -0.822810
   50  C 11  Z    0.154504  -0.056194   0.000294  -0.468317  -0.135980
   51  H 12  S   -0.396062   0.002737   0.002499  -0.235445  -0.375057
   52  H 12  S    1.023184  -0.004628  -0.003391   0.291344   0.087692
   53  H 13  S    0.228477  -0.146981  -0.391463   0.046334   0.447364
   54  H 13  S   -0.186556  -0.015902   0.412158  -0.227237  -0.766247
   55  H 14  S    0.231103   0.143433   0.390317   0.051452   0.447778
   56  H 14  S   -0.186381   0.018715  -0.408428  -0.231360  -0.766379

                     51         52         53         54         55
                    1.2431     1.2463     1.6075     1.9853     2.0188
                     A          A          A          A          A   
    1  H  1  S    0.167683  -0.555161   0.042534   0.134459  -0.236056
    2  H  1  S    0.103600   0.521691  -0.286756   0.319922  -0.528018
    3  H  2  S   -0.261645  -0.407571  -0.040069   0.094502  -0.201524
    4  H  2  S    0.331817   0.530146  -0.457949   0.036934  -0.477217
    5  H  3  S    0.158512   0.558083   0.042715   0.134145   0.236030
    6  H  3  S    0.111733  -0.520737  -0.286751   0.322165   0.526511
    7  C  4  S   -0.031108  -0.061372   0.009090   0.023150  -0.042849
    8  C  4  S    0.249988   0.327673  -0.935986   0.901893  -1.483802
    9  C  4  X   -0.267917  -0.487543   0.023071   0.021874  -0.158495
   10  C  4  Y    0.116941   0.081466  -0.041406  -0.164868  -0.005756
   11  C  4  Z   -0.041452  -0.021157   0.046803  -0.020921  -0.052517
   12  C  4  S   -0.660446  -0.597746   1.459336  -1.783643   3.014603
   13  C  4  X    0.193513   0.862520  -0.260442  -0.091134   0.484967
   14  C  4  Y   -0.072583  -0.110458   0.200378   0.385244  -0.048393
   15  C  4  Z   -0.395580   0.196946  -0.166915   0.037857   0.125543
   16  H  5  S   -0.269548   0.402626  -0.040415   0.094992   0.201263
   17  H  5  S    0.339501  -0.522308  -0.457686   0.037488   0.477922
   18  C  6  S   -0.032358   0.060767   0.009099   0.023206   0.042807
   19  C  6  S    0.255977  -0.322753  -0.936003   0.904049   1.482342
   20  C  6  X    0.254043  -0.442286  -0.030816   0.011494  -0.165920
   21  C  6  Y    0.158445  -0.151945  -0.045688  -0.165620  -0.019580
   22  C  6  Z    0.050036  -0.142406   0.037457  -0.022323  -0.004642
   23  C  6  S   -0.667919   0.584442   1.459132  -1.788045  -3.011732
   24  C  6  X   -0.052381   0.849799   0.267409   0.014576   0.486124
   25  C  6  Y   -0.092892   0.242031   0.242439   0.393477   0.123872
   26  C  6  Z   -0.437652   0.097244  -0.074748   0.055159   0.045792
   27  H  7  S   -0.505881  -0.318661  -0.036990   0.127124  -0.182857
   28  H  7  S    0.494526   0.704994  -0.423356   0.424755  -0.253846
   29  C  8  S    0.031352   0.000240   0.028100   0.002509  -0.000009
   30  C  8  S   -0.205492  -0.001672  -0.789676   0.087782   0.000252
   31  C  8  X    0.022587  -0.014102   0.010839  -0.013288   0.108484
   32  C  8  Y   -0.007452  -0.001553   0.017452   0.108282   0.008425
   33  C  8  Z   -0.120530  -0.003763  -0.070811   0.027486   0.018991
   34  C  8  S    0.178654   0.001353   0.555223  -0.152385  -0.000477
   35  C  8  X   -0.162052   0.210596  -0.030972  -0.097228   0.863307
   36  C  8  Y   -0.203718   0.016612   0.038415   0.865502   0.069159
   37  C  8  Z    0.988293   0.046319   0.161341   0.164620   0.151430
   38  H  9  S    0.376471   0.003676  -0.001890  -0.278780   0.000040
   39  H  9  S    0.013282   0.000433  -0.330533  -0.591758   0.001344
   40  H 10  S   -0.513639   0.308779  -0.036567   0.127563   0.182518
   41  H 10  S    0.510474  -0.695328  -0.423717   0.424199   0.252996
   42  C 11  S    0.004503   0.000115   0.000225  -0.053871   0.000030
   43  C 11  S    0.062603  -0.000159  -1.075837  -1.654692   0.001036
   44  C 11  X   -0.011797  -0.135603  -0.007946   0.022390  -0.151399
   45  C 11  Y    0.033422  -0.009818   0.001482  -0.143272  -0.011805
   46  C 11  Z    0.061297  -0.022631   0.044811  -0.063089  -0.026112
   47  C 11  S   -0.231402   0.000010   1.776048   3.438219  -0.001562
   48  C 11  X    0.131635   0.375669   0.049925  -0.074471   0.339680
   49  C 11  Y   -0.218268   0.027095  -0.199865   0.542048   0.026684
   50  C 11  Z   -0.665415   0.057845  -0.195786   0.177585   0.057849
   51  H 12  S    0.902582   0.007552   0.234540   0.005852  -0.000058
   52  H 12  S   -0.390703  -0.002920  -0.410916   0.027397   0.000123
   53  H 13  S   -0.103972   0.137020  -0.071718  -0.224920   0.019394
   54  H 13  S   -0.078360   0.031014  -0.458188  -0.398871   0.214694
   55  H 14  S   -0.104643  -0.137647  -0.071885  -0.224193  -0.018934
   56  H 14  S   -0.076653  -0.035147  -0.458093  -0.399458  -0.215257

                     56
                    2.3278
                     A   
    1  H  1  S    0.177443
    2  H  1  S    0.086550
    3  H  2  S    0.183879
    4  H  2  S    0.221574
    5  H  3  S    0.177541
    6  H  3  S    0.086989
    7  C  4  S    0.062790
    8  C  4  S    0.602097
    9  C  4  X   -0.161667
   10  C  4  Y    0.073668
   11  C  4  Z   -0.011449
   12  C  4  S   -2.408663
   13  C  4  X   -0.644967
   14  C  4  Y    0.203632
   15  C  4  Z    0.285256
   16  H  5  S    0.184045
   17  H  5  S    0.220761
   18  C  6  S    0.062846
   19  C  6  S    0.602746
   20  C  6  X    0.142752
   21  C  6  Y    0.097653
   22  C  6  Z    0.042033
   23  C  6  S   -2.410390
   24  C  6  X    0.470961
   25  C  6  Y    0.294055
   26  C  6  Z    0.481137
   27  H  7  S    0.183968
   28  H  7  S    0.225722
   29  C  8  S   -0.127597
   30  C  8  S   -2.161384
   31  C  8  X    0.008503
   32  C  8  Y    0.007912
   33  C  8  Z   -0.052690
   34  C  8  S    5.841668
   35  C  8  X   -0.079832
   36  C  8  Y   -0.079974
   37  C  8  Z    0.496998
   38  H  9  S    0.170182
   39  H  9  S    0.071966
   40  H 10  S    0.184049
   41  H 10  S    0.226641
   42  C 11  S    0.061875
   43  C 11  S    0.548756
   44  C 11  X    0.020144
   45  C 11  Y   -0.174231
   46  C 11  Z   -0.037265
   47  C 11  S   -2.294912
   48  C 11  X    0.024664
   49  C 11  Y   -0.696201
   50  C 11  Z    0.180312
   51  H 12  S   -0.493443
   52  H 12  S   -0.439681
   53  H 13  S    0.176005
   54  H 13  S    0.209540
   55  H 14  S    0.176074
   56  H 14  S    0.208476

  ----- BETA SET ----- 

          ------------
          EIGENVECTORS
          ------------

                      1          2          3          4          5
                  -11.4612   -11.4480   -11.3813   -11.3809    -1.3128
                     A          A          A          A          A   
    1  H  1  S   -0.001530  -0.000543  -0.000590  -0.000072   0.042875
    2  H  1  S    0.000127  -0.001460  -0.010763   0.009549  -0.001420
    3  H  2  S   -0.001149  -0.000111  -0.000349  -0.000124   0.040421
    4  H  2  S   -0.000042   0.002225  -0.010218   0.009206  -0.004979
    5  H  3  S   -0.001531  -0.000541   0.000584  -0.000121   0.042888
    6  H  3  S    0.000125  -0.001472   0.011455   0.008703  -0.001408
    7  C  4  S   -0.001241  -0.003102  -0.671050   0.724488  -0.091457
    8  C  4  S   -0.002591  -0.002113  -0.070231   0.073311   0.094351
    9  C  4  X    0.000935  -0.000349  -0.001212  -0.000172   0.046945
   10  C  4  Y   -0.000360   0.001029  -0.000022  -0.000382  -0.015306
   11  C  4  Z   -0.000143  -0.000053  -0.000316  -0.000313  -0.008619
   12  C  4  S    0.023892   0.004633   0.056144  -0.055318   0.203582
   13  C  4  X    0.011818   0.001420   0.004921  -0.001049  -0.003616
   14  C  4  Y   -0.004646  -0.003564  -0.000559   0.001763   0.001126
   15  C  4  Z   -0.002438   0.000571   0.000983   0.001675  -0.004648
   16  H  5  S   -0.001148  -0.000111   0.000338  -0.000148   0.040411
   17  H  5  S   -0.000033   0.002225   0.010904   0.008387  -0.004987
   18  C  6  S   -0.001241  -0.003103   0.724744   0.670774  -0.091453
   19  C  6  S   -0.002592  -0.002113   0.075658   0.067697   0.094347
   20  C  6  X   -0.000766   0.000185  -0.001208   0.000417  -0.038304
   21  C  6  Y   -0.000494   0.001072  -0.000197  -0.000329  -0.022088
   22  C  6  Z   -0.000443   0.000039  -0.000133  -0.000217  -0.023570
   23  C  6  S    0.023899   0.004636  -0.060235  -0.050840   0.203548
   24  C  6  X   -0.009431  -0.000974   0.004824  -0.000228   0.004752
   25  C  6  Y   -0.006351  -0.003754   0.001465   0.001755   0.001819
   26  C  6  Z   -0.006163   0.000162   0.000881   0.001822  -0.003202
   27  H  7  S   -0.001215  -0.000384  -0.000227   0.000126   0.038926
   28  H  7  S   -0.000071  -0.001327  -0.007654   0.011583  -0.007727
   29  C  8  S    0.988376   0.022329   0.000034   0.000902  -0.157732
   30  C  8  S    0.106650   0.001341  -0.000060  -0.001539   0.147544
   31  C  8  X   -0.000052  -0.000001   0.000437  -0.000055  -0.004094
   32  C  8  Y   -0.000711  -0.000053   0.000038   0.000083  -0.004700
   33  C  8  Z    0.000632   0.000034   0.000084   0.000182   0.025527
   34  C  8  S   -0.102861   0.010360   0.000745   0.019214   0.418122
   35  C  8  X    0.001122   0.000997   0.013076  -0.001757  -0.002898
   36  C  8  Y    0.001859  -0.010759   0.001321   0.006932  -0.013907
   37  C  8  Z   -0.007299  -0.000817   0.002457   0.003879   0.023192
   38  H  9  S   -0.001478   0.000386  -0.000028  -0.000692   0.053462
   39  H  9  S   -0.000089   0.014327  -0.000065  -0.001939   0.001125
   40  H 10  S   -0.001215  -0.000387   0.000236   0.000107   0.038955
   41  H 10  S   -0.000080  -0.001316   0.008521   0.010962  -0.007721
   42  C 11  S   -0.022806   0.987428   0.000147   0.003796  -0.099831
   43  C 11  S   -0.004762   0.100756  -0.000078  -0.002030   0.104372
   44  C 11  X   -0.000056  -0.000104  -0.001049   0.000211  -0.002096
   45  C 11  Y    0.000623   0.001129  -0.000122  -0.001002   0.026993
   46  C 11  Z    0.000045   0.000068  -0.000203  -0.000512  -0.000429
   47  C 11  S    0.024934  -0.077912   0.000191   0.004880   0.217812
   48  C 11  X   -0.000933   0.000367   0.003235  -0.000757   0.001713
   49  C 11  Y    0.012768  -0.004086   0.000372   0.002955  -0.014725
   50  C 11  Z   -0.000500  -0.000184   0.000645   0.002256  -0.003304
   51  H 12  S    0.001693  -0.001009  -0.000061  -0.001572   0.073214
   52  H 12  S    0.014048   0.001166   0.000044   0.001145  -0.006533
   53  H 13  S   -0.001145   0.000248   0.000178  -0.000317   0.050735
   54  H 13  S   -0.000266   0.013641   0.002509   0.000677  -0.003449
   55  H 14  S   -0.001145   0.000244  -0.000200  -0.000299   0.050725
   56  H 14  S   -0.000258   0.013639  -0.002460   0.000862  -0.003437

                      6          7          8          9         10
                   -1.1468    -1.1456    -0.9857    -0.8628    -0.8330
                     A          A          A          A          A   
    1  H  1  S   -0.048451   0.082305  -0.087083   0.023918   0.050159
    2  H  1  S   -0.004044   0.003005  -0.039817   0.020274   0.035608
    3  H  2  S   -0.057833   0.078960  -0.044688  -0.058693   0.065680
    4  H  2  S   -0.013173   0.002385  -0.009456  -0.032955   0.038690
    5  H  3  S   -0.048569  -0.082218  -0.087125   0.024298  -0.049991
    6  H  3  S   -0.004030  -0.003023  -0.039824   0.020476  -0.035444
    7  C  4  S    0.086411  -0.150320   0.067950   0.029793  -0.023942
    8  C  4  S   -0.080698   0.138418  -0.060321  -0.021961   0.016476
    9  C  4  X   -0.002956  -0.011933   0.083817   0.145053  -0.061138
   10  C  4  Y   -0.026280  -0.005607  -0.013140  -0.049539   0.090835
   11  C  4  Z   -0.004523  -0.008819  -0.068034   0.087505   0.064452
   12  C  4  S   -0.262814   0.469719  -0.281595  -0.164773   0.133950
   13  C  4  X   -0.007168   0.012069   0.019268   0.065359  -0.018395
   14  C  4  Y   -0.012194  -0.007750   0.004439  -0.023324   0.059163
   15  C  4  Z    0.000848  -0.000972  -0.032999   0.064445   0.033450
   16  H  5  S   -0.057881  -0.078918  -0.044682  -0.058618  -0.065901
   17  H  5  S   -0.013179  -0.002367  -0.009467  -0.032904  -0.038850
   18  C  6  S    0.086541   0.150225   0.068025   0.029687   0.024055
   19  C  6  S   -0.080812  -0.138325  -0.060387  -0.021903  -0.016552
   20  C  6  X    0.008287  -0.014938  -0.052764  -0.156541  -0.021735
   21  C  6  Y   -0.025372   0.003488  -0.024022  -0.073181  -0.097735
[...]
                                      ------------------
                       TOTAL ENERGY =    -156.0296375896

 ELECTRON-ELECTRON POTENTIAL ENERGY =     175.9984327889
  NUCLEUS-ELECTRON POTENTIAL ENERGY =    -621.6365604866
   NUCLEUS-NUCLEUS POTENTIAL ENERGY =     133.7871771975
                                      ------------------
             TOTAL POTENTIAL ENERGY =    -311.8509505002
               TOTAL KINETIC ENERGY =     155.8213129107
                 VIRIAL RATIO (V/T) =       2.0013369460

          ---------------------------------------
          MULLIKEN AND LOWDIN POPULATION ANALYSES
          ---------------------------------------

     ATOMIC MULLIKEN POPULATION IN EACH MOLECULAR ORBITAL
        ALPHA ORBITALS

                      1          2          3          4          5

                  1.000000   1.000000   1.000000   1.000000   1.000000

    1             0.000001  -0.000002   0.000709   0.000713   0.003284
    2            -0.000001  -0.000000   0.000672   0.000691   0.000812
    3             0.000001  -0.000002   0.000839   0.000583   0.003289
    4             0.002471   0.000061   0.451549   0.542420   0.083463
    5            -0.000001  -0.000000   0.000798   0.000565   0.000807
    6             0.002471   0.000061   0.542552   0.451416   0.083464
    7            -0.000000  -0.000002   0.000508   0.000855   0.001544
    8             0.991113   0.001844   0.001717   0.001924   0.524549
    9             0.000002   0.001422  -0.000000  -0.000006   0.004939
   10            -0.000000  -0.000002   0.000632   0.000730   0.001550
   11             0.002522   0.993897   0.000029   0.000088   0.279004
   12             0.001422   0.000010   0.000000   0.000019   0.006426
   13            -0.000001   0.001356  -0.000003   0.000001   0.003432
   14            -0.000001   0.001356  -0.000003   0.000001   0.003437

                      6          7          8          9         10

                  1.000000   1.000000   1.000000   1.000000   1.000000

    1             0.006451   0.020826   0.028111   0.011627   0.006516
    2             0.016028   0.026938   0.022047   0.027158   0.032545
    3             0.006471   0.020786   0.028130   0.011688   0.006413
    4             0.156056   0.375658   0.142645   0.081300   0.082958
    5             0.016041   0.026900   0.022055   0.027116   0.032785
    6             0.156404   0.375223   0.142799   0.081246   0.083078
    7             0.004080   0.031877   0.013242   0.007844   0.000642
    8             0.106588   0.081810   0.305490   0.310567   0.126556
    9             0.020388   0.000000   0.030375   0.019573   0.000000
   10             0.004098   0.031871   0.013260   0.007794   0.000688
   11             0.447509   0.005949   0.151825   0.259981   0.410277
   12             0.002079   0.000000   0.071566   0.067481   0.000000
   13             0.028894   0.001080   0.014249   0.043013   0.109122
   14             0.028914   0.001083   0.014206   0.043610   0.108421

                     11         12         13         14         15

                  1.000000   1.000000   1.000000   1.000000   1.000000

    1             0.006575   0.024287   0.097067   0.047230   0.007541
    2             0.007341  -0.000000   0.002235   0.120892   0.120475
    3             0.006512   0.024893   0.096703   0.047061   0.007421
    4             0.165058   0.123052   0.232506   0.260900   0.195807
    5             0.007132  -0.000000   0.002171   0.121177   0.120266
    6             0.164866   0.124461   0.230952   0.261290   0.195520
    7             0.067641   0.044117   0.032981   0.009379   0.014486
    8             0.252393   0.041262   0.089367   0.003250   0.115330
    9             0.060449   0.152235   0.000002   0.000000   0.000854
   10             0.067704   0.044406   0.032382   0.009552   0.014567
   11             0.192497   0.350180   0.109834   0.067429   0.167703
   12             0.000363   0.017280   0.000000   0.000000   0.005112
   13             0.000705   0.026598   0.037132   0.026002   0.017432
   14             0.000765   0.027230   0.036668   0.025838   0.017486

                     16         17

                  1.000000   1.000000

    1             0.095445   0.005631
    2             0.000380   0.000186
    3             0.100755   0.000444
    4             0.159167   0.246752
    5             0.000260   0.000313
    6             0.162104   0.243967
    7             0.005867   0.123881
    8             0.225564   0.215872
    9             0.033461   0.000617
   10             0.027595   0.102125
   11             0.036522   0.027011
   12             0.142416   0.002572
   13             0.002880   0.017673
   14             0.007583   0.012956

     ATOMIC MULLIKEN POPULATION IN EACH MOLECULAR ORBITAL
         BETA ORBITALS

                      1          2          3          4          5

                  1.000000   1.000000   1.000000   1.000000   1.000000

    1             0.000001  -0.000002   0.000720   0.000702   0.005694
    2            -0.000001   0.000000   0.000680   0.000677   0.004029
    3             0.000001  -0.000002   0.000829   0.000593   0.005701
    4             0.002475   0.000077   0.458866   0.535113   0.152914
    5            -0.000000   0.000000   0.000785   0.000572   0.004024
    6             0.002475   0.000077   0.535246   0.458732   0.152888
    7            -0.000001  -0.000002   0.000518   0.000845   0.002914
    8             0.990712   0.002194   0.001711   0.001917   0.461360
    9             0.000000   0.001425  -0.000000  -0.000006   0.009411
   10            -0.000001  -0.000002   0.000623   0.000740   0.002922
   11             0.002921   0.993511   0.000029   0.000092   0.169574
   12             0.001420   0.000015   0.000000   0.000019   0.014450
   13            -0.000002   0.001355  -0.000003   0.000001   0.007059
   14            -0.000002   0.001355  -0.000003   0.000001   0.007059

                      6          7          8          9         10

                  1.000000   1.000000   1.000000   1.000000   1.000000

    1             0.008463   0.023172   0.035091   0.002668   0.010850
    2             0.014865   0.021463   0.008146   0.016011   0.018549
    3             0.008496   0.023131   0.035120   0.002747   0.010772
    4             0.129117   0.376773   0.121583   0.131311   0.067713
    5             0.014888   0.021432   0.008146   0.015968   0.018685
    6             0.129501   0.376308   0.121711   0.131071   0.067890
    7             0.005339   0.034183   0.012449   0.046948   0.000402
    8             0.013769   0.081210   0.387579   0.265190   0.118495
    9             0.042283   0.000000   0.034597   0.044694   0.000001
   10             0.005364   0.034171   0.012475   0.046877   0.000370
   11             0.532785   0.006111   0.090494   0.201607   0.441756
   12            -0.000014   0.000000   0.121184   0.028659   0.000000
   13             0.047561   0.001019   0.005733   0.032748   0.122699
   14             0.047584   0.001026   0.005691   0.033503   0.121817

                     11         12         13         14         15

                  1.000000   1.000000   1.000000   1.000000   1.000000

    1             0.001720   0.041120   0.133661   0.005671   0.094389
    2             0.071686   0.020618   0.005873   0.112072   0.000059
    3             0.001576   0.041750   0.133135   0.005521   0.095714
    4             0.269862   0.118074   0.266269   0.274189   0.148788
    5             0.071498   0.020677   0.006006   0.111950   0.000152
    6             0.270095   0.119168   0.264815   0.274056   0.148244
    7             0.077915   0.008526   0.022097   0.055679   0.012230
    8             0.075166   0.051331   0.055508   0.004713   0.242159
    9             0.002293   0.176178   0.000001   0.000000   0.039651
   10             0.078376   0.008584   0.021522   0.055940   0.015060
   11             0.054349   0.339580   0.055908   0.055063   0.039638
   12             0.000904   0.010746   0.000000   0.000000   0.155224
   13             0.012182   0.021606   0.017747   0.022667   0.003789
   14             0.012377   0.022041   0.017458   0.022480   0.004903

                     16

                  1.000000

    1             0.002700
    2             0.007112
    3             0.001563
    4             0.221479
    5             0.007073
    6             0.222129
    7             0.079930
    8             0.268858
    9             0.000025
   10             0.076952
   11             0.053735
   12             0.000082
   13             0.029749
   14             0.028612

     ATOMIC SPIN POPULATION (ALPHA MINUS BETA)
       ATOM         MULL.POP.                    LOW.POP.
    1 H            -0.004607                    -0.002056
    2 H             0.076558                     0.064429
    3 H            -0.004663                    -0.002100
    4 C             0.027213                     0.048885
    5 H             0.076529                     0.064409
    6 C             0.027481                     0.049101
    7 H            -0.001030                     0.001082
    8 C             0.373316                     0.345308
    9 H            -0.026242                    -0.014358
   10 H            -0.001021                     0.001094
   11 C             0.465103                     0.428604
   12 H            -0.015939                    -0.004050
   13 H             0.003656                     0.009828
   14 H             0.003646                     0.009826


          ********* ALL ELECTRONS ********

               ----- POPULATIONS IN EACH AO -----
                             MULLIKEN      LOWDIN
              1  H  1  S      0.45726     0.45695
              2  H  1  S      0.27137     0.41341
              3  H  2  S      0.44128     0.43545
              4  H  2  S      0.23896     0.39053
              5  H  3  S      0.45730     0.45698
              6  H  3  S      0.27134     0.41340
              7  C  4  S      1.98842     1.97667
              8  C  4  S      0.35492     0.42283
              9  C  4  X      0.50496     0.48567
             10  C  4  Y      0.53298     0.50523
             11  C  4  Z      0.56921     0.53762
             12  C  4  S      1.15127     0.58969
             13  C  4  X      0.34267     0.51318
             14  C  4  Y      0.55179     0.58624
             15  C  4  Z      0.58019     0.61282
             16  H  5  S      0.44125     0.43542
             17  H  5  S      0.23899     0.39054
             18  C  6  S      1.98842     1.97667
             19  C  6  S      0.35493     0.42286
             20  C  6  X      0.53823     0.51522
             21  C  6  Y      0.51916     0.49292
             22  C  6  Z      0.54968     0.52031
             23  C  6  S      1.15137     0.58972
             24  C  6  X      0.45058     0.55547
             25  C  6  Y      0.51324     0.56990
             26  C  6  Z      0.51068     0.58674
             27  H  7  S      0.45699     0.45618
             28  H  7  S      0.26192     0.40929
             29  C  8  S      1.99126     1.97779
             30  C  8  S      0.35583     0.44270
             31  C  8  X      0.59677     0.58012
             32  C  8  Y      0.33188     0.31317
             33  C  8  Z      0.60995     0.58755
             34  C  8  S      1.23141     0.57364
             35  C  8  X      0.45361     0.54914
             36  C  8  Y      0.23499     0.38789
             37  C  8  Z      0.61136     0.58336
             38  H  9  S      0.45267     0.45007
             39  H  9  S      0.22220     0.38789
             40  H 10  S      0.45704     0.45621
             41  H 10  S      0.26188     0.40926
             42  C 11  S      1.98899     1.97748
             43  C 11  S      0.37390     0.44403
             44  C 11  X      0.61341     0.58070
             45  C 11  Y      0.34642     0.32848
             46  C 11  Z      0.61406     0.57972
             47  C 11  S      1.20152     0.59864
             48  C 11  X      0.61620     0.61021
             49  C 11  Y      0.17031     0.36082
             50  C 11  Z      0.61459     0.61564
             51  H 12  S      0.45221     0.46563
             52  H 12  S      0.19723     0.37574
             53  H 13  S      0.44747     0.44375
             54  H 13  S      0.20800     0.37937
             55  H 14  S      0.44751     0.44376
             56  H 14  S      0.20794     0.37935

          ----- MULLIKEN ATOMIC OVERLAP POPULATIONS -----
          (OFF-DIAGONAL ELEMENTS NEED TO BE MULTIPLIED BY 2)

             1           2           3           4           5

    1    0.4382144
    2   -0.0174833   0.3881940
    3    0.0019461  -0.0000115   0.4381670
    4    0.3687114   0.3524599  -0.0002400   5.4822033
    5   -0.0000097  -0.0003076  -0.0174908  -0.0010879   0.3882174
    6   -0.0002456  -0.0010907   0.3687334  -0.0804706   0.3524335
    7   -0.0187713  -0.0154672  -0.0000358   0.3700926   0.0000023
    8   -0.0477137  -0.0271173  -0.0477589   0.1780911  -0.0270977
    9    0.0019607   0.0000176   0.0019672  -0.0016715   0.0000182
   10   -0.0000360   0.0000027  -0.0187083   0.0026808  -0.0154758
   11   -0.0000462   0.0016042  -0.0000495  -0.0585831   0.0016034
   12    0.0022460  -0.0005952   0.0022516  -0.0351237  -0.0005972
   13   -0.0000990   0.0000531  -0.0000411  -0.0028563  -0.0000215
   14   -0.0000405  -0.0000215  -0.0000963   0.0022207   0.0000525

             6           7           8           9          10

    6    5.4822820
    7    0.0026777   0.4212447
    8    0.1779277  -0.0410074   6.0439172
    9   -0.0017003  -0.0001011  -0.0369019   0.3918529
   10    0.3701096  -0.0000401  -0.0410614  -0.0001019   0.4212352
   11   -0.0585306   0.0004685  -0.0230368   0.3525091   0.0004668
   12   -0.0352328  -0.0013592   0.3648298   0.0021543  -0.0013538
   13    0.0022234   0.0012540  -0.0280086  -0.0176066  -0.0000434
   14   -0.0028340  -0.0000438  -0.0279931  -0.0175296   0.0012487

            11          12          13          14

   11    5.6554116
   12   -0.0320672   0.3878036
   13    0.3498198  -0.0017576   0.3712700
   14    0.3498393  -0.0017606  -0.0187107   0.3711213

          TOTAL MULLIKEN AND LOWDIN ATOMIC POPULATIONS
       ATOM         MULL.POP.    CHARGE          LOW.POP.     CHARGE
    1 H             0.728633    0.271367         0.870359    0.129641
    2 H             0.680237    0.319763         0.825972    0.174028
    3 H             0.728633    0.271367         0.870373    0.129627
    4 C             6.576427   -0.576427         6.229952   -0.229952
    5 H             0.680239    0.319761         0.825966    0.174034
    6 C             6.576283   -0.576283         6.229803   -0.229803
    7 H             0.718914    0.281086         0.865472    0.134528
    8 C             6.417069   -0.417069         5.995354    0.004646
    9 H             0.674867    0.325133         0.837952    0.162048
   10 H             0.718923    0.281077         0.865476    0.134524
   11 C             6.539409   -0.539409         6.095722   -0.095722
   12 H             0.649438    0.350562         0.841372    0.158628
   13 H             0.655475    0.344525         0.823122    0.176878
   14 H             0.655453    0.344547         0.823104    0.176896

          -------------------------------
          BOND ORDER AND VALENCE ANALYSIS     BOND ORDER THRESHOLD=0.050
          -------------------------------

                   BOND                       BOND                       BOND
  ATOM PAIR DIST  ORDER      ATOM PAIR DIST  ORDER      ATOM PAIR DIST  ORDER
    1   4  1.098  0.895        2   4  1.097  0.833        3   6  1.098  0.895
    4   7  1.097  0.894        4   8  1.545  0.872        5   6  1.097  0.833
    6   8  1.545  0.872        6  10  1.097  0.894        8  11  1.545  0.471
    8  12  1.099  0.842        9  11  1.097  0.861       11  13  1.097  0.850
   11  14  1.096  0.850

                       TOTAL       BONDED        FREE
      ATOM            VALENCE     VALENCE     VALENCE
    1 H                 0.890       0.890       0.000
    2 H                 0.868       0.862       0.006
    3 H                 0.890       0.890       0.000
    4 C                 3.495       3.487       0.008
    5 H                 0.868       0.862       0.006
    6 C                 3.495       3.487       0.008
    7 H                 0.887       0.887       0.000
    8 C                 3.209       3.067       0.143
    9 H                 0.859       0.859       0.001
   10 H                 0.887       0.887       0.000
   11 C                 3.202       3.028       0.174
   12 H                 0.832       0.832       0.000
   13 H                 0.848       0.848       0.000
   14 H                 0.848       0.848       0.000

          -----------------------------------------
          ATOMIC SPIN DENSITY AT THE NUCLEUS (A.U.)
          -----------------------------------------
                            SPIN DENS    ALPHA DENS     BETA DENS
    1  H            1.0    -0.0008645       0.17816       0.17902
    2  H            1.0     0.0345584       0.18881       0.15425
    3  H            1.0    -0.0008862       0.17816       0.17905
    4  C            6.0    -0.0065449      47.00924      47.01579
    5  H            1.0     0.0345476       0.18879       0.15425
    6  C            6.0    -0.0064994      47.00937      47.01587
    7  H            1.0     0.0007286       0.17873       0.17801
    8  C            6.0    -0.0297657      47.16624      47.19600
    9  H            1.0    -0.0061873       0.17305       0.17924
   10  H            1.0     0.0007384       0.17876       0.17802
   11  C            6.0     0.0523783      47.09748      47.04510
   12  H            1.0    -0.0006328       0.17707       0.17770
   13  H            1.0     0.0068935       0.17730       0.17041
   14  H            1.0     0.0068969       0.17732       0.17042

          ---------------------
          ELECTROSTATIC MOMENTS
          ---------------------

 POINT   1           X           Y           Z (BOHR)    CHARGE
                -2.359608   -0.607940   -0.023788        1.00 (A.U.)
         DX          DY          DZ         /D/  (DEBYE)
     0.183061   -1.173560   -0.510442    1.292789
 ...... END OF PROPERTY EVALUATION ......
 CPU     0: STEP CPU TIME=     0.03 TOTAL CPU TIME=          0.7 (      0.0 MIN)
 TOTAL WALL CLOCK TIME=          0.7 SECONDS, CPU UTILIZATION IS    97.30%
               580000  WORDS OF DYNAMIC MEMORY USED
 EXECUTION OF GAMESS TERMINATED NORMALLY Sun May 17 17:53:52 2020
 DDI: 263640 bytes (0.3 MB / 0 MWords) used by master data server.
Note: The following floating-point exceptions are signalling: IEEE_DENORMALNote: The following floating-point exceptions are signalling: IEEE_DENORMALNote: The following floating-point exceptions are signalling: IEEE_DENORMALNote: The following floating-point exceptions are signalling: IEEE_DENORMAL
 ----------------------------------------
 CPU timing information for all processes
 ========================================
 0: 0.632 + 0.96 = 0.729
 1: 0.608 + 0.08 = 0.616
 2: 0.590 + 0.15 = 0.606
 3: 0.595 + 0.11 = 0.606
 4: 0.592 + 0.19 = 0.612
 5: 0.597 + 0.04 = 0.601
 ----------------------------------------




Note: The following floating-point exceptions are signalling:Note: The following floating-point exceptions are signalling: IEEE_DENORMAL
 IEEE_DENORMAL
 ddikick.x: exited gracefully.
unset echo
----- accounting info -----
Files used on the master node pietdev were:
-rwxr-xr-x 1 piet piet      940 mei 17 17:53 /home/piet/scr/valine_fukui_base.F05*
-rw-r--r-- 1 piet piet 68812800 mei 17 17:53 /home/piet/scr/valine_fukui_base.F10
ls: No match.
ls: No match.
ls: No match.
zo 17 mei 2020 17:53:55 CEST
0.103u 0.022s 0:03.88 3.0%	0+0k 0+8io 0pf+0w
