----- GAMESS execution script 'rungms' -----
This job is running on host pietdev
under operating system Linux at zo 17 mei 2020 17:53:36 CEST
Available scratch disk space (Kbyte units) at beginning of the job is
Filesystem     1K-blocks     Used Available Use% Mounted on
/dev/sda2      244568380 30400436 201674888  14% /
GAMESS temporary binary files will be written to /home/piet/scr
GAMESS supplementary output files will be written to /home/piet/gamess/scr
Copying input file valine_fukui_neu.inp to your run's scratch directory...
cp valine_fukui_neu.inp /home/piet/scr/valine_fukui_neu.F05
unset echo
 
Assuming a single but multicore node.
 
/home/piet/gamess/ddikick.x /home/piet/gamess/gamess.03.x valine_fukui_neu -ddi 1 6 pietdev:cpus=6 -scr /home/piet/scr

 Distributed Data Interface kickoff program.
 Initiating 6 compute processes on 1 nodes to run the following command:
 /home/piet/gamess/gamess.03.x valine_fukui_neu 

          ******************************************************
          *         GAMESS VERSION = 30 SEP 2019 (R2)          *
          *             FROM IOWA STATE UNIVERSITY             *
          * M.W.SCHMIDT, K.K.BALDRIDGE, J.A.BOATZ, S.T.ELBERT, *
          *   M.S.GORDON, J.H.JENSEN, S.KOSEKI, N.MATSUNAGA,   *
          *          K.A.NGUYEN, S.J.SU, T.L.WINDUS,           *
          *       TOGETHER WITH M.DUPUIS, J.A.MONTGOMERY       *
          *         J.COMPUT.CHEM.  14, 1347-1363(1993)        *
          **************** 64 BIT LINUX VERSION ****************

  SINCE 1993, STUDENTS AND POSTDOCS WORKING AT IOWA STATE UNIVERSITY
  AND ALSO IN THEIR VARIOUS JOBS AFTER LEAVING ISU HAVE MADE IMPORTANT
  CONTRIBUTIONS TO THE CODE:
     IVANA ADAMOVIC, CHRISTINE AIKENS, YURI ALEXEEV, POOJA ARORA,
     ANDREY ASADCHEV, ROB BELL, PRADIPTA BANDYOPADHYAY, JONATHAN BENTZ,
     COLLEEN BERTONI, BRETT BODE, KURT BRORSEN, CALEB CARLIN, GALINA CHABAN,
     WEI CHEN, CHEOL HO CHOI, PAUL DAY, ALBERT DEFUSCO, NUWAN DESILVA,
     TIM DUDLEY, DMITRI FEDOROV, ALEX FINDLATER, GRAHAM FLETCHER, 
     MARK FREITAG, KURT GLAESEMANN, EMILIE B GUIDEZ, ANASTASIA GUNINA, 
     DAN KEMP, SAROM SOK LEANG, GRANT MERRILL,
     NORIYUKI MINEZAWA, JONATHAN MULLIN,
     TAKESHI NAGATA, SEAN NEDD, HEATHER NETZLOFF, BOSILJKA NJEGIC, RYAN OLSON,
     MIKE PAK, BUU PHAM, DAVID POOLE,
     SPENCER PRUITT, LUKE ROSKOP, TOSAPORN SATTASATHUCHANA,
     JIM SHOEMAKER, LYUDMILA SLIPCHENKO,
     TONY SMITH, JIE SONG, TETSUYA TAKETSUGU, SIMON WEBB,
     JORGE LUIS GALVEZ VALLEJO, PENG XU, SOOHAENG YOO,
     FEDERICO ZAHARIEV

  ADDITIONAL CODE HAS BEEN PROVIDED BY COLLABORATORS IN OTHER GROUPS:
     IOWA STATE UNIVERSITY:
          JOE IVANIC, AARON WEST, LAIMUTIS BYTAUTAS, KLAUS RUEDENBERG
     UNIVERSITY OF TOKYO: KIMIHIKO HIRAO, TAKAHITO NAKAJIMA,
          TAKAO TSUNEDA, MUNEAKI KAMIYA, SUSUMU YANAGISAWA,
          KIYOSHI YAGI, MAHITO CHIBA, SEIKEN TOKURA, NAOAKI KAWAKAMI
     UNIVERSITY OF AARHUS: FRANK JENSEN
     UNIVERSITY OF IOWA: VISVALDAS KAIRYS, HUI LI
     NATIONAL INST. OF STANDARDS AND TECHNOLOGY: WALT STEVENS, DAVID GARMER
     UNIVERSITY OF PISA: BENEDETTA MENNUCCI, JACOPO TOMASI
     UNIVERSITY OF MEMPHIS: HENRY KURTZ, PRAKASHAN KORAMBATH
     UNIVERSITY OF ALBERTA: TOBY ZENG, MARIUSZ KLOBUKOWSKI
     UNIVERSITY OF NEW ENGLAND: MARK SPACKMAN
     MIE UNIVERSITY: HIROAKI UMEDA
     NAT. INST. OF ADVANCED INDUSTRIAL SCIENCE AND TECHNOLOGY: KAZUO KITAURA
     MICHIGAN STATE UNIVERSITY:
          KAROL KOWALSKI, MARTA WLOCH, JEFFREY GOUR, JESSE LUTZ,
          WEI LI, JUN SHEN, J. EMILIANO DEUSTUA, PIOTR PIECUCH
     UNIVERSITY OF MINNESOTA:
          ANDREW SAND, PRACHI SHARMA, YINAN SHU
     UNIVERSITY OF SILESIA: MONIKA MUSIAL, STANISLAW KUCHARSKI
     FACULTES UNIVERSITAIRES NOTRE-DAME DE LA PAIX:
          OLIVIER QUINET, BENOIT CHAMPAGNE
     UNIVERSITY OF CALIFORNIA - SANTA BARBARA: BERNARD KIRTMAN
     INSTITUTE FOR MOLECULAR SCIENCE:
          KAZUYA ISHIMURA, MICHIO KATOUDA, AND SHIGERU NAGASE
     UNIVERSITY OF NOTRE DAME: ANNA POMOGAEVA, DAN CHIPMAN
     KYUSHU UNIVERSITY:
          HARUYUKI NAKANO,
          FENG LONG GU, JACEK KORCHOWIEC, MARCIN MAKOWSKI, AND YURIKO AOKI,
          HIROTOSHI MORI AND EISAKU MIYOSHI
     PENNSYLVANIA STATE UNIVERSITY:
          TZVETELIN IORDANOV, CHET SWALINA, JONATHAN SKONE,
          SHARON HAMMES-SCHIFFER
     WASEDA UNIVERSITY:
          MASATO KOBAYASHI, TOMOKO AKAMA, TSUGUKI TOUMA,
          TAKESHI YOSHIKAWA, YASUHIRO IKABATA, JUNJI SEINO,
          YUYA NAKAJIMA, HIROMI NAKAI
     NANJING UNIVERSITY: SHUHUA LI
     UNIVERSITY OF NEBRASKA:
          PEIFENG SU, DEJUN SI, NANDUN THELLAMUREGE, YALI WANG, HUI LI
     UNIVERSITY OF ZURICH: ROBERTO PEVERATI, KIM BALDRIDGE
     N. COPERNICUS UNIVERSITY AND JACKSON STATE UNIVERSITY:
          MARIA BARYSZ
     UNIVERSITY OF COPENHAGEN: Jimmy Kromann, CASPER STEINMANN
     TOKYO INSTITUTE OF TECHNOLOGY: HIROYA NAKATA
     NAGOYA UNIVERSITY: YOSHIO NISHIMOTO, STEPHAN IRLE
     MOSCOW STATE UNIVERSITY: VLADIMIR MIRONOV
     A.N.NESMEYANOV INSTITUTE OF ORGANOELEMENT COMPOUNDS OF RUSSIAN ACADEMY OF SCIENCES:
          IGOR S. GERASIMOV
     JOHANNES KEPLER UNIVERSITY LINZ:
          CHRISTIAN FRIEDL


 PARALLEL VERSION RUNNING ON        6 PROCESSORS IN        1 NODES.

 EXECUTION OF GAMESS BEGUN Sun May 17 17:53:36 2020

            ECHO OF THE FIRST FEW INPUT CARDS -
 INPUT CARD> $BASIS GBASIS=N21 NGAUSS=3 $END                                                
 INPUT CARD> $CONTRL SCFTYP=RHF MAXIT=60 MULT=1 ICHARG=0 $END                               
 INPUT CARD> $SYSTEM MEMDDI=1000 MWORDS=30 $END                                             
 INPUT CARD> $SCF DIRSCF=.TRUE. $END                                                        
 INPUT CARD> $DATA                                                                          
 INPUT CARD>                                                                                
 INPUT CARD>C1                                                                              
 INPUT CARD>H 1.0000000 -2.7886199311 0.0390124814 1.0771501014                             
 INPUT CARD>H 1.0000000 -2.6705181812 1.3539159358 -0.1139253780                            
 INPUT CARD>H 1.0000000 -0.2445111684 0.2437676115 1.5236704926                             
 INPUT CARD>C 6.0000000 -2.5938947276 0.2684320041 0.0215550706                             
 INPUT CARD>H 1.0000000 -0.1498151129 1.5544695629 0.3257484526                             
 INPUT CARD>C 6.0000000 -0.1016528882 0.4669525950 0.4585244991                             
 INPUT CARD>H 1.0000000 -3.3725012147 -0.2114753602 -0.5834557566                           
 INPUT CARD>C 6.0000000 -1.1908954251 -0.2391148761 -0.3795998474                           
 INPUT CARD>H 1.0000000 -1.2619095470 -2.0365379430 0.8496103776                            
 INPUT CARD>H 1.0000000 0.8990643288 0.1268054168 0.1665596713                              
 INPUT CARD>C 6.0000000 -1.0998554613 -1.7716233694 -0.2029347830                           
 INPUT CARD>H 1.0000000 -1.0234396878 -0.0004529780 -1.4393864615                           
 INPUT CARD>H 1.0000000 -1.8601869319 -2.2808628085 -0.8071475201                           
 INPUT CARD>H 1.0000000 -0.1129540514 -2.1423982722 -0.5043389184                           
 INPUT CARD> $END                                                                           
   30000000 WORDS OF MEMORY AVAILABLE

     BASIS OPTIONS
     -------------
     GBASIS=N21          IGAUSS=       3      POLAR=NONE    
     NDFUNC=       0     NFFUNC=       0     DIFFSP=       F
     NPFUNC=       0      DIFFS=       F     BASNAM=        


     RUN TITLE
     ---------
                                                                                 

 THE POINT GROUP OF THE MOLECULE IS C1      
 THE ORDER OF THE PRINCIPAL AXIS IS     0

 ATOM      ATOMIC                      COORDINATES (BOHR)
           CHARGE         X                   Y                   Z
 H           1.0    -5.2697275537        0.0737228999        2.0355185393
 H           1.0    -5.0465476077        2.5585301291       -0.2152877475
 H           1.0    -0.4620591092        0.4606539904        2.8793197266
 C           6.0    -4.9017502762        0.5072629341        0.0407331771
 H           1.0    -0.2831095122        2.9375215301        0.6155753163
 C           6.0    -0.1920961046        0.8824124538        0.8664856620
 H           1.0    -6.3731031890       -0.3996304839       -1.1025715059
 C           6.0    -2.2504660335       -0.4518615954       -0.7173396966
 H           1.0    -2.3846632651       -3.8484986759        1.6055308100
 H           1.0     1.6989852268        0.2396274915        0.3147521394
 C           6.0    -2.0784254480       -3.3478827216       -0.3834911332
 H           1.0    -1.9340205749       -0.0008560043       -2.7200460027
 H           1.0    -3.5152435872       -4.3102057237       -1.5252876447
 H           1.0    -0.2134522063       -4.0485456910       -0.9530623607

          INTERNUCLEAR DISTANCES (ANGS.)
          ------------------------------

                1 H          2 H          3 H          4 C          5 H     

   1 H       0.0000000    1.7780832 *  2.5910991 *  1.0976484 *  3.1344067  
   2 H       1.7780832 *  0.0000000    3.1304408    1.0965863 *  2.5666084 *
   3 H       2.5910991 *  3.1304408    0.0000000    2.7886488 *  1.7781800 *
   4 C       1.0976484 *  1.0965863 *  2.7886488 *  0.0000000    2.7784800 *
   5 H       3.1344067    2.5666084 *  1.7781800 *  2.7784800 *  0.0000000  
   6 C       2.7902728 *  2.7773138 *  1.0976138 *  2.5380351 *  1.0966505 *
   7 H       1.7779970 *  1.7786762 *  3.7988879    1.0966208 *  3.7856201  
   8 C       2.1799539 *  2.1903455 *  2.1797377 *  1.5449712 *  2.1905044 *
   9 H       2.5866056 *  3.7957551    2.5863584 *  2.7879646 *  3.7955922  
  10 H       3.7994602    3.7850220    1.7785373 *  3.4988351    1.7786832 *
  11 C       2.7872827 *  3.4991285    2.7882935 *  2.5385773 *  3.4992823  
  12 H       3.0741462    2.5107827 *  3.0734476    2.1617073 *  2.5093237 *
  13 H       3.1295985    3.7879823    3.7969566    2.7792048 *  4.3495516  
  14 H       3.7972159    4.3494563    3.1343129    3.4991047    3.7890943  

                6 C          7 H          8 C          9 H         10 H     

   1 H       2.7902728 *  1.7779970 *  2.1799539 *  2.5866056 *  3.7994602  
   2 H       2.7773138 *  1.7786762 *  2.1903455 *  3.7957551    3.7850220  
   3 H       1.0976138 *  3.7988879    2.1797377 *  2.5863584 *  1.7785373 *
   4 C       2.5380351 *  1.0966208 *  1.5449712 *  2.7879646 *  3.4988351  
   5 H       1.0966505 *  3.7856201    2.1905044 *  3.7955922    1.7786832 *
   6 C       0.0000000    3.4992051    1.5451320 *  2.7868636 *  1.0965302 *
   7 H       3.4992051    0.0000000    2.1912839 *  3.1367386    4.3500838  
   8 C       1.5451320 *  2.1912839 *  0.0000000    2.1786993 *  2.1909175 *
   9 H       2.7868636 *  3.1367386    2.1786993 *  0.0000000    3.1331168  
  10 H       1.0965302 *  4.3500838    2.1909175 *  3.1331168    0.0000000  
  11 C       2.5387318 *  2.7827642 *  1.5453417 *  1.0974026 *  2.7814094 *
  12 H       2.1610703 *  2.5090313 *  1.0991581 *  3.0727864    2.5082423 *
  13 H       3.4992652    2.5728383 *  2.1907722 *  1.7783355 *  3.7892532  
  14 H       2.7813568 *  3.7893760    2.1908914 *  1.7788996 *  2.5736300 *

               11 C         12 H         13 H         14 H     

   1 H       2.7872827 *  3.0741462    3.1295985    3.7972159  
   2 H       3.4991285    2.5107827 *  3.7879823    4.3494563  
   3 H       2.7882935 *  3.0734476    3.7969566    3.1343129  
   4 C       2.5385773 *  2.1617073 *  2.7792048 *  3.4991047  
   5 H       3.4992823    2.5093237 *  4.3495516    3.7890943  
   6 C       2.5387318 *  2.1610703 *  3.4992652    2.7813568 *
   7 H       2.7827642 *  2.5090313 *  2.5728383 *  3.7893760  
   8 C       1.5453417 *  1.0991581 *  2.1907722 *  2.1908914 *
   9 H       1.0974026 *  3.0727864    1.7783355 *  1.7788996 *
  10 H       2.7814094 *  2.5082423 *  3.7892532    2.5736300 *
  11 C       0.0000000    2.1614108 *  1.0965864 *  1.0964912 *
  12 H       2.1614108 *  0.0000000    2.5100082 *  2.5082320 *
  13 H       1.0965864 *  2.5100082 *  0.0000000    1.7786760 *
  14 H       1.0964912 *  2.5082320 *  1.7786760 *  0.0000000  

  * ... LESS THAN  3.000


     ATOMIC BASIS SET
     ----------------
 THE CONTRACTED PRIMITIVE FUNCTIONS HAVE BEEN UNNORMALIZED
 THE CONTRACTED BASIS FUNCTIONS ARE NOW NORMALIZED TO UNITY

  SHELL TYPE  PRIMITIVE        EXPONENT          CONTRACTION COEFFICIENT(S)

 H         

      1   S       1             5.4471780    0.156284978695
      1   S       2             0.8245472    0.904690876670

      2   S       3             0.1831916    1.000000000000

 H         

      3   S       4             5.4471780    0.156284978695
      3   S       5             0.8245472    0.904690876670

      4   S       6             0.1831916    1.000000000000

 H         

      5   S       7             5.4471780    0.156284978695
      5   S       8             0.8245472    0.904690876670

      6   S       9             0.1831916    1.000000000000

 C         

      7   S      10           172.2560000    0.061766907377
      7   S      11            25.9109000    0.358794042852
      7   S      12             5.5333500    0.700713083689

      8   L      13             3.6649800   -0.395895162119    0.236459946619
      8   L      14             0.7705450    1.215834355681    0.860618805716

      9   L      15             0.1958570    1.000000000000    1.000000000000

 H         

     10   S      16             5.4471780    0.156284978695
     10   S      17             0.8245472    0.904690876670

     11   S      18             0.1831916    1.000000000000

 C         

     12   S      19           172.2560000    0.061766907377
     12   S      20            25.9109000    0.358794042852
     12   S      21             5.5333500    0.700713083689

     13   L      22             3.6649800   -0.395895162119    0.236459946619
     13   L      23             0.7705450    1.215834355681    0.860618805716

     14   L      24             0.1958570    1.000000000000    1.000000000000

 H         

     15   S      25             5.4471780    0.156284978695
     15   S      26             0.8245472    0.904690876670

     16   S      27             0.1831916    1.000000000000

 C         

     17   S      28           172.2560000    0.061766907377
     17   S      29            25.9109000    0.358794042852
     17   S      30             5.5333500    0.700713083689

     18   L      31             3.6649800   -0.395895162119    0.236459946619
     18   L      32             0.7705450    1.215834355681    0.860618805716

     19   L      33             0.1958570    1.000000000000    1.000000000000

 H         

     20   S      34             5.4471780    0.156284978695
     20   S      35             0.8245472    0.904690876670

     21   S      36             0.1831916    1.000000000000

 H         

     22   S      37             5.4471780    0.156284978695
     22   S      38             0.8245472    0.904690876670

     23   S      39             0.1831916    1.000000000000

 C         

     24   S      40           172.2560000    0.061766907377
     24   S      41            25.9109000    0.358794042852
     24   S      42             5.5333500    0.700713083689

     25   L      43             3.6649800   -0.395895162119    0.236459946619
     25   L      44             0.7705450    1.215834355681    0.860618805716

     26   L      45             0.1958570    1.000000000000    1.000000000000

 H         

     27   S      46             5.4471780    0.156284978695
     27   S      47             0.8245472    0.904690876670

     28   S      48             0.1831916    1.000000000000

 H         

     29   S      49             5.4471780    0.156284978695
     29   S      50             0.8245472    0.904690876670

     30   S      51             0.1831916    1.000000000000

 H         

     31   S      52             5.4471780    0.156284978695
     31   S      53             0.8245472    0.904690876670

     32   S      54             0.1831916    1.000000000000

 TOTAL NUMBER OF BASIS SET SHELLS             =   32
 NUMBER OF CARTESIAN GAUSSIAN BASIS FUNCTIONS =   56
 NUMBER OF ELECTRONS                          =   34
 CHARGE OF MOLECULE                           =    0
 SPIN MULTIPLICITY                            =    1
 NUMBER OF OCCUPIED ORBITALS (ALPHA)          =   17
 NUMBER OF OCCUPIED ORBITALS (BETA )          =   17
 TOTAL NUMBER OF ATOMS                        =   14
 THE NUCLEAR REPULSION ENERGY IS      133.7871771975

     $CONTRL OPTIONS
     ---------------
 SCFTYP=RHF          RUNTYP=ENERGY       EXETYP=RUN     
 MPLEVL=       0     CITYP =NONE         CCTYP =NONE         VBTYP =NONE    
 DFTTYP=NONE         TDDFT =NONE    
 MULT  =       1     ICHARG=       0     NZVAR =       0     COORD =UNIQUE  
 PP    =NONE         RELWFN=NONE         LOCAL =NONE         NUMGRD=       F
 ISPHER=      -1     NOSYM =       0     MAXIT =      60     UNITS =ANGS    
 PLTORB=       F     MOLPLT=       F     AIMPAC=       F     FRIEND=        
 NPRINT=       7     IREST =       0     GEOM  =INPUT   
 NORMF =       0     NORMP =       0     ITOL  =      20     ICUT  =       9
 INTTYP=BEST         GRDTYP=BEST         QMTTOL= 1.0E-06

     $SYSTEM OPTIONS
     ---------------
  REPLICATED MEMORY=    30000000 WORDS (ON EVERY NODE).
 DISTRIBUTED MEMDDI=        1000 MILLION WORDS IN AGGREGATE,
 MEMDDI DISTRIBUTED OVER   6 PROCESSORS IS   166666666 WORDS/PROCESSOR.
 TOTAL MEMORY REQUESTED ON EACH PROCESSOR=   196666666 WORDS.
 TIMLIM=      525600.00 MINUTES, OR     365.0 DAYS.
 PARALL= T  BALTYP=  DLB     KDIAG=    0  COREFL= F
 MXSEQ2=     300 MXSEQ3=     150  mem10=         0

          ----------------
          PROPERTIES INPUT
          ----------------

     MOMENTS            FIELD           POTENTIAL          DENSITY
 IEMOM =       1   IEFLD =       0   IEPOT =       0   IEDEN =       0
 WHERE =COMASS     WHERE =NUCLEI     WHERE =NUCLEI     WHERE =NUCLEI  
 OUTPUT=BOTH       OUTPUT=BOTH       OUTPUT=BOTH       OUTPUT=BOTH    
 IEMINT=       0   IEFINT=       0                     IEDINT=       0
                                                       MORB  =       0
          EXTRAPOLATION IN EFFECT
          SOSCF IN EFFECT
 ORBITAL PRINTING OPTION: NPREO=     1    56     2     1

     -------------------------------
     INTEGRAL TRANSFORMATION OPTIONS
     -------------------------------
     NWORD  =            0
     CUTOFF = 1.0E-09     MPTRAN =       0
     DIRTRF =       T     AOINTS =DUP     

          ----------------------
          INTEGRAL INPUT OPTIONS
          ----------------------
 NOPK  =       1 NORDER=       0 SCHWRZ=       T

     ------------------------------------------
     THE POINT GROUP IS C1 , NAXIS= 0, ORDER= 1
     ------------------------------------------

     DIMENSIONS OF THE SYMMETRY SUBSPACES ARE
 A   =   56

 ..... DONE SETTING UP THE RUN .....
 CPU     0: STEP CPU TIME=     0.02 TOTAL CPU TIME=          0.0 (      0.0 MIN)
 TOTAL WALL CLOCK TIME=          0.0 SECONDS, CPU UTILIZATION IS    66.67%

          ********************
          1 ELECTRON INTEGRALS
          ********************
 ...... END OF ONE-ELECTRON INTEGRALS ......
 CPU     0: STEP CPU TIME=     0.01 TOTAL CPU TIME=          0.0 (      0.0 MIN)
 TOTAL WALL CLOCK TIME=          0.0 SECONDS, CPU UTILIZATION IS    75.00%

          -------------
          GUESS OPTIONS
          -------------
          GUESS =HUCKEL            NORB  =       0          NORDER=       0
          MIX   =       F          PRTMO =       F          PUNMO =       F
          TOLZ  = 1.0E-08          TOLE  = 1.0E-05
          SYMDEN=       F          PURIFY=       F

 INITIAL GUESS ORBITALS GENERATED BY HUCKEL   ROUTINE.
 HUCKEL GUESS REQUIRES     36338 WORDS.

 SYMMETRIES FOR INITIAL GUESS ORBITALS FOLLOW.   BOTH SET(S).
    17 ORBITALS ARE OCCUPIED (    4 CORE ORBITALS).
     5=A        6=A        7=A        8=A        9=A       10=A       11=A   
    12=A       13=A       14=A       15=A       16=A       17=A       18=A   
    19=A       20=A       21=A       22=A       23=A       24=A       25=A   
    26=A       27=A   
 ...... END OF INITIAL ORBITAL SELECTION ......
 CPU     0: STEP CPU TIME=     0.02 TOTAL CPU TIME=          0.1 (      0.0 MIN)
 TOTAL WALL CLOCK TIME=          0.1 SECONDS, CPU UTILIZATION IS    83.33%

                    ----------------------
                    AO INTEGRAL TECHNOLOGY
                    ----------------------
     S,P,L SHELL ROTATED AXIS INTEGRALS, REPROGRAMMED BY
        KAZUYA ISHIMURA (IMS) AND JOSE SIERRA (SYNSTAR).
     S,P,D,L SHELL ROTATED AXIS INTEGRALS PROGRAMMED BY
        KAZUYA ISHIMURA (INSTITUTE FOR MOLECULAR SCIENCE).
     S,P,D,F,G SHELL TO TOTAL QUARTET ANGULAR MOMENTUM SUM 5,
        ERIC PROGRAM BY GRAHAM FLETCHER (ELORET AND NASA ADVANCED
        SUPERCOMPUTING DIVISION, AMES RESEARCH CENTER).
     S,P,D,F,G,L SHELL GENERAL RYS QUADRATURE PROGRAMMED BY
        MICHEL DUPUIS (PACIFIC NORTHWEST NATIONAL LABORATORY).

          --------------------
          2 ELECTRON INTEGRALS
          --------------------

 DIRECT SCF METHOD SKIPS INTEGRAL STORAGE ON DISK.
 DIRECT TRANSFORMATION SKIPS AO INTEGRAL STORAGE ON DISK.
  ...... END OF TWO-ELECTRON INTEGRALS .....
 CPU     0: STEP CPU TIME=     0.01 TOTAL CPU TIME=          0.1 (      0.0 MIN)
 TOTAL WALL CLOCK TIME=          0.1 SECONDS, CPU UTILIZATION IS    85.71%

          --------------------------
                 RHF SCF CALCULATION
          --------------------------

     NUCLEAR ENERGY =       133.7871771975
     MAXIT =   60     NPUNCH=    2
     EXTRAP=T  DAMP=F  SHIFT=F  RSTRCT=F  DIIS=F  DEM=F  SOSCF=T
     DENSITY MATRIX CONV=  2.00E-05
     SOSCF WILL OPTIMIZE     663 ORBITAL ROTATIONS, SOGTOL=   0.250
     MEMORY REQUIRED FOR RHF ITERS=     70800 WORDS.

 DIRECT SCF CALCULATION, SCHWRZ=T   FDIFF=T,  DIRTHR=  0.00E+00 NITDIR=10
 SCHWARZ INEQUALITY OVERHEAD:      1593 INTEGRALS, T=        0.00

                                                                                   NONZERO     BLOCKS
 ITER EX DEM     TOTAL ENERGY        E CHANGE  DENSITY CHANGE     ORB. GRAD      INTEGRALS    SKIPPED
   1  0  0     -156.1414592394  -156.1414592394   0.620291162   0.000000000        1194313      20150
          ---------------START SECOND ORDER SCF---------------
   2  1  0     -156.4191122045    -0.2776529650   0.086099469   0.023664819        1190697      22066
   3  2  0     -156.4316381633    -0.0125259589   0.064083589   0.010458922        1179569      25408
   4  3  0     -156.4334304588    -0.0017922955   0.010858162   0.001674248        1168972      28421
   5  4  0     -156.4334710969    -0.0000406381   0.001020331   0.000233758        1151642      31189
   6  5  0     -156.4334725492    -0.0000014523   0.000399446   0.000076847        1121224      35715
   7  6  0     -156.4334726886    -0.0000001395   0.000102321   0.000024673        1086891      42591
   8  7  0     -156.4334726928    -0.0000000041   0.000009477   0.000002396        1047016      49066
   9  8  0     -156.4334726929    -0.0000000001   0.000001429   0.000000541        1000564      56235

          -----------------
          DENSITY CONVERGED
          -----------------
     TIME TO FORM FOCK OPERATORS=       0.2 SECONDS (       0.0 SEC/ITER)
     FOCK TIME ON FIRST ITERATION=       0.0, LAST ITERATION=       0.0
     TIME TO SOLVE SCF EQUATIONS=       0.0 SECONDS (       0.0 SEC/ITER)

 FINAL RHF ENERGY IS     -156.4334726929 AFTER   9 ITERATIONS

          ------------
          EIGENVECTORS
          ------------

                      1          2          3          4          5
                  -11.1718   -11.1530   -11.1529   -11.1523    -1.0774
                     A          A          A          A          A   
    1  H  1  S   -0.001515   0.000572  -0.000228  -0.000380   0.047144
    2  H  1  S    0.000112   0.011994  -0.004992   0.006524   0.003200
    3  H  2  S   -0.001193   0.000372   0.000034  -0.000129   0.043468
    4  H  2  S   -0.000089   0.011066  -0.001994   0.008425  -0.002717
    5  H  3  S   -0.001516  -0.000496  -0.000370  -0.000376   0.047149
    6  H  3  S    0.000109  -0.010137  -0.008030   0.006639   0.003212
    7  C  4  S   -0.003505   0.750881  -0.315526   0.558369  -0.095209
    8  C  4  S   -0.002776   0.078525  -0.032950   0.055500   0.099128
    9  C  4  X    0.000935   0.000852   0.000115  -0.000681   0.045426
   10  C  4  Y   -0.000376  -0.000033   0.001019   0.000384  -0.017858
   11  C  4  Z   -0.000144   0.000371   0.000155  -0.000208  -0.008048
   12  C  4  S    0.023989  -0.062660   0.026229  -0.040496   0.208411
   13  C  4  X    0.011844  -0.004903   0.000623   0.000030  -0.007553
   14  C  4  Y   -0.004555   0.001045  -0.003477  -0.000578   0.004361
   15  C  4  Z   -0.002429  -0.000827  -0.000618   0.001698  -0.003277
   16  H  5  S   -0.001192  -0.000368  -0.000068  -0.000124   0.043449
   17  H  5  S   -0.000081  -0.010048  -0.004875   0.008529  -0.002725
   18  C  6  S   -0.003497  -0.633048  -0.504558   0.565533  -0.095195
   19  C  6  S   -0.002777  -0.066246  -0.052724   0.056250   0.099115
   20  C  6  X   -0.000763   0.000970  -0.000057   0.000633  -0.036704
   21  C  6  Y   -0.000510  -0.000093   0.000996   0.000489  -0.024399
   22  C  6  Z   -0.000443  -0.000078   0.000059   0.000023  -0.022451
   23  C  6  S    0.023995   0.052922   0.042019  -0.041093   0.208356
   24  C  6  X   -0.009473  -0.004559  -0.001108  -0.000467   0.007444
   25  C  6  Y   -0.006265  -0.000797  -0.003872  -0.000602   0.005575
   26  C  6  Z   -0.006166  -0.000633  -0.000894   0.001616  -0.000674
   27  H  7  S   -0.001191   0.000239  -0.000276  -0.000132   0.043403
   28  H  7  S   -0.000071   0.009195  -0.006559   0.008347  -0.002751
   29  C  8  S    0.988431   0.000045  -0.000098   0.004885  -0.155113
   30  C  8  S    0.107372  -0.000010   0.000026  -0.001593   0.140444
   31  C  8  X   -0.000092  -0.000460  -0.000010  -0.000021  -0.003595
   32  C  8  Y   -0.000134   0.000026  -0.000454  -0.000047  -0.005059
   33  C  8  Z    0.000598  -0.000066  -0.000106   0.000164   0.022772
   34  C  8  S   -0.102810   0.000172  -0.000416   0.023535   0.410293
   35  C  8  X    0.001144  -0.013248  -0.000276  -0.000384  -0.003305
   36  C  8  Y    0.001639   0.000713  -0.013058  -0.000935  -0.004723
   37  C  8  Z   -0.007327  -0.001902  -0.003037   0.003002   0.021260
   38  H  9  S   -0.001517  -0.000086   0.000622  -0.000361   0.047184
   39  H  9  S    0.000109  -0.001704   0.012664   0.006958   0.003227
   40  H 10  S   -0.001192  -0.000157  -0.000332  -0.000132   0.043428
   41  H 10  S   -0.000080  -0.007015  -0.008764   0.008439  -0.002745
   42  C 11  S   -0.003494  -0.104641   0.788280   0.585508  -0.095152
   43  C 11  S   -0.002777  -0.010969   0.082515   0.058341   0.099063
   44  C 11  X   -0.000081   0.001054   0.000002   0.000105  -0.003824
   45  C 11  Y    0.001015  -0.000032   0.000817  -0.000699   0.049286
   46  C 11  Z    0.000008   0.000120   0.000448  -0.000321  -0.000631
   47  C 11  S    0.023980   0.008785  -0.065957  -0.042771   0.208330
   48  C 11  X   -0.000941  -0.003226   0.000227  -0.000260   0.001417
   49  C 11  Y    0.012876   0.000445  -0.005120  -0.000220  -0.007901
   50  C 11  Z   -0.000504  -0.000336  -0.001467   0.001730  -0.004667
   51  H 12  S    0.001569  -0.000014   0.000035  -0.001923   0.069337
   52  H 12  S    0.014127   0.000011  -0.000025   0.001411  -0.003511
   53  H 13  S   -0.001192  -0.000215   0.000309  -0.000121   0.043424
   54  H 13  S   -0.000083  -0.003835   0.010275   0.008776  -0.002754
   55  H 14  S   -0.001191   0.000122   0.000349  -0.000122   0.043414
   56  H 14  S   -0.000075   0.001039   0.010943   0.008744  -0.002748

                      6          7          8          9         10
                   -0.9248    -0.9247    -0.7657    -0.6297    -0.5871
                     A          A          A          A          A   
    1  H  1  S   -0.049977  -0.085405  -0.081068   0.072989   0.036398
    2  H  1  S   -0.007202  -0.012353  -0.045974   0.062615   0.030402
    3  H  2  S   -0.060802  -0.084802  -0.058255  -0.079217  -0.094060
    4  H  2  S   -0.020352  -0.013819  -0.030345  -0.067215  -0.087009
    5  H  3  S   -0.048876   0.086016  -0.081096   0.073246   0.021832
    6  H  3  S   -0.007033   0.012456  -0.045972   0.062775   0.018270
    7  C  4  S    0.087311   0.148971   0.063564   0.012289  -0.009415
    8  C  4  S   -0.080288  -0.136982  -0.054416  -0.007220   0.005861
    9  C  4  X   -0.000212   0.019762   0.103928   0.107563  -0.158322
   10  C  4  Y   -0.023783   0.004494  -0.028769  -0.085073  -0.155306
   11  C  4  Z   -0.004856   0.005003  -0.059596   0.125089  -0.016256
   12  C  4  S   -0.268321  -0.457843  -0.262052  -0.069611   0.051941
   13  C  4  X   -0.003670  -0.001332   0.034675   0.061660  -0.115808
   14  C  4  Y   -0.004020   0.004253  -0.006056  -0.054764  -0.122702
   15  C  4  Z   -0.002010  -0.000207  -0.031902   0.092062  -0.017208
   16  H  5  S   -0.059642   0.085603  -0.058266  -0.079233  -0.122464
   17  H  5  S   -0.020164   0.014080  -0.030364  -0.067221  -0.110798
   18  C  6  S    0.085321  -0.150106   0.063635   0.012244  -0.005748
   19  C  6  S   -0.078454   0.138021  -0.054482  -0.007193   0.003607
   20  C  6  X    0.005771   0.020638  -0.071898  -0.129096   0.175299
   21  C  6  Y   -0.023322  -0.000975  -0.042779  -0.103616  -0.171049
   22  C  6  Z   -0.003815   0.002097  -0.090400   0.083982   0.015280
   23  C  6  S   -0.262224   0.461328  -0.262299  -0.069334   0.031585
   24  C  6  X    0.004732  -0.000766  -0.020428  -0.079971   0.133349
   25  C  6  Y   -0.003397  -0.004356  -0.010422  -0.065897  -0.134754
   26  C  6  Z   -0.000516  -0.000215  -0.041551   0.067511   0.007788
   27  H  7  S   -0.044360  -0.094467  -0.058202  -0.079815   0.136070
   28  H  7  S   -0.002167  -0.024546  -0.030307  -0.067686   0.116983
   29  C  8  S   -0.000019  -0.000013  -0.141100  -0.033226  -0.000073
   30  C  8  S    0.000016   0.000007   0.115177   0.023322   0.000039
   31  C  8  X    0.014690   0.120795   0.015938  -0.033306   0.043053
   32  C  8  Y   -0.119715   0.010425   0.022880  -0.047193  -0.164583
   33  C  8  Z   -0.024668   0.021327  -0.101246   0.209988  -0.030331
   34  C  8  S    0.000028   0.000054   0.565188   0.145667   0.000442
   35  C  8  X    0.003037   0.024851   0.007491  -0.029228   0.036443
   36  C  8  Y   -0.024629   0.002118   0.010677  -0.041428  -0.139441
   37  C  8  Z   -0.005045   0.004373  -0.047231   0.184282  -0.025603
   38  H  9  S    0.098981  -0.000642  -0.081039   0.073531  -0.057116
   39  H  9  S    0.014269  -0.000104  -0.045944   0.062971  -0.047628
   40  H 10  S   -0.043081   0.095060  -0.058247  -0.079723   0.148211
   41  H 10  S   -0.001847   0.024576  -0.030327  -0.067623   0.129140
   42  C 11  S   -0.172684   0.001154   0.063633   0.012302   0.015185
   43  C 11  S    0.158791  -0.001059  -0.054486  -0.007262  -0.009456
   44  C 11  X    0.002409   0.025333  -0.001451  -0.034678   0.031079
   45  C 11  Y   -0.018020   0.002144   0.114999   0.108516   0.141406
   46  C 11  Z   -0.004705   0.004468  -0.043727   0.146960  -0.032683
   47  C 11  S    0.530667  -0.003569  -0.262213  -0.069507  -0.083759
   48  C 11  X   -0.000579   0.006237   0.001653  -0.023535   0.024266
   49  C 11  Y    0.003312   0.000469   0.038944   0.061097   0.096763
   50  C 11  Z    0.001705   0.001101  -0.026930   0.105262  -0.019829
   51  H 12  S    0.000023   0.000050   0.148649  -0.116371   0.000092
   52  H 12  S    0.000024   0.000014   0.068704  -0.088645   0.000136
   53  H 13  S    0.103836  -0.010237  -0.058266  -0.079319  -0.054816
   54  H 13  S    0.022168  -0.010678  -0.030349  -0.067277  -0.042763
   55  H 14  S    0.103995   0.008816  -0.058203  -0.079951  -0.014164
   56  H 14  S    0.022340   0.010384  -0.030314  -0.067763  -0.006748

                     11         12         13         14         15
                   -0.5870    -0.5308    -0.5307    -0.5079    -0.4544
                     A          A          A          A          A   
    1  H  1  S    0.045593  -0.001300   0.217120   0.000722   0.025117
    2  H  1  S    0.038045  -0.001141   0.201584   0.000743   0.050159
    3  H  2  S    0.117186  -0.030811  -0.091225  -0.135949   0.056419
    4  H  2  S    0.099231  -0.027710  -0.083777  -0.126301   0.075026
    5  H  3  S   -0.053639  -0.187339  -0.109771  -0.000848   0.027733
    6  H  3  S   -0.044739  -0.173842  -0.101935  -0.000825   0.024839
    7  C  4  S   -0.012008   0.000028  -0.000430   0.000031   0.031652
    8  C  4  S    0.007458  -0.000008  -0.000953  -0.000012  -0.024231
    9  C  4  X   -0.037521  -0.021597   0.003657  -0.087133  -0.275643
   10  C  4  Y    0.170726  -0.047059  -0.088043  -0.195194   0.090768
   11  C  4  Z    0.088515  -0.016119   0.290966  -0.057446   0.037484
   12  C  4  S    0.066356  -0.000197   0.010099  -0.000201  -0.122176
   13  C  4  X   -0.019784  -0.020505   0.010007  -0.080075  -0.243038
   14  C  4  Y    0.130351  -0.044687  -0.079759  -0.179286   0.079204
   15  C  4  Z    0.063002  -0.015198   0.253324  -0.052810   0.021694
   16  H  5  S   -0.086809   0.062355   0.073804   0.135863   0.020943
   17  H  5  S   -0.071511   0.057626   0.067289   0.126218   0.019028
   18  C  6  S    0.014175   0.000418   0.000215  -0.000019  -0.015093
   19  C  6  S   -0.008811   0.000771   0.000489   0.000015   0.010786
   20  C  6  X   -0.028557   0.092921   0.016460  -0.129935  -0.191642
   21  C  6  Y   -0.130090   0.059174   0.086165   0.177950  -0.005323
   22  C  6  Z   -0.099038  -0.239743  -0.134747   0.018686  -0.013155
   23  C  6  S   -0.078275  -0.008891  -0.005115   0.000062   0.058539
   24  C  6  X   -0.014708   0.087259   0.015202  -0.119309  -0.187109
   25  C  6  Y   -0.096768   0.053225   0.080045   0.163463   0.006819
   26  C  6  Z   -0.066878  -0.206998  -0.115840   0.017205  -0.000918
   27  H  7  S   -0.062412   0.032047  -0.092194   0.135182   0.083327
   28  H  7  S   -0.059990   0.028861  -0.084744   0.125578   0.105433
   29  C  8  S   -0.000011   0.000061  -0.000043  -0.000011   0.002336
   30  C  8  S   -0.000009  -0.000051   0.000034   0.000000  -0.002030
   31  C  8  X    0.165483   0.021087   0.048992   0.000046   0.282535
   32  C  8  Y    0.036732   0.047883  -0.022258   0.000147  -0.070719
   33  C  8  Z    0.034592   0.013796   0.002944  -0.000008  -0.034750
   34  C  8  S    0.000096  -0.000280   0.000198   0.000105  -0.006323
   35  C  8  X    0.140116   0.018909   0.044076   0.000027   0.250154
   36  C  8  Y    0.031098   0.043056  -0.019950   0.000146  -0.060714
   37  C  8  Z    0.029292   0.012471   0.002579   0.000087  -0.037871
   38  H  9  S    0.008292   0.188835  -0.107365   0.000843   0.027078
   39  H  9  S    0.006949   0.175187  -0.099634   0.000871   0.028285
   40  H 10  S    0.022239   0.095748   0.018804  -0.135026  -0.131989
   41  H 10  S    0.025178   0.087610   0.017743  -0.125452  -0.154162
   42  C 11  S   -0.002147  -0.000448   0.000254  -0.000008  -0.008106
   43  C 11  S    0.001355  -0.000757   0.000416   0.000018   0.005555
   44  C 11  X    0.251691  -0.072281  -0.022144   0.216518  -0.138032
   45  C 11  Y    0.000573  -0.012998   0.002299   0.017182   0.074488
   46  C 11  Z    0.049485   0.255436  -0.156196   0.038774   0.019252
   47  C 11  S    0.011750   0.009091  -0.005097   0.000000   0.031509
   48  C 11  X    0.195720  -0.065737  -0.022632   0.198914  -0.147342
   49  C 11  Y    0.002277  -0.005056  -0.001907   0.015792   0.066520
   50  C 11  Z    0.037696   0.222961  -0.137156   0.035560   0.020736
   51  H 12  S   -0.000126   0.000176  -0.000096   0.000048   0.047943
   52  H 12  S   -0.000120   0.000212  -0.000149   0.000114   0.053503
   53  H 13  S   -0.139957  -0.063024   0.073243  -0.135533   0.053280
   54  H 13  S   -0.124885  -0.058210   0.066741  -0.125922   0.058026
   55  H 14  S    0.149300  -0.096165   0.017316   0.134778  -0.126595
   56  H 14  S    0.131517  -0.087994   0.016454   0.125151  -0.145730

                     16         17         18         19         20
                   -0.4543    -0.4539     0.2517     0.3046     0.3261
                     A          A          A          A          A   
    1  H  1  S   -0.014655  -0.120447   0.019581   0.022511  -0.018943
    2  H  1  S   -0.021034  -0.151686  -0.446708   0.926393   0.003726
    3  H  2  S   -0.102651   0.060873  -0.008604  -0.006384  -0.046534
    4  H  2  S   -0.118204   0.065376  -0.579644  -0.252355  -0.952018
    5  H  3  S   -0.013764  -0.120030   0.019489   0.022376  -0.019405
    6  H  3  S   -0.032457  -0.155962  -0.447030   0.923934   0.005870
    7  C  4  S   -0.004889  -0.005724  -0.075795   0.007915   0.016640
    8  C  4  S    0.003956   0.006546   0.026681   0.005380  -0.014211
    9  C  4  X   -0.016273   0.016507  -0.071150   0.022201   0.042448
   10  C  4  Y   -0.132512   0.047123   0.027122   0.036850   0.176105
   11  C  4  Z   -0.054974  -0.134472   0.016329  -0.157082   0.051246
   12  C  4  S    0.018758   0.021515   0.966804  -0.188432  -0.113356
   13  C  4  X   -0.026245   0.003924  -0.433017   0.071033   0.294341
   14  C  4  Y   -0.139867   0.053032   0.165695   0.155348   0.860169
   15  C  4  Z   -0.055353  -0.131970   0.096005  -0.627834   0.276422
   16  H  5  S   -0.118070   0.055212  -0.008608  -0.006303  -0.045880
   17  H  5  S   -0.142669   0.056237  -0.579738  -0.253435  -0.942151
   18  C  6  S   -0.025412  -0.013552  -0.075842   0.007576   0.017201
   19  C  6  S    0.019328   0.012401   0.026704   0.005461  -0.014672
   20  C  6  X   -0.130811  -0.047524   0.056350   0.026865  -0.081414
   21  C  6  Y   -0.186715   0.024904   0.037266   0.036898   0.165539
   22  C  6  Z   -0.103787  -0.156718   0.038686  -0.156241   0.028724
   23  C  6  S    0.098119   0.051888   0.967217  -0.183885  -0.117387
   24  C  6  X   -0.108170  -0.033105   0.343931   0.123157  -0.489232
   25  C  6  Y   -0.180044   0.037366   0.227426   0.157478   0.792434
   26  C  6  Z   -0.083998  -0.143931   0.232140  -0.618737   0.135151
   27  H  7  S    0.093054   0.043049  -0.008629  -0.006409   0.055958
   28  H  7  S    0.103545   0.044996  -0.579285  -0.254448   1.010855
   29  C  8  S   -0.001325  -0.010525  -0.056232  -0.014985   0.000547
   30  C  8  S    0.001143   0.009064   0.005410   0.001078  -0.000137
   31  C  8  X    0.079224   0.008574   0.010914   0.017292  -0.007222
   32  C  8  Y    0.261669  -0.112386   0.015670   0.025471   0.065273
   33  C  8  Z    0.107422   0.260300  -0.069369  -0.111174   0.015283
   34  C  8  S    0.003667   0.028761   0.867300   0.218406  -0.008067
   35  C  8  X    0.069186   0.002478   0.036342   0.044933  -0.001621
   36  C  8  Y    0.229876  -0.106482   0.052453   0.068397   0.000321
   37  C  8  Z    0.098849   0.261773  -0.230577  -0.292933   0.010398
   38  H  9  S   -0.016676  -0.119650   0.019358   0.022225   0.038476
   39  H  9  S   -0.004802  -0.158549  -0.447994   0.924356   0.000457
   40  H 10  S   -0.001349   0.006811  -0.008597  -0.006277   0.055496
   41  H 10  S   -0.010313   0.001320  -0.579245  -0.255716   1.000820
   42  C 11  S    0.025477  -0.018406  -0.075905   0.007492  -0.034239
   43  C 11  S   -0.018767   0.016032   0.026715   0.005456   0.029146
   44  C 11  X   -0.026973  -0.009716   0.005262   0.024824  -0.004291
   45  C 11  Y   -0.249746   0.138334  -0.077353   0.033056   0.067115
   46  C 11  Z   -0.055098  -0.129595   0.005036  -0.157626   0.004447
   47  C 11  S   -0.098620   0.070622   0.968125  -0.182657   0.234068
   48  C 11  X   -0.031640  -0.009773   0.032542   0.101069   0.002802
   49  C 11  Y   -0.222982   0.110207  -0.470311   0.112854   0.173716
   50  C 11  Z   -0.064659  -0.125354   0.026762  -0.633178  -0.040117
   51  H 12  S   -0.027218  -0.215159   0.009295  -0.076859   0.000201
   52  H 12  S   -0.030398  -0.240720  -0.572352  -0.810949   0.013464
   53  H 13  S    0.116367   0.032663  -0.008555  -0.006288  -0.008981
   54  H 13  S    0.140253   0.029052  -0.578983  -0.254264  -0.057748
   55  H 14  S    0.037663   0.002969  -0.008577  -0.006072  -0.010105
   56  H 14  S    0.051005  -0.004747  -0.579204  -0.254319  -0.077585

                     21         22         23         24         25
                    0.3263     0.3389     0.3390     0.3580     0.3750
                     A          A          A          A          A   
    1  H  1  S    0.033486  -0.037387   0.018766   0.013771  -0.045215
    2  H  1  S   -0.002798  -1.007913   0.502029   0.249216  -0.855547
    3  H  2  S   -0.037266  -0.001420  -0.040681  -0.002045   0.008082
    4  H  2  S   -0.608817  -0.630996   0.440487  -0.422544   0.698928
    5  H  3  S   -0.033161   0.035078   0.023036   0.013619  -0.011390
    6  H  3  S    0.003124   0.944553   0.617599   0.246324  -0.212427
    7  C  4  S   -0.029499  -0.127022   0.063659  -0.043544   0.007458
    8  C  4  S    0.025230   0.022985  -0.011522   0.013367   0.001765
    9  C  4  X    0.095615  -0.076229   0.013882  -0.002612   0.071189
   10  C  4  Y    0.069278  -0.002550  -0.053466   0.015894  -0.105267
   11  C  4  Z    0.023133   0.028290  -0.029933  -0.052140   0.136200
   12  C  4  S    0.200176   1.866204  -0.935146   0.518226  -0.163415
   13  C  4  X    0.350143  -0.173994   0.004081  -0.002730   0.370531
   14  C  4  Y    0.423968  -0.072273  -0.150490   0.155161  -0.382600
   15  C  4  Z    0.089132   0.180848  -0.143408  -0.530477   0.722949
   16  H  5  S    0.038097   0.006226  -0.040181  -0.001809  -0.027304
   17  H  5  S    0.628376   0.570946   0.512489  -0.417963   0.196321
   18  C  6  S    0.029521   0.118261   0.078357  -0.043999   0.001482
   19  C  6  S   -0.025064  -0.021383  -0.014117   0.013325   0.000457
   20  C  6  X    0.108333  -0.061467  -0.002448   0.019260  -0.003176
   21  C  6  Y   -0.056242  -0.001762  -0.054823   0.016372  -0.058659
   22  C  6  Z    0.012273  -0.049120  -0.037185  -0.048628   0.022628
   23  C  6  S   -0.202398  -1.738095  -1.151736   0.526630  -0.034675
   24  C  6  X    0.427626  -0.116871   0.052219   0.164896  -0.133801
   25  C  6  Y   -0.378380   0.067552  -0.138531   0.160856  -0.117304
   26  C  6  Z    0.046061  -0.217854  -0.157615  -0.503105   0.136893
   27  H  7  S    0.020574   0.031690   0.025479  -0.002273   0.055130
   28  H  7  S    0.500592  -0.729727   0.244112  -0.431284   0.665469
   29  C  8  S   -0.000206   0.000263  -0.000390   0.117569  -0.000252
   30  C  8  S    0.000035  -0.000063   0.000083  -0.024106   0.000021
   31  C  8  X    0.066326   0.072628  -0.004000  -0.027876   0.015474
   32  C  8  Y    0.004854   0.001305   0.071757  -0.039932  -0.034486
   33  C  8  Z    0.011117   0.011992   0.015232   0.176775  -0.005707
   34  C  8  S    0.002903  -0.003491   0.005203  -1.683750   0.004097
   35  C  8  X    0.003176   0.545012  -0.029379  -0.178876   0.094254
   36  C  8  Y    0.001385   0.009959   0.539761  -0.249680  -0.212844
   37  C  8  Z   -0.001624   0.090216   0.114690   1.121336  -0.034615
   38  H  9  S   -0.000485   0.002450  -0.041746   0.013139   0.056465
   39  H  9  S   -0.000974   0.068364  -1.123295   0.244843   1.068830
   40  H 10  S   -0.021639  -0.034530   0.021652  -0.002443   0.043510
   41  H 10  S   -0.515927   0.691567   0.332139  -0.443783   0.142429
   42  C 11  S    0.000205   0.008430  -0.141530  -0.044118  -0.008870
   43  C 11  S   -0.000238  -0.001495   0.025568   0.013105  -0.002086
   44  C 11  X    0.209252  -0.053715  -0.001662   0.009484   0.056901
   45  C 11  Y    0.015876   0.000672  -0.082606  -0.000950  -0.101316
   46  C 11  Z    0.036271  -0.011185   0.026483  -0.054318  -0.199000
   47  C 11  S   -0.000432  -0.124280   2.080690   0.531038   0.196985
   48  C 11  X    1.069000  -0.180874  -0.033813   0.092813   0.212296
   49  C 11  Y    0.082898  -0.003667  -0.183386   0.025237  -0.457229
   50  C 11  Z    0.186277  -0.045392   0.203975  -0.545278  -1.004380
   51  H 12  S   -0.000029  -0.000040  -0.000020   0.004187   0.000153
   52  H 12  S   -0.003600   0.002742  -0.003921   1.795863  -0.003165
   53  H 13  S    0.059040   0.035886   0.018903  -0.002022  -0.051508
   54  H 13  S    1.128921  -0.062716  -0.767552  -0.433146  -0.843992
   55  H 14  S   -0.058794  -0.037801   0.014597  -0.001815  -0.027665
   56  H 14  S   -1.128661   0.152028  -0.751967  -0.433006  -0.861234

                     26         27         28         29         30
                    0.3750     0.4113     0.4251     0.4501     0.4501
                     A          A          A          A          A   
    1  H  1  S   -0.039135  -0.000446  -0.041686   0.018378  -0.018902
    2  H  1  S   -0.736150   0.005088   0.350414   0.457111  -0.474481
    3  H  2  S    0.054640  -0.021138  -0.012732   0.026571  -0.041045
    4  H  2  S    0.573508  -0.924656  -0.011996   0.274111   0.146455
    5  H  3  S    0.058627  -0.000799  -0.041782  -0.025504  -0.006808
    6  H  3  S    1.109307   0.002344   0.347999  -0.637458  -0.167477
    7  C  4  S    0.007019   0.000877   0.070310  -0.032616   0.033243
    8  C  4  S    0.001342   0.000125   0.008586  -0.007597   0.007799
    9  C  4  X    0.084891   0.079186  -0.069113   0.106574  -0.117013
   10  C  4  Y   -0.040186   0.179308   0.030699  -0.035356   0.014100
   11  C  4  Z    0.132923   0.053314  -0.011845  -0.087528   0.084303
   12  C  4  S   -0.150048  -0.013273  -1.109133   0.600836  -0.612469
   13  C  4  X    0.322780   0.346571  -0.888050   0.712619  -1.051312
   14  C  4  Y   -0.328885   0.803094   0.423290  -0.603119  -0.125962
   15  C  4  Z    0.625714   0.236899  -0.141276  -0.637955   0.436408
   16  H  5  S   -0.047939   0.020818  -0.013235  -0.044032  -0.021868
   17  H  5  S   -0.880982   0.927123  -0.037763  -0.159328   0.261410
   18  C  6  S   -0.009964   0.001387   0.070432   0.044835   0.011957
   19  C  6  S   -0.002164   0.000057   0.008580   0.010540   0.002751
   20  C  6  X    0.152371   0.120729   0.060214   0.094526   0.034512
   21  C  6  Y    0.116766  -0.162538   0.045935   0.056880   0.001175
   22  C  6  Z   -0.142913  -0.017339   0.012510   0.161570   0.040973
   23  C  6  S    0.216506  -0.021102  -1.110947  -0.826606  -0.219785
   24  C  6  X    0.691921   0.546317   0.793564   0.733416   0.548803
   25  C  6  Y    0.586251  -0.720375   0.579106   0.602303  -0.326760
   26  C  6  Z   -0.733975  -0.074081   0.161362   1.102266   0.235965
   27  H  7  S   -0.000141   0.020886  -0.013169   0.040866  -0.026993
   28  H  7  S    0.614728   0.923206  -0.042862  -0.145827  -0.263390
   29  C  8  S   -0.000099  -0.002723  -0.168294   0.000107  -0.000649
   30  C  8  S    0.000021   0.000171   0.005947  -0.000030  -0.000026
   31  C  8  X    0.032953   0.000271  -0.031286   0.269418  -0.108581
   32  C  8  Y    0.014597  -0.000153  -0.046537   0.098038   0.269389
   33  C  8  Z    0.008490   0.002185   0.201944   0.064406   0.044185
   34  C  8  S    0.001318   0.040762   2.559397  -0.001507   0.011172
   35  C  8  X    0.201229   0.001722  -0.208426   1.838307  -0.741030
   36  C  8  Y    0.090021  -0.001176  -0.307304   0.668214   1.836628
   37  C  8  Z    0.051893   0.014872   1.341168   0.438794   0.301654
   38  H  9  S   -0.019590  -0.000530  -0.042064   0.007258   0.025918
   39  H  9  S   -0.372510   0.003791   0.347043   0.178955   0.637542
   40  H 10  S   -0.033943  -0.021137  -0.012899  -0.048566  -0.002395
   41  H 10  S   -0.895472  -0.921686  -0.015713  -0.007778  -0.301907
   42  C 11  S    0.003107   0.001076   0.070754  -0.012360  -0.044400
   43  C 11  S    0.000778   0.000067   0.008493  -0.002912  -0.010512
   44  C 11  X    0.025571  -0.199713   0.012484  -0.013749   0.007366
   45  C 11  Y    0.038137  -0.016725  -0.073245   0.045474   0.170210
   46  C 11  Z    0.077136  -0.034819  -0.021466  -0.029425  -0.094054
   47  C 11  S   -0.068653  -0.016289  -1.115215   0.227885   0.819484
   48  C 11  X   -0.070342  -0.889702   0.137241  -0.553493   0.143410
   49  C 11  Y    0.155684  -0.082198  -0.948445   0.322359   1.340060
   50  C 11  Z    0.350010  -0.156642  -0.283479  -0.250936  -0.525085
   51  H 12  S    0.000052   0.000665   0.040811   0.000058   0.000252
   52  H 12  S   -0.000740   0.000081   0.499693  -0.000774   0.001261
   53  H 13  S   -0.020582  -0.020609  -0.012919   0.022075   0.043182
   54  H 13  S    0.319522  -0.922169  -0.013278  -0.259170   0.159592
   55  H 14  S    0.047978   0.020439  -0.013417   0.003173   0.048666
   56  H 14  S    0.270166   0.925336  -0.039348   0.298842   0.003759

                     31         32         33         34         35
                    0.8873     0.8936     0.8939     0.9854     0.9856
                     A          A          A          A          A   
    1  H  1  S    0.329579   0.142785   0.060521   0.200932   0.409437
    2  H  1  S   -0.000730  -0.058887  -0.028121  -0.001099  -0.000828
    3  H  2  S   -0.185703  -0.237182   0.325137  -0.100782  -0.014204
    4  H  2  S    0.038428   0.143051  -0.040126   0.072983   0.034697
    5  H  3  S    0.329180  -0.129233   0.085558   0.254401  -0.379087
    6  H  3  S   -0.000205   0.053225  -0.037238  -0.000847   0.000850
    7  C  4  S   -0.002344   0.000692   0.000374   0.003112   0.006201
    8  C  4  S    0.050665   0.055122   0.024720  -0.002144  -0.004124
    9  C  4  X    0.251248   0.192375   0.309898  -0.158817  -0.390809
   10  C  4  Y   -0.174973  -0.356861   0.339736   0.073905  -0.001012
   11  C  4  Z    0.236897   0.077104   0.182441   0.249418   0.461279
   12  C  4  S   -0.180906  -0.281721  -0.128508  -0.118839  -0.243642
   13  C  4  X   -0.352477  -0.187631  -0.419586   0.184915   0.479566
   14  C  4  Y    0.273412   0.464856  -0.543232  -0.089195   0.051855
   15  C  4  Z   -0.426556  -0.034093  -0.233918  -0.375349  -0.695604
   16  H  5  S   -0.186431   0.290919   0.277122  -0.102389   0.000605
   17  H  5  S    0.038527  -0.147656  -0.014732   0.076648  -0.024517
   18  C  6  S   -0.002312  -0.000647   0.000474   0.003880  -0.005693
   19  C  6  S    0.050649  -0.049899   0.034043  -0.002486   0.003235
   20  C  6  X   -0.286739   0.076548  -0.421961   0.079058  -0.196554
   21  C  6  Y   -0.217750   0.428060   0.210705   0.096027  -0.033149
   22  C  6  Z    0.141962  -0.006967   0.059270   0.359264  -0.522481
   23  C  6  S   -0.181433   0.254937  -0.176065  -0.150559   0.226230
   24  C  6  X    0.430483  -0.014430   0.563909  -0.059336   0.209524
   25  C  6  Y    0.335756  -0.563996  -0.371371  -0.105347  -0.011441
   26  C  6  Z   -0.288600  -0.029856  -0.059425  -0.519450   0.755164
   27  H  7  S   -0.197350   0.091726  -0.386074   0.050683  -0.089687
   28  H  7  S    0.041631   0.060646   0.134004  -0.016892   0.079678
   29  C  8  S   -0.006607   0.000028   0.000044  -0.000063  -0.000089
   30  C  8  S   -0.055142   0.000048   0.000943   0.000251   0.000183
   31  C  8  X   -0.018925  -0.000664   0.000421   0.017987   0.393489
   32  C  8  Y   -0.027761   0.000134  -0.000351  -0.388181   0.004244
   33  C  8  Z    0.122264  -0.000056  -0.001303  -0.084182   0.063625
   34  C  8  S    0.578639  -0.000825  -0.008652  -0.002052  -0.001669
   35  C  8  X   -0.020580  -0.372037  -0.009458  -0.017435  -0.383978
   36  C  8  Y   -0.025428   0.003316   0.370029   0.378439  -0.004252
   37  C  8  Z    0.131488  -0.058230   0.079454   0.081310  -0.062897
   38  H  9  S    0.325582  -0.015231  -0.161788  -0.455185  -0.030876
   39  H  9  S    0.002203   0.005965   0.064844   0.001617  -0.000357
   40  H 10  S   -0.196618  -0.159585  -0.364010   0.038309   0.095343
   41  H 10  S    0.041099  -0.036456   0.142411  -0.006645  -0.080653
   42  C 11  S   -0.002280  -0.000073  -0.000710  -0.006893  -0.000401
   43  C 11  S    0.049054  -0.005606  -0.061492   0.003881  -0.000043
   44  C 11  X   -0.068187  -0.500384   0.107145   0.048453  -0.071757
   45  C 11  Y    0.247756  -0.069124  -0.321797   0.479299   0.025535
   46  C 11  Z    0.278057  -0.106972  -0.200298  -0.466129  -0.044224
   47  C 11  S   -0.175453   0.027977   0.313044   0.270659   0.018913
   48  C 11  X    0.112898   0.754261  -0.133291  -0.087706   0.109288
   49  C 11  Y   -0.346191   0.093629   0.368082  -0.589914  -0.029711
   50  C 11  Z   -0.489812   0.150983   0.190331   0.723787   0.069537
   51  H 12  S   -0.391681   0.000307   0.005624  -0.000167  -0.000468
   52  H 12  S    0.182524  -0.000140  -0.002735  -0.000335   0.000176
   53  H 13  S   -0.189748   0.397954   0.047497   0.062781  -0.079987
   54  H 13  S    0.037045  -0.105630  -0.103929  -0.066023   0.046031
   55  H 14  S   -0.190253  -0.382763   0.117870   0.051937   0.088046
   56  H 14  S    0.036966   0.085794  -0.120199  -0.058739  -0.054054

                     36         37         38         39         40
                    1.0319     1.1102     1.1102     1.1867     1.2274
                     A          A          A          A          A   
    1  H  1  S   -0.180667   0.079538  -0.138638   0.040518  -0.027891
    2  H  1  S   -0.076332   0.053469  -0.092743   0.504670   0.361906
    3  H  2  S   -0.022867   0.014498  -0.352771   0.234183  -0.332462
    4  H  2  S   -0.035200   0.081676  -0.111297  -0.255326  -0.015385
    5  H  3  S   -0.181776  -0.159835   0.001534   0.039729   0.023736
    6  H  3  S   -0.076564  -0.107084   0.001755   0.503217  -0.277332
    7  C  4  S   -0.031700   0.027546  -0.048424   0.019291  -0.022704
    8  C  4  S    0.108858  -0.031923   0.056547   0.075254  -0.111820
    9  C  4  X    0.493991  -0.232188   0.350199   0.039243   0.207377
   10  C  4  Y   -0.151703   0.029253  -0.187334  -0.140176  -0.059634
   11  C  4  Z   -0.231765   0.000565  -0.038363   0.405174   0.461382
   12  C  4  S   -0.066731   0.068312  -0.120896  -0.517785   1.046580
   13  C  4  X   -0.566945   0.506317  -0.796535  -0.134994  -0.158428
   14  C  4  Y    0.153834  -0.100321   0.393085   0.337592   0.030777
   15  C  4  Z    0.332515  -0.024891   0.102395  -0.922664  -1.158588
   16  H  5  S   -0.022819  -0.315227  -0.158397   0.235928   0.310888
   17  H  5  S   -0.035494  -0.136836   0.016972  -0.255088  -0.253516
   18  C  6  S   -0.031775  -0.055676   0.000435   0.019271   0.017522
   19  C  6  S    0.108877   0.064686   0.000092   0.075524   0.084610
   20  C  6  X   -0.358190  -0.349248   0.045976  -0.153737   0.403066
   21  C  6  Y   -0.219900  -0.238738  -0.059243  -0.152481  -0.120375
   22  C  6  Z   -0.382558  -0.168439  -0.004524   0.370231  -0.301241
   23  C  6  S   -0.066142  -0.138307  -0.002003  -0.519237  -0.792017
   24  C  6  X    0.391749   0.778426  -0.075028   0.388921  -0.738425
   25  C  6  Y    0.230579   0.528855   0.093397   0.373961   0.384187
   26  C  6  Z    0.502754   0.403522   0.005889  -0.827698   0.839238
   27  H  7  S   -0.023187   0.296208  -0.192853   0.233569  -0.261765
   28  H  7  S   -0.035508   0.052608  -0.127523  -0.255625  -0.340040
   29  C  8  S    0.080672  -0.000028   0.000112  -0.012563   0.000018
   30  C  8  S   -0.279988   0.000136  -0.000291   0.082662   0.000313
   31  C  8  X    0.040231  -0.631210   0.474228   0.106384  -0.550580
   32  C  8  Y    0.058598  -0.446391  -0.638510   0.157693   0.084081
   33  C  8  Z   -0.256988  -0.201003  -0.072103  -0.684392  -0.064818
   34  C  8  S    0.853847  -0.000083   0.001831  -0.029269   0.000049
   35  C  8  X   -0.059094   0.916947  -0.688933  -0.292693   1.723684
   36  C  8  Y   -0.085556   0.647215   0.925964  -0.430326  -0.263031
   37  C  8  Z    0.376875   0.292465   0.107547   1.878056   0.206268
   38  H  9  S   -0.182006   0.080944   0.138394   0.038860   0.008196
   39  H  9  S   -0.076923   0.054981   0.093444   0.501182  -0.089495
   40  H 10  S   -0.023721  -0.312875   0.164881   0.232872   0.143006
   41  H 10  S   -0.035560  -0.136338  -0.016060  -0.255752   0.524053
   42  C 11  S   -0.031802   0.028206   0.048060   0.019029   0.005567
   43  C 11  S    0.108871  -0.032458  -0.055145   0.075903   0.027048
   44  C 11  X   -0.016057  -0.041544   0.073322  -0.073495   0.527124
   45  C 11  Y    0.546726  -0.233794  -0.385611   0.023050   0.007503
   46  C 11  Z   -0.157278  -0.028418  -0.022948   0.421896  -0.024201
   47  C 11  S   -0.066148   0.067984   0.116577  -0.521231  -0.252781
   48  C 11  X    0.006685   0.054684  -0.136889   0.173606  -1.191284
   49  C 11  Y   -0.631280   0.522942   0.871835  -0.103684  -0.098726
   50  C 11  Z    0.249549   0.043130   0.032534  -0.966639   0.069824
   51  H 12  S    0.243417   0.000198   0.001914   0.300719   0.000893
   52  H 12  S    0.120348   0.000610   0.001741   0.598989  -0.003147
   53  H 13  S   -0.023575   0.298616   0.190000   0.232507   0.188113
   54  H 13  S   -0.035427   0.054349   0.125124  -0.256214  -0.507404
   55  H 14  S   -0.023186   0.020323   0.353518   0.233111  -0.044208
   56  H 14  S   -0.035639   0.083161   0.108717  -0.255407   0.594152

                     41         42         43         44         45
                    1.2276     1.2574     1.3395     1.3606     1.3667
                     A          A          A          A          A   
    1  H  1  S    0.008219  -0.422214  -0.000618   0.001466   0.614847
    2  H  1  S   -0.108617   0.235754   0.000209  -0.000706  -0.866177
    3  H  2  S   -0.027401  -0.302728   0.542219  -0.149696  -0.297895
    4  H  2  S    0.595621   0.052501  -0.241930   0.779153   0.371315
    5  H  3  S    0.020886  -0.420965   0.001134  -0.001210  -0.566157
    6  H  3  S   -0.260978   0.233023  -0.001110   0.001914   0.797680
    7  C  4  S    0.006823  -0.046698  -0.000129   0.000046  -0.013348
    8  C  4  S    0.033582  -0.003470   0.000219  -0.000271  -0.000344
    9  C  4  X    0.155214  -0.149676   0.044837   0.272641  -0.031150
   10  C  4  Y    0.501807   0.024043   0.101752   0.607789   0.070340
   11  C  4  Z    0.007401   0.142811   0.029749   0.181888  -0.440125
   12  C  4  S   -0.313061   0.077407   0.000912   0.001001   0.451362
   13  C  4  X   -0.443979  -0.067644  -0.259012  -0.534696   0.152890
   14  C  4  Y   -1.106100   0.080984  -0.578042  -1.191423  -0.208497
   15  C  4  Z    0.018616  -0.167841  -0.173475  -0.358562   0.292500
   16  H  5  S    0.125340  -0.299857  -0.544376   0.148275   0.239209
   17  H  5  S    0.539361   0.052087   0.243909  -0.778727  -0.314968
   18  C  6  S    0.016308  -0.046562   0.000101  -0.000044   0.012228
   19  C  6  S    0.080300  -0.002832   0.000285   0.000431   0.000647
   20  C  6  X   -0.046395   0.089092   0.066119   0.406099  -0.167429
   21  C  6  Y    0.468782   0.043561  -0.091764  -0.553841  -0.058171
   22  C  6  Z   -0.218300   0.182246  -0.010615  -0.060897   0.375711
   23  C  6  S   -0.751229   0.072542  -0.001931  -0.001541  -0.418171
   24  C  6  X    0.273063   0.104047  -0.385428  -0.797135   0.184514
   25  C  6  Y   -0.955016   0.093287   0.527621   1.087974   0.229399
   26  C  6  Z    0.645183  -0.132423   0.059327   0.120095  -0.210530
   27  H  7  S    0.205983  -0.301507  -0.544613   0.148765  -0.494675
   28  H  7  S   -0.489311   0.051841   0.242553  -0.779431   0.516986
   29  C  8  S    0.000040  -0.006219  -0.000047  -0.000021  -0.000001
   30  C  8  S   -0.000316  -0.116700   0.000084   0.000174   0.000004
   31  C  8  X   -0.066286   0.080577  -0.000643  -0.000694  -0.328041
   32  C  8  Y   -0.540913   0.116876   0.000934   0.000842  -0.003116
   33  C  8  Z   -0.133346  -0.518704  -0.001419  -0.001077  -0.054026
   34  C  8  S    0.001301  -0.060015   0.000528   0.000137  -0.000305
   35  C  8  X    0.207054  -0.093847   0.002535   0.002074   0.879319
   36  C  8  Y    1.694465  -0.140256  -0.001653  -0.002156   0.008806
   37  C  8  Z    0.418114   0.621788   0.004372   0.004678   0.144159
   38  H  9  S   -0.030470  -0.419815  -0.003901  -0.002459  -0.046798
   39  H  9  S    0.371331   0.231457   0.006110   0.004599   0.066544
   40  H 10  S    0.300248  -0.302011   0.546398  -0.146936   0.488694
   41  H 10  S   -0.283161   0.055378  -0.244703   0.776489  -0.501104
   42  C 11  S   -0.023291  -0.046559  -0.000036   0.000023   0.000987
   43  C 11  S   -0.113326  -0.002878   0.000208   0.000155   0.000259
   44  C 11  X    0.027951  -0.004667  -0.108564  -0.677243  -0.151833
   45  C 11  Y    0.147736  -0.169436  -0.009337  -0.054120  -0.012898
   46  C 11  Z    0.487215   0.118892  -0.016324  -0.115486   0.007860
   47  C 11  S    1.061689   0.073954  -0.001966  -0.002103  -0.035374
   48  C 11  X   -0.079640   0.030742   0.639330   1.328031  -0.101099
   49  C 11  Y    0.009823  -0.062395   0.050869   0.105073  -0.022324
   50  C 11  Z   -1.171057  -0.178755   0.107451   0.227314  -0.046107
   51  H 12  S    0.000821  -0.480760  -0.000087   0.000295   0.000301
   52  H 12  S    0.001053   0.605220   0.001921   0.002058   0.001542
   53  H 13  S   -0.274870  -0.300956   0.549139  -0.146345  -0.192392
   54  H 13  S   -0.312643   0.052017  -0.250994   0.774288   0.128171
   55  H 14  S   -0.329918  -0.301378  -0.546285   0.148857   0.252036
   56  H 14  S   -0.051003   0.056633   0.246760  -0.777840  -0.196409

                     46         47         48         49         50
                    1.3670     1.3848     1.4121     1.4122     1.4596
                     A          A          A          A          A   
    1  H  1  S    0.300782   0.439041   0.230561  -0.273422   0.181724
    2  H  1  S   -0.423507  -0.544304  -0.454727   0.536445  -0.157461
    3  H  2  S   -0.397746  -0.035160   0.422005   0.357416  -0.033141
    4  H  2  S    0.366029   0.118754  -0.365262  -0.634139  -0.245314
    5  H  3  S    0.382514   0.440660   0.122202   0.336145   0.384829
    6  H  3  S   -0.538473  -0.547837  -0.241946  -0.659658  -0.330004
    7  C  4  S   -0.006564   0.024505   0.015627  -0.018852   0.021987
    8  C  4  S    0.000233  -0.081033  -0.027258   0.033585  -0.121574
    9  C  4  X    0.051304  -0.021933  -0.217505  -0.061053   0.110561
   10  C  4  Y    0.182674   0.114755  -0.255987  -0.402979  -0.187952
   11  C  4  Z   -0.171095  -0.347334  -0.323832   0.169916  -0.024733
   12  C  4  S    0.220000  -0.136863  -0.352377   0.417920   0.225301
   13  C  4  X    0.121336  -0.137300  -0.003865   0.171886  -0.107588
   14  C  4  Y    0.005804  -0.014889   0.079826   0.268899   0.494396
   15  C  4  Z    0.173935   0.241470   0.518545  -0.501655   0.040514
   16  H  5  S   -0.432033  -0.037246   0.519490  -0.191771   0.158857
   17  H  5  S    0.415346   0.120343  -0.562445   0.469857  -0.509382
   18  C  6  S   -0.008400   0.024483   0.008157   0.022863   0.046931
   19  C  6  S    0.000153  -0.080939  -0.014009  -0.039776  -0.259729
   20  C  6  X    0.003824   0.121964   0.351118   0.065488  -0.243867
   21  C  6  Y    0.189443   0.125992  -0.334743   0.295749  -0.292456
   22  C  6  Z   -0.236810  -0.324169  -0.143798  -0.256867  -0.100739
   23  C  6  S    0.281898  -0.136831  -0.187527  -0.514553   0.484181
   24  C  6  X   -0.194130   0.044976  -0.185107  -0.037039   0.347395
   25  C  6  Y   -0.058244   0.001077   0.150973  -0.212109   0.636788
   26  C  6  Z    0.150435   0.276881   0.271685   0.670965   0.075799
   27  H  7  S    0.009604  -0.035870  -0.425426  -0.359685   0.302841
   28  H  7  S    0.067511   0.115935   0.690194   0.257327  -0.219493
   29  C  8  S   -0.000114  -0.039618  -0.000151   0.000093   0.000137
   30  C  8  S    0.000784   0.240678   0.000716  -0.000610  -0.000587
   31  C  8  X   -0.013575   0.113109   0.112482  -0.376857   0.000952
   32  C  8  Y    0.327079   0.161000  -0.374078  -0.097699   0.002800
   33  C  8  Z    0.067180  -0.717895  -0.068520  -0.080929   0.000859
   34  C  8  S   -0.001032  -0.207953   0.000016   0.000548  -0.000371
   35  C  8  X    0.037244  -0.208834  -0.315935   1.060153   0.011181
   36  C  8  Y   -0.875644  -0.295912   1.053909   0.274432   0.144641
   37  C  8  Z   -0.183752   1.324241   0.189931   0.229142   0.033994
   38  H  9  S   -0.677969   0.445269  -0.350847  -0.063363  -0.566264
   39  H  9  S    0.954895  -0.555142   0.691516   0.125055   0.486544
   40  H 10  S   -0.062564  -0.036234  -0.523733   0.188759   0.419611
   41  H 10  S    0.136787   0.118259   0.738242  -0.000952  -0.489209
   42  C 11  S    0.015073   0.024399  -0.023569  -0.004278  -0.069106
   43  C 11  S   -0.000562  -0.081002   0.039925   0.007799   0.381431
   44  C 11  X   -0.068661   0.063195   0.021057  -0.516614   0.036904
   45  C 11  Y   -0.019054  -0.005643   0.091409  -0.025388  -0.545411
   46  C 11  Z    0.481259  -0.366972   0.374565  -0.022660  -0.120831
   47  C 11  S   -0.504389  -0.134433   0.540028   0.094115  -0.709009
   48  C 11  X    0.081025  -0.025626   0.060628   0.285761  -0.048657
   49  C 11  Y   -0.187750  -0.158465   0.171489   0.052186   0.896066
   50  C 11  Z   -0.374942   0.233528  -0.712981  -0.081239   0.370889
   51  H 12  S   -0.002009  -0.423806  -0.001964   0.001845   0.001270
   52  H 12  S    0.006233   1.250192   0.003250  -0.001857  -0.001401
   53  H 13  S    0.453343  -0.040224   0.101797  -0.544109  -0.390201
   54  H 13  S   -0.503760   0.124450  -0.371394   0.636977   0.735815
   55  H 14  S    0.425143  -0.039487  -0.092757   0.545220  -0.461439
   56  H 14  S   -0.477549   0.121257  -0.127824  -0.726050   0.730720

                     51         52         53         54         55
                    1.4598     1.4737     1.8545     2.2449     2.2452
                     A          A          A          A          A   
    1  H  1  S   -0.546478   0.244661   0.020230   0.125072  -0.245419
    2  H  1  S    0.466183   0.104594  -0.293671   0.270018  -0.532712
    3  H  2  S   -0.470579  -0.305653  -0.059347   0.082103  -0.209615
    4  H  2  S    0.712774   0.271288  -0.441027  -0.007093  -0.462886
    5  H  3  S    0.428629   0.245782   0.020484   0.149587   0.231104
    6  H  3  S   -0.365976   0.103760  -0.293761   0.325903   0.500299
    7  C  4  S   -0.066834  -0.022546   0.005310   0.022262  -0.043741
    8  C  4  S    0.370228   0.232194  -0.997095   0.775740  -1.523295
    9  C  4  X   -0.507526  -0.170247   0.016894   0.012831  -0.165196
   10  C  4  Y    0.193904   0.079103  -0.022582  -0.161828   0.006163
   11  C  4  Z   -0.043195  -0.007185   0.050571  -0.021885  -0.050748
   12  C  4  S   -0.691342  -0.592057   1.608434  -1.571114   3.084206
   13  C  4  X    0.862992   0.088558  -0.217653  -0.099175   0.506598
   14  C  4  Y   -0.310223   0.105359   0.151946   0.392723  -0.077780
   15  C  4  Z    0.244384  -0.491703  -0.183972   0.045693   0.121338
   16  H  5  S    0.444793  -0.305234  -0.059686   0.103870   0.199702
   17  H  5  S   -0.554393   0.268341  -0.440732   0.041535   0.461862
   18  C  6  S    0.052522  -0.022625   0.005322   0.026733   0.041151
   19  C  6  S   -0.290802   0.231751  -0.997019   0.931646   1.433215
   20  C  6  X   -0.391523   0.148224  -0.029236   0.002055  -0.170878
   21  C  6  Y   -0.166772   0.102105  -0.026260  -0.163724  -0.015435
   22  C  6  Z   -0.093784   0.047832   0.042539  -0.020997  -0.006093
   23  C  6  S    0.542603  -0.586345   1.608051  -1.886800  -2.901796
   24  C  6  X    0.762509   0.068153   0.240839   0.069972   0.495752
   25  C  6  Y    0.204975   0.105409   0.188501   0.416044   0.113530
   26  C  6  Z    0.027134  -0.497022  -0.103855   0.070495   0.049156
   27  H  7  S   -0.355285  -0.306644  -0.059850   0.120635  -0.189160
   28  H  7  S    0.714713   0.270442  -0.440973   0.379989  -0.265993
   29  C  8  S   -0.000102   0.039050   0.033187   0.000006  -0.000011
   30  C  8  S    0.000473  -0.215901  -0.744541  -0.001033   0.000378
   31  C  8  X    0.004155   0.017021   0.011003  -0.006677   0.109091
   32  C  8  Y   -0.000739   0.022850   0.016185   0.108003   0.002822
   33  C  8  Z    0.000284  -0.100259  -0.071205   0.023215   0.017833
   34  C  8  S   -0.000217   0.172475   0.392844   0.001595  -0.000625
   35  C  8  X    0.142207  -0.170727  -0.022415  -0.053874   0.871671
   36  C  8  Y   -0.016505  -0.239852  -0.033105   0.863195   0.024732
   37  C  8  Z    0.018517   1.056519   0.145163   0.185133   0.142790
   38  H  9  S    0.117944   0.246633   0.020654  -0.274783   0.014336
   39  H  9  S   -0.100770   0.101579  -0.293778  -0.597204   0.032413
   40  H 10  S    0.204830  -0.308419  -0.059447   0.140029   0.175276
   41  H 10  S   -0.567190   0.271734  -0.441246   0.404966   0.224399
   42  C 11  S    0.014466  -0.022468   0.005354  -0.048967   0.002575
   43  C 11  S   -0.080127   0.231288  -0.997203  -1.706743   0.089868
   44  C 11  X   -0.140419   0.021204  -0.010838   0.015514  -0.158721
   45  C 11  Y    0.103627  -0.180800   0.015435  -0.163599  -0.003799
   46  C 11  Z    0.002492  -0.036498   0.054997  -0.063108  -0.023959
   47  C 11  S    0.149809  -0.587912   1.608655   3.455711  -0.181360
   48  C 11  X    0.432551   0.078119   0.057183  -0.054475   0.354635
   49  C 11  Y   -0.153438   0.119435  -0.224220   0.531611   0.000008
   50  C 11  Z   -0.004905  -0.489834  -0.226018   0.176137   0.050796
   51  H 12  S   -0.001376   1.021191   0.255659  -0.000275  -0.000049
   52  H 12  S    0.001373  -0.439299  -0.397677  -0.000516   0.000185
   53  H 13  S    0.263505  -0.303952  -0.059093  -0.222403   0.033697
   54  H 13  S   -0.143319   0.268318  -0.441853  -0.396763   0.237322
   55  H 14  S   -0.084829  -0.307969  -0.059344  -0.223960  -0.010014
   56  H 14  S   -0.164614   0.270097  -0.441722  -0.419847  -0.195372

                     56
                    2.5894
                     A   
    1  H  1  S    0.171501
    2  H  1  S    0.076197
    3  H  2  S    0.177803
    4  H  2  S    0.207346
    5  H  3  S    0.171604
    6  H  3  S    0.076584
    7  C  4  S    0.061246
    8  C  4  S    0.560796
    9  C  4  X   -0.159907
   10  C  4  Y    0.074475
   11  C  4  Z   -0.009141
   12  C  4  S   -2.321208
   13  C  4  X   -0.643244
   14  C  4  Y    0.203552
   15  C  4  Z    0.275995
   16  H  5  S    0.177953
   17  H  5  S    0.206563
   18  C  6  S    0.061301
   19  C  6  S    0.561416
   20  C  6  X    0.140222
   21  C  6  Y    0.098131
   22  C  6  Z    0.043580
   23  C  6  S   -2.322885
   24  C  6  X    0.472485
   25  C  6  Y    0.293922
   26  C  6  Z    0.471869
   27  H  7  S    0.177694
   28  H  7  S    0.205571
   29  C  8  S   -0.123859
   30  C  8  S   -2.184892
   31  C  8  X    0.008736
   32  C  8  Y    0.012585
   33  C  8  Z   -0.056189
   34  C  8  S    5.828508
   35  C  8  X   -0.077059
   36  C  8  Y   -0.111229
   37  C  8  Z    0.495410
   38  H  9  S    0.172030
   39  H  9  S    0.076862
   40  H 10  S    0.177781
   41  H 10  S    0.206476
   42  C 11  S    0.061356
   43  C 11  S    0.562734
   44  C 11  X    0.019726
   45  C 11  Y   -0.171390
   46  C 11  Z   -0.036170
   47  C 11  S   -2.324392
   48  C 11  X    0.026450
   49  C 11  Y   -0.707994
   50  C 11  Z    0.175405
   51  H 12  S   -0.486699
   52  H 12  S   -0.441884
   53  H 13  S    0.177790
   54  H 13  S    0.207424
   55  H 14  S    0.177845
   56  H 14  S    0.206389
 ...... END OF RHF CALCULATION ......
 CPU     0: STEP CPU TIME=     0.29 TOTAL CPU TIME=          0.3 (      0.0 MIN)
 TOTAL WALL CLOCK TIME=          0.4 SECONDS, CPU UTILIZATION IS    85.37%

     ----------------------------------------------------------------
     PROPERTY VALUES FOR THE RHF   SELF-CONSISTENT FIELD WAVEFUNCTION
     ----------------------------------------------------------------

          -----------------
          ENERGY COMPONENTS
          -----------------

         WAVEFUNCTION NORMALIZATION =       1.0000000000

                ONE ELECTRON ENERGY =    -474.3245632847
                TWO ELECTRON ENERGY =     184.1039133944
           NUCLEAR REPULSION ENERGY =     133.7871771975
                                      ------------------
                       TOTAL ENERGY =    -156.4334726929

 ELECTRON-ELECTRON POTENTIAL ENERGY =     184.1039133944
  NUCLEUS-ELECTRON POTENTIAL ENERGY =    -630.3186813393
   NUCLEUS-NUCLEUS POTENTIAL ENERGY =     133.7871771975
                                      ------------------
             TOTAL POTENTIAL ENERGY =    -312.4275907474
               TOTAL KINETIC ENERGY =     155.9941180546
                 VIRIAL RATIO (V/T) =       2.0028164821

          ---------------------------------------
          MULLIKEN AND LOWDIN POPULATION ANALYSES
          ---------------------------------------

     ATOMIC MULLIKEN POPULATION IN EACH MOLECULAR ORBITAL

                      1          2          3          4          5

                  2.000000   2.000000   2.000000   2.000000   2.000000

    1             0.000002   0.001796   0.000314   0.000745   0.016775
    2            -0.000002   0.001655   0.000129   0.000959   0.011001
    3             0.000002   0.001279   0.000808   0.000768   0.016786
    4             0.004980   1.149090   0.202949   0.635936   0.320580
    5            -0.000002   0.001261   0.000500   0.000983   0.010987
    6             0.004980   0.816750   0.518875   0.652349   0.320476
    7            -0.000001   0.001389   0.000402   0.000950   0.010946
    8             1.982202   0.003429   0.003431   0.004137   0.892858
    9             0.000002   0.000035   0.001989   0.000833   0.016819
   10            -0.000002   0.000897   0.000872   0.000973   0.010961
   11             0.004976   0.022371   1.266382   0.699218   0.320292
   12             0.002865   0.000000   0.000000   0.000057   0.029613
   13            -0.000002   0.000072   0.001624   0.001047   0.010954
   14            -0.000001  -0.000025   0.001724   0.001043   0.010952

                      6          7          8          9         10

                  2.000000   2.000000   2.000000   2.000000   2.000000

    1             0.019646   0.057406   0.066831   0.051702   0.011798
    2             0.036341   0.057645   0.032713   0.062125   0.084748
    3             0.018781   0.058243   0.066865   0.052045   0.004247
    4             0.257515   0.738956   0.249111   0.288305   0.407068
    5             0.035103   0.058853   0.032729   0.062155   0.141265
    6             0.246175   0.750162   0.249315   0.288378   0.500614
    7             0.013591   0.080466   0.032641   0.063039   0.168116
    8             0.107680   0.107654   0.658274   0.472943   0.255512
    9             0.077048   0.000003   0.066770   0.052432   0.029003
   10             0.012716   0.081346   0.032686   0.062898   0.201306
   11             0.991016   0.005605   0.248993   0.289453   0.169290
   12             0.000000   0.000000   0.197718   0.129026   0.000000
   13             0.091988   0.002008   0.032716   0.062272   0.025628
   14             0.092401   0.001652   0.032638   0.063226   0.001405

                     11         12         13         14         15

                  2.000000   2.000000   2.000000   2.000000   2.000000

    1             0.018494   0.000014   0.407331   0.000005   0.011240
    2             0.123365   0.008046   0.071165   0.153345   0.034605
    3             0.025590   0.303175   0.104144   0.000006   0.005568
    4             0.311177   0.025938   0.723196   0.363504   0.569074
    5             0.066471   0.033353   0.046438   0.153160   0.003262
    6             0.217040   0.545429   0.204467   0.362737   0.259101
    7             0.038436   0.008714   0.072747   0.151666   0.070997
    8             0.255977   0.022831   0.022625   0.000000   0.505984
    9             0.000613   0.307912   0.099540   0.000006   0.005995
   10             0.005651   0.078300   0.003060   0.151311   0.161818
   11             0.548789   0.553241   0.196949   0.361119   0.181213
   12             0.000000   0.000000   0.000000   0.000000   0.019997
   13             0.182585   0.034061   0.045733   0.152446   0.024652
   14             0.205811   0.078986   0.002604   0.150696   0.146494

                     16         17

                  2.000000   2.000000

    1             0.002438   0.141912
    2             0.096676   0.030945
    3             0.004378   0.145772
    4             0.153913   0.142937
    5             0.134841   0.024141
    6             0.423255   0.184075
    7             0.076402   0.014956
    8             0.506038   0.518938
    9             0.001399   0.148000
   10             0.000459   0.000191
   11             0.447799   0.237519
   12             0.006449   0.403047
   13             0.130289   0.007397
   14             0.015664   0.000170

               ----- POPULATIONS IN EACH AO -----
                             MULLIKEN      LOWDIN
              1  H  1  S      0.46619     0.46918
              2  H  1  S      0.34225     0.44711
              3  H  2  S      0.46745     0.47026
              4  H  2  S      0.33802     0.44526
              5  H  3  S      0.46621     0.46918
              6  H  3  S      0.34224     0.44710
              7  C  4  S      1.98828     1.97650
              8  C  4  S      0.35170     0.41663
              9  C  4  X      0.52846     0.50966
             10  C  4  Y      0.53878     0.50844
             11  C  4  Z      0.53721     0.50454
             12  C  4  S      1.11160     0.58393
             13  C  4  X      0.40811     0.55153
             14  C  4  Y      0.53583     0.59504
             15  C  4  Z      0.54426     0.60386
             16  H  5  S      0.46742     0.47023
             17  H  5  S      0.33808     0.44530
             18  C  6  S      1.98828     1.97650
             19  C  6  S      0.35169     0.41664
             20  C  6  X      0.53364     0.50993
             21  C  6  Y      0.53744     0.50885
             22  C  6  Z      0.53333     0.50383
             23  C  6  S      1.11165     0.58396
             24  C  6  X      0.46519     0.57017
             25  C  6  Y      0.51728     0.58848
             26  C  6  Z      0.50569     0.59176
             27  H  7  S      0.46742     0.47021
             28  H  7  S      0.33804     0.44529
             29  C  8  S      1.99016     1.97611
             30  C  8  S      0.33255     0.40559
             31  C  8  X      0.52058     0.50582
             32  C  8  Y      0.52097     0.50600
             33  C  8  Z      0.53728     0.51323
             34  C  8  S      1.13076     0.55483
             35  C  8  X      0.37875     0.52832
             36  C  8  Y      0.38282     0.52942
             37  C  8  Z      0.52663     0.56779
             38  H  9  S      0.46632     0.46927
             39  H  9  S      0.34208     0.44699
             40  H 10  S      0.46747     0.47024
             41  H 10  S      0.33798     0.44525
             42  C 11  S      1.98828     1.97650
             43  C 11  S      0.35169     0.41663
             44  C 11  X      0.54010     0.50787
             45  C 11  Y      0.52584     0.50955
             46  C 11  Z      0.53850     0.50522
             47  C 11  S      1.11174     0.58396
             48  C 11  X      0.55537     0.60201
             49  C 11  Y      0.38006     0.54236
             50  C 11  Z      0.55264     0.60600
             51  H 12  S      0.46841     0.48600
             52  H 12  S      0.32036     0.43467
             53  H 13  S      0.46744     0.47023
             54  H 13  S      0.33803     0.44528
             55  H 14  S      0.46748     0.47024
             56  H 14  S      0.33796     0.44524

          ----- MULLIKEN ATOMIC OVERLAP POPULATIONS -----
          (OFF-DIAGONAL ELEMENTS NEED TO BE MULTIPLIED BY 2)

             1           2           3           4           5

    1    0.5276798
    2   -0.0258226   0.5172920
    3    0.0025261   0.0000067   0.5276419
    4    0.3739918   0.3781513  -0.0012013   5.3666285
    5    0.0000070   0.0018468  -0.0258169  -0.0011021   0.5173398
    6   -0.0012003  -0.0011101   0.3739826  -0.0841689   0.3781287
    7   -0.0258310  -0.0249510  -0.0000460   0.3781376  -0.0000350
    8   -0.0472667  -0.0417045  -0.0473088   0.2569068  -0.0416851
    9    0.0025536  -0.0000468   0.0025581  -0.0012129  -0.0000459
   10   -0.0000462  -0.0000345  -0.0257589   0.0034376  -0.0249626
   11   -0.0012505   0.0034400  -0.0012422  -0.0840026   0.0034383
   12    0.0031465  -0.0015129   0.0031536  -0.0436827  -0.0015217
   13    0.0000067  -0.0000348  -0.0000456  -0.0010901  -0.0000561
   14   -0.0000448  -0.0000561   0.0000069   0.0034339  -0.0000354

             6           7           8           9          10

    6    5.3667298
    7    0.0034346   0.5171708
    8    0.2568642  -0.0415584   5.5456830
    9   -0.0012449   0.0000058  -0.0474405   0.5276089
   10    0.3781686  -0.0000559  -0.0416151   0.0000065   0.5171201
   11   -0.0839605  -0.0010563   0.2568305   0.3739840  -0.0010657
   12   -0.0438107  -0.0015433   0.3960823   0.0031591  -0.0015337
   13    0.0034370   0.0018222  -0.0416510  -0.0257853  -0.0000355
   14   -0.0010697  -0.0000358  -0.0416254  -0.0256984   0.0018187

            11          12          13          14

   11    5.3665548
   12   -0.0437728   0.5236557
   13    0.3781562  -0.0015196   0.5172418
   14    0.3781731  -0.0015273  -0.0249754   0.5170768

          TOTAL MULLIKEN AND LOWDIN ATOMIC POPULATIONS
       ATOM         MULL.POP.    CHARGE          LOW.POP.     CHARGE
    1 H             0.808449    0.191551         0.916286    0.083714
    2 H             0.805463    0.194537         0.915518    0.084482
    3 H             0.808456    0.191544         0.916286    0.083714
    4 C             6.544227   -0.544227         6.250129   -0.250129
    5 H             0.805500    0.194500         0.915529    0.084471
    6 C             6.544180   -0.544180         6.250120   -0.250120
    7 H             0.805458    0.194542         0.915502    0.084498
    8 C             6.320511   -0.320511         6.087113   -0.087113
    9 H             0.808401    0.191599         0.916267    0.083733
   10 H             0.805443    0.194557         0.915493    0.084507
   11 C             6.544226   -0.544226         6.250110   -0.250110
   12 H             0.788772    0.211228         0.920671    0.079329
   13 H             0.805471    0.194529         0.915503    0.084497
   14 H             0.805441    0.194559         0.915474    0.084526

          -------------------------------
          BOND ORDER AND VALENCE ANALYSIS     BOND ORDER THRESHOLD=0.050
          -------------------------------

                   BOND                       BOND                       BOND
  ATOM PAIR DIST  ORDER      ATOM PAIR DIST  ORDER      ATOM PAIR DIST  ORDER
    1   4  1.098  0.928        2   4  1.097  0.933        3   6  1.098  0.928
    4   7  1.097  0.933        4   8  1.545  0.910        5   6  1.097  0.933
    6   8  1.545  0.909        6  10  1.097  0.933        8  11  1.545  0.909
    8  12  1.099  0.918        9  11  1.097  0.928       11  13  1.097  0.933
   11  14  1.096  0.933

                       TOTAL       BONDED        FREE
      ATOM            VALENCE     VALENCE     VALENCE
    1 H                 0.921       0.921       0.000
    2 H                 0.921       0.921       0.000
    3 H                 0.921       0.921       0.000
    4 C                 3.655       3.655       0.000
    5 H                 0.921       0.921       0.000
    6 C                 3.655       3.655       0.000
    7 H                 0.921       0.921       0.000
    8 C                 3.576       3.576      -0.000
    9 H                 0.921       0.921       0.000
   10 H                 0.921       0.921       0.000
   11 C                 3.655       3.655       0.000
   12 H                 0.905       0.905       0.000
   13 H                 0.921       0.921       0.000
   14 H                 0.921       0.921       0.000

          ---------------------
          ELECTROSTATIC MOMENTS
          ---------------------

 POINT   1           X           Y           Z (BOHR)    CHARGE
                -2.359608   -0.607940   -0.023788        0.00 (A.U.)
         DX          DY          DZ         /D/  (DEBYE)
     0.009124    0.014134   -0.060165    0.062473
 ...... END OF PROPERTY EVALUATION ......
 CPU     0: STEP CPU TIME=     0.02 TOTAL CPU TIME=          0.4 (      0.0 MIN)
 TOTAL WALL CLOCK TIME=          0.4 SECONDS, CPU UTILIZATION IS    84.09%
               580000  WORDS OF DYNAMIC MEMORY USED
 EXECUTION OF GAMESS TERMINATED NORMALLY Sun May 17 17:53:37 2020
 DDI: 263640 bytes (0.3 MB / 0 MWords) used by master data server.
Note: The following floating-point exceptions are signalling: IEEE_DENORMALNote: The following floating-point exceptions are signalling: IEEE_DENORMALNote: The following floating-point exceptions are signalling: IEEE_DENORMALNote: The following floating-point exceptions are signalling:
Note: The following floating-point exceptions are signalling: IEEE_DENORMAL
 ----------------------------------------
 CPU timing information for all processes
 ========================================
 0: 0.271 + 0.103 = 0.375
 1: 0.240 + 0.08 = 0.249
 2: 0.231 + 0.00 = 0.231
 3: 0.263 + 0.11 = 0.275
 4: 0.223 + 0.04 = 0.228
 5: 0.190 + 0.04 = 0.194
 ----------------------------------------


 IEEE_DENORMAL

Note: The following floating-point exceptions are signalling: IEEE_DENORMAL
 ddikick.x: exited gracefully.
unset echo
----- accounting info -----
Files used on the master node pietdev were:
-rwxr-xr-x 1 piet piet      902 mei 17 17:53 /home/piet/scr/valine_fukui_neu.F05*
-rw-r--r-- 1 piet piet 49152000 mei 17 17:53 /home/piet/scr/valine_fukui_neu.F10
ls: No match.
ls: No match.
ls: No match.
zo 17 mei 2020 17:53:40 CEST
0.104u 0.020s 0:03.58 3.3%	0+0k 0+8io 0pf+0w
