----- GAMESS execution script 'rungms' -----
This job is running on host pietdev
under operating system Linux at zo 17 mei 2020 17:53:36 CEST
Available scratch disk space (Kbyte units) at beginning of the job is
Filesystem     1K-blocks     Used Available Use% Mounted on
/dev/sda2      244568380 30400440 201674884  14% /
GAMESS temporary binary files will be written to /home/piet/scr
GAMESS supplementary output files will be written to /home/piet/gamess/scr
Copying input file valine_fukui_acid.inp to your run's scratch directory...
cp valine_fukui_acid.inp /home/piet/scr/valine_fukui_acid.F05
unset echo
 
Assuming a single but multicore node.
 
/home/piet/gamess/ddikick.x /home/piet/gamess/gamess.03.x valine_fukui_acid -ddi 1 6 pietdev:cpus=6 -scr /home/piet/scr

 Distributed Data Interface kickoff program.
 Initiating 6 compute processes on 1 nodes to run the following command:
 /home/piet/gamess/gamess.03.x valine_fukui_acid 

          ******************************************************
          *         GAMESS VERSION = 30 SEP 2019 (R2)          *
          *             FROM IOWA STATE UNIVERSITY             *
          * M.W.SCHMIDT, K.K.BALDRIDGE, J.A.BOATZ, S.T.ELBERT, *
          *   M.S.GORDON, J.H.JENSEN, S.KOSEKI, N.MATSUNAGA,   *
          *          K.A.NGUYEN, S.J.SU, T.L.WINDUS,           *
          *       TOGETHER WITH M.DUPUIS, J.A.MONTGOMERY       *
          *         J.COMPUT.CHEM.  14, 1347-1363(1993)        *
          **************** 64 BIT LINUX VERSION ****************

  SINCE 1993, STUDENTS AND POSTDOCS WORKING AT IOWA STATE UNIVERSITY
  AND ALSO IN THEIR VARIOUS JOBS AFTER LEAVING ISU HAVE MADE IMPORTANT
  CONTRIBUTIONS TO THE CODE:
     IVANA ADAMOVIC, CHRISTINE AIKENS, YURI ALEXEEV, POOJA ARORA,
     ANDREY ASADCHEV, ROB BELL, PRADIPTA BANDYOPADHYAY, JONATHAN BENTZ,
     COLLEEN BERTONI, BRETT BODE, KURT BRORSEN, CALEB CARLIN, GALINA CHABAN,
     WEI CHEN, CHEOL HO CHOI, PAUL DAY, ALBERT DEFUSCO, NUWAN DESILVA,
     TIM DUDLEY, DMITRI FEDOROV, ALEX FINDLATER, GRAHAM FLETCHER, 
     MARK FREITAG, KURT GLAESEMANN, EMILIE B GUIDEZ, ANASTASIA GUNINA, 
     DAN KEMP, SAROM SOK LEANG, GRANT MERRILL,
     NORIYUKI MINEZAWA, JONATHAN MULLIN,
     TAKESHI NAGATA, SEAN NEDD, HEATHER NETZLOFF, BOSILJKA NJEGIC, RYAN OLSON,
     MIKE PAK, BUU PHAM, DAVID POOLE,
     SPENCER PRUITT, LUKE ROSKOP, TOSAPORN SATTASATHUCHANA,
     JIM SHOEMAKER, LYUDMILA SLIPCHENKO,
     TONY SMITH, JIE SONG, TETSUYA TAKETSUGU, SIMON WEBB,
     JORGE LUIS GALVEZ VALLEJO, PENG XU, SOOHAENG YOO,
     FEDERICO ZAHARIEV

  ADDITIONAL CODE HAS BEEN PROVIDED BY COLLABORATORS IN OTHER GROUPS:
     IOWA STATE UNIVERSITY:
          JOE IVANIC, AARON WEST, LAIMUTIS BYTAUTAS, KLAUS RUEDENBERG
     UNIVERSITY OF TOKYO: KIMIHIKO HIRAO, TAKAHITO NAKAJIMA,
          TAKAO TSUNEDA, MUNEAKI KAMIYA, SUSUMU YANAGISAWA,
          KIYOSHI YAGI, MAHITO CHIBA, SEIKEN TOKURA, NAOAKI KAWAKAMI
     UNIVERSITY OF AARHUS: FRANK JENSEN
     UNIVERSITY OF IOWA: VISVALDAS KAIRYS, HUI LI
     NATIONAL INST. OF STANDARDS AND TECHNOLOGY: WALT STEVENS, DAVID GARMER
     UNIVERSITY OF PISA: BENEDETTA MENNUCCI, JACOPO TOMASI
     UNIVERSITY OF MEMPHIS: HENRY KURTZ, PRAKASHAN KORAMBATH
     UNIVERSITY OF ALBERTA: TOBY ZENG, MARIUSZ KLOBUKOWSKI
     UNIVERSITY OF NEW ENGLAND: MARK SPACKMAN
     MIE UNIVERSITY: HIROAKI UMEDA
     NAT. INST. OF ADVANCED INDUSTRIAL SCIENCE AND TECHNOLOGY: KAZUO KITAURA
     MICHIGAN STATE UNIVERSITY:
          KAROL KOWALSKI, MARTA WLOCH, JEFFREY GOUR, JESSE LUTZ,
          WEI LI, JUN SHEN, J. EMILIANO DEUSTUA, PIOTR PIECUCH
     UNIVERSITY OF MINNESOTA:
          ANDREW SAND, PRACHI SHARMA, YINAN SHU
     UNIVERSITY OF SILESIA: MONIKA MUSIAL, STANISLAW KUCHARSKI
     FACULTES UNIVERSITAIRES NOTRE-DAME DE LA PAIX:
          OLIVIER QUINET, BENOIT CHAMPAGNE
     UNIVERSITY OF CALIFORNIA - SANTA BARBARA: BERNARD KIRTMAN
     INSTITUTE FOR MOLECULAR SCIENCE:
          KAZUYA ISHIMURA, MICHIO KATOUDA, AND SHIGERU NAGASE
     UNIVERSITY OF NOTRE DAME: ANNA POMOGAEVA, DAN CHIPMAN
     KYUSHU UNIVERSITY:
          HARUYUKI NAKANO,
          FENG LONG GU, JACEK KORCHOWIEC, MARCIN MAKOWSKI, AND YURIKO AOKI,
          HIROTOSHI MORI AND EISAKU MIYOSHI
     PENNSYLVANIA STATE UNIVERSITY:
          TZVETELIN IORDANOV, CHET SWALINA, JONATHAN SKONE,
          SHARON HAMMES-SCHIFFER
     WASEDA UNIVERSITY:
          MASATO KOBAYASHI, TOMOKO AKAMA, TSUGUKI TOUMA,
          TAKESHI YOSHIKAWA, YASUHIRO IKABATA, JUNJI SEINO,
          YUYA NAKAJIMA, HIROMI NAKAI
     NANJING UNIVERSITY: SHUHUA LI
     UNIVERSITY OF NEBRASKA:
          PEIFENG SU, DEJUN SI, NANDUN THELLAMUREGE, YALI WANG, HUI LI
     UNIVERSITY OF ZURICH: ROBERTO PEVERATI, KIM BALDRIDGE
     N. COPERNICUS UNIVERSITY AND JACKSON STATE UNIVERSITY:
          MARIA BARYSZ
     UNIVERSITY OF COPENHAGEN: Jimmy Kromann, CASPER STEINMANN
     TOKYO INSTITUTE OF TECHNOLOGY: HIROYA NAKATA
     NAGOYA UNIVERSITY: YOSHIO NISHIMOTO, STEPHAN IRLE
     MOSCOW STATE UNIVERSITY: VLADIMIR MIRONOV
     A.N.NESMEYANOV INSTITUTE OF ORGANOELEMENT COMPOUNDS OF RUSSIAN ACADEMY OF SCIENCES:
          IGOR S. GERASIMOV
     JOHANNES KEPLER UNIVERSITY LINZ:
          CHRISTIAN FRIEDL


 PARALLEL VERSION RUNNING ON        6 PROCESSORS IN        1 NODES.

 EXECUTION OF GAMESS BEGUN Sun May 17 17:53:36 2020

            ECHO OF THE FIRST FEW INPUT CARDS -
 INPUT CARD> $BASIS GBASIS=N21 NGAUSS=3 $END                                                
 INPUT CARD> $CONTRL SCFTYP=UHF MAXIT=60 MULT=2 ICHARG=-1 $END                              
 INPUT CARD> $SYSTEM MEMDDI=1000 MWORDS=30 $END                                             
 INPUT CARD> $SCF DIRSCF=.TRUE. $END                                                        
 INPUT CARD> $STATPT OPTTOL=0.0001 NSTEP=999 $END                                           
 INPUT CARD> $DATA                                                                          
 INPUT CARD>                                                                                
 INPUT CARD>C1                                                                              
 INPUT CARD>H 1.0000000 -2.7886199311 0.0390124814 1.0771501014                             
 INPUT CARD>H 1.0000000 -2.6705181812 1.3539159358 -0.1139253780                            
 INPUT CARD>H 1.0000000 -0.2445111684 0.2437676115 1.5236704926                             
 INPUT CARD>C 6.0000000 -2.5938947276 0.2684320041 0.0215550706                             
 INPUT CARD>H 1.0000000 -0.1498151129 1.5544695629 0.3257484526                             
 INPUT CARD>C 6.0000000 -0.1016528882 0.4669525950 0.4585244991                             
 INPUT CARD>H 1.0000000 -3.3725012147 -0.2114753602 -0.5834557566                           
 INPUT CARD>C 6.0000000 -1.1908954251 -0.2391148761 -0.3795998474                           
 INPUT CARD>H 1.0000000 -1.2619095470 -2.0365379430 0.8496103776                            
 INPUT CARD>H 1.0000000 0.8990643288 0.1268054168 0.1665596713                              
 INPUT CARD>C 6.0000000 -1.0998554613 -1.7716233694 -0.2029347830                           
 INPUT CARD>H 1.0000000 -1.0234396878 -0.0004529780 -1.4393864615                           
 INPUT CARD>H 1.0000000 -1.8601869319 -2.2808628085 -0.8071475201                           
 INPUT CARD>H 1.0000000 -0.1129540514 -2.1423982722 -0.5043389184                           
 INPUT CARD> $END                                                                           
   30000000 WORDS OF MEMORY AVAILABLE

     BASIS OPTIONS
     -------------
     GBASIS=N21          IGAUSS=       3      POLAR=NONE    
     NDFUNC=       0     NFFUNC=       0     DIFFSP=       F
     NPFUNC=       0      DIFFS=       F     BASNAM=        


     RUN TITLE
     ---------
                                                                                 

 THE POINT GROUP OF THE MOLECULE IS C1      
 THE ORDER OF THE PRINCIPAL AXIS IS     0

 ATOM      ATOMIC                      COORDINATES (BOHR)
           CHARGE         X                   Y                   Z
 H           1.0    -5.2697275537        0.0737228999        2.0355185393
 H           1.0    -5.0465476077        2.5585301291       -0.2152877475
 H           1.0    -0.4620591092        0.4606539904        2.8793197266
 C           6.0    -4.9017502762        0.5072629341        0.0407331771
 H           1.0    -0.2831095122        2.9375215301        0.6155753163
 C           6.0    -0.1920961046        0.8824124538        0.8664856620
 H           1.0    -6.3731031890       -0.3996304839       -1.1025715059
 C           6.0    -2.2504660335       -0.4518615954       -0.7173396966
 H           1.0    -2.3846632651       -3.8484986759        1.6055308100
 H           1.0     1.6989852268        0.2396274915        0.3147521394
 C           6.0    -2.0784254480       -3.3478827216       -0.3834911332
 H           1.0    -1.9340205749       -0.0008560043       -2.7200460027
 H           1.0    -3.5152435872       -4.3102057237       -1.5252876447
 H           1.0    -0.2134522063       -4.0485456910       -0.9530623607

          INTERNUCLEAR DISTANCES (ANGS.)
          ------------------------------

                1 H          2 H          3 H          4 C          5 H     

   1 H       0.0000000    1.7780832 *  2.5910991 *  1.0976484 *  3.1344067  
   2 H       1.7780832 *  0.0000000    3.1304408    1.0965863 *  2.5666084 *
   3 H       2.5910991 *  3.1304408    0.0000000    2.7886488 *  1.7781800 *
   4 C       1.0976484 *  1.0965863 *  2.7886488 *  0.0000000    2.7784800 *
   5 H       3.1344067    2.5666084 *  1.7781800 *  2.7784800 *  0.0000000  
   6 C       2.7902728 *  2.7773138 *  1.0976138 *  2.5380351 *  1.0966505 *
   7 H       1.7779970 *  1.7786762 *  3.7988879    1.0966208 *  3.7856201  
   8 C       2.1799539 *  2.1903455 *  2.1797377 *  1.5449712 *  2.1905044 *
   9 H       2.5866056 *  3.7957551    2.5863584 *  2.7879646 *  3.7955922  
  10 H       3.7994602    3.7850220    1.7785373 *  3.4988351    1.7786832 *
  11 C       2.7872827 *  3.4991285    2.7882935 *  2.5385773 *  3.4992823  
  12 H       3.0741462    2.5107827 *  3.0734476    2.1617073 *  2.5093237 *
  13 H       3.1295985    3.7879823    3.7969566    2.7792048 *  4.3495516  
  14 H       3.7972159    4.3494563    3.1343129    3.4991047    3.7890943  

                6 C          7 H          8 C          9 H         10 H     

   1 H       2.7902728 *  1.7779970 *  2.1799539 *  2.5866056 *  3.7994602  
   2 H       2.7773138 *  1.7786762 *  2.1903455 *  3.7957551    3.7850220  
   3 H       1.0976138 *  3.7988879    2.1797377 *  2.5863584 *  1.7785373 *
   4 C       2.5380351 *  1.0966208 *  1.5449712 *  2.7879646 *  3.4988351  
   5 H       1.0966505 *  3.7856201    2.1905044 *  3.7955922    1.7786832 *
   6 C       0.0000000    3.4992051    1.5451320 *  2.7868636 *  1.0965302 *
   7 H       3.4992051    0.0000000    2.1912839 *  3.1367386    4.3500838  
   8 C       1.5451320 *  2.1912839 *  0.0000000    2.1786993 *  2.1909175 *
   9 H       2.7868636 *  3.1367386    2.1786993 *  0.0000000    3.1331168  
  10 H       1.0965302 *  4.3500838    2.1909175 *  3.1331168    0.0000000  
  11 C       2.5387318 *  2.7827642 *  1.5453417 *  1.0974026 *  2.7814094 *
  12 H       2.1610703 *  2.5090313 *  1.0991581 *  3.0727864    2.5082423 *
  13 H       3.4992652    2.5728383 *  2.1907722 *  1.7783355 *  3.7892532  
  14 H       2.7813568 *  3.7893760    2.1908914 *  1.7788996 *  2.5736300 *

               11 C         12 H         13 H         14 H     

   1 H       2.7872827 *  3.0741462    3.1295985    3.7972159  
   2 H       3.4991285    2.5107827 *  3.7879823    4.3494563  
   3 H       2.7882935 *  3.0734476    3.7969566    3.1343129  
   4 C       2.5385773 *  2.1617073 *  2.7792048 *  3.4991047  
   5 H       3.4992823    2.5093237 *  4.3495516    3.7890943  
   6 C       2.5387318 *  2.1610703 *  3.4992652    2.7813568 *
   7 H       2.7827642 *  2.5090313 *  2.5728383 *  3.7893760  
   8 C       1.5453417 *  1.0991581 *  2.1907722 *  2.1908914 *
   9 H       1.0974026 *  3.0727864    1.7783355 *  1.7788996 *
  10 H       2.7814094 *  2.5082423 *  3.7892532    2.5736300 *
  11 C       0.0000000    2.1614108 *  1.0965864 *  1.0964912 *
  12 H       2.1614108 *  0.0000000    2.5100082 *  2.5082320 *
  13 H       1.0965864 *  2.5100082 *  0.0000000    1.7786760 *
  14 H       1.0964912 *  2.5082320 *  1.7786760 *  0.0000000  

  * ... LESS THAN  3.000


     ATOMIC BASIS SET
     ----------------
 THE CONTRACTED PRIMITIVE FUNCTIONS HAVE BEEN UNNORMALIZED
 THE CONTRACTED BASIS FUNCTIONS ARE NOW NORMALIZED TO UNITY

  SHELL TYPE  PRIMITIVE        EXPONENT          CONTRACTION COEFFICIENT(S)

 H         

      1   S       1             5.4471780    0.156284978695
      1   S       2             0.8245472    0.904690876670

      2   S       3             0.1831916    1.000000000000

 H         

      3   S       4             5.4471780    0.156284978695
      3   S       5             0.8245472    0.904690876670

      4   S       6             0.1831916    1.000000000000

 H         

      5   S       7             5.4471780    0.156284978695
      5   S       8             0.8245472    0.904690876670

      6   S       9             0.1831916    1.000000000000

 C         

      7   S      10           172.2560000    0.061766907377
      7   S      11            25.9109000    0.358794042852
      7   S      12             5.5333500    0.700713083689

      8   L      13             3.6649800   -0.395895162119    0.236459946619
      8   L      14             0.7705450    1.215834355681    0.860618805716

      9   L      15             0.1958570    1.000000000000    1.000000000000

 H         

     10   S      16             5.4471780    0.156284978695
     10   S      17             0.8245472    0.904690876670

     11   S      18             0.1831916    1.000000000000

 C         

     12   S      19           172.2560000    0.061766907377
     12   S      20            25.9109000    0.358794042852
     12   S      21             5.5333500    0.700713083689

     13   L      22             3.6649800   -0.395895162119    0.236459946619
     13   L      23             0.7705450    1.215834355681    0.860618805716

     14   L      24             0.1958570    1.000000000000    1.000000000000

 H         

     15   S      25             5.4471780    0.156284978695
     15   S      26             0.8245472    0.904690876670

     16   S      27             0.1831916    1.000000000000

 C         

     17   S      28           172.2560000    0.061766907377
     17   S      29            25.9109000    0.358794042852
     17   S      30             5.5333500    0.700713083689

     18   L      31             3.6649800   -0.395895162119    0.236459946619
     18   L      32             0.7705450    1.215834355681    0.860618805716

     19   L      33             0.1958570    1.000000000000    1.000000000000

 H         

     20   S      34             5.4471780    0.156284978695
     20   S      35             0.8245472    0.904690876670

     21   S      36             0.1831916    1.000000000000

 H         

     22   S      37             5.4471780    0.156284978695
     22   S      38             0.8245472    0.904690876670

     23   S      39             0.1831916    1.000000000000

 C         

     24   S      40           172.2560000    0.061766907377
     24   S      41            25.9109000    0.358794042852
     24   S      42             5.5333500    0.700713083689

     25   L      43             3.6649800   -0.395895162119    0.236459946619
     25   L      44             0.7705450    1.215834355681    0.860618805716

     26   L      45             0.1958570    1.000000000000    1.000000000000

 H         

     27   S      46             5.4471780    0.156284978695
     27   S      47             0.8245472    0.904690876670

     28   S      48             0.1831916    1.000000000000

 H         

     29   S      49             5.4471780    0.156284978695
     29   S      50             0.8245472    0.904690876670

     30   S      51             0.1831916    1.000000000000

 H         

     31   S      52             5.4471780    0.156284978695
     31   S      53             0.8245472    0.904690876670

     32   S      54             0.1831916    1.000000000000

 TOTAL NUMBER OF BASIS SET SHELLS             =   32
 NUMBER OF CARTESIAN GAUSSIAN BASIS FUNCTIONS =   56
 NUMBER OF ELECTRONS                          =   35
 CHARGE OF MOLECULE                           =   -1
 SPIN MULTIPLICITY                            =    2
 NUMBER OF OCCUPIED ORBITALS (ALPHA)          =   18
 NUMBER OF OCCUPIED ORBITALS (BETA )          =   17
 TOTAL NUMBER OF ATOMS                        =   14
 THE NUCLEAR REPULSION ENERGY IS      133.7871771975

     $CONTRL OPTIONS
     ---------------
 SCFTYP=UHF          RUNTYP=ENERGY       EXETYP=RUN     
 MPLEVL=       0     CITYP =NONE         CCTYP =NONE         VBTYP =NONE    
 DFTTYP=NONE         TDDFT =NONE    
 MULT  =       2     ICHARG=      -1     NZVAR =       0     COORD =UNIQUE  
 PP    =NONE         RELWFN=NONE         LOCAL =NONE         NUMGRD=       F
 ISPHER=      -1     NOSYM =       0     MAXIT =      60     UNITS =ANGS    
 PLTORB=       F     MOLPLT=       F     AIMPAC=       F     FRIEND=        
 NPRINT=       7     IREST =       0     GEOM  =INPUT   
 NORMF =       0     NORMP =       0     ITOL  =      20     ICUT  =       9
 INTTYP=BEST         GRDTYP=BEST         QMTTOL= 1.0E-06

     $SYSTEM OPTIONS
     ---------------
  REPLICATED MEMORY=    30000000 WORDS (ON EVERY NODE).
 DISTRIBUTED MEMDDI=        1000 MILLION WORDS IN AGGREGATE,
 MEMDDI DISTRIBUTED OVER   6 PROCESSORS IS   166666666 WORDS/PROCESSOR.
 TOTAL MEMORY REQUESTED ON EACH PROCESSOR=   196666666 WORDS.
 TIMLIM=      525600.00 MINUTES, OR     365.0 DAYS.
 PARALL= T  BALTYP=  DLB     KDIAG=    0  COREFL= F
 MXSEQ2=     300 MXSEQ3=     150  mem10=         0

          ----------------
          PROPERTIES INPUT
          ----------------

     MOMENTS            FIELD           POTENTIAL          DENSITY
 IEMOM =       1   IEFLD =       0   IEPOT =       0   IEDEN =       0
 WHERE =COMASS     WHERE =NUCLEI     WHERE =NUCLEI     WHERE =NUCLEI  
 OUTPUT=BOTH       OUTPUT=BOTH       OUTPUT=BOTH       OUTPUT=BOTH    
 IEMINT=       0   IEFINT=       0                     IEDINT=       0
                                                       MORB  =       0
          EXTRAPOLATION IN EFFECT
          SOSCF IN EFFECT
          DIIS or SOSCF will be reset if energy rises
 ORBITAL PRINTING OPTION: NPREO=     1    56     2     1

     -------------------------------
     INTEGRAL TRANSFORMATION OPTIONS
     -------------------------------
     NWORD  =            0
     CUTOFF = 1.0E-09     MPTRAN =       0
     DIRTRF =       T     AOINTS =DUP     

          ----------------------
          INTEGRAL INPUT OPTIONS
          ----------------------
 NOPK  =       1 NORDER=       0 SCHWRZ=       T

     ------------------------------------------
     THE POINT GROUP IS C1 , NAXIS= 0, ORDER= 1
     ------------------------------------------

     DIMENSIONS OF THE SYMMETRY SUBSPACES ARE
 A   =   56

 ..... DONE SETTING UP THE RUN .....
 CPU     0: STEP CPU TIME=     0.03 TOTAL CPU TIME=          0.0 (      0.0 MIN)
 TOTAL WALL CLOCK TIME=          0.0 SECONDS, CPU UTILIZATION IS    75.00%

          ********************
          1 ELECTRON INTEGRALS
          ********************
 ...... END OF ONE-ELECTRON INTEGRALS ......
 CPU     0: STEP CPU TIME=     0.01 TOTAL CPU TIME=          0.0 (      0.0 MIN)
 TOTAL WALL CLOCK TIME=          0.0 SECONDS, CPU UTILIZATION IS   100.00%

          -------------
          GUESS OPTIONS
          -------------
          GUESS =HUCKEL            NORB  =       0          NORDER=       0
          MIX   =       F          PRTMO =       F          PUNMO =       F
          TOLZ  = 1.0E-08          TOLE  = 1.0E-05
          SYMDEN=       F          PURIFY=       F

 INITIAL GUESS ORBITALS GENERATED BY HUCKEL   ROUTINE.
 HUCKEL GUESS REQUIRES     36338 WORDS.

 SYMMETRIES FOR INITIAL GUESS ORBITALS FOLLOW.  ALPHA SET(S).
    18 ORBITALS ARE OCCUPIED (    4 CORE ORBITALS).
     5=A        6=A        7=A        8=A        9=A       10=A       11=A   
    12=A       13=A       14=A       15=A       16=A       17=A       18=A   
    19=A       20=A       21=A       22=A       23=A       24=A       25=A   
    26=A       27=A       28=A   

 SYMMETRIES FOR INITIAL GUESS ORBITALS FOLLOW.   BETA SET(S).
    17 ORBITALS ARE OCCUPIED (    4 CORE ORBITALS).
     5=A        6=A        7=A        8=A        9=A       10=A       11=A   
    12=A       13=A       14=A       15=A       16=A       17=A       18=A   
    19=A       20=A       21=A       22=A       23=A       24=A       25=A   
    26=A       27=A   
 ...... END OF INITIAL ORBITAL SELECTION ......
 CPU     0: STEP CPU TIME=     0.02 TOTAL CPU TIME=          0.1 (      0.0 MIN)
 TOTAL WALL CLOCK TIME=          0.1 SECONDS, CPU UTILIZATION IS    85.71%

                    ----------------------
                    AO INTEGRAL TECHNOLOGY
                    ----------------------
     S,P,L SHELL ROTATED AXIS INTEGRALS, REPROGRAMMED BY
        KAZUYA ISHIMURA (IMS) AND JOSE SIERRA (SYNSTAR).
     S,P,D,L SHELL ROTATED AXIS INTEGRALS PROGRAMMED BY
        KAZUYA ISHIMURA (INSTITUTE FOR MOLECULAR SCIENCE).
     S,P,D,F,G SHELL TO TOTAL QUARTET ANGULAR MOMENTUM SUM 5,
        ERIC PROGRAM BY GRAHAM FLETCHER (ELORET AND NASA ADVANCED
        SUPERCOMPUTING DIVISION, AMES RESEARCH CENTER).
     S,P,D,F,G,L SHELL GENERAL RYS QUADRATURE PROGRAMMED BY
        MICHEL DUPUIS (PACIFIC NORTHWEST NATIONAL LABORATORY).

          --------------------
          2 ELECTRON INTEGRALS
          --------------------

 DIRECT SCF METHOD SKIPS INTEGRAL STORAGE ON DISK.
 DIRECT TRANSFORMATION SKIPS AO INTEGRAL STORAGE ON DISK.
  ...... END OF TWO-ELECTRON INTEGRALS .....
 CPU     0: STEP CPU TIME=     0.02 TOTAL CPU TIME=          0.1 (      0.0 MIN)
 TOTAL WALL CLOCK TIME=          0.1 SECONDS, CPU UTILIZATION IS   100.00%

          ---------------------------
                  UHF SCF CALCULATION
          ---------------------------

     NUCLEAR ENERGY =       133.7871771975
     MAXIT = 60     NPUNCH=  2     MULT=  2
     EXTRAP=T  DAMP=F  SHIFT=F  RSTRCT=F  DIIS=F  SOSCF=T
     DENSITY MATRIX CONV=  2.00E-05
     SOSCF WILL OPTIMIZE     684 ALPHA AND     663 BETA ROTATION ANGLES.
     SOGTOL= 2.500E-01
     MEMORY REQUIRED FOR UHF/ROHF ITERS=     87097 WORDS.

 DIRECT SCF CALCULATION, SCHWRZ=T   FDIFF=T
 SCHWARZ INEQUALITY OVERHEAD:      1593 INTEGRALS, T=        0.00

                                                                                NONZERO     BLOCKS
 ITER EX      TOTAL ENERGY        E CHANGE  DENSITY CHANGE    ORB. GRAD       INTEGRALS    SKIPPED
   1  0     -155.6194176498  -155.6194176498   0.753825929   0.000000000        1194696      20004
          ---------------START SECOND ORDER SCF---------------
   2  1     -156.0584851561    -0.4390675063   0.338967112   0.036355525        1192279      21338
   3  2     -156.0960277354    -0.0375425793   0.571709332   0.029032012        1186262      23683
   4  3     -156.1138654352    -0.0178376997   0.178984589   0.020340827        1188480      23004
   5  4     -156.1194981063    -0.0056326711   0.266302111   0.008277053        1178058      25720
   6  5     -156.1234506114    -0.0039525051   0.466938078   0.010566027        1182033      24559
 SOSCF IS SCALING ROTATION ANGLE MATRIX, SQCDF=    0.108044
   7  6     -156.1300819243    -0.0066313129   1.700107647   0.022076401        1185111      23341
   8  7     -155.7464190794     0.3836628449   1.716039214   0.129876084        1193371      19896
   9  8     -156.1212043843    -0.3747853049   1.320871235   0.080566772        1193221      19915
  10  9     -156.0931093138     0.0280950706   1.073852831   0.063475531        1190098      21334
  11 10     -156.1356782336    -0.0425689198   0.146879055   0.030823503        1189276      21731
  12 11     -156.1329766362     0.0027015974   0.195538269   0.024714086        1179481      25326
  13 12     -156.1376339371    -0.0046573009   0.108782099   0.034601807        1182612      24363
  14 13     -156.1401141698    -0.0024802327   0.792202581   0.038839180        1177194      25910
  15 14     -156.1524175971    -0.0123034273   0.209948519   0.048632729        1188110      22297
  16 15     -156.1624940960    -0.0100764989   0.922133149   0.040346320        1181816      24629
  17 16     -156.1837005532    -0.0212064572   0.406070409   0.015708643        1186960      22640
  18 17     -156.1862839651    -0.0025834120   0.151678878   0.009428865        1185208      23314
  19 18     -156.1881343831    -0.0018504179   0.074812882   0.003208423        1180260      25001
  20 19     -156.1885635992    -0.0004292162   0.100821973   0.003371755        1170575      27318
  21 20     -156.1888007337    -0.0002371344   0.057987714   0.001939070        1170074      27379
  22 21     -156.1888704114    -0.0000696777   0.013049138   0.001114730        1164096      28393
  23 22     -156.1888880576    -0.0000176463   0.009193589   0.000384107        1151349      30489
  24 23     -156.1888955244    -0.0000074667   0.005029856   0.000297546        1145684      31494
  25 24     -156.1888979542    -0.0000024298   0.003729140   0.000155389        1133816      33141
  26 25     -156.1888989544    -0.0000010002   0.002054586   0.000105813        1127922      34205
  27 26     -156.1888993184    -0.0000003640   0.001217982   0.000060345        1119183      35878
  28 27     -156.1888994401    -0.0000001217   0.000559126   0.000025974        1108333      37677
  29 28     -156.1888994696    -0.0000000295   0.000470361   0.000015690        1090638      40664
  30 29     -156.1888994772    -0.0000000076   0.000246115   0.000011317        1075068      43067
  31 30     -156.1888994801    -0.0000000028   0.000164811   0.000003574        1061190      44797
  32 31     -156.1888994813    -0.0000000013   0.000053614   0.000002915        1052763      46149
  33 32     -156.1888994815    -0.0000000002   0.000018583   0.000002296        1033907      49377
  34 33     -156.1888994813     0.0000000002   0.000011020   0.000000752        1007590      53890

          -----------------
          DENSITY CONVERGED
          -----------------
     TIME TO FORM FOCK OPERATORS=       0.9 SECONDS (       0.0 SEC/ITER)
     FOCK TIME ON FIRST ITERATION=       0.0, LAST ITERATION=       0.0
     TIME TO SOLVE SCF EQUATIONS=       0.1 SECONDS (       0.0 SEC/ITER)

 FINAL UHF ENERGY IS     -156.1888994813 AFTER  34 ITERATIONS

          --------------------
          SPIN SZ   =    0.500
          S-SQUARED =    0.754
          --------------------

  ----- ALPHA SET ----- 

          ------------
          EIGENVECTORS
          ------------

                      1          2          3          4          5
                  -10.9636   -10.9452   -10.9452   -10.9446    -0.8753
                     A          A          A          A          A   
    1  H  1  S   -0.001521   0.000591  -0.000177  -0.000390   0.047267
    2  H  1  S    0.000121   0.012382  -0.004003   0.006401   0.005678
    3  H  2  S   -0.001189   0.000253  -0.000259  -0.000147   0.043477
    4  H  2  S   -0.000091   0.009742  -0.005792   0.008257  -0.001727
    5  H  3  S   -0.001522  -0.000147   0.000618  -0.000361   0.047263
    6  H  3  S    0.000118  -0.002693   0.012393   0.007033   0.005688
    7  C  4  S   -0.003588   0.778897  -0.253843   0.551447  -0.095959
    8  C  4  S   -0.002788   0.081351  -0.026462   0.054700   0.102112
    9  C  4  X    0.000932   0.000701  -0.000650  -0.000623   0.041588
   10  C  4  Y   -0.000374  -0.000718  -0.000768   0.000333  -0.016261
   11  C  4  Z   -0.000149   0.000145  -0.000337  -0.000252  -0.007654
   12  C  4  S    0.024018  -0.064948   0.021063  -0.039922   0.206180
   13  C  4  X    0.011868  -0.004342   0.002708   0.000041  -0.012551
   14  C  4  Y   -0.004570   0.003094   0.002031  -0.000486   0.006568
   15  C  4  Z   -0.002413  -0.000202   0.000940   0.001769  -0.003213
   16  H  5  S   -0.001189  -0.000241   0.000280  -0.000124   0.043451
   17  H  5  S   -0.000082  -0.004649   0.009833   0.008853  -0.001736
   18  C  6  S   -0.003574  -0.166881   0.773333   0.591031  -0.095933
   19  C  6  S   -0.002788  -0.017491   0.080887   0.058837   0.102088
   20  C  6  X   -0.000760   0.000805  -0.000683   0.000554  -0.033520
   21  C  6  Y   -0.000507  -0.000699  -0.000782   0.000425  -0.022242
   22  C  6  Z   -0.000447  -0.000082  -0.000074  -0.000037  -0.020824
   23  C  6  S    0.024024   0.014047  -0.064734  -0.043227   0.206094
   24  C  6  X   -0.009497  -0.002850   0.003905  -0.000291   0.011725
   25  C  6  Y   -0.006284   0.001856   0.003603  -0.000451   0.008514
   26  C  6  Z   -0.006158   0.000062   0.001134   0.001716   0.001020
   27  H  7  S   -0.001188   0.000351   0.000071  -0.000138   0.043424
   28  H  7  S   -0.000072   0.011219  -0.001059   0.008337  -0.001759
   29  C  8  S    0.988443   0.000092  -0.000123   0.005031  -0.154172
   30  C  8  S    0.107337  -0.000023   0.000039  -0.001609   0.140928
   31  C  8  X   -0.000107  -0.000346   0.000299  -0.000014  -0.002877
   32  C  8  Y   -0.000155   0.000307   0.000333  -0.000039  -0.004035
   33  C  8  Z    0.000692   0.000017   0.000117   0.000181   0.018179
   34  C  8  S   -0.102849   0.000367  -0.000564   0.023633   0.414498
   35  C  8  X    0.001161  -0.010091   0.008719  -0.000116  -0.003327
   36  C  8  Y    0.001664   0.008929   0.009689  -0.000612  -0.004744
   37  C  8  Z   -0.007433   0.000470   0.003473   0.003148   0.021334
   38  H  9  S   -0.001524  -0.000465  -0.000415  -0.000381   0.047310
   39  H  9  S    0.000118  -0.009371  -0.008871   0.006643   0.005703
   40  H 10  S   -0.001189   0.000097   0.000350  -0.000130   0.043438
   41  H 10  S   -0.000081   0.000192   0.010904   0.008806  -0.001755
   42  C 11  S   -0.003579  -0.583992  -0.559549   0.566630  -0.095926
   43  C 11  S   -0.002789  -0.061080  -0.058409   0.056289   0.102073
   44  C 11  X   -0.000080   0.000819  -0.000676   0.000081  -0.003455
   45  C 11  Y    0.001013  -0.000641  -0.000678  -0.000633   0.045138
   46  C 11  Z    0.000002  -0.000174  -0.000394  -0.000357  -0.000862
   47  C 11  S    0.024010   0.048882   0.046600  -0.041199   0.206175
   48  C 11  X   -0.000946  -0.002657   0.001899  -0.000200   0.001979
   49  C 11  Y    0.012901   0.003746   0.003799  -0.000175  -0.013279
   50  C 11  Z   -0.000484   0.000661   0.001280   0.001803  -0.005434
   51  H 12  S    0.001577  -0.000031   0.000045  -0.001931   0.068374
   52  H 12  S    0.014067   0.000023  -0.000035   0.001458  -0.003152
   53  H 13  S   -0.001188  -0.000357  -0.000087  -0.000134   0.043455
   54  H 13  S   -0.000085  -0.009496  -0.005719   0.008583  -0.001758
   55  H 14  S   -0.001188  -0.000119  -0.000338  -0.000143   0.043444
   56  H 14  S   -0.000076  -0.006149  -0.009357   0.008436  -0.001756

                      6          7          8          9         10
                   -0.7280    -0.7279    -0.5714    -0.4309    -0.3873
                     A          A          A          A          A   
    1  H  1  S   -0.056535  -0.080473  -0.077855   0.072800   0.037252
    2  H  1  S   -0.008714  -0.012465  -0.048909   0.084996   0.030077
    3  H  2  S   -0.066041  -0.078325  -0.057106  -0.074917  -0.094445
    4  H  2  S   -0.024212  -0.012392  -0.033036  -0.073031  -0.119091
    5  H  3  S   -0.041330   0.089212  -0.077875   0.073024   0.022901
    6  H  3  S   -0.006352   0.013814  -0.048904   0.085161   0.018482
    7  C  4  S    0.099271   0.141105   0.062347   0.010104  -0.008179
    8  C  4  S   -0.093793  -0.133306  -0.055813  -0.007409   0.005923
    9  C  4  X    0.006987   0.026401   0.109744   0.105660  -0.156863
   10  C  4  Y   -0.023758   0.003062  -0.031618  -0.083063  -0.149057
   11  C  4  Z   -0.005711   0.002737  -0.058767   0.121154  -0.010165
   12  C  4  S   -0.299971  -0.426445  -0.248654  -0.059623   0.051639
   13  C  4  X    0.004973   0.009401   0.043634   0.067695  -0.119541
   14  C  4  Y   -0.004520  -0.001130  -0.010022  -0.054783  -0.104267
   15  C  4  Z   -0.003126  -0.002932  -0.031989   0.082945  -0.009390
   16  H  5  S   -0.051001   0.088834  -0.057117  -0.074921  -0.119799
   17  H  5  S   -0.021613   0.016501  -0.033044  -0.073078  -0.142219
   18  C  6  S    0.072542  -0.156529   0.062426   0.010069  -0.005119
   19  C  6  S   -0.068540   0.147879  -0.055891  -0.007384   0.003722
   20  C  6  X    0.003726   0.025628  -0.077141  -0.126278   0.169824
   21  C  6  Y   -0.023778   0.005409  -0.046502  -0.101207  -0.162088
   22  C  6  Z   -0.005827   0.007541  -0.091500   0.080839   0.019863
   23  C  6  S   -0.219204   0.473037  -0.248913  -0.059382   0.032188
   24  C  6  X   -0.001443   0.007901  -0.028120  -0.082417   0.126381
   25  C  6  Y   -0.004601   0.003357  -0.015719  -0.066542  -0.114344
   26  C  6  Z   -0.003359   0.006542  -0.044554   0.056861   0.014374
   27  H  7  S   -0.051491  -0.088619  -0.057074  -0.075527   0.130047
   28  H  7  S   -0.003569  -0.027038  -0.033000  -0.073673   0.131327
   29  C  8  S    0.000009  -0.000026  -0.141810  -0.030841  -0.000069
   30  C  8  S   -0.000005   0.000020   0.121661   0.020161   0.000041
   31  C  8  X    0.023730   0.114764   0.015216  -0.033075   0.042270
   32  C  8  Y   -0.114068   0.019556   0.021856  -0.046863  -0.165905
   33  C  8  Z   -0.021970   0.022438  -0.096741   0.208504  -0.030722
   34  C  8  S   -0.000081   0.000092   0.537107   0.127797   0.000354
   35  C  8  X    0.005871   0.028331   0.006672  -0.027440   0.033857
   36  C  8  Y   -0.028150   0.004806   0.009530  -0.038916  -0.133034
   37  C  8  Z   -0.005412   0.005528  -0.042197   0.173059  -0.024576
   38  H  9  S    0.097960  -0.008781  -0.077800   0.073343  -0.059071
   39  H  9  S    0.015086  -0.001362  -0.048870   0.085441  -0.047336
   40  H 10  S   -0.034859   0.096380  -0.057118  -0.075432   0.142174
   41  H 10  S    0.001299   0.027238  -0.033010  -0.073627   0.150011
   42  C 11  S   -0.171849   0.015436   0.062404   0.010114   0.013327
   43  C 11  S    0.162360  -0.014581  -0.055875  -0.007427  -0.009676
   44  C 11  X    0.004822   0.023241  -0.002271  -0.033754   0.028898
   45  C 11  Y   -0.027256   0.004344   0.121210   0.106659   0.145555
   46  C 11  Z   -0.002804   0.004396  -0.041908   0.142593  -0.039979
   47  C 11  S    0.519324  -0.046670  -0.248777  -0.059523  -0.084011
   48  C 11  X    0.000707   0.003333   0.000631  -0.022582   0.019152
   49  C 11  Y   -0.011371   0.001288   0.048607   0.068008   0.115783
   50  C 11  Z    0.002574   0.000383  -0.025524   0.096860  -0.023695
   51  H 12  S    0.000009   0.000053   0.143161  -0.115235   0.000077
   52  H 12  S    0.000018   0.000016   0.074319  -0.108570   0.000128
   53  H 13  S    0.100869  -0.018018  -0.057120  -0.075039  -0.048442
   54  H 13  S    0.022900  -0.014734  -0.033042  -0.073205  -0.031702
   55  H 14  S    0.102491  -0.000282  -0.057067  -0.075657  -0.010735
   56  H 14  S    0.025190   0.010409  -0.032998  -0.073826   0.010327

                     11         12         13         14         15
                   -0.3873    -0.3276    -0.3276    -0.3034    -0.2563
                     A          A          A          A          A   
    1  H  1  S    0.047379  -0.027532   0.209299   0.000891  -0.002296
    2  H  1  S    0.038035  -0.028487   0.217331   0.001032   0.015439
    3  H  2  S    0.109976  -0.023776  -0.093690  -0.134400   0.051470
    4  H  2  S    0.104770  -0.024306  -0.106959  -0.150129   0.080668
    5  H  3  S   -0.055293  -0.167413  -0.128577  -0.000930   0.010865
    6  H  3  S   -0.044346  -0.173728  -0.133541  -0.001025   0.002753
    7  C  4  S   -0.010584   0.000044  -0.000051   0.000040   0.033434
    8  C  4  S    0.007673   0.000067  -0.000689  -0.000027  -0.023333
    9  C  4  X   -0.044053  -0.023974  -0.002912  -0.084783  -0.268130
   10  C  4  Y    0.163373  -0.041881  -0.090261  -0.190266   0.084501
   11  C  4  Z    0.092356  -0.053040   0.279872  -0.055707   0.008191
   12  C  4  S    0.066904  -0.002228   0.015383  -0.000282  -0.145989
   13  C  4  X   -0.039925  -0.021946  -0.004454  -0.072237  -0.240837
   14  C  4  Y    0.122503  -0.039798  -0.076358  -0.162177   0.074991
   15  C  4  Z    0.064020  -0.046246   0.236915  -0.047457   0.001637
   16  H  5  S   -0.081295   0.049056   0.083709   0.134268   0.017554
   17  H  5  S   -0.069810   0.058116   0.093604   0.149996   0.019389
   18  C  6  S    0.012404   0.000091   0.000031  -0.000030  -0.022151
   19  C  6  S   -0.008997   0.000498   0.000425   0.000029   0.015287
   20  C  6  X   -0.030840   0.088450   0.021939  -0.126489  -0.205694
   21  C  6  Y   -0.127639   0.041407   0.094253   0.173441  -0.024758
   22  C  6  Z   -0.105981  -0.217330  -0.159956   0.018079  -0.047613
   23  C  6  S   -0.078322  -0.012514  -0.009462   0.000151   0.097348
   24  C  6  X   -0.031333   0.075444   0.015464  -0.107707  -0.190022
   25  C  6  Y   -0.098830   0.031881   0.082320   0.147840  -0.017196
   26  C  6  Z   -0.076636  -0.184823  -0.135479   0.015378  -0.038677
   27  H  7  S   -0.062866   0.047538  -0.085875   0.133449   0.094133
   28  H  7  S   -0.087995   0.051585  -0.098859   0.149218   0.140630
   29  C  8  S   -0.000013   0.000064  -0.000031  -0.000009   0.000453
   30  C  8  S   -0.000007  -0.000050   0.000024   0.000002  -0.000343
   31  C  8  X    0.166811   0.014663   0.050588   0.000005   0.285111
   32  C  8  Y    0.035909   0.049686  -0.015929   0.000188  -0.059828
   33  C  8  Z    0.034604   0.013100   0.004546  -0.000030   0.018081
   34  C  8  S    0.000110  -0.000273   0.000133   0.000088  -0.000981
   35  C  8  X    0.133685   0.012350   0.042764  -0.000015   0.236984
   36  C  8  Y    0.028765   0.041944  -0.013374   0.000167  -0.049413
   37  C  8  Z    0.027744   0.011109   0.003803   0.000051   0.013789
   38  H  9  S    0.008180   0.195168  -0.080702   0.000772   0.007570
   39  H  9  S    0.006644   0.202444  -0.083743   0.000891   0.005295
   40  H 10  S    0.026144   0.094462   0.026505  -0.133340  -0.124287
   41  H 10  S    0.050017   0.106416   0.032693  -0.149097  -0.180286
   42  C 11  S   -0.001802  -0.000136   0.000058  -0.000004  -0.009352
   43  C 11  S    0.001322  -0.000546   0.000212   0.000016   0.006397
   44  C 11  X    0.241117  -0.069926  -0.037666   0.210792  -0.132917
   45  C 11  Y    0.000065  -0.016680   0.001533   0.016659   0.069379
   46  C 11  Z    0.048324   0.265599  -0.121374   0.037670  -0.005783
   47  C 11  S    0.011249   0.014763  -0.006035   0.000008   0.041335
   48  C 11  X    0.174401  -0.060848  -0.036443   0.179636  -0.129137
   49  C 11  Y   -0.001393  -0.016029   0.001699   0.014177   0.061491
   50  C 11  Z    0.034231   0.224399  -0.103460   0.032090  -0.005301
   51  H 12  S   -0.000112   0.000230  -0.000050   0.000068   0.010049
   52  H 12  S   -0.000120   0.000288  -0.000092   0.000142   0.012421
   53  H 13  S   -0.136740  -0.068911   0.068625  -0.133776   0.067914
   54  H 13  S   -0.155472  -0.080214   0.075871  -0.149504   0.093398
   55  H 14  S    0.144324  -0.098234   0.000539   0.133108  -0.116271
   56  H 14  S    0.157959  -0.111455   0.003439   0.148682  -0.165974

                     16         17         18         19         20
                   -0.2562    -0.2540     0.2372     0.4765     0.4839
                     A          A          A          A          A   
    1  H  1  S   -0.001320   0.119418   0.018022  -0.005173   0.015953
    2  H  1  S   -0.006182   0.174186  -0.447536  -0.914579   0.354634
    3  H  2  S   -0.109909  -0.040423  -0.010959  -0.001009  -0.033305
    4  H  2  S   -0.156738  -0.053494  -0.569632   0.213203   0.734756
    5  H  3  S    0.002553   0.119018   0.017918  -0.004839   0.021131
    6  H  3  S   -0.010492   0.174786  -0.447989  -0.907984   0.475507
    7  C  4  S   -0.007743   0.011972  -0.074246  -0.014089   0.050856
    8  C  4  S    0.005436  -0.010264   0.031525  -0.004776  -0.005955
    9  C  4  X    0.008246  -0.062742  -0.072668  -0.016490   0.011317
   10  C  4  Y   -0.138044  -0.015689   0.027248  -0.039068  -0.121686
   11  C  4  Z   -0.039736   0.139716   0.018405   0.154339  -0.029084
   12  C  4  S    0.033642  -0.045165   0.939204   0.272950  -0.786162
   13  C  4  X    0.003165  -0.051802  -0.437710  -0.045975   0.033506
   14  C  4  Y   -0.133023  -0.016192   0.166389  -0.153868  -0.405600
   15  C  4  Z   -0.037098   0.125424   0.101333   0.580535  -0.123186
   16  H  5  S   -0.120457  -0.039488  -0.010968  -0.001012  -0.030984
   17  H  5  S   -0.175865  -0.051565  -0.569789   0.218192   0.837871
   18  C  6  S   -0.025135   0.014031  -0.074309  -0.013148   0.068260
   19  C  6  S    0.017517  -0.011688   0.031554  -0.004909  -0.008088
   20  C  6  X   -0.110365   0.029648   0.057059  -0.031878  -0.003927
   21  C  6  Y   -0.183256  -0.004236   0.037567  -0.040067  -0.124297
   22  C  6  Z   -0.081472   0.158515   0.041155   0.151608  -0.032907
   23  C  6  S    0.109777  -0.054256   0.939858   0.258901  -1.054211
   24  C  6  X   -0.095630   0.023148   0.346445  -0.133909   0.001979
   25  C  6  Y   -0.170989  -0.006856   0.228685  -0.159268  -0.410199
   26  C  6  Z   -0.069898   0.140465   0.238760   0.564764  -0.140637
   27  H  7  S    0.078155  -0.037917  -0.010990  -0.000627   0.029001
   28  H  7  S    0.108222  -0.049739  -0.568879   0.213221   0.047320
   29  C  8  S   -0.000288   0.010126  -0.059836   0.030454  -0.000445
   30  C  8  S    0.000212  -0.007314   0.009359  -0.001192   0.000077
   31  C  8  X    0.052916   0.031209   0.010793  -0.019889  -0.000224
   32  C  8  Y    0.276094   0.071907   0.015518  -0.028880   0.013440
   33  C  8  Z    0.078915  -0.270225  -0.068598   0.127281   0.001928
   34  C  8  S    0.000710  -0.023770   0.911690  -0.456507   0.006199
   35  C  8  X    0.043840   0.030039   0.036562  -0.054097  -0.007797
   36  C  8  Y    0.229286   0.065781   0.052800  -0.080099   0.265023
   37  C  8  Z    0.066371  -0.250886  -0.232087   0.353000   0.053777
   38  H  9  S   -0.011000   0.118561   0.017795  -0.005036  -0.036907
   39  H  9  S    0.002527   0.174813  -0.448902  -0.916613  -0.823560
   40  H 10  S    0.010001  -0.029649  -0.010956  -0.000860   0.025453
   41  H 10  S    0.008020  -0.037597  -0.568998   0.221046   0.211111
   42  C 11  S    0.031661   0.015043  -0.074351  -0.014216  -0.118688
   43  C 11  S   -0.021911  -0.012379   0.031559  -0.004743   0.014127
   44  C 11  X   -0.011435  -0.010438   0.005079  -0.025549   0.005108
   45  C 11  Y   -0.267989  -0.099881  -0.079080  -0.026809  -0.138305
   46  C 11  Z   -0.042532   0.131214   0.006936   0.155909  -0.023953
   47  C 11  S   -0.138949  -0.058715   0.940398   0.275076   1.834103
   48  C 11  X   -0.012387  -0.009504   0.032176  -0.097695   0.006375
   49  C 11  Y   -0.240158  -0.084723  -0.475579  -0.083212  -0.462571
   50  C 11  Z   -0.043774   0.118083   0.031527   0.589580  -0.020199
   51  H 12  S   -0.006263   0.218915   0.005112   0.060063  -0.000241
   52  H 12  S   -0.007767   0.273679  -0.592120   0.972395  -0.008503
   53  H 13  S    0.102631  -0.035278  -0.010909  -0.000787   0.007744
   54  H 13  S    0.152233  -0.045414  -0.568546   0.209509  -0.944320
   55  H 14  S    0.045158  -0.028907  -0.010930  -0.001201   0.001931
   56  H 14  S    0.071229  -0.036257  -0.568836   0.213074  -0.884315

                     21         22         23         24         25
                    0.4839     0.5053     0.5055     0.5293     0.5560
                     A          A          A          A          A   
    1  H  1  S   -0.033366  -0.011790   0.023023   0.011149   0.049438
    2  H  1  S   -0.749054   0.143931  -0.277908   0.326114   1.336900
    3  H  2  S   -0.010309  -0.040456  -0.028272  -0.000229  -0.044362
    4  H  2  S   -0.668621  -0.829581  -0.749176  -0.455933  -0.682620
    5  H  3  S    0.030452  -0.013933  -0.021811   0.011087  -0.037223
    6  H  3  S    0.687493   0.174103   0.258976   0.326702  -1.011853
    7  C  4  S   -0.108082   0.031078  -0.061150  -0.044475   0.021374
    8  C  4  S    0.012888  -0.014955   0.029421   0.010956  -0.006786
    9  C  4  X   -0.136454   0.057928   0.057649  -0.002457  -0.078326
   10  C  4  Y    0.006117   0.160310   0.067763   0.019838   0.086332
   11  C  4  Z   -0.014428   0.043552   0.028587  -0.066849  -0.191202
   12  C  4  S    1.668973  -0.338139   0.664962   0.525231  -0.252429
   13  C  4  X   -0.455518   0.341244   0.225112  -0.003936  -0.384056
   14  C  4  Y    0.000851   0.820110   0.389614   0.172024   0.482823
   15  C  4  Z    0.002575   0.229310   0.142708  -0.590309  -0.961313
   16  H  5  S    0.015681  -0.037343   0.032393  -0.000095   0.046813
   17  H  5  S    0.534789  -0.749575   0.828713  -0.450165   0.536934
   18  C  6  S    0.098010   0.037289   0.057661  -0.044505  -0.015987
   19  C  6  S   -0.011630  -0.017889  -0.027791   0.010836   0.005119
   20  C  6  X   -0.131247  -0.085038   0.082225   0.023264  -0.099585
   21  C  6  Y   -0.006596   0.142117  -0.071759   0.020735  -0.069597
   22  C  6  Z   -0.028870   0.015836  -0.006628  -0.062811   0.119117
   23  C  6  S   -1.514487  -0.406387  -0.626225   0.527467   0.188067
   24  C  6  X   -0.425374  -0.484442   0.366262   0.183365  -0.439553
   25  C  6  Y   -0.001520   0.714242  -0.420994   0.180115  -0.450314
   26  C  6  Z   -0.141237   0.070184  -0.051466  -0.560188   0.594429
   27  H  7  S    0.019236   0.046706   0.016068  -0.000426  -0.028017
   28  H  7  S   -0.994148   1.089368   0.232691  -0.467919  -0.657454
   29  C  8  S    0.000050   0.000643  -0.000227   0.113734   0.000207
   30  C  8  S   -0.000030  -0.000124   0.000033  -0.020676  -0.000020
   31  C  8  X    0.013712  -0.004549   0.068037  -0.026253  -0.044431
   32  C  8  Y   -0.000036   0.066842   0.002030  -0.038158   0.007482
   33  C  8  Z    0.001852   0.015984   0.010707   0.167680  -0.005063
   34  C  8  S   -0.000371  -0.009726   0.003336  -1.642762  -0.003236
   35  C  8  X    0.268214  -0.004070   0.043897  -0.172648  -0.300427
   36  C  8  Y   -0.000922   0.040652   0.001434  -0.244073   0.050541
   37  C  8  Z    0.042018   0.019170   0.004440   1.089654  -0.034669
   38  H  9  S    0.003047   0.025846  -0.001363   0.010729  -0.012026
   39  H  9  S    0.073398  -0.302838   0.016705   0.330365  -0.325348
   40  H 10  S   -0.023776   0.044753  -0.020883  -0.000590   0.007622
   41  H 10  S    0.967510   1.061006  -0.339974  -0.477652   0.478223
   42  C 11  S    0.009991  -0.068875   0.003735  -0.044218  -0.005536
   43  C 11  S   -0.001182   0.033136  -0.001703   0.010507   0.001649
   44  C 11  X   -0.120157   0.006135   0.193940   0.012162  -0.027755
   45  C 11  Y    0.002161   0.026894   0.014196   0.000337   0.016594
   46  C 11  Z   -0.019629   0.009648   0.033248  -0.069865   0.047239
   47  C 11  S   -0.154580   0.748902  -0.041455   0.526545   0.066289
   48  C 11  X   -0.408944   0.043943   1.013322   0.104218   0.019388
   49  C 11  Y    0.006571   0.049344   0.078447   0.027348   0.099101
   50  C 11  Z   -0.072476   0.026900   0.175197  -0.609905   0.268949
   51  H 12  S   -0.000250  -0.000060   0.000034  -0.014265  -0.000168
   52  H 12  S   -0.001686   0.013323  -0.003950   1.702402   0.002616
   53  H 13  S    0.033923  -0.004305   0.049237  -0.000249   0.036537
   54  H 13  S   -0.302629  -0.242474   1.095682  -0.465215   0.207808
   55  H 14  S   -0.034650  -0.009381  -0.048516  -0.000171  -0.018817
   56  H 14  S    0.453118  -0.350876  -1.062058  -0.466137   0.116670

                     26         27         28         29         30
                    0.5561     0.5908     0.6210     0.6433     0.6434
                     A          A          A          A          A   
    1  H  1  S   -0.014636  -0.000127  -0.047388   0.016845  -0.017594
    2  H  1  S   -0.398324   0.002226   0.322615   0.372301  -0.396405
    3  H  2  S   -0.016295  -0.010228  -0.016396   0.027545  -0.050693
    4  H  2  S    0.153703  -0.932823  -0.005727   0.201648   0.192421
    5  H  3  S   -0.035541  -0.000494  -0.047447  -0.023632  -0.006007
    6  H  3  S   -0.960946  -0.000184   0.320711  -0.527752  -0.131932
    7  C  4  S   -0.006526   0.000379   0.070608  -0.043218   0.045023
    8  C  4  S    0.002110   0.000106   0.010055  -0.005811   0.006144
    9  C  4  X    0.015097   0.079279  -0.060937   0.094679  -0.105684
   10  C  4  Y   -0.042906   0.178165   0.027480  -0.029683   0.012875
   11  C  4  Z    0.051623   0.053220  -0.007219  -0.080274   0.079792
   12  C  4  S    0.077962  -0.005664  -1.116150   0.750683  -0.782365
   13  C  4  X    0.143217   0.357871  -0.891077   0.691044  -1.047882
   14  C  4  Y   -0.074837   0.811897   0.426933  -0.599588  -0.116301
   15  C  4  Z    0.306061   0.241782  -0.120934  -0.618603   0.430136
   16  H  5  S    0.005733   0.010045  -0.016471  -0.050449  -0.028420
   17  H  5  S    0.446511   0.935729  -0.017350  -0.067648   0.266387
   18  C  6  S   -0.015768   0.000777   0.070765   0.060335   0.015263
   19  C  6  S    0.004928  -0.000016   0.010043   0.008203   0.002063
   20  C  6  X   -0.079171   0.119523   0.053424   0.084131   0.028935
   21  C  6  Y   -0.087327  -0.162190   0.038869   0.049339   0.001143
   22  C  6  Z    0.109846  -0.017481   0.013840   0.149149   0.036119
   23  C  6  S    0.187868  -0.011335  -1.118436  -1.048551  -0.264920
   24  C  6  X   -0.479391   0.547120   0.797176   0.733892   0.536275
   25  C  6  Y   -0.348225  -0.735968   0.571716   0.594185  -0.330235
   26  C  6  Z    0.569831  -0.077452   0.179958   1.082030   0.217760
   27  H  7  S    0.037851   0.010022  -0.016278   0.049781  -0.029441
   28  H  7  S    0.240175   0.931756  -0.021743  -0.195454  -0.187887
   29  C  8  S   -0.000247  -0.001359  -0.167390   0.000067  -0.000705
   30  C  8  S    0.000011   0.000082   0.001589  -0.000022  -0.000027
   31  C  8  X   -0.005740   0.000229  -0.031405   0.274175  -0.114264
   32  C  8  Y   -0.044590   0.000075  -0.046875   0.103447   0.274281
   33  C  8  Z   -0.011396   0.000681   0.202807   0.066402   0.044527
   34  C  8  S    0.004114   0.020198   2.562997  -0.000908   0.012024
   35  C  8  X   -0.038810   0.001147  -0.212007   1.880669  -0.783885
   36  C  8  Y   -0.302737   0.000327  -0.313725   0.708901   1.879997
   37  C  8  Z   -0.076520   0.004760   1.365045   0.454866   0.305656
   38  H  9  S    0.050008  -0.000227  -0.047715   0.006915   0.023831
   39  H  9  S    1.357641   0.000721   0.319417   0.154231   0.524645
   40  H 10  S    0.046529  -0.010121  -0.016500  -0.057483   0.001418
   41  H 10  S    0.512370  -0.929651  -0.008735   0.067141  -0.264134
   42  C 11  S    0.022353   0.000511   0.071132  -0.017209  -0.059386
   43  C 11  S   -0.006974   0.000026   0.009970  -0.002357  -0.008113
   44  C 11  X    0.037894  -0.198633   0.009344  -0.011002   0.007082
   45  C 11  Y   -0.073583  -0.016102  -0.065450   0.042722   0.152327
   46  C 11  Z   -0.211141  -0.034403  -0.016144  -0.028368  -0.088176
   47  C 11  S   -0.266381  -0.007489  -1.123579   0.299245   1.032822
   48  C 11  X    0.233972  -0.902006   0.128006  -0.548459   0.146730
   49  C 11  Y   -0.377804  -0.076306  -0.957292   0.333588   1.319435
   50  C 11  Z   -1.069425  -0.156377  -0.266620  -0.251045  -0.505151
   51  H 12  S    0.000180   0.000365   0.037253   0.000083   0.000232
   52  H 12  S   -0.003476  -0.002563   0.535383  -0.000771   0.001930
   53  H 13  S   -0.030167  -0.009662  -0.016629   0.029905   0.048906
   54  H 13  S   -0.665466  -0.929168  -0.006512  -0.264181   0.075649
   55  H 14  S   -0.043358   0.009604  -0.016679   0.000795   0.057581
   56  H 14  S   -0.687234   0.932204  -0.018506   0.259392  -0.076627

                     31         32         33         34         35
                    1.0799     1.0887     1.0890     1.1806     1.1808
                     A          A          A          A          A   
    1  H  1  S    0.333334   0.147041   0.066971   0.214761   0.409383
    2  H  1  S    0.017186  -0.057229  -0.028706   0.004979   0.010908
    3  H  2  S   -0.189032  -0.247375   0.324393  -0.098234  -0.011848
    4  H  2  S    0.036549   0.135989  -0.028302   0.070555   0.038367
    5  H  3  S    0.332728  -0.135534   0.088272   0.247358  -0.391113
    6  H  3  S    0.017798   0.052722  -0.035773   0.006215  -0.010253
    7  C  4  S   -0.002268  -0.000125  -0.000022   0.004079   0.007660
    8  C  4  S    0.051921   0.054782   0.025883  -0.002167  -0.003959
    9  C  4  X    0.251433   0.189714   0.312702  -0.174620  -0.396393
   10  C  4  Y   -0.176690  -0.360449   0.327857   0.075722   0.001746
   11  C  4  Z    0.233290   0.074180   0.183096   0.261512   0.454391
   12  C  4  S   -0.185662  -0.270831  -0.129692  -0.127577  -0.244529
   13  C  4  X   -0.343070  -0.175086  -0.424133   0.207381   0.487749
   14  C  4  Y    0.276351   0.475563  -0.538610  -0.084940   0.047545
   15  C  4  Z   -0.437596  -0.035875  -0.240766  -0.396502  -0.693870
   16  H  5  S   -0.189485   0.291797   0.284274  -0.099512   0.004019
   17  H  5  S    0.036461  -0.138442  -0.008904   0.073061  -0.032493
   18  C  6  S   -0.002235   0.000091  -0.000057   0.004644  -0.007260
   19  C  6  S    0.051858  -0.050534   0.033495  -0.002292   0.003203
   20  C  6  X   -0.285338   0.086481  -0.419654   0.079098  -0.206708
   21  C  6  Y   -0.218975   0.422382   0.212108   0.098199  -0.041716
   22  C  6  Z    0.138492  -0.007298   0.058749   0.346769  -0.535099
   23  C  6  S   -0.185969   0.249809  -0.167236  -0.146928   0.234154
   24  C  6  X    0.425000  -0.019927   0.567050  -0.062757   0.218683
   25  C  6  Y    0.337008  -0.559616  -0.382970  -0.104833  -0.000038
   26  C  6  Z   -0.302161  -0.022241  -0.066250  -0.505539   0.780827
   27  H  7  S   -0.197342   0.098274  -0.391967   0.046260  -0.088833
   28  H  7  S    0.038625   0.060878   0.123470  -0.008223   0.080538
   29  C  8  S   -0.005926   0.000029  -0.000003  -0.000034  -0.000093
   30  C  8  S   -0.053939   0.000034   0.000662   0.000169   0.000186
   31  C  8  X   -0.017775   0.005407   0.000558   0.026909   0.370034
   32  C  8  Y   -0.026148   0.000154  -0.006560  -0.365288   0.013878
   33  C  8  Z    0.115063   0.000919  -0.001905  -0.077657   0.062081
   34  C  8  S    0.567841  -0.000738  -0.005649  -0.001815  -0.001583
   35  C  8  X   -0.020289  -0.365310  -0.015374  -0.025746  -0.355701
   36  C  8  Y   -0.027055  -0.002697   0.363416   0.350804  -0.013500
   37  C  8  Z    0.129737  -0.058512   0.077663   0.073809  -0.060446
   38  H  9  S    0.330257  -0.013080  -0.166338  -0.462098  -0.018841
   39  H  9  S    0.019751   0.004762   0.063438  -0.011723  -0.000929
   40  H 10  S   -0.196691  -0.154710  -0.373892   0.039087   0.091959
   41  H 10  S    0.038056  -0.042917   0.130747  -0.002301  -0.080318
   42  C 11  S   -0.002187   0.000005   0.000184  -0.008649  -0.000283
   43  C 11  S    0.050731  -0.004612  -0.061454   0.003808  -0.000144
   44  C 11  X   -0.068454  -0.496009   0.098220   0.045182  -0.072493
   45  C 11  Y    0.251360  -0.063503  -0.323505   0.492275   0.013122
   46  C 11  Z    0.276579  -0.102650  -0.200306  -0.465308  -0.031453
   47  C 11  S   -0.182560   0.022172   0.302933   0.275760   0.011696
   48  C 11  X    0.114857   0.761736  -0.121401  -0.084207   0.105391
   49  C 11  Y   -0.339607   0.087598   0.361843  -0.608695  -0.015039
   50  C 11  Z   -0.501974   0.149386   0.196812   0.732037   0.049163
   51  H 12  S   -0.390344   0.000267   0.003654  -0.000113  -0.000440
   52  H 12  S    0.166216  -0.000113  -0.001696  -0.000265   0.000179
   53  H 13  S   -0.191777   0.403235   0.055325   0.059485  -0.078977
   54  H 13  S    0.035360  -0.092029  -0.103385  -0.067945   0.042144
   55  H 14  S   -0.192652  -0.390285   0.113725   0.053432   0.083858
   56  H 14  S    0.035337   0.076297  -0.114788  -0.063798  -0.047059

                     36         37         38         39         40
                    1.2301     1.3107     1.3107     1.3855     1.4263
                     A          A          A          A          A   
    1  H  1  S   -0.180600   0.087160  -0.118249   0.042157  -0.025871
    2  H  1  S   -0.094610   0.062064  -0.083799   0.491370   0.359376
    3  H  2  S   -0.022571   0.055709  -0.356136   0.237235  -0.328705
    4  H  2  S   -0.037478   0.087582  -0.112845  -0.254061  -0.021728
    5  H  3  S   -0.181691  -0.146125  -0.015151   0.041427   0.021639
    6  H  3  S   -0.094862  -0.103789  -0.010062   0.489788  -0.269857
    7  C  4  S   -0.032928   0.033283  -0.045581   0.018980  -0.021776
    8  C  4  S    0.102437  -0.034529   0.047655   0.075162  -0.113283
    9  C  4  X    0.494705  -0.270845   0.316982   0.047251   0.199298
   10  C  4  Y   -0.150053   0.046487  -0.190124  -0.142334  -0.063461
   11  C  4  Z   -0.238355  -0.006881  -0.025407   0.401370   0.457493
   12  C  4  S   -0.031931   0.059914  -0.082643  -0.511033   1.055081
   13  C  4  X   -0.558469   0.591093  -0.711730  -0.141192  -0.133156
   14  C  4  Y    0.144337  -0.125694   0.397780   0.335658   0.040333
   15  C  4  Z    0.351713  -0.005543   0.069293  -0.908815  -1.150218
   16  H  5  S   -0.022524  -0.301554  -0.196915   0.239051   0.307377
   17  H  5  S   -0.037737  -0.142265  -0.010936  -0.253833  -0.261189
   18  C  6  S   -0.033003  -0.056088  -0.005944   0.018962   0.016467
   19  C  6  S    0.102446   0.058257   0.006779   0.075445   0.083914
   20  C  6  X   -0.356847  -0.354786   0.010713  -0.159411   0.400358
   21  C  6  Y   -0.218253  -0.233354  -0.092992  -0.155771  -0.132772
   22  C  6  Z   -0.389037  -0.149490  -0.022443   0.363927  -0.296444
   23  C  6  S   -0.031291  -0.100819  -0.013710  -0.512642  -0.782113
   24  C  6  X    0.378756   0.779560  -0.003978   0.390022  -0.727143
   25  C  6  Y    0.219407   0.514625   0.176418   0.372702   0.405255
   26  C  6  Z    0.518164   0.354059   0.049143  -0.812343   0.826777
   27  H  7  S   -0.023039   0.322782  -0.161597   0.236594  -0.260660
   28  H  7  S   -0.037654   0.079249  -0.118352  -0.254772  -0.324739
   29  C  8  S    0.082915  -0.000035   0.000118  -0.010622   0.000009
   30  C  8  S   -0.283405   0.000177  -0.000266   0.083247   0.000278
   31  C  8  X    0.038738  -0.678940   0.398607   0.106167  -0.566670
   32  C  8  Y    0.056692  -0.370147  -0.682902   0.157611   0.095859
   33  C  8  Z   -0.247490  -0.191112  -0.094206  -0.683443  -0.064716
   34  C  8  S    0.823849  -0.000222   0.001790  -0.031023   0.000061
   35  C  8  X   -0.052242   0.948280  -0.556688  -0.292260   1.742776
   36  C  8  Y   -0.075875   0.515824   0.951845  -0.429752  -0.294461
   37  C  8  Z    0.333087   0.267246   0.134678   1.876099   0.202097
   38  H  9  S   -0.181633   0.059572   0.134930   0.040476   0.008024
   39  H  9  S   -0.095252   0.042961   0.096516   0.487939  -0.094374
   40  H 10  S   -0.023539  -0.336527   0.131002   0.235906   0.133592
   41  H 10  S   -0.037722  -0.140360  -0.020443  -0.254725   0.519630
   42  C 11  S   -0.033034   0.022882   0.051613   0.018695   0.005663
   43  C 11  S    0.102447  -0.023520  -0.052895   0.075767   0.029090
   44  C 11  X   -0.015030  -0.055917   0.073808  -0.073741   0.528813
   45  C 11  Y    0.547625  -0.187261  -0.404967   0.031978   0.006791
   46  C 11  Z   -0.163652  -0.033758  -0.040962   0.419401  -0.030382
   47  C 11  S   -0.031434   0.039357   0.089797  -0.514191  -0.270835
   48  C 11  X    0.002405   0.093920  -0.146164   0.171883  -1.182623
   49  C 11  Y   -0.622880   0.413582   0.903352  -0.111214  -0.103104
   50  C 11  Z    0.270211   0.059802   0.071700  -0.953675   0.087054
   51  H 12  S    0.235424   0.000045   0.002016   0.310304   0.000742
   52  H 12  S    0.115133   0.000497   0.001896   0.600643  -0.003102
   53  H 13  S   -0.023435   0.280913   0.227542   0.235350   0.193712
   54  H 13  S   -0.037631   0.052677   0.130743  -0.255300  -0.497014
   55  H 14  S   -0.023027  -0.019970   0.361153   0.235972  -0.042217
   56  H 14  S   -0.037802   0.061912   0.127165  -0.254460   0.586915

                     41         42         43         44         45
                    1.4264     1.4567     1.5384     1.5600     1.5643
                     A          A          A          A          A   
    1  H  1  S    0.007072  -0.422188  -0.000536   0.001308   0.620475
    2  H  1  S   -0.101616   0.241115  -0.000191  -0.000552  -0.864605
    3  H  2  S   -0.036184  -0.302410   0.554013  -0.100343  -0.314310
    4  H  2  S    0.587112   0.059438  -0.300113   0.744944   0.391808
    5  H  3  S    0.019562  -0.420921   0.001208   0.000525  -0.556828
    6  H  3  S   -0.262384   0.238498  -0.001103  -0.000533   0.776057
    7  C  4  S    0.006150  -0.046552  -0.000142   0.000023  -0.013267
    8  C  4  S    0.031992   0.007218   0.000340  -0.000274   0.003173
    9  C  4  X    0.161186  -0.147332   0.018981   0.276672  -0.035966
   10  C  4  Y    0.501925   0.021790   0.044705   0.616848   0.083984
   11  C  4  Z    0.016611   0.146157   0.012294   0.184620  -0.454702
   12  C  4  S   -0.296928   0.056715   0.000544   0.001372   0.436527
   13  C  4  X   -0.448840  -0.059121  -0.212737  -0.552193   0.162292
   14  C  4  Y   -1.096873   0.079786  -0.475896  -1.230642  -0.216553
   15  C  4  Z   -0.000551  -0.175590  -0.142119  -0.370478   0.303930
   16  H  5  S    0.125850  -0.299709  -0.556143   0.096641   0.239587
   17  H  5  S    0.526339   0.059110   0.302142  -0.742479  -0.320644
   18  C  6  S    0.015822  -0.046424   0.000111  -0.000068   0.011864
   19  C  6  S    0.082307   0.007807   0.000161   0.000465  -0.002475
   20  C  6  X   -0.045285   0.085885   0.027679   0.411949  -0.173291
   21  C  6  Y    0.464868   0.040889  -0.039786  -0.561111  -0.064859
   22  C  6  Z   -0.221744   0.184756  -0.004781  -0.062885   0.377868
   23  C  6  S   -0.766398   0.052246  -0.001434  -0.000526  -0.394843
   24  C  6  X    0.270541   0.099424  -0.316683  -0.824261   0.186774
   25  C  6  Y   -0.935486   0.090957   0.434373   1.123641   0.237061
   26  C  6  Z    0.657884  -0.142923   0.048788   0.124930  -0.211590
   27  H  7  S    0.202717  -0.301295  -0.556729   0.099050  -0.491488
   28  H  7  S   -0.489505   0.059134   0.301675  -0.745202   0.516039
   29  C  8  S    0.000050  -0.004695  -0.000040  -0.000021  -0.000012
   30  C  8  S   -0.000344  -0.111496   0.000067   0.000168   0.000104
   31  C  8  X   -0.077524   0.081828  -0.000519  -0.000494  -0.323792
   32  C  8  Y   -0.556585   0.118462   0.000879   0.001801   0.003850
   33  C  8  Z   -0.138517  -0.526148  -0.001226  -0.000857  -0.052131
   34  C  8  S    0.001240  -0.079255   0.000504   0.000185  -0.000429
   35  C  8  X    0.238023  -0.096294   0.002150   0.001680   0.866214
   36  C  8  Y    1.712574  -0.143228  -0.001537  -0.004657  -0.009753
   37  C  8  Z    0.426607   0.635356   0.003748   0.004118   0.138564
   38  H  9  S   -0.028164  -0.419682  -0.003958  -0.004505  -0.061329
   39  H  9  S    0.365422   0.236730   0.006046   0.007334   0.086170
   40  H 10  S    0.301191  -0.301891   0.558255  -0.097141   0.481982
   41  H 10  S   -0.273356   0.062345  -0.303317   0.742549  -0.492390
   42  C 11  S   -0.022157  -0.046414  -0.000037   0.000054   0.001293
   43  C 11  S   -0.113773   0.007807   0.000212   0.000181  -0.000112
   44  C 11  X    0.038516  -0.005633  -0.044726  -0.686496  -0.148124
   45  C 11  Y    0.141852  -0.166973  -0.004187  -0.054937  -0.012138
   46  C 11  Z    0.481754   0.122643  -0.005142  -0.115628   0.020543
   47  C 11  S    1.061111   0.053467  -0.001819  -0.003543  -0.044238
   48  C 11  X   -0.100782   0.031449   0.525439   1.371862  -0.100375
   49  C 11  Y    0.026770  -0.052892   0.041812   0.108062  -0.027262
   50  C 11  Z   -1.158027  -0.185333   0.087735   0.233851  -0.055592
   51  H 12  S    0.000751  -0.470417  -0.000078   0.000266   0.000172
   52  H 12  S    0.000930   0.602858   0.001632   0.002078   0.002046
   53  H 13  S   -0.267346  -0.300782   0.561221  -0.094312  -0.170355
   54  H 13  S   -0.313675   0.059330  -0.309454   0.737539   0.101931
   55  H 14  S   -0.327300  -0.301181  -0.558290   0.099279   0.249452
   56  H 14  S   -0.037583   0.063648   0.305182  -0.743775  -0.192467

                     46         47         48         49         50
                    1.5646     1.5822     1.6103     1.6104     1.6533
                     A          A          A          A          A   
    1  H  1  S    0.286916   0.432921   0.230680  -0.266682   0.213040
    2  H  1  S   -0.399923  -0.537254  -0.449322   0.516371  -0.184623
    3  H  2  S   -0.380716  -0.030371   0.426113   0.351694  -0.018375
    4  H  2  S    0.343829   0.112819  -0.364560  -0.614868  -0.273262
    5  H  3  S    0.394007   0.434668   0.115516   0.333525   0.362363
    6  H  3  S   -0.548938  -0.540874  -0.226119  -0.645828  -0.311620
    7  C  4  S   -0.006181   0.024640   0.016594  -0.019472   0.025275
    8  C  4  S    0.001892  -0.084389  -0.031302   0.037669  -0.147618
    9  C  4  X    0.045408  -0.020767  -0.215682  -0.070997   0.140682
   10  C  4  Y    0.177401   0.114893  -0.259499  -0.408227  -0.189395
   11  C  4  Z   -0.169174  -0.348959  -0.323384   0.158833  -0.019348
   12  C  4  S    0.200952  -0.125166  -0.358544   0.412413   0.279054
   13  C  4  X    0.124215  -0.135028  -0.017630   0.183691  -0.153203
   14  C  4  Y    0.012877  -0.017601   0.081301   0.260191   0.505581
   15  C  4  Z    0.173583   0.246560   0.516949  -0.486008   0.022676
   16  H  5  S   -0.428292  -0.032573   0.526309  -0.170593   0.122464
   17  H  5  S    0.413863   0.114311  -0.567593   0.436735  -0.468216
   18  C  6  S   -0.008535   0.024603   0.008177   0.024022   0.043260
   19  C  6  S    0.002412  -0.084240  -0.015107  -0.045365  -0.252866
   20  C  6  X    0.015893   0.121647   0.353256   0.062002  -0.224246
   21  C  6  Y    0.192868   0.125822  -0.347700   0.288272  -0.274819
   22  C  6  Z   -0.250864  -0.326225  -0.139363  -0.254617  -0.092926
   23  C  6  S    0.278357  -0.124920  -0.180907  -0.516990   0.480369
   24  C  6  X   -0.203287   0.041152  -0.177701  -0.023432   0.302341
   25  C  6  Y   -0.069178  -0.001840   0.156338  -0.196641   0.618294
   26  C  6  Z    0.158584   0.280909   0.260024   0.669354   0.066688
   27  H  7  S    0.007383  -0.030956  -0.410217  -0.376098   0.329127
   28  H  7  S    0.075587   0.109760   0.663770   0.278470  -0.269906
   29  C  8  S   -0.000111  -0.039863  -0.000140   0.000089   0.000147
   30  C  8  S    0.000788   0.250605   0.000698  -0.000566  -0.000625
   31  C  8  X   -0.006309   0.113058   0.120153  -0.382950   0.001180
   32  C  8  Y    0.322298   0.160770  -0.380723  -0.105023   0.013593
   33  C  8  Z    0.067367  -0.716680  -0.068686  -0.083709   0.003307
   34  C  8  S   -0.001065  -0.225673  -0.000023   0.000509  -0.000326
   35  C  8  X    0.017770  -0.205419  -0.337429   1.076855   0.001790
   36  C  8  Y   -0.861050  -0.290624   1.071975   0.294949   0.110365
   37  C  8  Z   -0.184049   1.300318   0.190531   0.236822   0.025036
   38  H  9  S   -0.676229   0.438957  -0.344378  -0.067064  -0.575021
   39  H  9  S    0.942234  -0.547611   0.670681   0.130912   0.495510
   40  H 10  S   -0.085228  -0.031575  -0.520983   0.194935   0.411421
   41  H 10  S    0.162691   0.112517   0.721708  -0.009755  -0.466079
   42  C 11  S    0.014810   0.024524  -0.024568  -0.004803  -0.068739
   43  C 11  S   -0.004506  -0.084306   0.045159   0.009385   0.400861
   44  C 11  X   -0.067348   0.063413   0.031596  -0.524680   0.045963
   45  C 11  Y   -0.010542  -0.004452   0.086364  -0.025857  -0.545272
   46  C 11  Z    0.496194  -0.368413   0.367293  -0.020524  -0.121046
   47  C 11  S   -0.481474  -0.122767   0.539480   0.101671  -0.759459
   48  C 11  X    0.082455  -0.026673   0.053481   0.283678  -0.073601
   49  C 11  Y   -0.196380  -0.156033   0.187158   0.057460   0.890564
   50  C 11  Z   -0.386044   0.238957  -0.697227  -0.088772   0.376365
   51  H 12  S   -0.002209  -0.441869  -0.001735   0.001878   0.001496
   52  H 12  S    0.006112   1.250792   0.002973  -0.001612  -0.001486
   53  H 13  S    0.459310  -0.035197   0.094639  -0.544147  -0.396832
   54  H 13  S   -0.513005   0.118170  -0.355142   0.626372   0.740495
   55  H 14  S    0.423464  -0.034801  -0.114409   0.539851  -0.451575
   56  H 14  S   -0.478888   0.115255  -0.096792  -0.713531   0.740375

                     51         52         53         54         55
                    1.6535     1.6720     2.0445     2.4432     2.4436
                     A          A          A          A          A   
    1  H  1  S   -0.538017   0.253435   0.020583   0.131428  -0.247275
    2  H  1  S    0.459989   0.099332  -0.294862   0.276485  -0.522909
    3  H  2  S   -0.470105  -0.302509  -0.065216   0.085919  -0.212403
    4  H  2  S    0.702583   0.274372  -0.440307  -0.002014  -0.455238
    5  H  3  S    0.451517   0.254380   0.020848   0.148011   0.237537
    6  H  3  S   -0.386406   0.098644  -0.294944   0.314190   0.500991
    7  C  4  S   -0.064487  -0.021650   0.004129   0.023380  -0.044046
    8  C  4  S    0.377464   0.241086  -0.997013   0.800033  -1.506160
    9  C  4  X   -0.494838  -0.167313   0.011973   0.017882  -0.170447
   10  C  4  Y    0.185151   0.080964  -0.020874  -0.164370   0.004971
   11  C  4  Z   -0.044952  -0.017139   0.052207  -0.021483  -0.051126
   12  C  4  S   -0.718681  -0.613953   1.615258  -1.620358   3.049699
   13  C  4  X    0.844174   0.085126  -0.216775  -0.111003   0.513623
   14  C  4  Y   -0.281366   0.104350   0.153245   0.398803  -0.073543
   15  C  4  Z    0.253405  -0.484132  -0.189532   0.043762   0.123729
   16  H  5  S    0.454776  -0.302362  -0.065556   0.100927   0.205677
   17  H  5  S   -0.589525   0.271657  -0.440016   0.030132   0.455044
   18  C  6  S    0.054188  -0.021763   0.004141   0.026435   0.042273
   19  C  6  S   -0.316952   0.240782  -0.996894   0.904703   1.445691
   20  C  6  X   -0.397879   0.148873  -0.025493   0.003149  -0.175562
   21  C  6  Y   -0.186350   0.103745  -0.023874  -0.166355  -0.020475
   22  C  6  Z   -0.097456   0.037430   0.045695  -0.022142  -0.008181
   23  C  6  S    0.602849  -0.608302   1.614815  -1.832314  -2.927234
   24  C  6  X    0.772876   0.068388   0.241730   0.064088   0.505040
   25  C  6  Y    0.239404   0.104726   0.189823   0.419492   0.124193
   26  C  6  Z    0.022349  -0.488787  -0.109422   0.070808   0.051663
   27  H  7  S   -0.328404  -0.303334  -0.065728   0.127260  -0.189586
   28  H  7  S    0.696660   0.273132  -0.440205   0.379763  -0.252659
   29  C  8  S   -0.000089   0.038813   0.032695   0.000009  -0.000010
   30  C  8  S    0.000419  -0.210874  -0.738467  -0.000966   0.000390
   31  C  8  X    0.015383   0.018531   0.012047  -0.008499   0.108272
   32  C  8  Y   -0.001349   0.024994   0.017685   0.107260   0.004650
   33  C  8  Z    0.001890  -0.109435  -0.077848   0.022761   0.018118
   34  C  8  S   -0.000218   0.172709   0.380719   0.001446  -0.000653
   35  C  8  X    0.106402  -0.175249  -0.024147  -0.069090   0.872983
   36  C  8  Y   -0.005994  -0.246202  -0.035541   0.865002   0.039724
   37  C  8  Z    0.015453   1.083679   0.156180   0.183118   0.146355
   38  H  9  S    0.086845   0.255390   0.020971  -0.279594   0.009762
   39  H  9  S   -0.074226   0.096278  -0.295010  -0.591929   0.021908
   40  H 10  S    0.216604  -0.305357  -0.065314   0.140536   0.179954
   41  H 10  S   -0.585604   0.274886  -0.440482   0.395830   0.224967
   42  C 11  S    0.010437  -0.021572   0.004165  -0.049795   0.001758
   43  C 11  S   -0.061116   0.240139  -0.997174  -1.704034   0.060299
   44  C 11  X   -0.127652   0.022672  -0.010570   0.018827  -0.160020
   45  C 11  Y    0.073199  -0.177244   0.010044  -0.169851  -0.006516
   46  C 11  Z   -0.002354  -0.046356   0.055861  -0.063449  -0.025290
   47  C 11  S    0.116638  -0.609822   1.615647   3.450485  -0.121480
   48  C 11  X    0.423510   0.077192   0.058077  -0.061756   0.357046
   49  C 11  Y   -0.101885   0.115496  -0.222928   0.541422   0.009100
   50  C 11  Z    0.013749  -0.482406  -0.231551   0.178187   0.054305
   51  H 12  S   -0.001124   1.018280   0.260659  -0.000270  -0.000050
   52  H 12  S    0.001225  -0.406642  -0.397075  -0.000500   0.000185
   53  H 13  S    0.250418  -0.300724  -0.064975  -0.226720   0.031779
   54  H 13  S   -0.114360   0.271297  -0.441099  -0.392666   0.229113
   55  H 14  S   -0.121298  -0.304776  -0.065241  -0.227650  -0.015527
   56  H 14  S   -0.111335   0.273021  -0.440990  -0.408207  -0.201811

                     56
                    2.7916
                     A   
    1  H  1  S    0.171927
    2  H  1  S    0.075007
    3  H  2  S    0.178329
    4  H  2  S    0.204702
    5  H  3  S    0.172037
    6  H  3  S    0.075395
    7  C  4  S    0.061387
    8  C  4  S    0.556870
    9  C  4  X   -0.159549
   10  C  4  Y    0.074247
   11  C  4  Z   -0.008920
   12  C  4  S   -2.314956
   13  C  4  X   -0.643956
   14  C  4  Y    0.204306
   15  C  4  Z    0.274511
   16  H  5  S    0.178483
   17  H  5  S    0.203933
   18  C  6  S    0.061443
   19  C  6  S    0.557518
   20  C  6  X    0.139848
   21  C  6  Y    0.097846
   22  C  6  Z    0.043672
   23  C  6  S   -2.316702
   24  C  6  X    0.473541
   25  C  6  Y    0.294817
   26  C  6  Z    0.470706
   27  H  7  S    0.178207
   28  H  7  S    0.202939
   29  C  8  S   -0.124035
   30  C  8  S   -2.185855
   31  C  8  X    0.009217
   32  C  8  Y    0.013275
   33  C  8  Z   -0.059254
   34  C  8  S    5.826251
   35  C  8  X   -0.077722
   36  C  8  Y   -0.112159
   37  C  8  Z    0.499743
   38  H  9  S    0.172453
   39  H  9  S    0.075653
   40  H 10  S    0.178305
   41  H 10  S    0.203843
   42  C 11  S    0.061495
   43  C 11  S    0.558759
   44  C 11  X    0.019645
   45  C 11  Y   -0.171016
   46  C 11  Z   -0.035883
   47  C 11  S   -2.318025
   48  C 11  X    0.026789
   49  C 11  Y   -0.708664
   50  C 11  Z    0.173758
   51  H 12  S   -0.489066
   52  H 12  S   -0.436528
   53  H 13  S    0.178304
   54  H 13  S    0.204764
   55  H 14  S    0.178358
   56  H 14  S    0.203731

  ----- BETA SET ----- 

          ------------
          EIGENVECTORS
          ------------

                      1          2          3          4          5
                  -10.9606   -10.9402   -10.9402   -10.9396    -0.8681
                     A          A          A          A          A   
    1  H  1  S   -0.001518   0.000601  -0.000126  -0.000396   0.047193
    2  H  1  S    0.000114   0.012758  -0.002933   0.006314   0.004955
    3  H  2  S   -0.001191   0.000286  -0.000240  -0.000141   0.043217
    4  H  2  S   -0.000086   0.010294  -0.004940   0.008184  -0.001847
    5  H  3  S   -0.001519  -0.000202   0.000602  -0.000361   0.047187
    6  H  3  S    0.000111  -0.003706   0.012150   0.007059   0.004961
    7  C  4  S   -0.003387   0.801595  -0.186049   0.545889  -0.094970
    8  C  4  S   -0.002761   0.083791  -0.019404   0.054187   0.098794
    9  C  4  X    0.000930   0.000817  -0.000602  -0.000577   0.047750
   10  C  4  Y   -0.000375  -0.000670  -0.000819   0.000320  -0.018622
   11  C  4  Z   -0.000143   0.000146  -0.000316  -0.000271  -0.009020
   12  C  4  S    0.023998  -0.066821   0.015418  -0.039415   0.205769
   13  C  4  X    0.011860  -0.004466   0.002307   0.000126  -0.008764
   14  C  4  Y   -0.004566   0.002873   0.002301  -0.000528   0.005196
   15  C  4  Z   -0.002415  -0.000296   0.000926   0.001761  -0.004297
   16  H  5  S   -0.001190  -0.000269   0.000270  -0.000114   0.043187
   17  H  5  S   -0.000078  -0.005422   0.009433   0.008889  -0.001856
   18  C  6  S   -0.003374  -0.228410   0.756281   0.592479  -0.094937
   19  C  6  S   -0.002761  -0.023974   0.079188   0.059062   0.098760
   20  C  6  X   -0.000760   0.000878  -0.000659   0.000506  -0.038417
   21  C  6  Y   -0.000508  -0.000616  -0.000868   0.000403  -0.025484
   22  C  6  Z   -0.000441  -0.000062  -0.000125  -0.000072  -0.024128
   23  C  6  S    0.024003   0.019252  -0.063332  -0.043307   0.205666
   24  C  6  X   -0.009491  -0.003159   0.003579  -0.000317   0.008785
   25  C  6  Y   -0.006280   0.001554   0.003707  -0.000494   0.006606
   26  C  6  Z   -0.006157  -0.000007   0.001083   0.001686  -0.001242
   27  H  7  S   -0.001189   0.000355   0.000099  -0.000133   0.043164
   28  H  7  S   -0.000068   0.011359  -0.000101   0.008256  -0.001869
   29  C  8  S    0.988435   0.000129  -0.000105   0.004687  -0.154961
   30  C  8  S    0.107381  -0.000036   0.000036  -0.001565   0.140117
   31  C  8  X   -0.000115  -0.000364   0.000264  -0.000009  -0.003931
   32  C  8  Y   -0.000166   0.000273   0.000353  -0.000037  -0.005548
   33  C  8  Z    0.000739   0.000008   0.000117   0.000166   0.024866
   34  C  8  S   -0.102845   0.000573  -0.000522   0.023414   0.411924
   35  C  8  X    0.001160  -0.010736   0.007775  -0.000035  -0.003434
   36  C  8  Y    0.001663   0.008013   0.010356  -0.000656  -0.004907
   37  C  8  Z   -0.007429   0.000190   0.003480   0.003078   0.022019
   38  H  9  S   -0.001521  -0.000430  -0.000453  -0.000380   0.047237
   39  H  9  S    0.000111  -0.008553  -0.009666   0.006706   0.004962
   40  H 10  S   -0.001190   0.000062   0.000369  -0.000123   0.043176
   41  H 10  S   -0.000077  -0.000693   0.010914   0.008809  -0.001865
   42  C 11  S   -0.003376  -0.529912  -0.607419   0.570439  -0.094931
   43  C 11  S   -0.002762  -0.055516  -0.063488   0.056758   0.098742
   44  C 11  X   -0.000081   0.000875  -0.000600   0.000072  -0.003922
   45  C 11  Y    0.001011  -0.000633  -0.000787  -0.000570   0.051841
   46  C 11  Z    0.000008  -0.000132  -0.000396  -0.000366  -0.001246
   47  C 11  S    0.023990   0.044443   0.050632  -0.041475   0.205747
   48  C 11  X   -0.000945  -0.002811   0.001672  -0.000185   0.001736
   49  C 11  Y    0.012893   0.003340   0.004032  -0.000138  -0.009151
   50  C 11  Z   -0.000487   0.000569   0.001341   0.001798  -0.005908
   51  H 12  S    0.001566  -0.000048   0.000042  -0.001918   0.068840
   52  H 12  S    0.014093   0.000036  -0.000032   0.001431  -0.002146
   53  H 13  S   -0.001190  -0.000358  -0.000126  -0.000124   0.043194
   54  H 13  S   -0.000080  -0.008933  -0.006537   0.008645  -0.001866
   55  H 14  S   -0.001189  -0.000098  -0.000356  -0.000135   0.043182
   56  H 14  S   -0.000072  -0.005290  -0.009873   0.008473  -0.001867

                      6          7          8          9         10
                   -0.7149    -0.7148    -0.5542    -0.4212    -0.3786
                     A          A          A          A          A   
    1  H  1  S   -0.060610  -0.078029  -0.081808   0.073808   0.035440
    2  H  1  S   -0.012783  -0.016491  -0.053357   0.065726   0.033438
    3  H  2  S   -0.071098  -0.075593  -0.057986  -0.078886  -0.097470
    4  H  2  S   -0.024927  -0.014230  -0.034569  -0.073226  -0.096425
    5  H  3  S   -0.037169   0.091521  -0.081836   0.074026   0.023452
    6  H  3  S   -0.007818   0.019339  -0.053351   0.065875   0.022155
    7  C  4  S    0.105424   0.135523   0.062410   0.011757  -0.008707
    8  C  4  S   -0.096500  -0.124043  -0.052760  -0.006289   0.005209
    9  C  4  X   -0.001219   0.015091   0.100840   0.105504  -0.154279
   10  C  4  Y   -0.021905   0.009085  -0.027713  -0.084023  -0.159807
[...]
             TOTAL POTENTIAL ENERGY =    -312.7315333200
               TOTAL KINETIC ENERGY =     156.5426338386
                 VIRIAL RATIO (V/T) =       1.9977403321

          ---------------------------------------
          MULLIKEN AND LOWDIN POPULATION ANALYSES
          ---------------------------------------

     ATOMIC MULLIKEN POPULATION IN EACH MOLECULAR ORBITAL
        ALPHA ORBITALS

                      1          2          3          4          5

                  1.000000   1.000000   1.000000   1.000000   1.000000

    1             0.000001   0.000961   0.000101   0.000361   0.009366
    2            -0.000001   0.000762   0.000141   0.000464   0.005926
    3             0.000001   0.000045   0.000954   0.000425   0.009367
    4             0.002494   0.618187   0.065685   0.310117   0.158203
    5            -0.000001   0.000073   0.000763   0.000532   0.005916
    6             0.002493   0.028403   0.609377   0.356208   0.158113
    7            -0.000001   0.000871   0.000027   0.000468   0.005901
    8             0.991096   0.001724   0.001725   0.002079   0.447175
    9             0.000001   0.000545   0.000495   0.000385   0.009390
   10            -0.000001  -0.000004   0.000841   0.000530   0.005906
   11             0.002492   0.347521   0.319048   0.327418   0.158143
   12             0.001426   0.000000   0.000000   0.000029   0.014778
   13            -0.000001   0.000548   0.000324   0.000495   0.005909
   14            -0.000001   0.000363   0.000517   0.000487   0.005907

                      6          7          8          9         10

                  1.000000   1.000000   1.000000   1.000000   1.000000

    1             0.012883   0.026126   0.032925   0.032376   0.006077
    2             0.022672   0.025004   0.016807   0.030528   0.052513
    3             0.006880   0.032108   0.032939   0.032550   0.002295
    4             0.165111   0.331524   0.127108   0.138673   0.192727
    5             0.014374   0.033287   0.016814   0.030548   0.080753
    6             0.089106   0.407489   0.127215   0.138612   0.229250
    7             0.009623   0.038124   0.016778   0.031030   0.085196
    8             0.053416   0.053407   0.321555   0.228542   0.127767
    9             0.038669   0.000311   0.032879   0.032807   0.015206
   10             0.003793   0.043951   0.016799   0.030963   0.104738
   11             0.490745   0.005950   0.127020   0.139153   0.093759
   12             0.000000   0.000000   0.097584   0.072445   0.000000
   13             0.045113   0.002597   0.016808   0.030634   0.009455
   14             0.047615   0.000122   0.016770   0.031138   0.000263

                     11         12         13         14         15

                  1.000000   1.000000   1.000000   1.000000   1.000000

    1             0.009794   0.003510   0.203450   0.000004   0.000381
    2             0.058781   0.002622   0.042626   0.083052   0.016109
    3             0.013333   0.130124   0.076802   0.000004   0.000298
    4             0.151284   0.022029   0.337907   0.169425   0.268447
    5             0.030280   0.011886   0.033735   0.082904   0.001208
    6             0.114343   0.222534   0.137782   0.169094   0.156165
    7             0.025292   0.010745   0.035952   0.081937   0.050229
    8             0.127956   0.010715   0.010623   0.000000   0.246868
    9             0.000294   0.176764   0.030226   0.000003   0.000179
   10             0.005881   0.043092   0.003530   0.081799   0.083852
   11             0.250247   0.295969   0.064803   0.168032   0.080738
   12             0.000000   0.000000   0.000000   0.000000   0.000471
   13             0.101939   0.023264   0.022560   0.082299   0.023321
   14             0.110578   0.046747   0.000005   0.081448   0.071736

                     16         17         18

                  1.000000   1.000000   1.000000

    1             0.000062   0.078284   0.069918
    2             0.064108   0.007421   0.101305
    3             0.000187   0.078365   0.070042
    4             0.074696   0.078899   0.030218
    5             0.079546   0.006959   0.101377
    6             0.179897   0.086378   0.030259
    7             0.031100   0.006444   0.101004
    8             0.247104   0.251411  -0.021407
    9             0.000310   0.078103   0.070317
   10             0.000297   0.003712   0.101045
   11             0.251045   0.090492   0.030136
   12             0.000184   0.224640   0.113852
   13             0.058979   0.005414   0.100926
   14             0.012484   0.003478   0.101008

     ATOMIC MULLIKEN POPULATION IN EACH MOLECULAR ORBITAL
         BETA ORBITALS

                      1          2          3          4          5

                  1.000000   1.000000   1.000000   1.000000   1.000000

    1             0.000001   0.001020   0.000055   0.000352   0.008975
    2            -0.000001   0.000828   0.000087   0.000456   0.005739
    3             0.000001   0.000084   0.000915   0.000427   0.008974
    4             0.002492   0.654768   0.035300   0.303926   0.158539
    5            -0.000001   0.000118   0.000717   0.000536   0.005729
    6             0.002492   0.053187   0.582824   0.357984   0.158429
    7            -0.000001   0.000909   0.000001   0.000459   0.005718
    8             0.991099   0.001715   0.001716   0.002054   0.447949
    9             0.000001   0.000451   0.000586   0.000391   0.008992
   10            -0.000001   0.000016   0.000823   0.000531   0.005722
   11             0.002490   0.286152   0.375982   0.331858   0.158457
   12             0.001429   0.000000   0.000000   0.000029   0.015328
   13            -0.000001   0.000467   0.000402   0.000502   0.005726
   14            -0.000001   0.000284   0.000594   0.000493   0.005723

                      6          7          8          9         10

                  1.000000   1.000000   1.000000   1.000000   1.000000

    1             0.015676   0.025994   0.036221   0.026968   0.005959
    2             0.025366   0.023789   0.017266   0.032605   0.047280
    3             0.005890   0.035759   0.036239   0.027121   0.002610
    4             0.184982   0.303906   0.121731   0.143561   0.204800
    5             0.012386   0.036753   0.017275   0.032612   0.071120
    6             0.071203   0.417642   0.121839   0.143526   0.241798
    7             0.012222   0.037016   0.017240   0.033130   0.090512
    8             0.056571   0.056570   0.319538   0.222343   0.121253
    9             0.040857   0.000782   0.036156   0.027367   0.015823
   10             0.002921   0.046313   0.017270   0.033042   0.104544
   11             0.477170   0.011794   0.121650   0.144175   0.081410
   12             0.000000   0.000000   0.103067   0.067627   0.000000
   13             0.045520   0.003687   0.017274   0.032714   0.011608
   14             0.049236  -0.000006   0.017233   0.033210   0.001283

                     11         12         13         14         15

                  1.000000   1.000000   1.000000   1.000000   1.000000

    1             0.010471   0.005057   0.208284   0.000003   0.080513
    2             0.061785   0.001235   0.039338   0.079480   0.001381
    3             0.013566   0.129235   0.084082   0.000003   0.078971
    4             0.147310   0.020562   0.343062   0.176361   0.100286
    5             0.037687   0.011366   0.029537   0.079378   0.002122
    6             0.109858   0.218020   0.145951   0.176109   0.080822
    7             0.017805   0.008971   0.032875   0.078473   0.002628
    8             0.121396   0.010210   0.010130   0.000000   0.257276
    9             0.000218   0.185696   0.027644   0.000003   0.078092
   10             0.003926   0.036971   0.004764   0.078371   0.008724
   11             0.270858   0.307349   0.056867   0.174978   0.075327
   12             0.000000   0.000000   0.000000   0.000000   0.220782
   13             0.097665   0.023542   0.017429   0.078826   0.003784
   14             0.107456   0.041784   0.000039   0.078016   0.009293

                     16         17

                  1.000000   1.000000

    1             0.000362   0.000188
    2             0.012011   0.070336
    3             0.002030   0.000177
    4             0.236105   0.087563
    5             0.000126   0.081546
    6             0.194678   0.148854
    7             0.063534   0.017667
    8             0.250192   0.250357
    9             0.000967   0.001897
   10             0.073913   0.001284
   11             0.076625   0.272207
   12             0.001981   0.000948
   13             0.032630   0.047353
   14             0.054846   0.019622

     ATOMIC SPIN POPULATION (ALPHA MINUS BETA)
       ATOM         MULL.POP.                    LOW.POP.
    1 H             0.060481                     0.033050
    2 H             0.111860                     0.066063
    3 H             0.060633                     0.033141
    4 C             0.017481                     0.120165
    5 H             0.111946                     0.066120
    6 C             0.017506                     0.120309
    7 H             0.111560                     0.065880
    8 C            -0.018613                     0.081543
    9 H             0.060960                     0.033351
   10 H             0.111589                     0.065881
   11 C             0.017363                     0.120216
   12 H             0.114219                     0.062635
   13 H             0.111456                     0.065781
   14 H             0.111558                     0.065865


          ********* ALL ELECTRONS ********

               ----- POPULATIONS IN EACH AO -----
                             MULLIKEN      LOWDIN
              1  H  1  S      0.46087     0.46810
              2  H  1  S      0.45181     0.50471
              3  H  2  S      0.46159     0.47037
              4  H  2  S      0.48823     0.52833
              5  H  3  S      0.46087     0.46809
              6  H  3  S      0.45193     0.50480
              7  C  4  S      1.98909     1.97732
              8  C  4  S      0.35964     0.46125
              9  C  4  X      0.53192     0.51813
             10  C  4  Y      0.52201     0.49040
             11  C  4  Z      0.52131     0.48773
             12  C  4  S      1.06026     0.61400
             13  C  4  X      0.45323     0.57910
             14  C  4  Y      0.50956     0.59237
             15  C  4  Z      0.52096     0.59970
             16  H  5  S      0.46156     0.47034
             17  H  5  S      0.48840     0.52843
             18  C  6  S      1.98910     1.97732
             19  C  6  S      0.35964     0.46133
             20  C  6  X      0.52771     0.50627
             21  C  6  Y      0.52351     0.49461
             22  C  6  Z      0.52395     0.49530
             23  C  6  S      1.06032     0.61410
             24  C  6  X      0.47957     0.58543
             25  C  6  Y      0.50200     0.59073
             26  C  6  Z      0.50213     0.59501
             27  H  7  S      0.46165     0.47040
             28  H  7  S      0.48824     0.52830
             29  C  8  S      1.99061     1.97654
             30  C  8  S      0.33650     0.43442
             31  C  8  X      0.51500     0.49972
             32  C  8  Y      0.51548     0.50001
             33  C  8  Z      0.53543     0.51204
             34  C  8  S      1.08343     0.59327
             35  C  8  X      0.36955     0.52499
             36  C  8  Y      0.37319     0.52603
             37  C  8  Z      0.50293     0.56296
             38  H  9  S      0.46093     0.46813
             39  H  9  S      0.45188     0.50481
             40  H 10  S      0.46168     0.47042
             41  H 10  S      0.48818     0.52825
             42  C 11  S      1.98910     1.97733
             43  C 11  S      0.35965     0.46137
             44  C 11  X      0.52025     0.48566
             45  C 11  Y      0.53388     0.52395
             46  C 11  Z      0.52107     0.48655
             47  C 11  S      1.06050     0.61415
             48  C 11  X      0.51663     0.59366
             49  C 11  Y      0.44108     0.57649
             50  C 11  Z      0.52591     0.60096
             51  H 12  S      0.46342     0.48403
             52  H 12  S      0.47318     0.51513
             53  H 13  S      0.46165     0.47040
             54  H 13  S      0.48806     0.52816
             55  H 14  S      0.46169     0.47041
             56  H 14  S      0.48807     0.52819

          ----- MULLIKEN ATOMIC OVERLAP POPULATIONS -----
          (OFF-DIAGONAL ELEMENTS NEED TO BE MULTIPLIED BY 2)

             1           2           3           4           5

    1    0.7602484
    2    0.0580394   0.9096369
    3    0.0252189   0.0103504   0.7606672
    4    0.0606653  -0.0552434  -0.0085036   6.4234044
    5    0.0102587   0.0406463   0.0581582  -0.0122855   0.9099136
    6   -0.0084723  -0.0123842   0.0601379  -0.0919322  -0.0555924
    7    0.0579057   0.0845339   0.0022067  -0.0544676   0.0029305
    8   -0.0981546  -0.1422031  -0.0982869   0.3775135  -0.1422576
    9    0.0254680   0.0022313   0.0255064  -0.0084745   0.0022338
   10    0.0022015   0.0029351   0.0580427   0.0066830   0.0845790
   11   -0.0087460   0.0066480  -0.0086914  -0.0918441   0.0066488
   12    0.0154912   0.0411313   0.0155279  -0.0721460   0.0412360
   13    0.0103384   0.0029105   0.0022168  -0.0120783   0.0005873
   14    0.0022151   0.0005876   0.0102539   0.0066956   0.0029039

             6           7           8           9          10

    6    6.4244570
    7    0.0066662   0.9091528
    8    0.3778347  -0.1418865   6.2889281
    9   -0.0085847   0.0102232  -0.0984966   0.7612425
   10   -0.0546279   0.0005859  -0.1420106   0.0103030   0.9091345
   11   -0.0917970  -0.0121054   0.3780238   0.0591583  -0.0121520
   12   -0.0724536   0.0411615  -0.0532008   0.0155735   0.0412382
   13    0.0066859   0.0400791  -0.1417930   0.0581740   0.0028972
   14   -0.0120016   0.0028969  -0.1418853   0.0582489   0.0400499

            11          12          13          14

   11    6.4242619
   12   -0.0725332   0.9132449
   13   -0.0543006   0.0410976   0.9086209
   14   -0.0545130   0.0412336   0.0842776   0.9088037

          TOTAL MULLIKEN AND LOWDIN ATOMIC POPULATIONS
       ATOM         MULL.POP.    CHARGE          LOW.POP.     CHARGE
    1 H             0.912678    0.087322         0.972818    0.027182
    2 H             0.949820    0.050180         0.998695    0.001305
    3 H             0.912805    0.087195         0.972893    0.027107
    4 C             6.467986   -0.467986         6.319995   -0.319995
    5 H             0.949961    0.050039         0.998771    0.001229
    6 C             6.467936   -0.467936         6.320101   -0.320101
    7 H             0.949883    0.050117         0.998696    0.001304
    8 C             6.222125   -0.222125         6.129974   -0.129974
    9 H             0.912807    0.087193         0.972941    0.027059
   10 H             0.949860    0.050140         0.998667    0.001333
   11 C             6.468058   -0.468058         6.320120   -0.320120
   12 H             0.936602    0.063398         0.999163    0.000837
   13 H             0.949713    0.050287         0.998560    0.001440
   14 H             0.949767    0.050233         0.998604    0.001396

          -------------------------------
          BOND ORDER AND VALENCE ANALYSIS     BOND ORDER THRESHOLD=0.050
          -------------------------------

                   BOND                       BOND                       BOND
  ATOM PAIR DIST  ORDER      ATOM PAIR DIST  ORDER      ATOM PAIR DIST  ORDER
    1   4  1.098  0.896        2   4  1.097  0.861        3   6  1.098  0.896
    4   7  1.097  0.862        4   8  1.545  0.925        5   6  1.097  0.861
    6   8  1.545  0.925        6  10  1.097  0.862        8  11  1.545  0.925
    8  12  1.099  0.836        9  11  1.097  0.895       11  13  1.097  0.862
   11  14  1.096  0.862

                       TOTAL       BONDED        FREE
      ATOM            VALENCE     VALENCE     VALENCE
    1 H                 1.008       1.004       0.004
    2 H                 1.007       0.994       0.013
    3 H                 1.008       1.004       0.004
    4 C                 3.542       3.530       0.012
    5 H                 1.007       0.994       0.013
    6 C                 3.542       3.530       0.012
    7 H                 1.007       0.994       0.013
    8 C                 3.506       3.504       0.003
    9 H                 1.009       1.004       0.005
   10 H                 1.007       0.994       0.013
   11 C                 3.542       3.530       0.012
   12 H                 1.024       1.010       0.014
   13 H                 1.007       0.994       0.013
   14 H                 1.007       0.994       0.013

          -----------------------------------------
          ATOMIC SPIN DENSITY AT THE NUCLEUS (A.U.)
          -----------------------------------------
                            SPIN DENS    ALPHA DENS     BETA DENS
    1  H            1.0    -0.0048182       0.17870       0.18352
    2  H            1.0    -0.0019239       0.18055       0.18247
    3  H            1.0    -0.0048259       0.17870       0.18353
    4  C            6.0     0.2198742      47.19876      46.97889
    5  H            1.0    -0.0019229       0.18053       0.18245
    6  C            6.0     0.2202557      47.19916      46.97891
    7  H            1.0    -0.0019048       0.18057       0.18248
    8  C            6.0     0.1277529      47.17969      47.05194
    9  H            1.0    -0.0048357       0.17873       0.18356
   10  H            1.0    -0.0019103       0.18058       0.18249
   11  C            6.0     0.2204967      47.19944      46.97894
   12  H            1.0    -0.0032142       0.18148       0.18470
   13  H            1.0    -0.0019118       0.18057       0.18248
   14  H            1.0    -0.0019088       0.18059       0.18250

          ---------------------
          ELECTROSTATIC MOMENTS
          ---------------------

 POINT   1           X           Y           Z (BOHR)    CHARGE
                -2.359608   -0.607940   -0.023788       -1.00 (A.U.)
         DX          DY          DZ         /D/  (DEBYE)
    -0.038027   -0.056716    0.233009    0.242809
 ...... END OF PROPERTY EVALUATION ......
 CPU     0: STEP CPU TIME=     0.01 TOTAL CPU TIME=          1.0 (      0.0 MIN)
 TOTAL WALL CLOCK TIME=          1.2 SECONDS, CPU UTILIZATION IS    89.74%
               580000  WORDS OF DYNAMIC MEMORY USED
 EXECUTION OF GAMESS TERMINATED NORMALLY Sun May 17 17:53:38 2020
 DDI: 263640 bytes (0.3 MB / 0 MWords) used by master data server.
Note: The following floating-point exceptions are signalling: IEEE_DENORMALNote: The following floating-point exceptions are signalling: IEEE_DENORMALNote: The following floating-point exceptions are signalling: IEEE_DENORMALNote: The following floating-point exceptions are signalling: IEEE_DENORMAL
 ----------------------------------------
 CPU timing information for all processes
 ========================================
 0: 0.929 + 0.139 = 1.69
 1: 0.891 + 0.15 = 0.907
 2: 0.854 + 0.23 = 0.878
 3: 0.865 + 0.23 = 0.889
 4: 0.864 + 0.23 = 0.887
 5: 0.848 + 0.07 = 0.856
 ----------------------------------------




Note: The following floating-point exceptions are signalling: IEEE_DENORMALNote: The following floating-point exceptions are signalling:
 IEEE_DENORMAL
 ddikick.x: exited gracefully.
unset echo
----- accounting info -----
Files used on the master node pietdev were:
-rwxr-xr-x 1 piet piet      941 mei 17 17:53 /home/piet/scr/valine_fukui_acid.F05*
-rw-r--r-- 1 piet piet 68812800 mei 17 17:53 /home/piet/scr/valine_fukui_acid.F10
ls: No match.
ls: No match.
ls: No match.
zo 17 mei 2020 17:53:41 CEST
0.107u 0.025s 0:04.32 2.7%	0+0k 0+8io 0pf+0w
