----- GAMESS execution script 'rungms' -----
This job is running on host pietdev
under operating system Linux at zo 17 mei 2020 17:51:36 CEST
Available scratch disk space (Kbyte units) at beginning of the job is
Filesystem     1K-blocks     Used Available Use% Mounted on
/dev/sda2      244568380 30400396 201674928  14% /
GAMESS temporary binary files will be written to /home/piet/scr
GAMESS supplementary output files will be written to /home/piet/gamess/scr
Copying input file valine_geoopt.inp to your run's scratch directory...
cp valine_geoopt.inp /home/piet/scr/valine_geoopt.F05
unset echo
 
Assuming a single but multicore node.
 
/home/piet/gamess/ddikick.x /home/piet/gamess/gamess.03.x valine_geoopt -ddi 1 6 pietdev:cpus=6 -scr /home/piet/scr

 Distributed Data Interface kickoff program.
 Initiating 6 compute processes on 1 nodes to run the following command:
 /home/piet/gamess/gamess.03.x valine_geoopt 

          ******************************************************
          *         GAMESS VERSION = 30 SEP 2019 (R2)          *
          *             FROM IOWA STATE UNIVERSITY             *
          * M.W.SCHMIDT, K.K.BALDRIDGE, J.A.BOATZ, S.T.ELBERT, *
          *   M.S.GORDON, J.H.JENSEN, S.KOSEKI, N.MATSUNAGA,   *
          *          K.A.NGUYEN, S.J.SU, T.L.WINDUS,           *
          *       TOGETHER WITH M.DUPUIS, J.A.MONTGOMERY       *
          *         J.COMPUT.CHEM.  14, 1347-1363(1993)        *
          **************** 64 BIT LINUX VERSION ****************

  SINCE 1993, STUDENTS AND POSTDOCS WORKING AT IOWA STATE UNIVERSITY
  AND ALSO IN THEIR VARIOUS JOBS AFTER LEAVING ISU HAVE MADE IMPORTANT
  CONTRIBUTIONS TO THE CODE:
     IVANA ADAMOVIC, CHRISTINE AIKENS, YURI ALEXEEV, POOJA ARORA,
     ANDREY ASADCHEV, ROB BELL, PRADIPTA BANDYOPADHYAY, JONATHAN BENTZ,
     COLLEEN BERTONI, BRETT BODE, KURT BRORSEN, CALEB CARLIN, GALINA CHABAN,
     WEI CHEN, CHEOL HO CHOI, PAUL DAY, ALBERT DEFUSCO, NUWAN DESILVA,
     TIM DUDLEY, DMITRI FEDOROV, ALEX FINDLATER, GRAHAM FLETCHER, 
     MARK FREITAG, KURT GLAESEMANN, EMILIE B GUIDEZ, ANASTASIA GUNINA, 
     DAN KEMP, SAROM SOK LEANG, GRANT MERRILL,
     NORIYUKI MINEZAWA, JONATHAN MULLIN,
     TAKESHI NAGATA, SEAN NEDD, HEATHER NETZLOFF, BOSILJKA NJEGIC, RYAN OLSON,
     MIKE PAK, BUU PHAM, DAVID POOLE,
     SPENCER PRUITT, LUKE ROSKOP, TOSAPORN SATTASATHUCHANA,
     JIM SHOEMAKER, LYUDMILA SLIPCHENKO,
     TONY SMITH, JIE SONG, TETSUYA TAKETSUGU, SIMON WEBB,
     JORGE LUIS GALVEZ VALLEJO, PENG XU, SOOHAENG YOO,
     FEDERICO ZAHARIEV

  ADDITIONAL CODE HAS BEEN PROVIDED BY COLLABORATORS IN OTHER GROUPS:
     IOWA STATE UNIVERSITY:
          JOE IVANIC, AARON WEST, LAIMUTIS BYTAUTAS, KLAUS RUEDENBERG
     UNIVERSITY OF TOKYO: KIMIHIKO HIRAO, TAKAHITO NAKAJIMA,
          TAKAO TSUNEDA, MUNEAKI KAMIYA, SUSUMU YANAGISAWA,
          KIYOSHI YAGI, MAHITO CHIBA, SEIKEN TOKURA, NAOAKI KAWAKAMI
     UNIVERSITY OF AARHUS: FRANK JENSEN
     UNIVERSITY OF IOWA: VISVALDAS KAIRYS, HUI LI
     NATIONAL INST. OF STANDARDS AND TECHNOLOGY: WALT STEVENS, DAVID GARMER
     UNIVERSITY OF PISA: BENEDETTA MENNUCCI, JACOPO TOMASI
     UNIVERSITY OF MEMPHIS: HENRY KURTZ, PRAKASHAN KORAMBATH
     UNIVERSITY OF ALBERTA: TOBY ZENG, MARIUSZ KLOBUKOWSKI
     UNIVERSITY OF NEW ENGLAND: MARK SPACKMAN
     MIE UNIVERSITY: HIROAKI UMEDA
     NAT. INST. OF ADVANCED INDUSTRIAL SCIENCE AND TECHNOLOGY: KAZUO KITAURA
     MICHIGAN STATE UNIVERSITY:
          KAROL KOWALSKI, MARTA WLOCH, JEFFREY GOUR, JESSE LUTZ,
          WEI LI, JUN SHEN, J. EMILIANO DEUSTUA, PIOTR PIECUCH
     UNIVERSITY OF MINNESOTA:
          ANDREW SAND, PRACHI SHARMA, YINAN SHU
     UNIVERSITY OF SILESIA: MONIKA MUSIAL, STANISLAW KUCHARSKI
     FACULTES UNIVERSITAIRES NOTRE-DAME DE LA PAIX:
          OLIVIER QUINET, BENOIT CHAMPAGNE
     UNIVERSITY OF CALIFORNIA - SANTA BARBARA: BERNARD KIRTMAN
     INSTITUTE FOR MOLECULAR SCIENCE:
          KAZUYA ISHIMURA, MICHIO KATOUDA, AND SHIGERU NAGASE
     UNIVERSITY OF NOTRE DAME: ANNA POMOGAEVA, DAN CHIPMAN
     KYUSHU UNIVERSITY:
          HARUYUKI NAKANO,
          FENG LONG GU, JACEK KORCHOWIEC, MARCIN MAKOWSKI, AND YURIKO AOKI,
          HIROTOSHI MORI AND EISAKU MIYOSHI
     PENNSYLVANIA STATE UNIVERSITY:
          TZVETELIN IORDANOV, CHET SWALINA, JONATHAN SKONE,
          SHARON HAMMES-SCHIFFER
     WASEDA UNIVERSITY:
          MASATO KOBAYASHI, TOMOKO AKAMA, TSUGUKI TOUMA,
          TAKESHI YOSHIKAWA, YASUHIRO IKABATA, JUNJI SEINO,
          YUYA NAKAJIMA, HIROMI NAKAI
     NANJING UNIVERSITY: SHUHUA LI
     UNIVERSITY OF NEBRASKA:
          PEIFENG SU, DEJUN SI, NANDUN THELLAMUREGE, YALI WANG, HUI LI
     UNIVERSITY OF ZURICH: ROBERTO PEVERATI, KIM BALDRIDGE
     N. COPERNICUS UNIVERSITY AND JACKSON STATE UNIVERSITY:
          MARIA BARYSZ
     UNIVERSITY OF COPENHAGEN: Jimmy Kromann, CASPER STEINMANN
     TOKYO INSTITUTE OF TECHNOLOGY: HIROYA NAKATA
     NAGOYA UNIVERSITY: YOSHIO NISHIMOTO, STEPHAN IRLE
     MOSCOW STATE UNIVERSITY: VLADIMIR MIRONOV
     A.N.NESMEYANOV INSTITUTE OF ORGANOELEMENT COMPOUNDS OF RUSSIAN ACADEMY OF SCIENCES:
          IGOR S. GERASIMOV
     JOHANNES KEPLER UNIVERSITY LINZ:
          CHRISTIAN FRIEDL


 PARALLEL VERSION RUNNING ON        6 PROCESSORS IN        1 NODES.

 EXECUTION OF GAMESS BEGUN Sun May 17 17:51:36 2020

            ECHO OF THE FIRST FEW INPUT CARDS -
 INPUT CARD> $BASIS GBASIS=N21 NGAUSS=3 $END                                                
 INPUT CARD> $CONTRL SCFTYP=RHF RUNTYP=OPTIMIZE DFTTYP=B3LYP MAXIT=60 MULT=1 ICHARG=0 $END  
 INPUT CARD> $SYSTEM MEMDDI=1000 MWORDS=30 $END                                             
 INPUT CARD> $STATPT NSTEP=999 $END                                                         
 INPUT CARD> $SCF DIRSCF=.TRUE. $END                                                        
 INPUT CARD> $DATA                                                                          
 INPUT CARD>                                                                                
 INPUT CARD>C1                                                                              
 INPUT CARD>H 1.0000000 -2.81053 0.04938 1.07361                                            
 INPUT CARD>H 1.0000000 -2.67181 1.35100 -0.11768                                           
 INPUT CARD>H 1.0000000 -0.22493 0.26134 1.52736                                            
 INPUT CARD>C 6.0000000 -2.59054 0.26706 0.02080                                            
 INPUT CARD>H 1.0000000 -0.14545 1.55204 0.31917                                            
 INPUT CARD>C 6.0000000 -0.10426 0.46553 0.45599                                            
 INPUT CARD>H 1.0000000 -3.37007 -0.20773 -0.58563                                          
 INPUT CARD>C 6.0000000 -1.19376 -0.24303 -0.36130                                          
 INPUT CARD>H 1.0000000 -1.25980 -2.06159 0.84086                                           
 INPUT CARD>H 1.0000000 0.89693 0.12881 0.16455                                             
 INPUT CARD>C 6.0000000 -1.10008 -1.76753 -0.20416                                          
 INPUT CARD>H 1.0000000 -1.02628 -0.00410 -1.42211                                          
 INPUT CARD>H 1.0000000 -1.85522 -2.27894 -0.81162                                          
 INPUT CARD>H 1.0000000 -0.11589 -2.14135 -0.50781                                          
 INPUT CARD> $END                                                                           
   30000000 WORDS OF MEMORY AVAILABLE

     BASIS OPTIONS
     -------------
     GBASIS=N21          IGAUSS=       3      POLAR=NONE    
     NDFUNC=       0     NFFUNC=       0     DIFFSP=       F
     NPFUNC=       0      DIFFS=       F     BASNAM=        


     RUN TITLE
     ---------
                                                                                 

 THE POINT GROUP OF THE MOLECULE IS C1      
 THE ORDER OF THE PRINCIPAL AXIS IS     0

 ATOM      ATOMIC                      COORDINATES (BOHR)
           CHARGE         X                   Y                   Z
 H           1.0    -5.3111315803        0.0933146693        2.0288287177
 H           1.0    -5.0489887913        2.5530198094       -0.2223829542
 H           1.0    -0.4250560664        0.4938609896        2.8862918846
 C           6.0    -4.8954107602        0.5046702223        0.0393063005
 H           1.0    -0.2748606449        2.9329303220        0.6031438435
 C           6.0    -0.1970228315        0.8797241391        0.8616961531
 H           1.0    -6.3685088594       -0.3925527794       -1.1066802302
 C           6.0    -2.2558792951       -0.4592601068       -0.6827579994
 H           1.0    -2.3806767993       -3.8958401990        1.5889949940
 H           1.0     1.6949519302        0.2434156045        0.3109544113
 C           6.0    -2.0788497646       -3.3401473751       -0.3858064577
 H           1.0    -1.9393879867       -0.0077478765       -2.6873982244
 H           1.0    -3.5058574469       -4.3065721425       -1.5337394062
 H           1.0    -0.2190003447       -4.0465647438       -0.9596217538

          INTERNUCLEAR DISTANCES (ANGS.)
          ------------------------------

                1 H          2 H          3 H          4 C          5 H     

   1 H       0.0000000    1.7699237 *  2.6336559 *  1.0973555 *  3.1511614  
   2 H       1.7699237 *  0.0000000    3.1433640    1.0957680 *  2.5717212 *
   3 H       2.6336559 *  3.1433640    0.0000000    2.8046152 *  1.7697307 *
   4 C       1.0973555 *  1.0957680 *  2.8046152 *  0.0000000    2.7782483 *
   5 H       3.1511614    2.5717212 *  1.7697307 *  2.7782483 *  0.0000000  
   6 C       2.8068724 *  2.7758724 *  1.0973097 *  2.5318706 *  1.0958651 *
   7 H       1.7698214 *  1.7709273 *  3.8179391    1.0958330 *  3.7833355  
   8 C       2.1813793 *  2.1874447 *  2.1817555 *  1.5353132 *  2.1872973 *
   9 H       2.6296636 *  3.8155395    2.6340543 *  2.8046351 *  3.8173627  
  10 H       3.8181093    3.7827645    1.7701370 *  3.4931682    1.7708888 *
  11 C       2.8034795 *  3.4932855    2.8071983 *  2.5321206 *  3.4935280  
  12 H       3.0683915    2.4991204 *  3.0678972    2.1453266 *  2.4958945 *
  13 H       3.1444846    3.7848166    3.8185986    2.7777211 *  4.3449289  
  14 H       3.8159235    4.3452775    3.1506707    3.4933880    3.7849570  

                6 C          7 H          8 C          9 H         10 H     

   1 H       2.8068724 *  1.7698214 *  2.1813793 *  2.6296636 *  3.8181093  
   2 H       2.7758724 *  1.7709273 *  2.1874447 *  3.8155395    3.7827645  
   3 H       1.0973097 *  3.8179391    2.1817555 *  2.6340543 *  1.7701370 *
   4 C       2.5318706 *  1.0958330 *  1.5353132 *  2.8046351 *  3.4931682  
   5 H       1.0958651 *  3.7833355    2.1872973 *  3.8173627    1.7708888 *
   6 C       0.0000000    3.4933889    1.5352623 *  2.8053045 *  1.0957641 *
   7 H       3.4933889    0.0000000    2.1881260 *  3.1503825    4.3454940  
   8 C       1.5352623 *  2.1881260 *  0.0000000    2.1809884 *  2.1876398 *
   9 H       2.8053045 *  3.1503825    2.1809884 *  0.0000000    3.1474961  
  10 H       1.0957641 *  4.3454940    2.1876398 *  3.1474961    0.0000000  
  11 C       2.5325901 *  2.7805305 *  1.5354378 *  1.0972915 *  2.7785070 *
  12 H       2.1442791 *  2.4969012 *  1.1002068 *  3.0673816    2.4967763 *
  13 H       3.4935386    2.5759955 *  2.1875207 *  1.7698746 *  3.7847718  
  14 H       2.7793649 *  3.7861101    2.1878957 *  1.7702549 *  2.5751697 *

               11 C         12 H         13 H         14 H     

   1 H       2.8034795 *  3.0683915    3.1444846    3.8159235  
   2 H       3.4932855    2.4991204 *  3.7848166    4.3452775  
   3 H       2.8071983 *  3.0678972    3.8185986    3.1506707  
   4 C       2.5321206 *  2.1453266 *  2.7777211 *  3.4933880  
   5 H       3.4935280    2.4958945 *  4.3449289    3.7849570  
   6 C       2.5325901 *  2.1442791 *  3.4935386    2.7793649 *
   7 H       2.7805305 *  2.4969012 *  2.5759955 *  3.7861101  
   8 C       1.5354378 *  1.1002068 *  2.1875207 *  2.1878957 *
   9 H       1.0972915 *  3.0673816    1.7698746 *  1.7702549 *
  10 H       2.7785070 *  2.4967763 *  3.7847718    2.5751697 *
  11 C       0.0000000    2.1444193 *  1.0958030 *  1.0957074 *
  12 H       2.1444193 *  0.0000000    2.4969455 *  2.4965160 *
  13 H       1.0958030 *  2.4969455 *  0.0000000    1.7710168 *
  14 H       1.0957074 *  2.4965160 *  1.7710168 *  0.0000000  

  * ... LESS THAN  3.000


     ATOMIC BASIS SET
     ----------------
 THE CONTRACTED PRIMITIVE FUNCTIONS HAVE BEEN UNNORMALIZED
 THE CONTRACTED BASIS FUNCTIONS ARE NOW NORMALIZED TO UNITY

  SHELL TYPE  PRIMITIVE        EXPONENT          CONTRACTION COEFFICIENT(S)

 H         

      1   S       1             5.4471780    0.156284978695
      1   S       2             0.8245472    0.904690876670

      2   S       3             0.1831916    1.000000000000

 H         

      3   S       4             5.4471780    0.156284978695
      3   S       5             0.8245472    0.904690876670

      4   S       6             0.1831916    1.000000000000

 H         

      5   S       7             5.4471780    0.156284978695
      5   S       8             0.8245472    0.904690876670

      6   S       9             0.1831916    1.000000000000

 C         

      7   S      10           172.2560000    0.061766907377
      7   S      11            25.9109000    0.358794042852
      7   S      12             5.5333500    0.700713083689

      8   L      13             3.6649800   -0.395895162119    0.236459946619
      8   L      14             0.7705450    1.215834355681    0.860618805716

      9   L      15             0.1958570    1.000000000000    1.000000000000

 H         

     10   S      16             5.4471780    0.156284978695
     10   S      17             0.8245472    0.904690876670

     11   S      18             0.1831916    1.000000000000

 C         

     12   S      19           172.2560000    0.061766907377
     12   S      20            25.9109000    0.358794042852
     12   S      21             5.5333500    0.700713083689

     13   L      22             3.6649800   -0.395895162119    0.236459946619
     13   L      23             0.7705450    1.215834355681    0.860618805716

     14   L      24             0.1958570    1.000000000000    1.000000000000

 H         

     15   S      25             5.4471780    0.156284978695
     15   S      26             0.8245472    0.904690876670

     16   S      27             0.1831916    1.000000000000

 C         

     17   S      28           172.2560000    0.061766907377
     17   S      29            25.9109000    0.358794042852
     17   S      30             5.5333500    0.700713083689

     18   L      31             3.6649800   -0.395895162119    0.236459946619
     18   L      32             0.7705450    1.215834355681    0.860618805716

     19   L      33             0.1958570    1.000000000000    1.000000000000

 H         

     20   S      34             5.4471780    0.156284978695
     20   S      35             0.8245472    0.904690876670

     21   S      36             0.1831916    1.000000000000

 H         

     22   S      37             5.4471780    0.156284978695
     22   S      38             0.8245472    0.904690876670

     23   S      39             0.1831916    1.000000000000

 C         

     24   S      40           172.2560000    0.061766907377
     24   S      41            25.9109000    0.358794042852
     24   S      42             5.5333500    0.700713083689

     25   L      43             3.6649800   -0.395895162119    0.236459946619
     25   L      44             0.7705450    1.215834355681    0.860618805716

     26   L      45             0.1958570    1.000000000000    1.000000000000

 H         

     27   S      46             5.4471780    0.156284978695
     27   S      47             0.8245472    0.904690876670

     28   S      48             0.1831916    1.000000000000

 H         

     29   S      49             5.4471780    0.156284978695
     29   S      50             0.8245472    0.904690876670

     30   S      51             0.1831916    1.000000000000

 H         

     31   S      52             5.4471780    0.156284978695
     31   S      53             0.8245472    0.904690876670

     32   S      54             0.1831916    1.000000000000

 TOTAL NUMBER OF BASIS SET SHELLS             =   32
 NUMBER OF CARTESIAN GAUSSIAN BASIS FUNCTIONS =   56
 NUMBER OF ELECTRONS                          =   34
 CHARGE OF MOLECULE                           =    0
 SPIN MULTIPLICITY                            =    1
 NUMBER OF OCCUPIED ORBITALS (ALPHA)          =   17
 NUMBER OF OCCUPIED ORBITALS (BETA )          =   17
 TOTAL NUMBER OF ATOMS                        =   14
 THE NUCLEAR REPULSION ENERGY IS      134.1054966878

 SELECTED MURRAY-HANDY-LAMING RADIAL GRID

 LEGACY BECKE'S FUZZY CELL METHOD

 SELECTED ORIGINAL BECKE'S PARTITION FUNCTION

     LEBEDEV GRID-BASED DFT OPTIONS
     ------------------------------
     DFTTYP=B3LYP   
     NRAD  =      96     NLEB  =     302
     NRAD0 =      24     NLEB0 =     110
     SWOFF =    5.00E-03 (PURE SCF -> DFT)
     SWITCH=    3.00E-04 (COARSE -> TIGHT GRID)
     THRESH=    0.00E+00 GTHRE=    1.00E+00

 GRIMME'S EMPIRICAL DISPERSION CORRECTION= F

     $CONTRL OPTIONS
     ---------------
 SCFTYP=RHF          RUNTYP=OPTIMIZE     EXETYP=RUN     
 MPLEVL=       0     CITYP =NONE         CCTYP =NONE         VBTYP =NONE    
 DFTTYP=B3LYP        TDDFT =NONE    
 MULT  =       1     ICHARG=       0     NZVAR =       0     COORD =UNIQUE  
 PP    =NONE         RELWFN=NONE         LOCAL =NONE         NUMGRD=       F
 ISPHER=      -1     NOSYM =       0     MAXIT =      60     UNITS =ANGS    
 PLTORB=       F     MOLPLT=       F     AIMPAC=       F     FRIEND=        
 NPRINT=       7     IREST =       0     GEOM  =INPUT   
 NORMF =       0     NORMP =       0     ITOL  =      20     ICUT  =       9
 INTTYP=BEST         GRDTYP=BEST         QMTTOL= 1.0E-06

     $SYSTEM OPTIONS
     ---------------
  REPLICATED MEMORY=    30000000 WORDS (ON EVERY NODE).
 DISTRIBUTED MEMDDI=        1000 MILLION WORDS IN AGGREGATE,
 MEMDDI DISTRIBUTED OVER   6 PROCESSORS IS   166666666 WORDS/PROCESSOR.
 TOTAL MEMORY REQUESTED ON EACH PROCESSOR=   196666666 WORDS.
 TIMLIM=      525600.00 MINUTES, OR     365.0 DAYS.
 PARALL= T  BALTYP=  DLB     KDIAG=    0  COREFL= F
 MXSEQ2=     300 MXSEQ3=     150  mem10=         0

          ----------------
          PROPERTIES INPUT
          ----------------

     MOMENTS            FIELD           POTENTIAL          DENSITY
 IEMOM =       1   IEFLD =       0   IEPOT =       0   IEDEN =       0
 WHERE =COMASS     WHERE =NUCLEI     WHERE =NUCLEI     WHERE =NUCLEI  
 OUTPUT=BOTH       OUTPUT=BOTH       OUTPUT=BOTH       OUTPUT=BOTH    
 IEMINT=       0   IEFINT=       0                     IEDINT=       0
                                                       MORB  =       0
          EXTRAPOLATION IN EFFECT
          DIIS IN EFFECT
 ORBITAL PRINTING OPTION: NPREO=     1    56     2     1

     -------------------------------
     INTEGRAL TRANSFORMATION OPTIONS
     -------------------------------
     NWORD  =            0
     CUTOFF = 1.0E-09     MPTRAN =       0
     DIRTRF =       T     AOINTS =DUP     

          ----------------------
          INTEGRAL INPUT OPTIONS
          ----------------------
 NOPK  =       1 NORDER=       0 SCHWRZ=       T

     ------------------------------------------
     THE POINT GROUP IS C1 , NAXIS= 0, ORDER= 1
     ------------------------------------------

     DIMENSIONS OF THE SYMMETRY SUBSPACES ARE
 A   =   56

 ..... DONE SETTING UP THE RUN .....
 CPU     0: STEP CPU TIME=     0.01 TOTAL CPU TIME=          0.0 (      0.0 MIN)
 TOTAL WALL CLOCK TIME=          0.0 SECONDS, CPU UTILIZATION IS    50.00%


          -----------------------------
          STATIONARY POINT LOCATION RUN
          -----------------------------

 OBTAINING INITIAL HESSIAN, HESS=GUESS   
 CARTESIAN COORDINATE OPTIMIZATION USING BADGER'S RULE FORCE CONSTANT GUESS

          PARAMETERS CONTROLLING GEOMETRY SEARCH ARE
          METHOD =QA                  UPHESS =BFGS    
          NNEG   =         0          NFRZ   =         0
          NSTEP  =       999          IFOLOW =         1
          HESS   =GUESS               RESTAR =         F
          IHREP  =         0          HSSEND =         F
          NPRT   =         0          NPUN   =         0
          OPTTOL = 1.000E-04          RMIN   = 1.500E-03
          RMAX   = 1.000E-01          RLIM   = 7.000E-02
          DXMAX  = 3.000E-01          PURIFY =         F
          MOVIE  =         F          TRUPD  =         T
          TRMAX  = 5.000E-01          TRMIN  = 5.000E-02
          ITBMAT =         5          STPT   =         F
          STSTEP = 1.000E-02          PROJCT=          T

 BEGINNING GEOMETRY SEARCH POINT NSERCH=   0 ...

 COORDINATES OF ALL ATOMS ARE (ANGS)
   ATOM   CHARGE       X              Y              Z
 ------------------------------------------------------------
 H           1.0  -2.8105300000   0.0493800000   1.0736100000
 H           1.0  -2.6718100000   1.3510000000  -0.1176800000
 H           1.0  -0.2249300000   0.2613400000   1.5273600000
 C           6.0  -2.5905400000   0.2670600000   0.0208000000
 H           1.0  -0.1454500000   1.5520400000   0.3191700000
 C           6.0  -0.1042600000   0.4655300000   0.4559900000
 H           1.0  -3.3700700000  -0.2077300000  -0.5856300000
 C           6.0  -1.1937600000  -0.2430300000  -0.3613000000
 H           1.0  -1.2598000000  -2.0615900000   0.8408600000
 H           1.0   0.8969300000   0.1288100000   0.1645500000
 C           6.0  -1.1000800000  -1.7675300000  -0.2041600000
 H           1.0  -1.0262800000  -0.0041000000  -1.4221100000
 H           1.0  -1.8552200000  -2.2789400000  -0.8116200000
 H           1.0  -0.1158900000  -2.1413500000  -0.5078100000

          ********************
          1 ELECTRON INTEGRALS
          ********************
 ...... END OF ONE-ELECTRON INTEGRALS ......
 CPU     0: STEP CPU TIME=     0.02 TOTAL CPU TIME=          0.0 (      0.0 MIN)
 TOTAL WALL CLOCK TIME=          0.0 SECONDS, CPU UTILIZATION IS   100.00%

          -------------
          GUESS OPTIONS
          -------------
          GUESS =HUCKEL            NORB  =       0          NORDER=       0
          MIX   =       F          PRTMO =       F          PUNMO =       F
          TOLZ  = 1.0E-08          TOLE  = 1.0E-05
          SYMDEN=       F          PURIFY=       F

 INITIAL GUESS ORBITALS GENERATED BY HUCKEL   ROUTINE.
 HUCKEL GUESS REQUIRES     36338 WORDS.

 SYMMETRIES FOR INITIAL GUESS ORBITALS FOLLOW.   BOTH SET(S).
    17 ORBITALS ARE OCCUPIED (    4 CORE ORBITALS).
     5=A        6=A        7=A        8=A        9=A       10=A       11=A   
    12=A       13=A       14=A       15=A       16=A       17=A       18=A   
    19=A       20=A       21=A       22=A       23=A       24=A       25=A   
    26=A       27=A   
 ...... END OF INITIAL ORBITAL SELECTION ......
 CPU     0: STEP CPU TIME=     0.01 TOTAL CPU TIME=          0.0 (      0.0 MIN)
 TOTAL WALL CLOCK TIME=          0.1 SECONDS, CPU UTILIZATION IS    80.00%

                    ----------------------
                    AO INTEGRAL TECHNOLOGY
                    ----------------------
     S,P,L SHELL ROTATED AXIS INTEGRALS, REPROGRAMMED BY
        KAZUYA ISHIMURA (IMS) AND JOSE SIERRA (SYNSTAR).
     S,P,D,L SHELL ROTATED AXIS INTEGRALS PROGRAMMED BY
        KAZUYA ISHIMURA (INSTITUTE FOR MOLECULAR SCIENCE).
     S,P,D,F,G SHELL TO TOTAL QUARTET ANGULAR MOMENTUM SUM 5,
        ERIC PROGRAM BY GRAHAM FLETCHER (ELORET AND NASA ADVANCED
        SUPERCOMPUTING DIVISION, AMES RESEARCH CENTER).
     S,P,D,F,G,L SHELL GENERAL RYS QUADRATURE PROGRAMMED BY
        MICHEL DUPUIS (PACIFIC NORTHWEST NATIONAL LABORATORY).

          --------------------
          2 ELECTRON INTEGRALS
          --------------------

 DIRECT SCF METHOD SKIPS INTEGRAL STORAGE ON DISK.
 DIRECT TRANSFORMATION SKIPS AO INTEGRAL STORAGE ON DISK.
  ...... END OF TWO-ELECTRON INTEGRALS .....
 CPU     0: STEP CPU TIME=     0.01 TOTAL CPU TIME=          0.0 (      0.0 MIN)
 TOTAL WALL CLOCK TIME=          0.1 SECONDS, CPU UTILIZATION IS    83.33%

          --------------------------
             R-B3LYP SCF CALCULATION
          --------------------------

     NUCLEAR ENERGY =       134.1054966878
     MAXIT =   60     NPUNCH=    2
     EXTRAP=T  DAMP=F  SHIFT=F  RSTRCT=F  DIIS=T  DEM=F  SOSCF=F
         DENSITY MATRIX CONVERGENCE THRESHOLD=  2.00E-05
     COARSE -> FINE DFT GRID SWITCH THRESHOLD=  3.00E-04 (SWITCH IN $DFT)
                   HF -> DFT SWITCH THRESHOLD=  5.00E-03 (SWOFF IN $DFT)
     MEMORY REQUIRED FOR RHF ITERS=    539265 WORDS.

 DIRECT SCF CALCULATION, SCHWRZ=T   FDIFF=T,  DIRTHR=  0.00E+00 NITDIR=10
 SCHWARZ INEQUALITY OVERHEAD:      1593 INTEGRALS, T=        0.00

 DFT CODE IS SWITCHING FROM THE FINE GRID NRAD= 96,  NLEB=  302
                      TO THE COARSE GRID NRAD0= 24, NLEB0=  110

     EXCHANGE FUNCTIONAL   =B88&HFX   
     CORRELATION FUNCTIONAL=LYP88&VWN5
     DFT THRESHOLD         =.985E-08
     GRID CHANGE THRESHOLD =.300E-03
 FOR AN EULER-MACLAURIN QUADRATURE USING  96 RADIAL POINTS:
 SMALLEST GAUSSIAN PRIMITIVE EXPONENT=        0.1831915800 OF TYPE -S-
 ON ATOM NUMBER   1 HAS RADIAL NORMALIZATION=  1.000000
  LARGEST GAUSSIAN PRIMITIVE EXPONENT=      172.2560000000 OF TYPE -S-
 ON ATOM NUMBER   4 HAS RADIAL NORMALIZATION=  1.000000
 DFT IS SWITCHED OFF, PERFORMING PURE SCF UNTIL SWOFF THRESHOLD IS REACHED.

                                                                                   NONZERO     BLOCKS
 ITER EX DEM     TOTAL ENERGY        E CHANGE  DENSITY CHANGE    DIIS ERROR      INTEGRALS    SKIPPED
   1  0  0     -156.1409887914  -156.1409887914   0.621378434   0.647012635        1194324      20161
          * * *   INITIATING DIIS PROCEDURE   * * *
   2  1  0     -156.4188021587    -0.2778133672   0.090638848   0.052196286        1190695      22151
   3  2  0     -156.4315370190    -0.0127348603   0.057480375   0.017606666        1180102      25307
   4  3  0     -156.4332668658    -0.0017298468   0.015377252   0.004527371        1167794      28779
   5  4  0     -156.4334011126    -0.0001342468   0.003551517   0.000620012        1159614      29795
 CONVERGED TO SWOFF, SO DFT CALCULATION IS NOW SWITCHED ON.
          * * *   INITIATING DIIS PROCEDURE   * * *
   6  5  0     -157.4684482619    -1.0350471493   0.046137461   0.093297131        1194757      19854
   7  6  0     -157.4751994921    -0.0067512302   0.060917413   0.036080731        1182297      24856
   8  7  0     -157.4771198271    -0.0019203350   0.028833546   0.026197879        1175516      26673
   9  8  0     -157.4791806925    -0.0020608654   0.001933475   0.000688421        1167895      28610
  10  9  0     -157.4791821561    -0.0000014636   0.000192936   0.000306900        1107490      39199
 DFT CODE IS SWITCHING BACK TO THE FINE GRID
          * * *   INITIATING DIIS PROCEDURE   * * *
  11 10  0     -157.4813258801    -0.0021437240   0.002339857   0.001382136        1194879      19750
  12 11  0     -157.4813337667    -0.0000078866   0.000594875   0.000172335        1144524      32511
  13 12  0     -157.4813338157    -0.0000000489   0.000146922   0.000194898        1091767      41215
  14 13  0     -157.4813338995    -0.0000000838   0.000017408   0.000027384        1069147      45933
  15 14  0     -157.4813339008    -0.0000000013   0.000005042   0.000003086        1027462      52546

          -----------------
          DENSITY CONVERGED
          -----------------
     TIME TO FORM FOCK OPERATORS=       3.0 SECONDS (       0.2 SEC/ITER)
     FOCK TIME ON FIRST ITERATION=       0.0, LAST ITERATION=       0.5
     TIME TO SOLVE SCF EQUATIONS=       0.1 SECONDS (       0.0 SEC/ITER)

 FINAL R-B3LYP ENERGY IS     -157.4813339008 AFTER  15 ITERATIONS
 DFT EXCHANGE + CORRELATION ENERGY =       -20.4191507291
 TOTAL ELECTRON NUMBER             =        34.0003123028

          ------------
          EIGENVECTORS
          ------------

                      1          2          3          4          5
                  -10.1160   -10.0985   -10.0985   -10.0978    -0.7946
                     A          A          A          A          A   
    1  H  1  S   -0.001664   0.000376  -0.000044  -0.000683   0.046144
    2  H  1  S    0.000072   0.014474  -0.001771   0.007284   0.003301
    3  H  2  S   -0.001300   0.000093   0.000179  -0.000391   0.043197
    4  H  2  S   -0.000282   0.012668   0.001185   0.009413  -0.002260
    5  H  3  S   -0.001665  -0.000250  -0.000302  -0.000675   0.046125
    6  H  3  S    0.000064  -0.008509  -0.011605   0.007639   0.003317
    7  C  4  S   -0.017113   0.810034  -0.100728   0.553322  -0.096521
    8  C  4  S   -0.004699   0.093667  -0.011629   0.060687   0.099046
    9  C  4  X    0.000743   0.000762   0.000390  -0.000807   0.046123
   10  C  4  Y   -0.000313  -0.000289   0.001101   0.000442  -0.018206
   11  C  4  Z   -0.000071   0.000379   0.000276  -0.000245  -0.007915
   12  C  4  S    0.028037  -0.076654   0.009490  -0.044647   0.209030
   13  C  4  X    0.013361  -0.005286  -0.000793   0.000686  -0.006568
   14  C  4  Y   -0.005148   0.002091  -0.003423  -0.000879   0.003780
   15  C  4  Z   -0.002695  -0.000732  -0.000887   0.001826  -0.002836
   16  H  5  S   -0.001299  -0.000201   0.000049  -0.000381   0.043175
   17  H  5  S   -0.000263  -0.009391  -0.008230   0.009739  -0.002298
   18  C  6  S   -0.017096  -0.472864  -0.648568   0.572911  -0.096517
   19  C  6  S   -0.004698  -0.054779  -0.075017   0.062957   0.099043
   20  C  6  X   -0.000620   0.001017   0.000150   0.000738  -0.037353
   21  C  6  Y   -0.000418  -0.000441   0.001007   0.000567  -0.024861
   22  C  6  Z   -0.000311  -0.000139  -0.000011   0.000032  -0.022558
   23  C  6  S    0.028053   0.044987   0.061422  -0.046518   0.208999
   24  C  6  X   -0.010698  -0.004496  -0.002439  -0.000980   0.006493
   25  C  6  Y   -0.007096   0.000331  -0.004321  -0.000973   0.004898
   26  C  6  Z   -0.006905  -0.000369  -0.001054   0.001543  -0.000624
   27  H  7  S   -0.001299   0.000045  -0.000187  -0.000390   0.043140
   28  H  7  S   -0.000261   0.012010  -0.004280   0.009373  -0.002285
   29  C  8  S    0.986929   0.000549  -0.000231   0.028667  -0.157683
   30  C  8  S    0.118731   0.000021  -0.000011   0.000958   0.144703
   31  C  8  X   -0.000070  -0.000062  -0.000019   0.000002  -0.003419
   32  C  8  Y   -0.000104   0.000021  -0.000061   0.000001  -0.004871
   33  C  8  Z    0.000461  -0.000005  -0.000016  -0.000010   0.021798
   34  C  8  S   -0.117597   0.000409  -0.000159   0.022859   0.403745
   35  C  8  X    0.001149  -0.014451  -0.004290  -0.000237  -0.002410
   36  C  8  Y    0.001668   0.004705  -0.014113  -0.000882  -0.003472
   37  C  8  Z   -0.007406  -0.001151  -0.003874   0.003040   0.015477
   38  H  9  S   -0.001667  -0.000165   0.000365  -0.000670   0.046144
   39  H  9  S    0.000065  -0.005542   0.013216   0.007769   0.003333
   40  H 10  S   -0.001300   0.000095  -0.000168  -0.000392   0.043168
   41  H 10  S   -0.000277  -0.004975  -0.011517   0.009643  -0.002275
   42  C 11  S   -0.017079  -0.305637   0.736466   0.580234  -0.096478
   43  C 11  S   -0.004697  -0.035429   0.085239   0.063805   0.099001
   44  C 11  X   -0.000073   0.001147   0.000328   0.000114  -0.003937
   45  C 11  Y    0.000805  -0.000229   0.000744  -0.000834   0.050047
   46  C 11  Z    0.000050  -0.000005   0.000523  -0.000378  -0.000370
   47  C 11  S    0.028042   0.029128  -0.069885  -0.047215   0.208931
   48  C 11  X   -0.001063  -0.003526  -0.000712  -0.000324   0.001231
   49  C 11  Y    0.014527   0.001927  -0.005203   0.000458  -0.006906
   50  C 11  Z   -0.000508   0.000085  -0.001670   0.001960  -0.004099
   51  H 12  S    0.001615  -0.000037   0.000015  -0.002045   0.069679
   52  H 12  S    0.016138   0.000040  -0.000015   0.002212  -0.005105
   53  H 13  S   -0.001299  -0.000210   0.000003  -0.000386   0.043163
   54  H 13  S   -0.000270  -0.007153   0.010118   0.009850  -0.002308
   55  H 14  S   -0.001299   0.000132   0.000142  -0.000390   0.043144
   56  H 14  S   -0.000268  -0.002099   0.012275   0.009765  -0.002281

                      6          7          8          9         10
                   -0.6742    -0.6741    -0.5525    -0.4560    -0.4239
                     A          A          A          A          A   
    1  H  1  S   -0.002739   0.099538  -0.083079   0.068314  -0.035261
    2  H  1  S   -0.000335   0.013153  -0.046684   0.061649  -0.027907
    3  H  2  S   -0.012830   0.104400  -0.059086  -0.078358   0.097399
    4  H  2  S   -0.011150   0.020046  -0.030581  -0.066117   0.093866
    5  H  3  S   -0.084775  -0.052153  -0.083199   0.068426  -0.030023
    6  H  3  S   -0.011223  -0.006911  -0.046698   0.061688  -0.023767
    7  C  4  S    0.004925  -0.174423   0.063775   0.012536   0.008850
    8  C  4  S   -0.004643   0.164346  -0.057522  -0.008546  -0.006127
    9  C  4  X   -0.011061  -0.019135   0.109729   0.109801   0.162027
   10  C  4  Y   -0.026258   0.008471  -0.030106  -0.087478   0.169651
   11  C  4  Z   -0.007597  -0.002869  -0.063722   0.129959   0.021641
   12  C  4  S   -0.014707   0.520934  -0.251439  -0.067106  -0.050857
   13  C  4  X   -0.004577  -0.003149   0.036716   0.059747   0.112428
   14  C  4  Y   -0.010531   0.001040  -0.005589  -0.053535   0.121964
   15  C  4  Z   -0.003090   0.000045  -0.036493   0.090945   0.021176
   16  H  5  S   -0.094303  -0.046541  -0.059072  -0.078444   0.104972
   17  H  5  S   -0.022850  -0.001655  -0.030575  -0.066227   0.099730
   18  C  6  S    0.148558   0.091477   0.063880   0.012435   0.007744
   19  C  6  S   -0.139972  -0.086185  -0.057614  -0.008441  -0.005387
   20  C  6  X   -0.005308  -0.023669  -0.075794  -0.132213  -0.182849
   21  C  6  Y   -0.022683   0.013829  -0.044997  -0.106276   0.154404
   22  C  6  Z   -0.004364   0.000397  -0.096254   0.087880  -0.030490
   23  C  6  S   -0.443688  -0.273219  -0.251844  -0.066666  -0.044403
   24  C  6  X    0.001538  -0.007286  -0.020905  -0.077756  -0.129882
   25  C  6  Y   -0.006570   0.007162  -0.010208  -0.064195   0.111416
   26  C  6  Z   -0.001400   0.000387  -0.046628   0.067025  -0.016068
   27  H  7  S    0.006828   0.104972  -0.059004  -0.078964  -0.137161
   28  H  7  S    0.009970   0.020685  -0.030524  -0.066579  -0.114903
   29  C  8  S   -0.000015   0.000048  -0.140876  -0.035361   0.000046
   30  C  8  S    0.000008  -0.000051   0.124649   0.030139  -0.000029
   31  C  8  X   -0.047318  -0.118124   0.016337  -0.035329  -0.029679
   32  C  8  Y   -0.115017   0.050642   0.023417  -0.050121   0.189888
   33  C  8  Z   -0.033370  -0.007066  -0.103696   0.222788   0.038110
   34  C  8  S    0.000053  -0.000125   0.536943   0.145290  -0.000250
   35  C  8  X   -0.010335  -0.025863   0.007526  -0.028254  -0.023930
   36  C  8  Y   -0.025174   0.011085   0.010694  -0.040074   0.153217
   37  C  8  Z   -0.007275  -0.001487  -0.047430   0.178155   0.030706
   38  H  9  S    0.087590  -0.047299  -0.083128   0.068582   0.064623
   39  H  9  S    0.011590  -0.006217  -0.046672   0.061827   0.051035
   40  H 10  S   -0.083998  -0.063281  -0.059127  -0.078525  -0.140426
   41  H 10  S   -0.011811  -0.019679  -0.030595  -0.066276  -0.118661
   42  C 11  S   -0.153521   0.082920   0.063883   0.012490  -0.016601
   43  C 11  S    0.144656  -0.078125  -0.057625  -0.008501   0.011504
   44  C 11  X   -0.011467  -0.026692  -0.001413  -0.035738  -0.005144
   45  C 11  Y   -0.018685   0.007489   0.121664   0.110345  -0.157501
   46  C 11  Z   -0.007610  -0.001620  -0.046931   0.152021   0.041826
   47  C 11  S    0.458458  -0.247653  -0.251799  -0.066839   0.095393
   48  C 11  X   -0.005319  -0.010391   0.002203  -0.023058  -0.002730
   49  C 11  Y   -0.003237   0.000701   0.041539   0.058817  -0.104526
   50  C 11  Z   -0.001356  -0.001595  -0.031307   0.103442   0.020440
   51  H 12  S    0.000006  -0.000103   0.147026  -0.113740  -0.000049
   52  H 12  S    0.000011  -0.000015   0.065091  -0.093635  -0.000058
   53  H 13  S    0.096794  -0.041114  -0.059108  -0.078349   0.043410
   54  H 13  S    0.022907  -0.000385  -0.030582  -0.066150   0.025152
   55  H 14  S    0.087477  -0.058409  -0.059109  -0.078794   0.032589
   56  H 14  S    0.012911  -0.018978  -0.030580  -0.066451   0.015525

                     11         12         13         14         15
                   -0.4239    -0.3748    -0.3747    -0.3549    -0.3205
                     A          A          A          A          A   
    1  H  1  S    0.054749  -0.053304   0.210719   0.000777  -0.010153
    2  H  1  S    0.043282  -0.049218   0.194171   0.000789   0.004845
    3  H  2  S    0.106003   0.058401  -0.078227  -0.139205   0.015303
    4  H  2  S    0.082881   0.049047  -0.073033  -0.134041   0.030578
    5  H  3  S   -0.057528   0.209042  -0.059140  -0.000026   0.011969
    6  H  3  S   -0.045449   0.192562  -0.054442  -0.000009  -0.002561
    7  C  4  S   -0.014003  -0.000169   0.000577   0.000022   0.028651
    8  C  4  S    0.009694   0.000504  -0.001972  -0.000010  -0.024602
    9  C  4  X   -0.065925   0.026538   0.002584  -0.090955  -0.260350
   10  C  4  Y    0.158639   0.078314  -0.070393  -0.203987   0.034843
   11  C  4  Z    0.092207  -0.056819   0.296796  -0.060052  -0.021298
   12  C  4  S    0.080547  -0.002459   0.010512  -0.000160  -0.125916
   13  C  4  X   -0.041056   0.024932   0.010136  -0.070926  -0.213320
   14  C  4  Y    0.113904   0.075304  -0.055876  -0.159075   0.025069
   15  C  4  Z    0.057308  -0.041362   0.236714  -0.046819  -0.017185
   16  H  5  S   -0.098041  -0.077221   0.061069   0.138682  -0.017974
   17  H  5  S   -0.075354  -0.072318   0.051563   0.133548  -0.033762
   18  C  6  S    0.014665   0.000571  -0.000153  -0.000009  -0.028712
   19  C  6  S   -0.010145  -0.001943   0.000549   0.000008   0.024631
   20  C  6  X   -0.020450  -0.092246  -0.014879  -0.135997  -0.244013
   21  C  6  Y   -0.153105  -0.075240   0.077410   0.185733  -0.077670
   22  C  6  Z   -0.107114   0.278273  -0.072667   0.020054  -0.065717
   23  C  6  S   -0.084365   0.010416  -0.003013   0.000019   0.126183
   24  C  6  X   -0.011759  -0.081394  -0.018313  -0.105969  -0.200350
   25  C  6  Y   -0.109049  -0.060563   0.073786   0.144826  -0.060273
   26  C  6  Z   -0.065899   0.219273  -0.055944   0.015620  -0.054287
   27  H  7  S   -0.041800  -0.013891  -0.097966   0.138389   0.125478
   28  H  7  S   -0.048610  -0.008110  -0.088977   0.133307   0.160803
   29  C  8  S   -0.000026  -0.000052   0.000021  -0.000012   0.000050
   30  C  8  S    0.000020   0.000050  -0.000027  -0.000001  -0.000061
   31  C  8  X    0.191452  -0.035817   0.046317   0.000016   0.290169
   32  C  8  Y    0.022760  -0.044748  -0.036771   0.000222   0.025405
   33  C  8  Z    0.035609  -0.015590  -0.001117  -0.000074   0.049867
   34  C  8  S    0.000139   0.000228  -0.000091   0.000110  -0.000083
   35  C  8  X    0.154464  -0.035202   0.045681   0.000015   0.204776
   36  C  8  Y    0.018328  -0.044139  -0.036213   0.000177   0.017966
   37  C  8  Z    0.028680  -0.015501  -0.001035   0.000019   0.035037
   38  H  9  S    0.002688  -0.155919  -0.151349   0.000335   0.000482
   39  H  9  S    0.002156  -0.143645  -0.139384   0.000395   0.000818
   40  H 10  S    0.030906  -0.097555  -0.011552  -0.138646  -0.125183
   41  H 10  S    0.039450  -0.088299  -0.006080  -0.133571  -0.160488
   42  C 11  S   -0.000662  -0.000418  -0.000375   0.000012   0.000299
   43  C 11  S    0.000468   0.001454   0.001366  -0.000001  -0.000265
   44  C 11  X    0.254188   0.084048  -0.010918   0.226584  -0.150054
   45  C 11  Y    0.014076   0.019203   0.011057   0.017793  -0.014343
   46  C 11  Z    0.046416  -0.213449  -0.223435   0.040077  -0.026007
   47  C 11  S    0.003731  -0.007869  -0.007660  -0.000095  -0.001309
   48  C 11  X    0.182624   0.077176  -0.018301   0.176599  -0.128622
   49  C 11  Y    0.010433   0.010641   0.002846   0.013863  -0.012166
   50  C 11  Z    0.032970  -0.168659  -0.180112   0.031225  -0.022355
   51  H 12  S   -0.000158  -0.000064   0.000119   0.000117   0.001192
   52  H 12  S   -0.000183  -0.000128   0.000129   0.000191   0.001302
   53  H 13  S   -0.137217   0.038439   0.090339  -0.138637   0.109069
   54  H 13  S   -0.122658   0.038646   0.079643  -0.133530   0.129122
   55  H 14  S    0.139961   0.091756   0.036187   0.138402  -0.108205
   56  H 14  S    0.124042   0.081029   0.036705   0.133290  -0.127826

                     16         17         18         19         20
                   -0.3204    -0.3117     0.1119     0.1589     0.1760
                     A          A          A          A          A   
    1  H  1  S    0.006039  -0.128197   0.015024   0.041697  -0.020423
    2  H  1  S   -0.002826  -0.179364  -0.407814   0.887040   0.015185
    3  H  2  S   -0.134959   0.039340  -0.020662  -0.010939  -0.062055
    4  H  2  S   -0.166990   0.039271  -0.571749  -0.189351  -0.823632
    5  H  3  S    0.005394  -0.128284   0.015101   0.041472  -0.013982
    6  H  3  S   -0.003315  -0.179597  -0.407242   0.882182   0.012494
    7  C  4  S   -0.016852  -0.014896  -0.077833   0.011544   0.023377
    8  C  4  S    0.014476   0.014564   0.043764   0.000473  -0.020160
    9  C  4  X    0.083285   0.074122  -0.086057   0.037759   0.034471
   10  C  4  Y   -0.176521   0.010844   0.035116   0.038981   0.206495
   11  C  4  Z   -0.034204  -0.147937   0.011405  -0.188060   0.059823
   12  C  4  S    0.074040   0.069565   0.932064  -0.225541  -0.173708
   13  C  4  X    0.065526   0.054021  -0.417227   0.118668   0.198018
   14  C  4  Y   -0.148561   0.009283   0.165860   0.113688   0.744084
   15  C  4  Z   -0.029882  -0.112947   0.069668  -0.560914   0.245636
   16  H  5  S   -0.134681   0.039929  -0.020781  -0.011047  -0.072740
   17  H  5  S   -0.166486   0.039658  -0.572736  -0.192717  -0.946254
   18  C  6  S   -0.016461  -0.015226  -0.077839   0.011049   0.016128
   19  C  6  S    0.014149   0.014845   0.043784   0.000717  -0.013945
   20  C  6  X   -0.035198  -0.023253   0.070641   0.022554  -0.111581
   21  C  6  Y   -0.185351   0.002717   0.047759   0.037310   0.211352
   22  C  6  Z   -0.054465  -0.165477   0.038635  -0.190174   0.034009
   23  C  6  S    0.072314   0.071079   0.931777  -0.219672  -0.119306
   24  C  6  X   -0.025025  -0.015848   0.338422   0.062371  -0.466057
   25  C  6  Y   -0.155364   0.003665   0.226869   0.107210   0.765763
   26  C  6  Z   -0.045408  -0.125543   0.201174  -0.569092   0.125891
   27  H  7  S    0.052068   0.039738  -0.020727  -0.011094   0.074311
   28  H  7  S    0.054306   0.039558  -0.572128  -0.192404   0.889610
   29  C  8  S   -0.000063  -0.008672  -0.058948  -0.012773   0.000233
   30  C  8  S    0.000083   0.011368   0.016897   0.004510  -0.000078
   31  C  8  X   -0.035656  -0.042454   0.014692   0.022289  -0.019551
   32  C  8  Y    0.287005  -0.065124   0.021177   0.032526   0.086939
   33  C  8  Z    0.060963   0.280950  -0.093650  -0.142579   0.017508
   34  C  8  S    0.000145   0.016523   0.863296   0.175065  -0.003492
   35  C  8  X   -0.025246  -0.033623   0.039164   0.052100  -0.019219
   36  C  8  Y    0.202582  -0.051306   0.056020   0.076771   0.082824
   37  C  8  Z    0.043190   0.221712  -0.247160  -0.333136   0.020094
   38  H  9  S   -0.013577  -0.128232   0.014924   0.041377   0.034539
   39  H  9  S    0.003232  -0.179655  -0.408258   0.883199  -0.023104
   40  H 10  S    0.054278   0.037898  -0.020647  -0.010898   0.081075
   41  H 10  S    0.057001   0.037315  -0.571593  -0.192225   0.987563
   42  C 11  S    0.032995  -0.015369  -0.077901   0.011049  -0.039608
   43  C 11  S   -0.028296   0.014969   0.043793   0.000676   0.034191
   44  C 11  X    0.031966   0.016372   0.007784   0.028325  -0.035022
   45  C 11  Y   -0.285644   0.092060  -0.093086   0.051376   0.087313
   46  C 11  Z   -0.047762  -0.139209  -0.002716  -0.186431   0.001854
   47  C 11  S   -0.145015   0.071677   0.932628  -0.219370   0.293702
   48  C 11  X    0.025882   0.012703   0.035104   0.083103  -0.112745
   49  C 11  Y   -0.232731   0.067853  -0.452367   0.159859   0.207690
   50  C 11  Z   -0.037555  -0.106660   0.001357  -0.555021  -0.048422
   51  H 12  S   -0.001409  -0.230692  -0.006353  -0.106867   0.000182
   52  H 12  S   -0.001584  -0.271918  -0.607670  -0.834013   0.005682
   53  H 13  S    0.081515   0.038975  -0.020713  -0.011095  -0.019091
   54  H 13  S    0.110759   0.038553  -0.572168  -0.193301  -0.167340
   55  H 14  S    0.082938   0.038011  -0.020624  -0.010688  -0.001635
   56  H 14  S    0.112408   0.037320  -0.571467  -0.190715   0.053271

                     21         22         23         24         25
                    0.1761     0.1869     0.1870     0.2070     0.2168
                     A          A          A          A          A   
    1  H  1  S   -0.028190   0.027113  -0.063254  -0.015777  -0.030345
    2  H  1  S    0.017470   0.433532  -1.004935  -0.260997  -0.364867
    3  H  2  S    0.057886   0.031852   0.013476   0.011878  -0.012809
    4  H  2  S    0.668066   0.178190  -0.720451   0.428060   0.288667
    5  H  3  S    0.031571  -0.068562   0.008299  -0.015704  -0.056366
    6  H  3  S   -0.025510  -1.091686   0.131697  -0.255549  -0.671081
    7  C  4  S    0.032200   0.057414  -0.133445   0.048722   0.003971
    8  C  4  S   -0.027817  -0.021637   0.050324  -0.021230  -0.000776
    9  C  4  X   -0.127910   0.062252  -0.076131  -0.002389   0.028917
   10  C  4  Y   -0.106684   0.045261   0.048250  -0.022306  -0.077229
   11  C  4  Z   -0.034487  -0.004539   0.055755   0.079118   0.072123
   12  C  4  S   -0.238389  -0.797149   1.852366  -0.573893  -0.075494
   13  C  4  X   -0.389120   0.131591  -0.115620  -0.050507   0.164061
   14  C  4  Y   -0.453054   0.152450   0.070398  -0.132967  -0.133578
   15  C  4  Z   -0.101808  -0.042695   0.223682   0.522715   0.314822
   16  H  5  S   -0.043735   0.003941   0.034159   0.011608   0.012104
   17  H  5  S   -0.480380  -0.738171  -0.038072   0.423358   0.549298
   18  C  6  S   -0.036318  -0.144137   0.016749   0.049207   0.007958
   19  C  6  S    0.031323   0.054318  -0.006350  -0.021475  -0.001817
   20  C  6  X   -0.126395   0.060656  -0.047371  -0.021887  -0.097461
   21  C  6  Y    0.041741   0.045236   0.050814  -0.021915  -0.122137
   22  C  6  Z   -0.020940   0.082353  -0.004448   0.075215   0.114284
   23  C  6  S    0.269604   2.001377  -0.232582  -0.580284  -0.148361
   24  C  6  X   -0.377898   0.057662  -0.118266  -0.112560  -0.427893
   25  C  6  Y    0.230900   0.040078   0.151205  -0.129848  -0.332156
   26  C  6  Z   -0.074461   0.266977  -0.017928   0.511283   0.447597
   27  H  7  S   -0.040933  -0.031592  -0.013798   0.011789   0.055646
   28  H  7  S   -0.575269   0.399870  -0.624656   0.430281   0.303348
   29  C  8  S   -0.000149   0.000036   0.000352  -0.127780  -0.000360
   30  C  8  S    0.000097  -0.000018  -0.000123   0.045720   0.000110
   31  C  8  X   -0.087578  -0.064123   0.060466   0.032954  -0.002668
   32  C  8  Y   -0.016270  -0.057146  -0.065394   0.047043  -0.043921
   33  C  8  Z   -0.017945  -0.022913  -0.004985  -0.208123  -0.011096
   34  C  8  S    0.001730  -0.000424  -0.004588   1.749011   0.005330
   35  C  8  X   -0.084158  -0.376361   0.354312   0.154544  -0.012698
   36  C  8  Y   -0.015733  -0.335560  -0.384102   0.218450  -0.214691
   37  C  8  Z   -0.019662  -0.134834  -0.029200  -0.974114  -0.053618
   38  H  9  S   -0.003537   0.041154   0.055260  -0.015687   0.086574
   39  H  9  S    0.001208   0.655131   0.880096  -0.258657   1.034371
   40  H 10  S    0.024894  -0.004218  -0.034503   0.012131   0.067725
   41  H 10  S    0.381438  -0.711629   0.201933   0.436735   0.559571
   42  C 11  S    0.004371   0.086605   0.116321   0.049314  -0.011678
   43  C 11  S   -0.003704  -0.032676  -0.043828  -0.021338   0.002546
   44  C 11  X   -0.254271   0.053218  -0.041092  -0.012044   0.048306
   45  C 11  Y   -0.029375   0.066955   0.081250  -0.005805  -0.123814
   46  C 11  Z   -0.044730  -0.014039  -0.038365   0.081589  -0.262031
   47  C 11  S   -0.033469  -1.202268  -1.615672  -0.583980   0.220935
   48  C 11  X   -0.962929   0.162822  -0.093235  -0.079974   0.208494
   49  C 11  Y   -0.098254   0.121979   0.139407  -0.080941  -0.425539
   50  C 11  Z   -0.162903  -0.096162  -0.183476   0.531011  -0.968143
   51  H 12  S   -0.000038   0.000129  -0.000061  -0.031673  -0.000028
   52  H 12  S   -0.003021   0.000709   0.002398  -1.646250  -0.005177
   53  H 13  S   -0.082671  -0.027517   0.020905   0.012457  -0.054966
   54  H 13  S   -1.045124   0.532779   0.515335   0.441532  -0.847551
   55  H 14  S    0.084885   0.027754  -0.020499   0.011556  -0.067491
   56  H 14  S    1.061728   0.339134   0.656734   0.428331  -0.849608

                     26         27         28         29         30
                    0.2168     0.2474     0.2584     0.2832     0.2833
                     A          A          A          A          A   
    1  H  1  S    0.082471  -0.000664  -0.032799   0.022831  -0.023803
    2  H  1  S    0.981893   0.007073   0.369119   0.423713  -0.443112
    3  H  2  S   -0.071039  -0.044119  -0.006471   0.027668  -0.038721
    4  H  2  S   -0.812695  -0.865465  -0.038172   0.300794   0.184355
    5  H  3  S   -0.067383  -0.000821  -0.032744  -0.031471  -0.007981
    6  H  3  S   -0.807347   0.006974   0.367217  -0.593213  -0.147591
    7  C  4  S   -0.011482   0.001579   0.070697  -0.033668   0.034513
    8  C  4  S    0.002589  -0.000134  -0.006070  -0.003061   0.003144
    9  C  4  X   -0.126300   0.094390  -0.101333   0.124443  -0.153093
   10  C  4  Y    0.108511   0.216957   0.046920  -0.060940   0.001886
   11  C  4  Z   -0.225245   0.064352  -0.027407  -0.111194   0.098084
   12  C  4  S    0.215649  -0.022630  -1.046023   0.588876  -0.603375
   13  C  4  X   -0.416788   0.309963  -0.839663   0.651632  -1.007015
   14  C  4  Y    0.444940   0.740063   0.407728  -0.609145  -0.146870
   15  C  4  Z   -0.826195   0.217116  -0.180365  -0.590081   0.381598
   16  H  5  S    0.070930   0.044207  -0.008249  -0.044105  -0.019436
   17  H  5  S    0.666475   0.865789  -0.076865  -0.160090   0.307620
   18  C  6  S    0.009579   0.001826   0.070710   0.046679   0.012233
   19  C  6  S   -0.002091  -0.000236  -0.006007   0.004277   0.001038
   20  C  6  X   -0.153376   0.146046   0.089625   0.114892   0.059047
   21  C  6  Y   -0.095170  -0.195478   0.071321   0.077006  -0.019139
   22  C  6  Z    0.143811  -0.020829   0.008656   0.198624   0.046151
   23  C  6  S   -0.179027  -0.026142  -1.046468  -0.816451  -0.213521
   24  C  6  X   -0.480923   0.504371   0.756846   0.694892   0.552539
   25  C  6  Y   -0.434907  -0.656213   0.565547   0.587250  -0.351332
   26  C  6  Z    0.535794  -0.067797   0.107467   1.013524   0.203567
   27  H  7  S   -0.045750   0.043974  -0.008235   0.038606  -0.028243
   28  H  7  S   -0.808654   0.864442  -0.079449  -0.185273  -0.289455
   29  C  8  S    0.000001  -0.004279  -0.169743  -0.000034  -0.000442
   30  C  8  S    0.000002   0.000962   0.034424  -0.000020   0.000088
   31  C  8  X   -0.044312  -0.000475  -0.039387   0.332695  -0.135271
   32  C  8  Y    0.005479  -0.001167  -0.057809   0.122350   0.332797
   33  C  8  Z   -0.005919   0.003993   0.252074   0.079878   0.054417
   34  C  8  S    0.000129   0.061030   2.450778   0.000963   0.006884
   35  C  8  X   -0.215502  -0.002309  -0.195907   1.733298  -0.703849
   36  C  8  Y    0.027381  -0.005623  -0.286456   0.637599   1.732714
   37  C  8  Z   -0.028761   0.020757   1.253131   0.415580   0.283783
   38  H  9  S   -0.015058  -0.000761  -0.032996   0.008893   0.031754
   39  H  9  S   -0.178094   0.005646   0.366705   0.164696   0.590358
   40  H 10  S    0.024267  -0.044216  -0.006611  -0.047471  -0.004500
   41  H 10  S    0.659974  -0.862999  -0.039622   0.009022  -0.350687
   42  C 11  S    0.001808   0.001829   0.070975  -0.012986  -0.046207
   43  C 11  S   -0.000481  -0.000248  -0.006125  -0.001198  -0.004234
   44  C 11  X   -0.048371  -0.240555   0.020849  -0.043683   0.015733
   45  C 11  Y    0.019542  -0.021439  -0.105662   0.055196   0.212157
   46  C 11  Z    0.038096  -0.042419  -0.041772  -0.039898  -0.112001
   47  C 11  S   -0.034965  -0.026349  -1.049733   0.227498   0.808600
   48  C 11  X   -0.005470  -0.813503   0.142622  -0.579859   0.145763
   49  C 11  Y    0.082061  -0.083972  -0.889224   0.303514   1.263826
   50  C 11  Z    0.172561  -0.145624  -0.315265  -0.237348  -0.460001
   51  H 12  S   -0.000055   0.000851   0.042251   0.000175   0.000070
   52  H 12  S   -0.000527   0.000833   0.477112  -0.000791   0.001629
   53  H 13  S    0.046742  -0.043878  -0.006663   0.019823   0.043107
   54  H 13  S    0.155418  -0.862545  -0.040689  -0.307389   0.165160
   55  H 14  S   -0.025167   0.043822  -0.008351   0.005390   0.047633
   56  H 14  S    0.141290   0.866254  -0.075967   0.347004  -0.015761

                     31         32         33         34         35
                    0.6663     0.6720     0.6721     0.7561     0.7562
                     A          A          A          A          A   
    1  H  1  S    0.299930   0.100745   0.077016   0.330970   0.251137
    2  H  1  S    0.010403  -0.048002  -0.040441   0.076687   0.058527
    3  H  2  S   -0.166816  -0.281713   0.235416  -0.099766   0.024127
    4  H  2  S    0.003698   0.059347   0.010083   0.106213  -0.027305
    5  H  3  S    0.302850  -0.111136   0.043833   0.053559  -0.410759
    6  H  3  S    0.008731   0.058864  -0.021520   0.012794  -0.095697
    7  C  4  S   -0.004244  -0.000587  -0.000394   0.003975   0.002869
    8  C  4  S    0.058915   0.048100   0.038417   0.000077   0.000483
    9  C  4  X    0.306174   0.141705   0.383198  -0.297118  -0.280105
   10  C  4  Y   -0.195124  -0.452907   0.241592   0.075657  -0.067450
   11  C  4  Z    0.219031   0.014881   0.191208   0.450624   0.303263
   12  C  4  S   -0.193811  -0.253126  -0.204946  -0.250223  -0.191337
   13  C  4  X   -0.441354  -0.172661  -0.560740   0.379954   0.383103
   14  C  4  Y    0.310154   0.660411  -0.417611  -0.093645   0.146335
   15  C  4  Z   -0.413592   0.061403  -0.227439  -0.704865  -0.469595
   16  H  5  S   -0.174488   0.187382   0.310772  -0.088301   0.054352
   17  H  5  S    0.005581  -0.059024  -0.010063   0.093886  -0.055977
   18  C  6  S   -0.004263   0.000514  -0.000218   0.000783  -0.004619
   19  C  6  S    0.060631  -0.056111   0.021266  -0.000592  -0.001520
   20  C  6  X   -0.332302   0.200221  -0.413861  -0.039261  -0.193506
   21  C  6  Y   -0.257808   0.381517   0.314934   0.100121  -0.054030
   22  C  6  Z    0.107158   0.008721   0.047455   0.093052  -0.637012
   23  C  6  S   -0.201950   0.300082  -0.114206  -0.038886   0.314265
   24  C  6  X    0.506140  -0.231990   0.617404   0.084370   0.220347
   25  C  6  Y    0.401714  -0.528598  -0.517866  -0.163504   0.024808
   26  C  6  Z   -0.245434  -0.095064  -0.044262  -0.142792   0.962563
   27  H  7  S   -0.175928   0.171103  -0.319783  -0.003706  -0.103960
   28  H  7  S    0.004635   0.020353   0.055988   0.002719   0.109770
   29  C  8  S   -0.000307   0.000038  -0.000056  -0.000532  -0.000210
   30  C  8  S   -0.070662  -0.001267   0.000227   0.001773   0.000558
   31  C  8  X   -0.015202   0.018043   0.005550   0.196136   0.350963
   32  C  8  Y   -0.021809   0.004721  -0.019306  -0.353157   0.181221
   33  C  8  Z    0.095313   0.005147  -0.003193  -0.046164   0.097211
   34  C  8  S    0.730634   0.011375  -0.001440  -0.007701  -0.002102
   35  C  8  X   -0.030005  -0.486912  -0.138488  -0.196242  -0.352282
   36  C  8  Y   -0.051368  -0.121231   0.486697   0.354259  -0.181734
   37  C  8  Z    0.236346  -0.100147   0.087141   0.044267  -0.098351
   38  H  9  S    0.300326   0.024012  -0.122545  -0.380732   0.160887
   39  H  9  S    0.010374  -0.009812   0.061833  -0.088172   0.037313
   40  H 10  S   -0.171267  -0.066415  -0.359073   0.071477   0.074299
   41  H 10  S    0.005193  -0.037933   0.046341  -0.076255  -0.077959
   42  C 11  S   -0.004204  -0.000183   0.000674  -0.004151   0.001954
   43  C 11  S    0.059240   0.010625  -0.060394  -0.001930   0.000077
   44  C 11  X   -0.065647  -0.529707  -0.022390   0.002131  -0.121100
   45  C 11  Y    0.318033   0.023213  -0.371659   0.419655  -0.189225
   46  C 11  Z    0.276387  -0.055660  -0.205777  -0.456164   0.171625
   47  C 11  S   -0.196683  -0.055484   0.320494   0.292054  -0.121840
   48  C 11  X    0.111144   0.824834   0.061031  -0.006423   0.211306
   49  C 11  Y   -0.453813  -0.025733   0.520971  -0.557489   0.255135
   50  C 11  Z   -0.498625   0.106579   0.198198   0.728554  -0.270403
   51  H 12  S   -0.354444  -0.005364   0.000356  -0.002529  -0.001296
   52  H 12  S    0.224912   0.003453  -0.000488  -0.000559   0.000179
   53  H 13  S   -0.176837   0.340166   0.124635   0.028970  -0.098981
   54  H 13  S    0.004842  -0.020944  -0.055953  -0.028722   0.105805
   55  H 14  S   -0.166965  -0.366986   0.009563   0.090748   0.048772
   56  H 14  S    0.003823   0.038100  -0.045739  -0.094547  -0.052751

                     36         37         38         39         40
                    0.7660     0.8367     0.8368     0.9178     0.9666
                     A          A          A          A          A   
    1  H  1  S   -0.205741   0.181727  -0.019254  -0.104049  -0.031156
    2  H  1  S   -0.082513   0.146282  -0.015585   0.606276   0.110140
    3  H  2  S    0.016851   0.262693  -0.215375   0.192601  -0.252424
    4  H  2  S   -0.059282   0.135676   0.066849  -0.295644   0.629166
    5  H  3  S   -0.210060  -0.107748  -0.147100  -0.104000   0.138072
    6  H  3  S   -0.083383  -0.087110  -0.117997   0.606857  -0.510853
    7  C  4  S   -0.027513   0.049560  -0.005338   0.010064  -0.005339
    8  C  4  S    0.097895  -0.078450   0.008455   0.046541  -0.017441
    9  C  4  X    0.459724  -0.380589   0.018752  -0.003236   0.248715
   10  C  4  Y   -0.133209   0.139894  -0.067471  -0.128672   0.434807
   11  C  4  Z   -0.240872   0.076924  -0.022841   0.427034   0.240376
   12  C  4  S   -0.085613   0.335617  -0.035344  -0.421132   0.188798
   13  C  4  X   -0.585441   1.022505  -0.105206  -0.132713  -0.491711
   14  C  4  Y    0.151610  -0.379487   0.054622   0.345410  -0.975186
   15  C  4  Z    0.365012  -0.253683   0.029644  -0.945329  -0.546291
   16  H  5  S    0.017537  -0.018207  -0.338553   0.193303   0.195322
   17  H  5  S   -0.059917  -0.140852  -0.055592  -0.294562   0.448962
   18  C  6  S   -0.027582  -0.029424  -0.040216   0.010100   0.024416
   19  C  6  S    0.097818   0.046439   0.063914   0.046201   0.082105
   20  C  6  X   -0.327848  -0.207224  -0.224623  -0.125080   0.166248
   21  C  6  Y   -0.196497  -0.080792  -0.190211  -0.133264   0.378273
   22  C  6  Z   -0.383977  -0.113272  -0.162605   0.406481  -0.358850
   23  C  6  S   -0.082121  -0.198297  -0.274669  -0.417596  -0.879126
   24  C  6  X    0.400190   0.484466   0.647699   0.394718  -0.169881
   25  C  6  Y    0.230511   0.303579   0.435549   0.377535  -0.705832
   26  C  6  Z    0.546114   0.339529   0.464810  -0.856178   0.958101
   27  H  7  S    0.017203   0.302416   0.154450   0.192321   0.141278
   28  H  7  S   -0.060251   0.118050  -0.095172  -0.294566  -0.728923
   29  C  8  S    0.073718  -0.000035   0.000018  -0.017460   0.000044
   30  C  8  S   -0.255871   0.000097   0.000004   0.065176  -0.000523
   31  C  8  X    0.044704  -0.770704  -0.240906   0.115864  -0.222712
   32  C  8  Y    0.058904   0.263528  -0.752505   0.165814  -0.302965
   33  C  8  Z   -0.268559  -0.061974  -0.208990  -0.729067  -0.104582
   34  C  8  S    0.925542  -0.000412   0.000478  -0.086723   0.000984
   35  C  8  X   -0.073693   1.380879   0.431908  -0.298589   0.837978
   36  C  8  Y   -0.099605  -0.471665   1.347285  -0.426062   1.141145
   37  C  8  Z    0.451548   0.110561   0.375276   1.875647   0.391969
   38  H  9  S   -0.211633  -0.074140   0.167042  -0.104732  -0.110557
   39  H  9  S   -0.084046  -0.059062   0.134973   0.605103   0.402697
   40  H 10  S    0.017530  -0.317943  -0.119318   0.191970   0.320244
   41  H 10  S   -0.061038  -0.009576  -0.150801  -0.296435   0.015426
   42  C 11  S   -0.027607  -0.020146   0.045614   0.009987  -0.019469
   43  C 11  S    0.097834   0.031792  -0.071878   0.046560  -0.064229
   44  C 11  X   -0.010193  -0.064169   0.004812  -0.073198   0.287420
   45  C 11  Y    0.514388   0.162121  -0.379414  -0.025200   0.143135
   46  C 11  Z   -0.176959  -0.015743   0.011972   0.438323   0.446989
   47  C 11  S   -0.080798  -0.136821   0.307384  -0.420107   0.689378
   48  C 11  X    0.002502   0.042226  -0.062852   0.178936  -0.643511
   49  C 11  Y   -0.658128  -0.450768   1.023582  -0.093926  -0.095523
   50  C 11  Z    0.287785   0.038028  -0.081674  -0.993343  -1.021346
   51  H 12  S    0.308977  -0.000365   0.000550   0.089323  -0.000127
   52  H 12  S    0.133126  -0.000015   0.001085   0.767109   0.001336
   53  H 13  S    0.017144   0.054737   0.335527   0.191370  -0.071372
   54  H 13  S   -0.060102  -0.125627   0.082737  -0.295558  -0.643429
   55  H 14  S    0.018593  -0.284548   0.185604   0.192690  -0.337456
   56  H 14  S   -0.061226   0.022893   0.149510  -0.295001   0.279514

                     41         42         43         44         45
                    0.9668     0.9711     1.0659     1.0869     1.0870
                     A          A          A          A          A   
    1  H  1  S   -0.138537  -0.394703   0.000296   0.429677   0.560199
    2  H  1  S    0.526727   0.118746   0.001511  -0.634617  -0.828257
    3  H  2  S   -0.221007  -0.367918  -0.408422  -0.240227  -0.442936
    4  H  2  S   -0.381962   0.140161   0.851858   0.394509   0.429859
    5  H  3  S    0.050894  -0.391843  -0.000150  -0.702450   0.091765
    6  H  3  S   -0.170145   0.110853   0.000958   1.037842  -0.135156
    7  C  4  S   -0.024670  -0.048782   0.000103  -0.010890  -0.014299
    8  C  4  S   -0.084519   0.008767  -0.000356   0.000432   0.001310
    9  C  4  X    0.120614  -0.136104   0.202695  -0.005609  -0.010864
   10  C  4  Y   -0.311615   0.049364   0.451015   0.087945   0.107017
   11  C  4  Z    0.432517   0.028702   0.136644  -0.256027  -0.337136
   12  C  4  S    0.903629   0.092180   0.000070   0.303255   0.394282
   13  C  4  X    0.004069  -0.073146  -0.345961   0.037630   0.229202
   14  C  4  Y    0.593661   0.029586  -0.769880  -0.320968  -0.012518
   15  C  4  Z   -1.044585   0.032303  -0.233852   0.141318   0.306408
   16  H  5  S    0.282249  -0.361894   0.408457   0.486501  -0.153612
   17  H  5  S   -0.584774   0.137558  -0.853248  -0.578206   0.020125
   18  C  6  S    0.008788  -0.048392  -0.000054   0.017511  -0.002402
   19  C  6  S    0.026736   0.010114   0.000024  -0.000201   0.000256
   20  C  6  X    0.397316   0.116247   0.301724  -0.136022   0.027485
   21  C  6  Y   -0.347344   0.068617  -0.412023  -0.141105   0.005362
   22  C  6  Z   -0.170581   0.065985  -0.044325   0.397702  -0.052785
   23  C  6  S   -0.288763   0.078421   0.000238  -0.495135   0.065849
   24  C  6  X   -0.814753   0.040396  -0.515242   0.257332  -0.218396
   25  C  6  Y    0.800770   0.041932   0.704417   0.253124   0.218407
   26  C  6  Z    0.427474   0.069303   0.075107  -0.245691   0.057588
   27  H  7  S   -0.302970  -0.369086   0.410158  -0.368161  -0.351854
   28  H  7  S   -0.099929   0.146280  -0.854825   0.308617   0.487447
   29  C  8  S    0.000051  -0.002300   0.000009   0.000112   0.000062
   30  C  8  S    0.001554  -0.126450   0.000113  -0.000669  -0.000316
   31  C  8  X   -0.315443   0.055016   0.000077  -0.256031  -0.141537
   32  C  8  Y    0.230131   0.086708   0.000438  -0.131912   0.257790
   33  C  8  Z    0.007701  -0.371233  -0.000191  -0.068517   0.035659
   34  C  8  S   -0.000463   0.014632  -0.000230   0.000282  -0.000058
   35  C  8  X    1.185244  -0.036879  -0.000649   0.785126   0.434399
   36  C  8  Y   -0.867831  -0.084484  -0.001786   0.404883  -0.790412
   37  C  8  Z   -0.014248   0.320057   0.002496   0.213227  -0.109266
   38  H  9  S    0.102308  -0.389816  -0.000921   0.270223  -0.652706
   39  H  9  S   -0.360518   0.105389   0.001959  -0.398185   0.964997
   40  H 10  S   -0.100509  -0.367853  -0.409098   0.502561   0.022422
   41  H 10  S    0.733046   0.156515   0.852653  -0.565353   0.130447
   42  C 11  S    0.017755  -0.048138   0.000022  -0.006859   0.016506
   43  C 11  S    0.057463   0.010745   0.000185   0.000357  -0.000838
   44  C 11  X    0.475708   0.017574  -0.504519   0.041169  -0.071350
   45  C 11  Y   -0.068498  -0.150407  -0.040149   0.004914  -0.008143
   46  C 11  Z   -0.270600  -0.003534  -0.087400  -0.165256   0.405792
   47  C 11  S   -0.617683   0.071950  -0.001383   0.191537  -0.461041
   48  C 11  X   -1.036120  -0.012507   0.861257  -0.305745  -0.018620
   49  C 11  Y   -0.042472  -0.081296   0.067891   0.057032  -0.199364
   50  C 11  Z    0.629228   0.043577   0.149047   0.094849  -0.366309
   51  H 12  S    0.007154  -0.517387   0.000530   0.002234   0.000634
   52  H 12  S   -0.007506   0.538284   0.001075  -0.003454  -0.000586
   53  H 13  S    0.335287  -0.361095  -0.408971  -0.270394   0.435658
   54  H 13  S   -0.356757   0.143485   0.852915   0.169772  -0.552529
   55  H 14  S    0.035720  -0.363822   0.410169  -0.111916   0.487309
   56  H 14  S    0.678827   0.155369  -0.854653   0.270241  -0.514101

                     46         47         48         49         50
                    1.0953     1.1006     1.1290     1.1291     1.1683
                     A          A          A          A          A   
    1  H  1  S    0.446130  -0.005186   0.177554  -0.271122   0.063774
    2  H  1  S   -0.588390   0.007754  -0.359417   0.545846  -0.054309
    3  H  2  S   -0.003853   0.390551   0.547998   0.168757  -0.215460
    4  H  2  S    0.099010   0.200399  -0.517497  -0.447146  -0.034862
    5  H  3  S    0.442186  -0.003274   0.146191   0.291330   0.462412
    6  H  3  S   -0.583472   0.006584  -0.295171  -0.583752  -0.372467
    7  C  4  S    0.028360   0.000325   0.021376  -0.032927   0.006745
    8  C  4  S   -0.090356  -0.000373  -0.042535   0.065855  -0.038651
    9  C  4  X   -0.004714   0.177397  -0.180820  -0.058453   0.011851
   10  C  4  Y    0.100154   0.395020  -0.286618  -0.306664  -0.121343
   11  C  4  Z   -0.327605   0.120861  -0.245908   0.150393  -0.021942
   12  C  4  S   -0.115725  -0.006071  -0.375901   0.576439   0.092095
   13  C  4  X   -0.158233  -0.508319  -0.105792   0.282884   0.099645
   14  C  4  Y   -0.006374  -1.123926   0.072723   0.149182   0.478256
   15  C  4  Z    0.260588  -0.339620   0.434018  -0.580507   0.093649
   16  H  5  S    0.001218  -0.378763   0.563898  -0.109664   0.164544
   17  H  5  S    0.095657  -0.212536  -0.564694   0.387634  -0.608215
   18  C  6  S    0.028354   0.000416   0.017679   0.035075   0.050225
   19  C  6  S   -0.089829  -0.000871  -0.035094  -0.070118  -0.290548
   20  C  6  X    0.099784   0.261980   0.298606  -0.016753  -0.336986
   21  C  6  Y    0.108046  -0.364043  -0.280972   0.267540  -0.314311
   22  C  6  Z   -0.307704  -0.037487  -0.140714  -0.188128  -0.081371
   23  C  6  S   -0.118050  -0.002514  -0.313529  -0.613235   0.715342
   24  C  6  X    0.060918  -0.743875  -0.068418   0.079771   0.508580
   25  C  6  Y    0.008990   1.029151   0.092042  -0.104009   0.719547
   26  C  6  Z    0.297844   0.109452   0.366926   0.690143  -0.026245
   27  H  7  S    0.000509  -0.380351  -0.376808  -0.435780   0.297416
   28  H  7  S    0.094991  -0.212250   0.621187   0.296991  -0.130636
   29  C  8  S   -0.041731  -0.000234  -0.000096   0.000040   0.000064
   30  C  8  S    0.240532   0.001201   0.000405  -0.000123  -0.000246
   31  C  8  X    0.109891   0.001861   0.081341  -0.480446   0.025353
   32  C  8  Y    0.158526  -0.003217  -0.476853  -0.063277   0.073871
   33  C  8  Z   -0.701069  -0.005234  -0.095422  -0.091106   0.020671
   34  C  8  S   -0.202659  -0.000062   0.000125   0.000453  -0.000470
   35  C  8  X   -0.210547  -0.005195  -0.249926   1.478472  -0.035434
   36  C  8  Y   -0.304871   0.011141   1.467771   0.194753  -0.091403
   37  C  8  Z    1.347979   0.014055   0.292126   0.279898  -0.026852
   38  H  9  S    0.444691   0.008622  -0.323184  -0.017882  -0.525966
   39  H  9  S   -0.587846  -0.012913   0.651724   0.035505   0.425673
   40  H 10  S   -0.000970   0.390893  -0.422102   0.391700   0.460853
   41  H 10  S    0.095345   0.196838   0.649723  -0.226192  -0.667336
   42  C 11  S    0.028374  -0.000405  -0.038908  -0.002205  -0.057062
   43  C 11  S   -0.090149   0.000805   0.076757   0.005006   0.329121
   44  C 11  X    0.060133  -0.438473  -0.026639  -0.458610   0.026226
   45  C 11  Y    0.012641  -0.037169   0.043263  -0.034996  -0.502152
   46  C 11  Z   -0.337263  -0.084062   0.280528  -0.065156  -0.155346
   47  C 11  S   -0.117404   0.003443   0.690002   0.033826  -0.806598
   48  C 11  X   -0.033086   1.251971   0.083160   0.169182   0.039901
   49  C 11  Y   -0.185537   0.104703   0.352897   0.032797   0.830313
   50  C 11  Z    0.241637   0.224139  -0.694105  -0.008410   0.492925
   51  H 12  S   -0.463266  -0.002045  -0.001306   0.001317   0.000248
   52  H 12  S    1.350948   0.008694   0.001747   0.000434  -0.000513
   53  H 13  S   -0.002481   0.379951  -0.126069  -0.559065  -0.251854
   54  H 13  S    0.095943   0.212172  -0.131092   0.675641   0.699156
   55  H 14  S    0.000188  -0.396826  -0.185175   0.540652  -0.457454
   56  H 14  S    0.098034  -0.191426  -0.057381  -0.682720   0.743857

                     51         52         53         54         55
                    1.1686     1.2115     1.6019     1.9753     1.9757
                     A          A          A          A          A   
    1  H  1  S    0.570635   0.284023   0.009364   0.002973  -0.267654
    2  H  1  S   -0.460498   0.124181  -0.303605   0.004702  -0.612366
    3  H  2  S    0.413425  -0.277293  -0.064690  -0.015895  -0.223556
    4  H  2  S   -0.793374   0.255096  -0.452021  -0.208802  -0.434127
    5  H  3  S   -0.338578   0.284446   0.009748   0.229871   0.136444
    6  H  3  S    0.273433   0.124955  -0.303465   0.527380   0.310250
    7  C  4  S    0.061808  -0.017592   0.004985   0.000487  -0.047889
    8  C  4  S   -0.357965   0.223356  -0.996211   0.017329  -1.714346
    9  C  4  X    0.511986  -0.151384   0.014574  -0.059112  -0.134982
   10  C  4  Y   -0.240771   0.063464  -0.021556  -0.135540   0.069552
   11  C  4  Z    0.077564   0.016780   0.050579  -0.040233  -0.036497
   12  C  4  S    0.881925  -0.655889   1.629145  -0.036166   3.531429
   13  C  4  X   -0.859985   0.067740  -0.236405   0.127899   0.471365
   14  C  4  Y    0.438201   0.142364   0.158036   0.298034  -0.231671
   15  C  4  Z   -0.365966  -0.586252  -0.175953   0.089456   0.082353
   16  H  5  S   -0.436075  -0.279019  -0.065443   0.183486   0.128927
   17  H  5  S    0.506209   0.253656  -0.451170   0.264527   0.405021
   18  C  6  S   -0.036708  -0.017833   0.004958   0.041191   0.024362
   19  C  6  S    0.212342   0.223497  -0.995544   1.476295   0.872215
   20  C  6  X    0.322801   0.125703  -0.027403  -0.062932  -0.141871
   21  C  6  Y    0.124459   0.083533  -0.024952  -0.140936   0.059543
   22  C  6  Z    0.048343   0.064648   0.043306  -0.014980   0.006561
   23  C  6  S   -0.522107  -0.649071   1.628615  -3.041014  -1.796424
   24  C  6  X   -0.720549   0.111045   0.254777   0.268817   0.388302
   25  C  6  Y   -0.049765   0.146157   0.196873   0.397962  -0.078076
   26  C  6  Z    0.070055  -0.582352  -0.091052   0.080626   0.013988
   27  H  7  S    0.354762  -0.278691  -0.065265   0.020124  -0.222750
   28  H  7  S   -0.776411   0.253950  -0.451650   0.219105  -0.430480
   29  C  8  S    0.000054   0.035229   0.031714   0.000000   0.000007
   30  C  8  S   -0.000217  -0.196815  -0.764894  -0.000450   0.000821
   31  C  8  X   -0.077407   0.034367   0.011006   0.039599   0.093576
   32  C  8  Y    0.026946   0.046524   0.015578   0.090996  -0.042276
   33  C  8  Z   -0.005806  -0.207086  -0.068965   0.026744   0.005152
   34  C  8  S    0.000052   0.192503   0.460762   0.000857  -0.001277
   35  C  8  X    0.099866  -0.215274  -0.019990   0.354012   0.840497
   36  C  8  Y   -0.036569  -0.297565  -0.027931   0.818634  -0.377333
   37  C  8  Z    0.007254   1.320697   0.123313   0.239492   0.046770
   38  H  9  S   -0.233283   0.284511   0.009639  -0.233095   0.131261
   39  H  9  S    0.189039   0.123354  -0.303472  -0.532957   0.301885
   40  H 10  S   -0.020432  -0.280527  -0.064995   0.201013   0.097976
   41  H 10  S    0.425451   0.256640  -0.451667   0.480635   0.035894
   42  C 11  S   -0.025203  -0.017740   0.004984  -0.041660   0.023519
   43  C 11  S    0.146024   0.223169  -0.995817  -1.493086   0.842488
   44  C 11  X    0.123955   0.014510  -0.010590  -0.054625  -0.141718
   45  C 11  Y   -0.213376  -0.163014   0.012967  -0.130115   0.059900
   46  C 11  Z   -0.048859  -0.008766   0.054527  -0.064784   0.006532
   47  C 11  S   -0.360224  -0.650368   1.629045   3.075757  -1.734621
   48  C 11  X   -0.497107   0.098016   0.058292   0.101281   0.321257
   49  C 11  Y    0.325650   0.107277  -0.244318   0.449795  -0.223572
   50  C 11  Z    0.128985  -0.590848  -0.221081   0.169576  -0.030453
   51  H 12  S    0.000693   1.028702   0.227524  -0.000227  -0.000034
   52  H 12  S   -0.001023  -0.353469  -0.417246  -0.000314   0.000313
   53  H 13  S   -0.391037  -0.277627  -0.064726  -0.185802   0.125519
   54  H 13  S    0.364514   0.254554  -0.452076  -0.271897   0.398090
   55  H 14  S    0.078868  -0.280564  -0.065050  -0.202593   0.093916
   56  H 14  S    0.273407   0.254723  -0.451896  -0.481670   0.025970

                     56
                    2.3196
                     A   
    1  H  1  S    0.167914
    2  H  1  S    0.077731
    3  H  2  S    0.176093
    4  H  2  S    0.215199
    5  H  3  S    0.167889
    6  H  3  S    0.078368
    7  C  4  S    0.060556
    8  C  4  S    0.567230
    9  C  4  X   -0.157905
   10  C  4  Y    0.073249
   11  C  4  Z   -0.008120
   12  C  4  S   -2.360646
   13  C  4  X   -0.649255
   14  C  4  Y    0.205419
   15  C  4  Z    0.278155
   16  H  5  S    0.176441
   17  H  5  S    0.213647
   18  C  6  S    0.060615
   19  C  6  S    0.567816
   20  C  6  X    0.138431
   21  C  6  Y    0.096493
   22  C  6  Z    0.043866
   23  C  6  S   -2.363521
   24  C  6  X    0.476565
   25  C  6  Y    0.297990
   26  C  6  Z    0.475990
   27  H  7  S    0.176092
   28  H  7  S    0.213298
   29  C  8  S   -0.123739
   30  C  8  S   -2.184860
   31  C  8  X    0.006159
   32  C  8  Y    0.009218
   33  C  8  Z   -0.040725
   34  C  8  S    5.930152
   35  C  8  X   -0.066401
   36  C  8  Y   -0.098227
   37  C  8  Z    0.434421
   38  H  9  S    0.168279
   39  H  9  S    0.078643
   40  H 10  S    0.176319
   41  H 10  S    0.214708
   42  C 11  S    0.060649
   43  C 11  S    0.568672
   44  C 11  X    0.019469
   45  C 11  Y   -0.169522
   46  C 11  Z   -0.034769
   47  C 11  S   -2.364366
   48  C 11  X    0.026001
   49  C 11  Y   -0.714665
   50  C 11  Z    0.175978
   51  H 12  S   -0.497385
   52  H 12  S   -0.466486
   53  H 13  S    0.176166
   54  H 13  S    0.214693
   55  H 14  S    0.176354
   56  H 14  S    0.214181
 ...... END OF RHF CALCULATION ......
 CPU     0: STEP CPU TIME=     3.31 TOTAL CPU TIME=          3.4 (      0.1 MIN)
 TOTAL WALL CLOCK TIME=          3.4 SECONDS, CPU UTILIZATION IS    98.82%

     ---------------------------------------------------------------------
     PROPERTIES FOR THE B3LYP    DFT FUNCTIONAL (RHF  TYPE) DENSITY MATRIX
     ---------------------------------------------------------------------

          -----------------
          ENERGY COMPONENTS
          -----------------

         WAVEFUNCTION NORMALIZATION =       1.0000000000

                ONE ELECTRON ENERGY =    -475.5907781912
                TWO ELECTRON ENERGY =     184.0039476026
           NUCLEAR REPULSION ENERGY =     134.1054966878
                                      ------------------
                       TOTAL ENERGY =    -157.4813339008

 ELECTRON-ELECTRON POTENTIAL ENERGY =     184.0039476026
  NUCLEUS-ELECTRON POTENTIAL ENERGY =    -631.7591265126
   NUCLEUS-NUCLEUS POTENTIAL ENERGY =     134.1054966878
                                      ------------------
             TOTAL POTENTIAL ENERGY =    -313.6496822222
               TOTAL KINETIC ENERGY =     156.1683483214
                 VIRIAL RATIO (V/T) =       2.0084075012

          ---------------------------------------
          MULLIKEN AND LOWDIN POPULATION ANALYSES
          ---------------------------------------

     ATOMIC MULLIKEN POPULATION IN EACH MOLECULAR ORBITAL

                      1          2          3          4          5

                  2.000000   2.000000   2.000000   2.000000   2.000000

    1             0.000003   0.002352   0.000036   0.000828   0.016353
    2            -0.000004   0.002063  -0.000028   0.001072   0.011183
    3             0.000003   0.000806   0.001510   0.000899   0.016348
    4             0.006240   1.339379   0.020775   0.625705   0.322783
    5            -0.000004   0.000879   0.001082   0.001147   0.011152
    6             0.006242   0.456454   0.858652   0.670750   0.322721
    7            -0.000004   0.001961   0.000078   0.001067   0.011139
    8             1.978026   0.004000   0.004003   0.006034   0.887492
    9             0.000003   0.000339   0.001952   0.000926   0.016372
   10            -0.000004   0.000479   0.001491   0.001136   0.011159
   11             0.006238   0.190729   1.107133   0.687994   0.322512
   12             0.003270   0.000000   0.000000   0.000102   0.028508
   13            -0.000004   0.000427   0.001506   0.001175   0.011136
   14            -0.000004   0.000131   0.001810   0.001165   0.011142

                      6          7          8          9         10

                  2.000000   2.000000   2.000000   2.000000   2.000000

    1             0.000057   0.075900   0.069544   0.047516   0.010753
    2             0.002834   0.089958   0.032974   0.061036   0.093363
    3             0.055073   0.020847   0.069703   0.047638   0.007793
    4             0.009576   0.984397   0.255881   0.290737   0.429340
    5             0.078371   0.014364   0.032956   0.061202   0.107463
    6             0.716570   0.277115   0.256506   0.289880   0.451507
    7             0.001287   0.091551   0.032869   0.061956   0.170123
    8             0.117029   0.116961   0.635836   0.486636   0.298372
    9             0.058790   0.017121   0.069602   0.047857   0.036063
   10             0.054342   0.038441   0.033012   0.061302   0.179187
   11             0.764609   0.229258   0.256301   0.290446   0.194085
   12             0.000000   0.000000   0.188842   0.131054   0.000000
   13             0.081966   0.010778   0.032989   0.061048   0.014368
   14             0.059496   0.033309   0.032985   0.061691   0.007582

                     11         12         13         14         15

                  2.000000   2.000000   2.000000   2.000000   2.000000

    1             0.025896   0.024261   0.378520   0.000005   0.000505
    2             0.097866   0.028097   0.051687   0.158949   0.003988
    3             0.028583   0.372580   0.029799   0.000000   0.000621
[...]
   34  C  8  S    0.002859   0.003449   0.005575   1.782544   0.005501
   35  C  8  X    0.085787  -0.525890  -0.044133   0.150810   0.154953
   36  C  8  Y    0.007325  -0.024937   0.520624   0.211430  -0.214721
   37  C  8  Z    0.012757  -0.089969   0.108696  -0.948263  -0.026101
   38  H  9  S   -0.000445  -0.002062  -0.067556  -0.015077   0.075747
   39  H  9  S   -0.000775  -0.033622  -1.061662  -0.221170   0.916964
   40  H 10  S   -0.034079   0.017329   0.032719   0.012039   0.035066
   41  H 10  S   -0.503794  -0.694124   0.305026   0.432890   0.009391
   42  C 11  S    0.000188  -0.004444  -0.146698   0.050938  -0.006208
   43  C 11  S   -0.000212   0.001678   0.056123  -0.022329   0.001563
   44  C 11  X    0.257611   0.066501   0.000325  -0.012366   0.064068
   45  C 11  Y    0.019590   0.002117  -0.101500  -0.008191  -0.110079
   46  C 11  Z    0.044661   0.012775   0.030235   0.075119  -0.219581
   47  C 11  S   -0.000498   0.061617   2.022684  -0.599277   0.131143
   48  C 11  X    0.973771   0.176824  -0.023867  -0.080398   0.146272
   49  C 11  Y    0.075248   0.008919  -0.166133  -0.084408  -0.399223
   50  C 11  Z    0.169578   0.037404   0.172546   0.502476  -0.839540
   51  H 12  S   -0.000127   0.000002  -0.000077  -0.035221   0.000050
   52  H 12  S   -0.003665  -0.002217  -0.003429  -1.665383  -0.004476
   53  H 13  S    0.082989  -0.036720  -0.001555   0.011523  -0.073527
   54  H 13  S    1.061037   0.087734  -0.755406   0.424010  -0.735972
   55  H 14  S   -0.082783   0.036515  -0.003649   0.011234  -0.035228
   56  H 14  S   -1.061219  -0.132272  -0.746125   0.423558  -0.702571

                     26         27
                    0.2177     0.2473
                     A          A   
    1  H  1  S   -0.042406   0.000502
    2  H  1  S   -0.510343  -0.007423
    3  H  2  S    0.062513   0.044093
    4  H  2  S    0.435318   0.866252
    5  H  3  S    0.088700   0.000881
    6  H  3  S    1.072891  -0.005016
    7  C  4  S    0.004367  -0.001268
    8  C  4  S   -0.001181   0.000083
    9  C  4  X    0.074721  -0.094553
   10  C  4  Y   -0.036241  -0.216447
   11  C  4  Z    0.118853  -0.063951
   12  C  4  S   -0.086300   0.018203
   13  C  4  X    0.203599  -0.312852
   14  C  4  Y   -0.273051  -0.739135
   15  C  4  Z    0.405059  -0.215736
   16  H  5  S   -0.062863  -0.043873
   17  H  5  S   -0.841712  -0.867351
   18  C  6  S   -0.008015  -0.001800
   19  C  6  S    0.001963   0.000268
   20  C  6  X    0.181487  -0.146274
   21  C  6  Y    0.153286   0.195250
   22  C  6  Z   -0.177797   0.020837
   23  C  6  S    0.164540   0.025777
   24  C  6  X    0.662717  -0.505942
   25  C  6  Y    0.557967   0.657493
   26  C  6  Z   -0.678605   0.067827
   27  H  7  S   -0.001647  -0.043846
   28  H  7  S    0.378754  -0.863251
   29  C  8  S   -0.000094   0.003640
   30  C  8  S    0.000026  -0.000823
   31  C  8  X    0.041985  -0.000070
   32  C  8  Y    0.031321   0.000462
   33  C  8  Z    0.013742  -0.004303
   34  C  8  S    0.001136  -0.050869
   35  C  8  X    0.202063  -0.000316
   36  C  8  Y    0.151855   0.002423
   37  C  8  Z    0.066210  -0.021708
   38  H  9  S   -0.046335   0.000601
   39  H  9  S   -0.562415  -0.006273
   40  H 10  S   -0.064296   0.044030
   41  H 10  S   -0.846825   0.863646
   42  C 11  S    0.003850  -0.001468
   43  C 11  S   -0.000889   0.000198
   44  C 11  X   -0.001436   0.240508
   45  C 11  Y    0.069309   0.020944
   46  C 11  Z    0.141071   0.042348
   47  C 11  S   -0.080808   0.020953
   48  C 11  X   -0.158561   0.815442
   49  C 11  Y    0.234508   0.080133
   50  C 11  Z    0.502329   0.146073
   51  H 12  S    0.000022  -0.000746
   52  H 12  S   -0.000365  -0.003818
   53  H 13  S    0.001871   0.043471
   54  H 13  S    0.410486   0.863989
   55  H 14  S    0.064442  -0.043463
   56  H 14  S    0.466424  -0.865860

     ---------------------------------------------------------------------
     PROPERTIES FOR THE B3LYP    DFT FUNCTIONAL (RHF  TYPE) DENSITY MATRIX
     ---------------------------------------------------------------------

          -----------------
          ENERGY COMPONENTS
          -----------------

         WAVEFUNCTION NORMALIZATION =       1.0000000000

                ONE ELECTRON ENERGY =    -474.9736508766
                TWO ELECTRON ENERGY =     183.7048176502
           NUCLEAR REPULSION ENERGY =     133.7871771965
                                      ------------------
                       TOTAL ENERGY =    -157.4816560299

 ELECTRON-ELECTRON POTENTIAL ENERGY =     183.7048176502
  NUCLEUS-ELECTRON POTENTIAL ENERGY =    -631.0935098812
   NUCLEUS-NUCLEUS POTENTIAL ENERGY =     133.7871771965
                                      ------------------
             TOTAL POTENTIAL ENERGY =    -313.6015150346
               TOTAL KINETIC ENERGY =     156.1198590047
                 VIRIAL RATIO (V/T) =       2.0087227662

          ---------------------------------------
          MULLIKEN AND LOWDIN POPULATION ANALYSES
          ---------------------------------------

     ATOMIC MULLIKEN POPULATION IN EACH MOLECULAR ORBITAL

                      1          2          3          4          5

                  2.000000   2.000000   2.000000   2.000000   2.000000

    1             0.000001   0.002187   0.000200   0.000831   0.017444
    2            -0.000004   0.001971   0.000044   0.001075   0.011623
    3             0.000001   0.001202   0.001141   0.000875   0.017453
    4             0.006048   1.240467   0.114550   0.631038   0.324826
    5            -0.000003   0.001222   0.000747   0.001122   0.011598
    6             0.006046   0.679102   0.648129   0.658825   0.324655
    7            -0.000003   0.001734   0.000288   0.001068   0.011560
    8             1.978669   0.003869   0.003872   0.005805   0.874226
    9             0.000001   0.000120   0.002170   0.000931   0.017496
   10            -0.000003   0.000795   0.001184   0.001110   0.011574
   11             0.006041   0.067142   1.224028   0.694883   0.324485
   12             0.003212   0.000000   0.000000   0.000089   0.029930
   13            -0.000004   0.000187   0.001726   0.001177   0.011563
   14            -0.000003  -0.000001   0.001920   0.001171   0.011566

                      6          7          8          9         10

                  2.000000   2.000000   2.000000   2.000000   2.000000

    1             0.019457   0.056716   0.069317   0.048846   0.013644
    2             0.036781   0.056731   0.031551   0.062774   0.074953
    3             0.018516   0.057621   0.069360   0.049199   0.004081
    4             0.259297   0.735827   0.249804   0.292207   0.394181
    5             0.035420   0.058070   0.031575   0.062752   0.138266
    6             0.246880   0.748166   0.250039   0.292050   0.494440
    7             0.013181   0.080402   0.031476   0.063680   0.157424
    8             0.112478   0.112408   0.654076   0.473441   0.279930
    9             0.076157   0.000004   0.069264   0.049590   0.031373
   10             0.012229   0.081355   0.031526   0.063531   0.193746
   11             0.986515   0.008727   0.249727   0.293153   0.188326
   12             0.000000   0.000000   0.199247   0.122033   0.000000
   13             0.091308   0.002191   0.031566   0.062873   0.028707
   14             0.091782   0.001783   0.031474   0.063873   0.000929

                     11         12         13         14         15

                  2.000000   2.000000   2.000000   2.000000   2.000000

    1             0.019381   0.000846   0.404609   0.000004   0.000632
    2             0.123655   0.011800   0.066861   0.158961   0.037273
    3             0.028443   0.319381   0.086033   0.000005   0.000412
    4             0.324167   0.034988   0.713894   0.352038   0.528438
    5             0.060035   0.035459   0.043813   0.158741   0.004089
    6             0.223291   0.571128   0.178728   0.351304   0.312447
    7             0.039699   0.007207   0.073628   0.157374   0.100842
    8             0.280450   0.027648   0.027399   0.000000   0.466379
    9             0.000915   0.288037   0.117536   0.000006   0.000157
   10             0.003697   0.079556   0.001183   0.157074   0.170785
   11             0.529552   0.518277   0.231770   0.349868   0.183221
   12             0.000000   0.000000   0.000000   0.000000   0.000232
   13             0.169984   0.028181   0.051045   0.158185   0.046000
   14             0.196732   0.077491   0.003500   0.156439   0.149093

                     16         17

                  2.000000   2.000000

    1             0.000033   0.164943
    2             0.130506   0.011450
    3             0.000359   0.164996
    4             0.159718   0.160917
    5             0.163999   0.011134
    6             0.368925   0.168284
    7             0.067410   0.011081
    8             0.466924   0.487206
    9             0.000641   0.164639
   10             0.000342   0.008321
   11             0.495530   0.171149
   12             0.000063   0.457803
   13             0.123383   0.009969
   14             0.022166   0.008107

               ----- POPULATIONS IN EACH AO -----
                             MULLIKEN      LOWDIN
              1  H  1  S      0.47027     0.47016
              2  H  1  S      0.34883     0.44522
              3  H  2  S      0.47157     0.47119
              4  H  2  S      0.34643     0.44361
              5  H  3  S      0.47028     0.47017
              6  H  3  S      0.34880     0.44521
              7  C  4  S      1.98646     1.97436
              8  C  4  S      0.36830     0.42573
              9  C  4  X      0.55087     0.52531
             10  C  4  Y      0.56250     0.52435
             11  C  4  Z      0.56107     0.52147
             12  C  4  S      1.09411     0.58132
             13  C  4  X      0.39475     0.53872
             14  C  4  Y      0.49763     0.57797
             15  C  4  Z      0.50669     0.58661
             16  H  5  S      0.47154     0.47117
             17  H  5  S      0.34649     0.44365
             18  C  6  S      1.98646     1.97436
             19  C  6  S      0.36828     0.42574
             20  C  6  X      0.55666     0.52555
             21  C  6  Y      0.56098     0.52467
             22  C  6  Z      0.55677     0.52088
             23  C  6  S      1.09423     0.58135
             24  C  6  X      0.44082     0.55562
             25  C  6  Y      0.48276     0.57209
             26  C  6  Z      0.47547     0.57556
             27  H  7  S      0.47155     0.47115
             28  H  7  S      0.34650     0.44366
             29  C  8  S      1.98849     1.97390
             30  C  8  S      0.35449     0.41356
             31  C  8  X      0.54315     0.52007
             32  C  8  Y      0.54357     0.52022
             33  C  8  Z      0.56100     0.52653
             34  C  8  S      1.08687     0.54825
             35  C  8  X      0.35103     0.51214
             36  C  8  Y      0.35437     0.51313
             37  C  8  Z      0.47182     0.54782
             38  H  9  S      0.47038     0.47025
             39  H  9  S      0.34865     0.44511
             40  H 10  S      0.47159     0.47118
             41  H 10  S      0.34642     0.44361
             42  C 11  S      1.98646     1.97436
             43  C 11  S      0.36829     0.42573
             44  C 11  X      0.56401     0.52387
             45  C 11  Y      0.54800     0.52522
             46  C 11  Z      0.56244     0.52204
             47  C 11  S      1.09427     0.58135
             48  C 11  X      0.51306     0.58412
             49  C 11  Y      0.37229     0.53050
             50  C 11  Z      0.51357     0.58862
             51  H 12  S      0.47441     0.48597
             52  H 12  S      0.33820     0.43606
             53  H 13  S      0.47157     0.47117
             54  H 13  S      0.34647     0.44363
             55  H 14  S      0.47161     0.47118
             56  H 14  S      0.34642     0.44360

          ----- MULLIKEN ATOMIC OVERLAP POPULATIONS -----
          (OFF-DIAGONAL ELEMENTS NEED TO BE MULTIPLIED BY 2)

             1           2           3           4           5

    1    0.5496190
    2   -0.0281004   0.5430866
    3    0.0041124  -0.0001481   0.5495303
    4    0.3631273   0.3646937  -0.0025769   5.3394389
    5   -0.0001472   0.0031137  -0.0280868  -0.0016860   0.5431267
    6   -0.0025770  -0.0016963   0.3631466  -0.0768738   0.3646607
    7   -0.0281156  -0.0271763  -0.0000377   0.3646828  -0.0000338
    8   -0.0440619  -0.0375076  -0.0441135   0.2895181  -0.0374921
    9    0.0041589  -0.0000382   0.0041640  -0.0026039  -0.0000372
   10   -0.0000378  -0.0000334  -0.0280413   0.0039338  -0.0271783
   11   -0.0026377   0.0039369  -0.0026279  -0.0767138   0.0039341
   12    0.0039354  -0.0020027   0.0039415  -0.0448010  -0.0020125
   13   -0.0001474  -0.0000340  -0.0000370  -0.0016662  -0.0000887
   14   -0.0000362  -0.0000887  -0.0001473   0.0039312  -0.0000345

             6           7           8           9          10

    6    5.3397564
    7    0.0039317   0.5430507
    8    0.2893201  -0.0373689   5.3648612
    9   -0.0026341  -0.0001486  -0.0441896   0.5494765
   10    0.3647256  -0.0000885  -0.0374347  -0.0001478   0.5429512
   11   -0.0766909  -0.0016317   0.2893594   0.3631415  -0.0016377
   12   -0.0449202  -0.0020466   0.3787854   0.0039480  -0.0020310
   13    0.0039335   0.0030677  -0.0374657  -0.0280632  -0.0000347
   14   -0.0016439  -0.0000350  -0.0374284  -0.0279888   0.0030610

            11          12          13          14

   11    5.3394267
   12   -0.0448942   0.5687490
   13    0.3646983  -0.0020114   0.5430976
   14    0.3647314  -0.0020299  -0.0272073   0.5429378

          TOTAL MULLIKEN AND LOWDIN ATOMIC POPULATIONS
       ATOM         MULL.POP.    CHARGE          LOW.POP.     CHARGE
    1 H             0.819092    0.180908         0.915377    0.084623
    2 H             0.818005    0.181995         0.914800    0.085200
    3 H             0.819078    0.180922         0.915373    0.084627
    4 C             6.522404   -0.522404         6.255825   -0.255825
    5 H             0.818038    0.181962         0.914813    0.085187
    6 C             6.522438   -0.522438         6.255831   -0.255831
    7 H             0.818050    0.181950         0.914805    0.085195
    8 C             6.254782   -0.254782         6.075616   -0.075616
    9 H             0.819037    0.180963         0.915357    0.084643
   10 H             0.818006    0.181994         0.914787    0.085213
   11 C             6.522394   -0.522394         6.255801   -0.255801
   12 H             0.812610    0.187390         0.922035    0.077965
   13 H             0.818042    0.181958         0.914802    0.085198
   14 H             0.818022    0.181978         0.914777    0.085223

          -------------------------------
          BOND ORDER AND VALENCE ANALYSIS     BOND ORDER THRESHOLD=0.050
          -------------------------------

                   BOND                       BOND                       BOND
  ATOM PAIR DIST  ORDER      ATOM PAIR DIST  ORDER      ATOM PAIR DIST  ORDER
    1   4  1.098  0.922        2   4  1.097  0.925        3   6  1.098  0.922
    4   7  1.097  0.925        4   8  1.545  0.935        5   6  1.097  0.925
    6   8  1.545  0.934        6  10  1.097  0.925        8  11  1.545  0.934
    8  12  1.099  0.905        9  11  1.097  0.922       11  13  1.097  0.925
   11  14  1.096  0.925

                       TOTAL       BONDED        FREE
      ATOM            VALENCE     VALENCE     VALENCE
    1 H                 0.924       0.924       0.000
    2 H                 0.924       0.924       0.000
    3 H                 0.924       0.924       0.000
    4 C                 3.684       3.684       0.000
    5 H                 0.924       0.924       0.000
    6 C                 3.684       3.684       0.000
    7 H                 0.924       0.924       0.000
    8 C                 3.658       3.658      -0.000
    9 H                 0.924       0.924       0.000
   10 H                 0.924       0.924       0.000
   11 C                 3.684       3.684       0.000
   12 H                 0.910       0.910      -0.000
   13 H                 0.924       0.924       0.000
   14 H                 0.924       0.924       0.000

          ---------------------
          ELECTROSTATIC MOMENTS
          ---------------------

 POINT   1           X           Y           Z (BOHR)    CHARGE
                -2.359608   -0.607940   -0.023788        0.00 (A.U.)
         DX          DY          DZ         /D/  (DEBYE)
     0.007662    0.012373   -0.050852    0.052894
 ...... END OF PROPERTY EVALUATION ......
 CPU     0: STEP CPU TIME=     0.02 TOTAL CPU TIME=         37.2 (      0.6 MIN)
 TOTAL WALL CLOCK TIME=         37.9 SECONDS, CPU UTILIZATION IS    98.23%
  $VIB   
          IVIB=   0 IATOM=   0 ICOORD=   0 E=     -157.4816560299
 -2.251641645E-06-3.413252313E-06 3.984134301E-06-1.426241174E-06 1.217758142E-05
  6.034870032E-06 4.509591180E-06 4.292725554E-06 1.484467890E-05-3.148247147E-05
  7.853708207E-06-9.883020667E-06-1.160834327E-06 1.198097972E-05 3.210509130E-06
  3.791578005E-05 2.737490354E-05-2.764225680E-06-7.788071743E-06-7.260049524E-06
 -1.910891651E-07-9.266828657E-07-4.211926784E-06-5.802585886E-06-9.675194337E-06
 -1.506206534E-06 3.556320739E-06 8.485730529E-06-8.459802217E-06 1.518856364E-06
 -3.974132015E-06-3.677383548E-05 1.523303202E-05 7.146255638E-07 6.383283459E-06
 -9.344413604E-06-2.388285331E-06-6.733441041E-06-1.250054296E-05 9.447827586E-06
 -1.704668004E-06-7.896523534E-06
  7.662258212E-03 1.237326070E-02-5.085243610E-02
 ......END OF GEOMETRY SEARCH......
 CPU     0: STEP CPU TIME=     0.00 TOTAL CPU TIME=         37.2 (      0.6 MIN)
 TOTAL WALL CLOCK TIME=         37.9 SECONDS, CPU UTILIZATION IS    98.21%
               580000  WORDS OF DYNAMIC MEMORY USED
 EXECUTION OF GAMESS TERMINATED NORMALLY Sun May 17 17:52:14 2020
 DDI: 263640 bytes (0.3 MB / 0 MWords) used by master data server.
Note: The following floating-point exceptions are signalling: IEEE_UNDERFLOW_FLAGNote: The following floating-point exceptions are signalling: IEEE_UNDERFLOW_FLAGNote: The following floating-point exceptions are signalling:
 ----------------------------------------
 CPU timing information for all processes
 ========================================
 0: 36.488 + 0.777 = 37.265
 1: 36.807 + 0.287 = 37.95
 2: 36.817 + 0.204 = 37.21
 3: 36.728 + 0.136 = 36.865
 4: 36.754 + 0.216 = 36.970
 5: 36.750 + 0.227 = 36.978
 ----------------------------------------
 IEEE_DENORMAL IEEE_DENORMAL
 IEEE_UNDERFLOW_FLAG IEEE_DENORMALNote: The following floating-point exceptions are signalling: IEEE_UNDERFLOW_FLAG
Note: The following floating-point exceptions are signalling: IEEE_UNDERFLOW_FLAGNote: The following floating-point exceptions are signalling:
 IEEE_DENORMAL
 IEEE_DENORMAL
 IEEE_UNDERFLOW_FLAG IEEE_DENORMAL
 ddikick.x: exited gracefully.
unset echo
----- accounting info -----
Files used on the master node pietdev were:
-rwxr-xr-x 1 piet piet      746 mei 17 17:51 /home/piet/scr/valine_geoopt.F05*
-rw-r--r-- 1 piet piet 57344000 mei 17 17:52 /home/piet/scr/valine_geoopt.F10
-rw-r--r-- 1 piet piet  3739456 mei 17 17:52 /home/piet/scr/valine_geoopt.F22
-rw-r--r-- 1 piet piet  3739456 mei 17 17:52 /home/piet/scr/valine_geoopt.F22.001
-rw-r--r-- 1 piet piet  3739456 mei 17 17:52 /home/piet/scr/valine_geoopt.F22.002
-rw-r--r-- 1 piet piet  3739456 mei 17 17:52 /home/piet/scr/valine_geoopt.F22.003
-rw-r--r-- 1 piet piet  3739456 mei 17 17:52 /home/piet/scr/valine_geoopt.F22.004
-rw-r--r-- 1 piet piet  3739456 mei 17 17:52 /home/piet/scr/valine_geoopt.F22.005
ls: No match.
ls: No match.
ls: No match.
zo 17 mei 2020 17:52:17 CEST
0.094u 0.037s 0:41.07 0.2%	0+0k 0+8io 0pf+0w
