----- GAMESS execution script 'rungms' -----
This job is running on host pietdev
under operating system Linux at zo 17 mei 2020 17:53:23 CEST
Available scratch disk space (Kbyte units) at beginning of the job is
Filesystem     1K-blocks     Used Available Use% Mounted on
/dev/sda2      244568380 30400436 201674888  14% /
GAMESS temporary binary files will be written to /home/piet/scr
GAMESS supplementary output files will be written to /home/piet/gamess/scr
Copying input file valine_charge_chelpg.inp to your run's scratch directory...
cp valine_charge_chelpg.inp /home/piet/scr/valine_charge_chelpg.F05
unset echo
 
Assuming a single but multicore node.
 
/home/piet/gamess/ddikick.x /home/piet/gamess/gamess.03.x valine_charge_chelpg -ddi 1 6 pietdev:cpus=6 -scr /home/piet/scr

 Distributed Data Interface kickoff program.
 Initiating 6 compute processes on 1 nodes to run the following command:
 /home/piet/gamess/gamess.03.x valine_charge_chelpg 

          ******************************************************
          *         GAMESS VERSION = 30 SEP 2019 (R2)          *
          *             FROM IOWA STATE UNIVERSITY             *
          * M.W.SCHMIDT, K.K.BALDRIDGE, J.A.BOATZ, S.T.ELBERT, *
          *   M.S.GORDON, J.H.JENSEN, S.KOSEKI, N.MATSUNAGA,   *
          *          K.A.NGUYEN, S.J.SU, T.L.WINDUS,           *
          *       TOGETHER WITH M.DUPUIS, J.A.MONTGOMERY       *
          *         J.COMPUT.CHEM.  14, 1347-1363(1993)        *
          **************** 64 BIT LINUX VERSION ****************

  SINCE 1993, STUDENTS AND POSTDOCS WORKING AT IOWA STATE UNIVERSITY
  AND ALSO IN THEIR VARIOUS JOBS AFTER LEAVING ISU HAVE MADE IMPORTANT
  CONTRIBUTIONS TO THE CODE:
     IVANA ADAMOVIC, CHRISTINE AIKENS, YURI ALEXEEV, POOJA ARORA,
     ANDREY ASADCHEV, ROB BELL, PRADIPTA BANDYOPADHYAY, JONATHAN BENTZ,
     COLLEEN BERTONI, BRETT BODE, KURT BRORSEN, CALEB CARLIN, GALINA CHABAN,
     WEI CHEN, CHEOL HO CHOI, PAUL DAY, ALBERT DEFUSCO, NUWAN DESILVA,
     TIM DUDLEY, DMITRI FEDOROV, ALEX FINDLATER, GRAHAM FLETCHER, 
     MARK FREITAG, KURT GLAESEMANN, EMILIE B GUIDEZ, ANASTASIA GUNINA, 
     DAN KEMP, SAROM SOK LEANG, GRANT MERRILL,
     NORIYUKI MINEZAWA, JONATHAN MULLIN,
     TAKESHI NAGATA, SEAN NEDD, HEATHER NETZLOFF, BOSILJKA NJEGIC, RYAN OLSON,
     MIKE PAK, BUU PHAM, DAVID POOLE,
     SPENCER PRUITT, LUKE ROSKOP, TOSAPORN SATTASATHUCHANA,
     JIM SHOEMAKER, LYUDMILA SLIPCHENKO,
     TONY SMITH, JIE SONG, TETSUYA TAKETSUGU, SIMON WEBB,
     JORGE LUIS GALVEZ VALLEJO, PENG XU, SOOHAENG YOO,
     FEDERICO ZAHARIEV

  ADDITIONAL CODE HAS BEEN PROVIDED BY COLLABORATORS IN OTHER GROUPS:
     IOWA STATE UNIVERSITY:
          JOE IVANIC, AARON WEST, LAIMUTIS BYTAUTAS, KLAUS RUEDENBERG
     UNIVERSITY OF TOKYO: KIMIHIKO HIRAO, TAKAHITO NAKAJIMA,
          TAKAO TSUNEDA, MUNEAKI KAMIYA, SUSUMU YANAGISAWA,
          KIYOSHI YAGI, MAHITO CHIBA, SEIKEN TOKURA, NAOAKI KAWAKAMI
     UNIVERSITY OF AARHUS: FRANK JENSEN
     UNIVERSITY OF IOWA: VISVALDAS KAIRYS, HUI LI
     NATIONAL INST. OF STANDARDS AND TECHNOLOGY: WALT STEVENS, DAVID GARMER
     UNIVERSITY OF PISA: BENEDETTA MENNUCCI, JACOPO TOMASI
     UNIVERSITY OF MEMPHIS: HENRY KURTZ, PRAKASHAN KORAMBATH
     UNIVERSITY OF ALBERTA: TOBY ZENG, MARIUSZ KLOBUKOWSKI
     UNIVERSITY OF NEW ENGLAND: MARK SPACKMAN
     MIE UNIVERSITY: HIROAKI UMEDA
     NAT. INST. OF ADVANCED INDUSTRIAL SCIENCE AND TECHNOLOGY: KAZUO KITAURA
     MICHIGAN STATE UNIVERSITY:
          KAROL KOWALSKI, MARTA WLOCH, JEFFREY GOUR, JESSE LUTZ,
          WEI LI, JUN SHEN, J. EMILIANO DEUSTUA, PIOTR PIECUCH
     UNIVERSITY OF MINNESOTA:
          ANDREW SAND, PRACHI SHARMA, YINAN SHU
     UNIVERSITY OF SILESIA: MONIKA MUSIAL, STANISLAW KUCHARSKI
     FACULTES UNIVERSITAIRES NOTRE-DAME DE LA PAIX:
          OLIVIER QUINET, BENOIT CHAMPAGNE
     UNIVERSITY OF CALIFORNIA - SANTA BARBARA: BERNARD KIRTMAN
     INSTITUTE FOR MOLECULAR SCIENCE:
          KAZUYA ISHIMURA, MICHIO KATOUDA, AND SHIGERU NAGASE
     UNIVERSITY OF NOTRE DAME: ANNA POMOGAEVA, DAN CHIPMAN
     KYUSHU UNIVERSITY:
          HARUYUKI NAKANO,
          FENG LONG GU, JACEK KORCHOWIEC, MARCIN MAKOWSKI, AND YURIKO AOKI,
          HIROTOSHI MORI AND EISAKU MIYOSHI
     PENNSYLVANIA STATE UNIVERSITY:
          TZVETELIN IORDANOV, CHET SWALINA, JONATHAN SKONE,
          SHARON HAMMES-SCHIFFER
     WASEDA UNIVERSITY:
          MASATO KOBAYASHI, TOMOKO AKAMA, TSUGUKI TOUMA,
          TAKESHI YOSHIKAWA, YASUHIRO IKABATA, JUNJI SEINO,
          YUYA NAKAJIMA, HIROMI NAKAI
     NANJING UNIVERSITY: SHUHUA LI
     UNIVERSITY OF NEBRASKA:
          PEIFENG SU, DEJUN SI, NANDUN THELLAMUREGE, YALI WANG, HUI LI
     UNIVERSITY OF ZURICH: ROBERTO PEVERATI, KIM BALDRIDGE
     N. COPERNICUS UNIVERSITY AND JACKSON STATE UNIVERSITY:
          MARIA BARYSZ
     UNIVERSITY OF COPENHAGEN: Jimmy Kromann, CASPER STEINMANN
     TOKYO INSTITUTE OF TECHNOLOGY: HIROYA NAKATA
     NAGOYA UNIVERSITY: YOSHIO NISHIMOTO, STEPHAN IRLE
     MOSCOW STATE UNIVERSITY: VLADIMIR MIRONOV
     A.N.NESMEYANOV INSTITUTE OF ORGANOELEMENT COMPOUNDS OF RUSSIAN ACADEMY OF SCIENCES:
          IGOR S. GERASIMOV
     JOHANNES KEPLER UNIVERSITY LINZ:
          CHRISTIAN FRIEDL


 PARALLEL VERSION RUNNING ON        6 PROCESSORS IN        1 NODES.

 EXECUTION OF GAMESS BEGUN Sun May 17 17:53:23 2020

            ECHO OF THE FIRST FEW INPUT CARDS -
 INPUT CARD> $BASIS GBASIS=N21 NGAUSS=3 $END                                                
 INPUT CARD> $CONTRL SCFTYP=RHF DFTTYP=B3LYP MAXIT=60 MULT=1 ICHARG=0 $END                  
 INPUT CARD> $SYSTEM MEMDDI=1000 MWORDS=30 $END                                             
 INPUT CARD> $SCF DIRSCF=.TRUE. $END                                                        
 INPUT CARD> $ELPOT  IEPOT=1 WHERE=PDC $END                                                 
 INPUT CARD> $PDC PTSEL=CHELPG CONSTR=CHARGE $END                                           
 INPUT CARD> $DATA                                                                          
 INPUT CARD>                                                                                
 INPUT CARD>C1                                                                              
 INPUT CARD>H 1.0000000 -2.7886199311 0.0390124814 1.0771501014                             
 INPUT CARD>H 1.0000000 -2.6705181812 1.3539159358 -0.1139253780                            
 INPUT CARD>H 1.0000000 -0.2445111684 0.2437676115 1.5236704926                             
 INPUT CARD>C 6.0000000 -2.5938947276 0.2684320041 0.0215550706                             
 INPUT CARD>H 1.0000000 -0.1498151129 1.5544695629 0.3257484526                             
 INPUT CARD>C 6.0000000 -0.1016528882 0.4669525950 0.4585244991                             
 INPUT CARD>H 1.0000000 -3.3725012147 -0.2114753602 -0.5834557566                           
 INPUT CARD>C 6.0000000 -1.1908954251 -0.2391148761 -0.3795998474                           
 INPUT CARD>H 1.0000000 -1.2619095470 -2.0365379430 0.8496103776                            
 INPUT CARD>H 1.0000000 0.8990643288 0.1268054168 0.1665596713                              
 INPUT CARD>C 6.0000000 -1.0998554613 -1.7716233694 -0.2029347830                           
 INPUT CARD>H 1.0000000 -1.0234396878 -0.0004529780 -1.4393864615                           
 INPUT CARD>H 1.0000000 -1.8601869319 -2.2808628085 -0.8071475201                           
 INPUT CARD>H 1.0000000 -0.1129540514 -2.1423982722 -0.5043389184                           
 INPUT CARD> $END                                                                           
   30000000 WORDS OF MEMORY AVAILABLE

     BASIS OPTIONS
     -------------
     GBASIS=N21          IGAUSS=       3      POLAR=NONE    
     NDFUNC=       0     NFFUNC=       0     DIFFSP=       F
     NPFUNC=       0      DIFFS=       F     BASNAM=        


     RUN TITLE
     ---------
                                                                                 

 THE POINT GROUP OF THE MOLECULE IS C1      
 THE ORDER OF THE PRINCIPAL AXIS IS     0

 ATOM      ATOMIC                      COORDINATES (BOHR)
           CHARGE         X                   Y                   Z
 H           1.0    -5.2697275537        0.0737228999        2.0355185393
 H           1.0    -5.0465476077        2.5585301291       -0.2152877475
 H           1.0    -0.4620591092        0.4606539904        2.8793197266
 C           6.0    -4.9017502762        0.5072629341        0.0407331771
 H           1.0    -0.2831095122        2.9375215301        0.6155753163
 C           6.0    -0.1920961046        0.8824124538        0.8664856620
 H           1.0    -6.3731031890       -0.3996304839       -1.1025715059
 C           6.0    -2.2504660335       -0.4518615954       -0.7173396966
 H           1.0    -2.3846632651       -3.8484986759        1.6055308100
 H           1.0     1.6989852268        0.2396274915        0.3147521394
 C           6.0    -2.0784254480       -3.3478827216       -0.3834911332
 H           1.0    -1.9340205749       -0.0008560043       -2.7200460027
 H           1.0    -3.5152435872       -4.3102057237       -1.5252876447
 H           1.0    -0.2134522063       -4.0485456910       -0.9530623607

          INTERNUCLEAR DISTANCES (ANGS.)
          ------------------------------

                1 H          2 H          3 H          4 C          5 H     

   1 H       0.0000000    1.7780832 *  2.5910991 *  1.0976484 *  3.1344067  
   2 H       1.7780832 *  0.0000000    3.1304408    1.0965863 *  2.5666084 *
   3 H       2.5910991 *  3.1304408    0.0000000    2.7886488 *  1.7781800 *
   4 C       1.0976484 *  1.0965863 *  2.7886488 *  0.0000000    2.7784800 *
   5 H       3.1344067    2.5666084 *  1.7781800 *  2.7784800 *  0.0000000  
   6 C       2.7902728 *  2.7773138 *  1.0976138 *  2.5380351 *  1.0966505 *
   7 H       1.7779970 *  1.7786762 *  3.7988879    1.0966208 *  3.7856201  
   8 C       2.1799539 *  2.1903455 *  2.1797377 *  1.5449712 *  2.1905044 *
   9 H       2.5866056 *  3.7957551    2.5863584 *  2.7879646 *  3.7955922  
  10 H       3.7994602    3.7850220    1.7785373 *  3.4988351    1.7786832 *
  11 C       2.7872827 *  3.4991285    2.7882935 *  2.5385773 *  3.4992823  
  12 H       3.0741462    2.5107827 *  3.0734476    2.1617073 *  2.5093237 *
  13 H       3.1295985    3.7879823    3.7969566    2.7792048 *  4.3495516  
  14 H       3.7972159    4.3494563    3.1343129    3.4991047    3.7890943  

                6 C          7 H          8 C          9 H         10 H     

   1 H       2.7902728 *  1.7779970 *  2.1799539 *  2.5866056 *  3.7994602  
   2 H       2.7773138 *  1.7786762 *  2.1903455 *  3.7957551    3.7850220  
   3 H       1.0976138 *  3.7988879    2.1797377 *  2.5863584 *  1.7785373 *
   4 C       2.5380351 *  1.0966208 *  1.5449712 *  2.7879646 *  3.4988351  
   5 H       1.0966505 *  3.7856201    2.1905044 *  3.7955922    1.7786832 *
   6 C       0.0000000    3.4992051    1.5451320 *  2.7868636 *  1.0965302 *
   7 H       3.4992051    0.0000000    2.1912839 *  3.1367386    4.3500838  
   8 C       1.5451320 *  2.1912839 *  0.0000000    2.1786993 *  2.1909175 *
   9 H       2.7868636 *  3.1367386    2.1786993 *  0.0000000    3.1331168  
  10 H       1.0965302 *  4.3500838    2.1909175 *  3.1331168    0.0000000  
  11 C       2.5387318 *  2.7827642 *  1.5453417 *  1.0974026 *  2.7814094 *
  12 H       2.1610703 *  2.5090313 *  1.0991581 *  3.0727864    2.5082423 *
  13 H       3.4992652    2.5728383 *  2.1907722 *  1.7783355 *  3.7892532  
  14 H       2.7813568 *  3.7893760    2.1908914 *  1.7788996 *  2.5736300 *

               11 C         12 H         13 H         14 H     

   1 H       2.7872827 *  3.0741462    3.1295985    3.7972159  
   2 H       3.4991285    2.5107827 *  3.7879823    4.3494563  
   3 H       2.7882935 *  3.0734476    3.7969566    3.1343129  
   4 C       2.5385773 *  2.1617073 *  2.7792048 *  3.4991047  
   5 H       3.4992823    2.5093237 *  4.3495516    3.7890943  
   6 C       2.5387318 *  2.1610703 *  3.4992652    2.7813568 *
   7 H       2.7827642 *  2.5090313 *  2.5728383 *  3.7893760  
   8 C       1.5453417 *  1.0991581 *  2.1907722 *  2.1908914 *
   9 H       1.0974026 *  3.0727864    1.7783355 *  1.7788996 *
  10 H       2.7814094 *  2.5082423 *  3.7892532    2.5736300 *
  11 C       0.0000000    2.1614108 *  1.0965864 *  1.0964912 *
  12 H       2.1614108 *  0.0000000    2.5100082 *  2.5082320 *
  13 H       1.0965864 *  2.5100082 *  0.0000000    1.7786760 *
  14 H       1.0964912 *  2.5082320 *  1.7786760 *  0.0000000  

  * ... LESS THAN  3.000


     ATOMIC BASIS SET
     ----------------
 THE CONTRACTED PRIMITIVE FUNCTIONS HAVE BEEN UNNORMALIZED
 THE CONTRACTED BASIS FUNCTIONS ARE NOW NORMALIZED TO UNITY

  SHELL TYPE  PRIMITIVE        EXPONENT          CONTRACTION COEFFICIENT(S)

 H         

      1   S       1             5.4471780    0.156284978695
      1   S       2             0.8245472    0.904690876670

      2   S       3             0.1831916    1.000000000000

 H         

      3   S       4             5.4471780    0.156284978695
      3   S       5             0.8245472    0.904690876670

      4   S       6             0.1831916    1.000000000000

 H         

      5   S       7             5.4471780    0.156284978695
      5   S       8             0.8245472    0.904690876670

      6   S       9             0.1831916    1.000000000000

 C         

      7   S      10           172.2560000    0.061766907377
      7   S      11            25.9109000    0.358794042852
      7   S      12             5.5333500    0.700713083689

      8   L      13             3.6649800   -0.395895162119    0.236459946619
      8   L      14             0.7705450    1.215834355681    0.860618805716

      9   L      15             0.1958570    1.000000000000    1.000000000000

 H         

     10   S      16             5.4471780    0.156284978695
     10   S      17             0.8245472    0.904690876670

     11   S      18             0.1831916    1.000000000000

 C         

     12   S      19           172.2560000    0.061766907377
     12   S      20            25.9109000    0.358794042852
     12   S      21             5.5333500    0.700713083689

     13   L      22             3.6649800   -0.395895162119    0.236459946619
     13   L      23             0.7705450    1.215834355681    0.860618805716

     14   L      24             0.1958570    1.000000000000    1.000000000000

 H         

     15   S      25             5.4471780    0.156284978695
     15   S      26             0.8245472    0.904690876670

     16   S      27             0.1831916    1.000000000000

 C         

     17   S      28           172.2560000    0.061766907377
     17   S      29            25.9109000    0.358794042852
     17   S      30             5.5333500    0.700713083689

     18   L      31             3.6649800   -0.395895162119    0.236459946619
     18   L      32             0.7705450    1.215834355681    0.860618805716

     19   L      33             0.1958570    1.000000000000    1.000000000000

 H         

     20   S      34             5.4471780    0.156284978695
     20   S      35             0.8245472    0.904690876670

     21   S      36             0.1831916    1.000000000000

 H         

     22   S      37             5.4471780    0.156284978695
     22   S      38             0.8245472    0.904690876670

     23   S      39             0.1831916    1.000000000000

 C         

     24   S      40           172.2560000    0.061766907377
     24   S      41            25.9109000    0.358794042852
     24   S      42             5.5333500    0.700713083689

     25   L      43             3.6649800   -0.395895162119    0.236459946619
     25   L      44             0.7705450    1.215834355681    0.860618805716

     26   L      45             0.1958570    1.000000000000    1.000000000000

 H         

     27   S      46             5.4471780    0.156284978695
     27   S      47             0.8245472    0.904690876670

     28   S      48             0.1831916    1.000000000000

 H         

     29   S      49             5.4471780    0.156284978695
     29   S      50             0.8245472    0.904690876670

     30   S      51             0.1831916    1.000000000000

 H         

     31   S      52             5.4471780    0.156284978695
     31   S      53             0.8245472    0.904690876670

     32   S      54             0.1831916    1.000000000000

 TOTAL NUMBER OF BASIS SET SHELLS             =   32
 NUMBER OF CARTESIAN GAUSSIAN BASIS FUNCTIONS =   56
 NUMBER OF ELECTRONS                          =   34
 CHARGE OF MOLECULE                           =    0
 SPIN MULTIPLICITY                            =    1
 NUMBER OF OCCUPIED ORBITALS (ALPHA)          =   17
 NUMBER OF OCCUPIED ORBITALS (BETA )          =   17
 TOTAL NUMBER OF ATOMS                        =   14
 THE NUCLEAR REPULSION ENERGY IS      133.7871771975

 SELECTED MURRAY-HANDY-LAMING RADIAL GRID

 LEGACY BECKE'S FUZZY CELL METHOD

 SELECTED ORIGINAL BECKE'S PARTITION FUNCTION

     LEBEDEV GRID-BASED DFT OPTIONS
     ------------------------------
     DFTTYP=B3LYP   
     NRAD  =      96     NLEB  =     302
     NRAD0 =      24     NLEB0 =     110
     SWOFF =    5.00E-03 (PURE SCF -> DFT)
     SWITCH=    3.00E-04 (COARSE -> TIGHT GRID)
     THRESH=    0.00E+00 GTHRE=    1.00E+00

 GRIMME'S EMPIRICAL DISPERSION CORRECTION= F

     $CONTRL OPTIONS
     ---------------
 SCFTYP=RHF          RUNTYP=ENERGY       EXETYP=RUN     
 MPLEVL=       0     CITYP =NONE         CCTYP =NONE         VBTYP =NONE    
 DFTTYP=B3LYP        TDDFT =NONE    
 MULT  =       1     ICHARG=       0     NZVAR =       0     COORD =UNIQUE  
 PP    =NONE         RELWFN=NONE         LOCAL =NONE         NUMGRD=       F
 ISPHER=      -1     NOSYM =       0     MAXIT =      60     UNITS =ANGS    
 PLTORB=       F     MOLPLT=       F     AIMPAC=       F     FRIEND=        
 NPRINT=       7     IREST =       0     GEOM  =INPUT   
 NORMF =       0     NORMP =       0     ITOL  =      20     ICUT  =       9
 INTTYP=BEST         GRDTYP=BEST         QMTTOL= 1.0E-06

     $SYSTEM OPTIONS
     ---------------
  REPLICATED MEMORY=    30000000 WORDS (ON EVERY NODE).
 DISTRIBUTED MEMDDI=        1000 MILLION WORDS IN AGGREGATE,
 MEMDDI DISTRIBUTED OVER   6 PROCESSORS IS   166666666 WORDS/PROCESSOR.
 TOTAL MEMORY REQUESTED ON EACH PROCESSOR=   196666666 WORDS.
 TIMLIM=      525600.00 MINUTES, OR     365.0 DAYS.
 PARALL= T  BALTYP=  DLB     KDIAG=    0  COREFL= F
 MXSEQ2=     300 MXSEQ3=     150  mem10=         0

     INPUT FOR POTENTIAL-DERIVED CHARGES 
     -----------------------------------
     VDWSCL=    1.00   RMAX=    3.00   DELR=    0.80
     VDWINC=    0.20 PTDENS=    0.28
     LAYER =       4  NFREQ=      30 MAXPDC=   10000
     CONSTR=CHARGE    UNITS=ANGS      PTSEL=CHELPG  
     CENTER=  0.0000  0.0000  0.0000
     DPOLE =  0.0000  0.0000  0.0000
     QPOLE =  0.0000  0.0000  0.0000  0.0000  0.0000  0.0000


          ----------------
          PROPERTIES INPUT
          ----------------

     MOMENTS            FIELD           POTENTIAL          DENSITY
 IEMOM =       1   IEFLD =       0   IEPOT =       1   IEDEN =       0
 WHERE =COMASS     WHERE =NUCLEI     WHERE =PDC        WHERE =NUCLEI  
 OUTPUT=BOTH       OUTPUT=BOTH       OUTPUT=BOTH       OUTPUT=BOTH    
 IEMINT=       0   IEFINT=       0                     IEDINT=       0
                                                       MORB  =       0
          EXTRAPOLATION IN EFFECT
          DIIS IN EFFECT
 ORBITAL PRINTING OPTION: NPREO=     1    56     2     1

     -------------------------------
     INTEGRAL TRANSFORMATION OPTIONS
     -------------------------------
     NWORD  =            0
     CUTOFF = 1.0E-09     MPTRAN =       0
     DIRTRF =       T     AOINTS =DUP     

          ----------------------
          INTEGRAL INPUT OPTIONS
          ----------------------
 NOPK  =       1 NORDER=       0 SCHWRZ=       T

     ------------------------------------------
     THE POINT GROUP IS C1 , NAXIS= 0, ORDER= 1
     ------------------------------------------

     DIMENSIONS OF THE SYMMETRY SUBSPACES ARE
 A   =   56

 ..... DONE SETTING UP THE RUN .....
 CPU     0: STEP CPU TIME=     0.02 TOTAL CPU TIME=          0.0 (      0.0 MIN)
 TOTAL WALL CLOCK TIME=          0.0 SECONDS, CPU UTILIZATION IS    66.67%

          ********************
          1 ELECTRON INTEGRALS
          ********************
 ...... END OF ONE-ELECTRON INTEGRALS ......
 CPU     0: STEP CPU TIME=     0.01 TOTAL CPU TIME=          0.0 (      0.0 MIN)
 TOTAL WALL CLOCK TIME=          0.0 SECONDS, CPU UTILIZATION IS    75.00%

          -------------
          GUESS OPTIONS
          -------------
          GUESS =HUCKEL            NORB  =       0          NORDER=       0
          MIX   =       F          PRTMO =       F          PUNMO =       F
          TOLZ  = 1.0E-08          TOLE  = 1.0E-05
          SYMDEN=       F          PURIFY=       F

 INITIAL GUESS ORBITALS GENERATED BY HUCKEL   ROUTINE.
 HUCKEL GUESS REQUIRES     36338 WORDS.

 SYMMETRIES FOR INITIAL GUESS ORBITALS FOLLOW.   BOTH SET(S).
    17 ORBITALS ARE OCCUPIED (    4 CORE ORBITALS).
     5=A        6=A        7=A        8=A        9=A       10=A       11=A   
    12=A       13=A       14=A       15=A       16=A       17=A       18=A   
    19=A       20=A       21=A       22=A       23=A       24=A       25=A   
    26=A       27=A   
 ...... END OF INITIAL ORBITAL SELECTION ......
 CPU     0: STEP CPU TIME=     0.01 TOTAL CPU TIME=          0.0 (      0.0 MIN)
 TOTAL WALL CLOCK TIME=          0.1 SECONDS, CPU UTILIZATION IS    80.00%

                    ----------------------
                    AO INTEGRAL TECHNOLOGY
                    ----------------------
     S,P,L SHELL ROTATED AXIS INTEGRALS, REPROGRAMMED BY
        KAZUYA ISHIMURA (IMS) AND JOSE SIERRA (SYNSTAR).
     S,P,D,L SHELL ROTATED AXIS INTEGRALS PROGRAMMED BY
        KAZUYA ISHIMURA (INSTITUTE FOR MOLECULAR SCIENCE).
     S,P,D,F,G SHELL TO TOTAL QUARTET ANGULAR MOMENTUM SUM 5,
        ERIC PROGRAM BY GRAHAM FLETCHER (ELORET AND NASA ADVANCED
        SUPERCOMPUTING DIVISION, AMES RESEARCH CENTER).
     S,P,D,F,G,L SHELL GENERAL RYS QUADRATURE PROGRAMMED BY
        MICHEL DUPUIS (PACIFIC NORTHWEST NATIONAL LABORATORY).

          --------------------
          2 ELECTRON INTEGRALS
          --------------------

 DIRECT SCF METHOD SKIPS INTEGRAL STORAGE ON DISK.
 DIRECT TRANSFORMATION SKIPS AO INTEGRAL STORAGE ON DISK.
  ...... END OF TWO-ELECTRON INTEGRALS .....
 CPU     0: STEP CPU TIME=     0.01 TOTAL CPU TIME=          0.0 (      0.0 MIN)
 TOTAL WALL CLOCK TIME=          0.1 SECONDS, CPU UTILIZATION IS    71.43%

          --------------------------
             R-B3LYP SCF CALCULATION
          --------------------------

     NUCLEAR ENERGY =       133.7871771975
     MAXIT =   60     NPUNCH=    2
     EXTRAP=T  DAMP=F  SHIFT=F  RSTRCT=F  DIIS=T  DEM=F  SOSCF=F
         DENSITY MATRIX CONVERGENCE THRESHOLD=  2.00E-05
     COARSE -> FINE DFT GRID SWITCH THRESHOLD=  3.00E-04 (SWITCH IN $DFT)
                   HF -> DFT SWITCH THRESHOLD=  5.00E-03 (SWOFF IN $DFT)
     MEMORY REQUIRED FOR RHF ITERS=    539223 WORDS.

 DIRECT SCF CALCULATION, SCHWRZ=T   FDIFF=T,  DIRTHR=  0.00E+00 NITDIR=10
 SCHWARZ INEQUALITY OVERHEAD:      1593 INTEGRALS, T=        0.00

 DFT CODE IS SWITCHING FROM THE FINE GRID NRAD= 96,  NLEB=  302
                      TO THE COARSE GRID NRAD0= 24, NLEB0=  110

     EXCHANGE FUNCTIONAL   =B88&HFX   
     CORRELATION FUNCTIONAL=LYP88&VWN5
     DFT THRESHOLD         =.985E-08
     GRID CHANGE THRESHOLD =.300E-03
 FOR AN EULER-MACLAURIN QUADRATURE USING  96 RADIAL POINTS:
 SMALLEST GAUSSIAN PRIMITIVE EXPONENT=        0.1831915800 OF TYPE -S-
 ON ATOM NUMBER   1 HAS RADIAL NORMALIZATION=  1.000000
  LARGEST GAUSSIAN PRIMITIVE EXPONENT=      172.2560000000 OF TYPE -S-
 ON ATOM NUMBER   4 HAS RADIAL NORMALIZATION=  1.000000
 DFT IS SWITCHED OFF, PERFORMING PURE SCF UNTIL SWOFF THRESHOLD IS REACHED.

                                                                                   NONZERO     BLOCKS
 ITER EX DEM     TOTAL ENERGY        E CHANGE  DENSITY CHANGE    DIIS ERROR      INTEGRALS    SKIPPED
   1  0  0     -156.1414592394  -156.1414592394   0.620291162   0.639351805        1194313      20150
          * * *   INITIATING DIIS PROCEDURE   * * *
   2  1  0     -156.4191122045    -0.2776529650   0.090659065   0.051127705        1190697      22066
   3  2  0     -156.4316798913    -0.0125676869   0.056370209   0.020020217        1179906      25276
   4  3  0     -156.4333354562    -0.0016555649   0.014947812   0.004494798        1167230      28871
   5  4  0     -156.4334697660    -0.0001343098   0.003487366   0.000632030        1159477      29796
 CONVERGED TO SWOFF, SO DFT CALCULATION IS NOW SWITCHED ON.
          * * *   INITIATING DIIS PROCEDURE   * * *
   6  5  0     -157.4686241215    -1.0351543555   0.046158355   0.092175426        1194816      19762
   7  6  0     -157.4754461619    -0.0068220404   0.060583676   0.036061240        1181863      24903
   8  7  0     -157.4773949700    -0.0019488081   0.028454226   0.026000601        1175267      26663
   9  8  0     -157.4794287725    -0.0020338025   0.001848345   0.000695039        1167318      28697
  10  9  0     -157.4794300523    -0.0000012798   0.000214953   0.000329897        1106393      39220
 DFT CODE IS SWITCHING BACK TO THE FINE GRID
          * * *   INITIATING DIIS PROCEDURE   * * *
  11 10  0     -157.4816465477    -0.0022164954   0.002731981   0.001610740        1194928      19654
  12 11  0     -157.4816558641    -0.0000093164   0.000649462   0.000193483        1144856      32311
  13 12  0     -157.4816559214    -0.0000000573   0.000157959   0.000178747        1093776      40790
  14 13  0     -157.4816560283    -0.0000001069   0.000019869   0.000027148        1070691      45396
  15 14  0     -157.4816560300    -0.0000000017   0.000007490   0.000003888        1033105      51849
  16 15  0     -157.4816560299     0.0000000001   0.000002478   0.000001071         973513      61305

          -----------------
          DENSITY CONVERGED
          -----------------
     TIME TO FORM FOCK OPERATORS=       4.7 SECONDS (       0.3 SEC/ITER)
     FOCK TIME ON FIRST ITERATION=       0.0, LAST ITERATION=       0.7
     TIME TO SOLVE SCF EQUATIONS=       0.1 SECONDS (       0.0 SEC/ITER)

 FINAL R-B3LYP ENERGY IS     -157.4816560299 AFTER  16 ITERATIONS
 DFT EXCHANGE + CORRELATION ENERGY =       -20.4092990455
 TOTAL ELECTRON NUMBER             =        34.0003585689

          ------------
          EIGENVECTORS
          ------------

                      1          2          3          4          5
                  -10.1171   -10.0993   -10.0992   -10.0986    -0.7921
                     A          A          A          A          A   
    1  H  1  S   -0.001669   0.000373  -0.000103  -0.000690   0.047067
    2  H  1  S    0.000003   0.013999  -0.004225   0.007277   0.004072
    3  H  2  S   -0.001310   0.000114   0.000173  -0.000397   0.043574
    4  H  2  S   -0.000255   0.012622  -0.000944   0.009423  -0.001855
    5  H  3  S   -0.001670  -0.000300  -0.000259  -0.000685   0.047072
    6  H  3  S    0.000000  -0.010421  -0.010099   0.007494   0.004086
    7  C  4  S   -0.016115   0.779282  -0.237585   0.555682  -0.096593
    8  C  4  S   -0.004593   0.090124  -0.027436   0.060947   0.099100
    9  C  4  X    0.000812   0.000892   0.000239  -0.000770   0.045305
   10  C  4  Y   -0.000338  -0.000131   0.001137   0.000431  -0.017886
   11  C  4  Z   -0.000087   0.000410   0.000212  -0.000238  -0.007749
   12  C  4  S    0.027743  -0.073514   0.022317  -0.044791   0.210576
   13  C  4  X    0.013282  -0.005560   0.000120   0.000461  -0.005748
   14  C  4  Y   -0.005100   0.001548  -0.003827  -0.000812   0.003430
   15  C  4  Z   -0.002751  -0.000882  -0.000785   0.001858  -0.002874
   16  H  5  S   -0.001310  -0.000185   0.000099  -0.000392   0.043551
   17  H  5  S   -0.000245  -0.010671  -0.006525   0.009624  -0.001877
   18  C  6  S   -0.016090  -0.577324  -0.562912   0.567748  -0.096571
   19  C  6  S   -0.004591  -0.066843  -0.065079   0.062344   0.099082
   20  C  6  X   -0.000674   0.001068   0.000017   0.000711  -0.036690
   21  C  6  Y   -0.000456  -0.000235   0.001091   0.000549  -0.024417
   22  C  6  Z   -0.000349  -0.000115   0.000038   0.000025  -0.022131
   23  C  6  S    0.027749   0.054641   0.053053  -0.045930   0.210494
   24  C  6  X   -0.010615  -0.005016  -0.001727  -0.000842   0.005787
   25  C  6  Y   -0.007018  -0.000438  -0.004463  -0.000893   0.004394
   26  C  6  Z   -0.006939  -0.000583  -0.001050   0.001634  -0.000889
   27  H  7  S   -0.001309  -0.000001  -0.000193  -0.000399   0.043504
   28  H  7  S   -0.000234   0.011027  -0.006302   0.009354  -0.001895
   29  C  8  S    0.986976   0.000363  -0.000436   0.026853  -0.156310
   30  C  8  S    0.118618   0.000014  -0.000018   0.000748   0.143368
   31  C  8  X   -0.000090  -0.000204  -0.000025  -0.000005  -0.003591
   32  C  8  Y   -0.000130   0.000032  -0.000202  -0.000017  -0.005045
   33  C  8  Z    0.000583  -0.000025  -0.000050   0.000055   0.022735
   34  C  8  S   -0.116358   0.000276  -0.000327   0.023164   0.398927
   35  C  8  X    0.001287  -0.014719  -0.001784  -0.000338  -0.002834
   36  C  8  Y    0.001844   0.002244  -0.014462  -0.000954  -0.004043
   37  C  8  Z   -0.008241  -0.001773  -0.003580   0.003097   0.018247
   38  H  9  S   -0.001672  -0.000100   0.000396  -0.000679   0.047110
   39  H  9  S    0.000001  -0.003299   0.013998   0.007771   0.004111
   40  H 10  S   -0.001310   0.000083  -0.000175  -0.000402   0.043525
   41  H 10  S   -0.000244  -0.006812  -0.010570   0.009521  -0.001889
   42  C 11  S   -0.016065  -0.180548   0.774508   0.583139  -0.096528
   43  C 11  S   -0.004589  -0.020933   0.089666   0.064127   0.099028
   44  C 11  X   -0.000077   0.001184   0.000125   0.000115  -0.003867
   45  C 11  Y    0.000881  -0.000116   0.000856  -0.000791   0.049142
   46  C 11  Z    0.000046   0.000083   0.000519  -0.000366  -0.000345
   47  C 11  S    0.027731   0.017152  -0.073293  -0.047395   0.210470
   48  C 11  X   -0.001051  -0.003695  -0.000116  -0.000319   0.001139
   49  C 11  Y    0.014441   0.001072  -0.005689   0.000210  -0.005982
   50  C 11  Z   -0.000593  -0.000209  -0.001705   0.001961  -0.003970
   51  H 12  S    0.001411  -0.000025   0.000031  -0.002083   0.069457
   52  H 12  S    0.015863   0.000025  -0.000030   0.002025  -0.003188
   53  H 13  S   -0.001309  -0.000209   0.000025  -0.000397   0.043524
   54  H 13  S   -0.000247  -0.005428   0.011070   0.009841  -0.001905
   55  H 14  S   -0.001309   0.000168   0.000109  -0.000400   0.043511
   56  H 14  S   -0.000239  -0.000007   0.012373   0.009786  -0.001889

                      6          7          8          9         10
                   -0.6728    -0.6728    -0.5516    -0.4554    -0.4226
                     A          A          A          A          A   
    1  H  1  S   -0.050421  -0.086070  -0.082758   0.069083   0.039868
    2  H  1  S   -0.006701  -0.011518  -0.047067   0.063123   0.031558
    3  H  2  S   -0.061604  -0.085479  -0.057804  -0.079480  -0.086441
    4  H  2  S   -0.019733  -0.012708  -0.030021  -0.067152  -0.085842
    5  H  3  S   -0.049221   0.086729  -0.082791   0.069364   0.021796
    6  H  3  S   -0.006541   0.011616  -0.047064   0.063292   0.017285
    7  C  4  S    0.088333   0.150538   0.063565   0.013769  -0.011013
    8  C  4  S   -0.083144  -0.141681  -0.057382  -0.009723   0.007911
    9  C  4  X   -0.000355   0.022087   0.106383   0.112134  -0.165968
   10  C  4  Y   -0.026807   0.005137  -0.028234  -0.088039  -0.152690
   11  C  4  Z   -0.005382   0.005811  -0.065071   0.128247  -0.012086
   12  C  4  S   -0.264231  -0.450338  -0.249629  -0.071993   0.061142
   13  C  4  X   -0.003269   0.003700   0.034641   0.061178  -0.115517
   14  C  4  Y   -0.009456   0.004750  -0.004483  -0.053766  -0.110112
   15  C  4  Z   -0.002767   0.001423  -0.037138   0.089466  -0.015712
   16  H  5  S   -0.060345   0.086355  -0.057823  -0.079454  -0.119863
   17  H  5  S   -0.019551   0.012985  -0.030044  -0.067153  -0.111768
   18  C  6  S    0.086170  -0.151776   0.063650   0.013710  -0.006117
   19  C  6  S   -0.081095   0.142837  -0.057457  -0.009672   0.004420
   20  C  6  X    0.006605   0.023143  -0.072404  -0.133918   0.179164
   21  C  6  Y   -0.026277  -0.001163  -0.042488  -0.107277  -0.176546
   22  C  6  Z   -0.004173   0.002134  -0.096395   0.085520   0.014903
   23  C  6  S   -0.257805   0.454064  -0.249935  -0.071666   0.033829
   24  C  6  X    0.005540   0.004499  -0.018858  -0.078727   0.128499
   25  C  6  Y   -0.008787  -0.003957  -0.008711  -0.064703  -0.127660
   26  C  6  Z   -0.001191  -0.000038  -0.046491   0.065184   0.006300
   27  H  7  S   -0.044667  -0.095445  -0.057751  -0.080071   0.132625
   28  H  7  S   -0.001535  -0.023459  -0.029977  -0.067606   0.109559
   29  C  8  S   -0.000029  -0.000020  -0.142253  -0.036036  -0.000083
   30  C  8  S    0.000023   0.000024   0.125686   0.030027   0.000054
   31  C  8  X    0.015133   0.123930   0.016785  -0.034621   0.051324
   32  C  8  Y   -0.122838   0.010760   0.024121  -0.049006  -0.178034
   33  C  8  Z   -0.025302   0.021890  -0.106666   0.218088  -0.032044
   34  C  8  S    0.000064   0.000039   0.540340   0.149322   0.000436
   35  C  8  X    0.003276   0.026536   0.007478  -0.028193   0.041750
   36  C  8  Y   -0.026315   0.002282   0.010642  -0.039890  -0.144998
   37  C  8  Z   -0.005375   0.004647  -0.047046   0.177518  -0.026000
   38  H  9  S    0.099764  -0.000698  -0.082732   0.069654  -0.060527
   39  H  9  S    0.013301  -0.000102  -0.047037   0.063526  -0.047750
   40  H 10  S   -0.043273   0.096085  -0.057798  -0.079967   0.145528
   41  H 10  S   -0.001201   0.023482  -0.029998  -0.067563   0.124927
   42  C 11  S   -0.174550   0.001253   0.063654   0.013777   0.017168
   43  C 11  S    0.164282  -0.001178  -0.057472  -0.009744  -0.012345
   44  C 11  X    0.002736   0.028585  -0.000768  -0.035799   0.037928
   45  C 11  Y   -0.020033   0.002429   0.117921   0.113200   0.150607
   46  C 11  Z   -0.005473   0.005042  -0.048923   0.150964  -0.034487
   47  C 11  S    0.522126  -0.003760  -0.249861  -0.071887  -0.095252
   48  C 11  X    0.000168   0.011727   0.002567  -0.023040   0.026296
   49  C 11  Y   -0.001500   0.000937   0.039193   0.060659   0.100824
   50  C 11  Z   -0.000121   0.002065  -0.032294   0.102424  -0.014887
   51  H 12  S    0.000031   0.000062   0.150613  -0.109978   0.000110
   52  H 12  S    0.000034   0.000012   0.068290  -0.089733   0.000146
   53  H 13  S    0.104819  -0.010584  -0.057827  -0.079542  -0.059810
   54  H 13  S    0.020882  -0.010703  -0.030024  -0.067210  -0.039758
   55  H 14  S    0.104989   0.009044  -0.057753  -0.080204  -0.013349
   56  H 14  S    0.021076   0.010391  -0.029974  -0.067702   0.001648

                     11         12         13         14         15
                   -0.4225    -0.3754    -0.3753    -0.3557    -0.3181
                     A          A          A          A          A   
    1  H  1  S    0.047549  -0.009948   0.218225   0.000708  -0.007496
    2  H  1  S    0.037574  -0.009255   0.200310   0.000721   0.010994
    3  H  2  S    0.118534   0.038202  -0.088910  -0.139187   0.058194
    4  H  2  S    0.095043   0.030026  -0.082193  -0.133660   0.083661
    5  H  3  S   -0.057618   0.193918  -0.100599  -0.000778   0.009840
    6  H  3  S   -0.045496   0.177872  -0.092368  -0.000737  -0.000816
    7  C  4  S   -0.013351  -0.000024  -0.000152   0.000037   0.032021
    8  C  4  S    0.009584   0.000080  -0.001391  -0.000022  -0.026932
    9  C  4  X   -0.038858   0.024283   0.001739  -0.091055  -0.276628
   10  C  4  Y    0.179048   0.057759  -0.087110  -0.203894   0.090577
   11  C  4  Z    0.093224   0.002470   0.302452  -0.060056   0.000789
   12  C  4  S    0.074231  -0.000420   0.013904  -0.000223  -0.142673
   13  C  4  X   -0.022768   0.024686   0.008352  -0.070840  -0.227590
   14  C  4  Y    0.129567   0.058740  -0.071470  -0.158672   0.072974
   15  C  4  Z    0.058847   0.005884   0.239642  -0.046720   0.001860
   16  H  5  S   -0.084358  -0.064387   0.072716   0.139079   0.024845
   17  H  5  S   -0.062356  -0.061801   0.062440   0.133586   0.020092
   18  C  6  S    0.016240  -0.000188   0.000068  -0.000018  -0.020972
   19  C  6  S   -0.011664  -0.001182   0.000645   0.000018   0.017547
   20  C  6  X   -0.037494  -0.095973   0.008243  -0.135800  -0.216513
   21  C  6  Y   -0.130469  -0.062424   0.088775   0.185864  -0.015358
   22  C  6  Z   -0.106117   0.256802  -0.126929   0.019615  -0.047385
   23  C  6  S   -0.090199   0.012579  -0.006410   0.000058   0.093438
   24  C  6  X   -0.024564  -0.085110   0.001582  -0.105568  -0.180030
   25  C  6  Y   -0.093709  -0.047594   0.082606   0.144635  -0.009118
   26  C  6  Z   -0.064748   0.202019  -0.098307   0.015231  -0.039940
   27  H  7  S   -0.061397  -0.030032  -0.093332   0.138447   0.099920
   28  H  7  S   -0.065390  -0.022493  -0.085924   0.133039   0.133120
   29  C  8  S   -0.000014  -0.000061  -0.000045  -0.000011   0.000203
   30  C  8  S    0.000003   0.000062   0.000036   0.000000  -0.000257
   31  C  8  X    0.178839  -0.025976   0.052711   0.000075   0.290386
   32  C  8  Y    0.044421  -0.051425  -0.027216   0.000161  -0.069848
   33  C  8  Z    0.038474  -0.015372   0.002402  -0.000017   0.023171
   34  C  8  S    0.000109   0.000244   0.000200   0.000090  -0.000415
   35  C  8  X    0.145574  -0.025688   0.052415   0.000072   0.207536
   36  C  8  Y    0.036148  -0.051074  -0.027003   0.000155  -0.049826
   37  C  8  Z    0.031284  -0.015450   0.002312   0.000055   0.016083
   38  H  9  S    0.010318  -0.184180  -0.117667   0.000836   0.006005
   39  H  9  S    0.008186  -0.168902  -0.107943   0.000852   0.001304
   40  H 10  S    0.014954  -0.097382   0.011191  -0.138321  -0.134085
   41  H 10  S    0.026212  -0.087401   0.014917  -0.132932  -0.168675
   42  C 11  S   -0.002864   0.000211   0.000135  -0.000007  -0.010003
   43  C 11  S    0.002070   0.001095   0.000688   0.000011   0.008348
   44  C 11  X    0.255369   0.078301  -0.023306   0.226274  -0.147579
   45  C 11  Y   -0.004096   0.016532   0.004665   0.017947   0.079897
   46  C 11  Z    0.051635  -0.255465  -0.175920   0.040494  -0.008363
   47  C 11  S    0.015806  -0.012085  -0.007665   0.000003   0.044541
   48  C 11  X    0.184561   0.070353  -0.030210   0.175970  -0.125928
   49  C 11  Y   -0.001677   0.007581  -0.001150   0.013967   0.065493
   50  C 11  Z    0.035619  -0.201834  -0.141966   0.031510  -0.008504
   51  H 12  S   -0.000132  -0.000165  -0.000073   0.000068   0.005202
   52  H 12  S   -0.000139  -0.000237  -0.000109   0.000121   0.005955
   53  H 13  S   -0.133993   0.057295   0.078395  -0.138819   0.073411
   54  H 13  S   -0.121782   0.055659   0.067916  -0.133373   0.082756
   55  H 14  S    0.145766   0.096173   0.019705   0.138066  -0.127085
   56  H 14  S    0.127759   0.085903   0.022597   0.132628  -0.155472

                     16         17         18         19         20
                   -0.3181    -0.3144     0.1112     0.1570     0.1762
                     A          A          A          A          A   
    1  H  1  S    0.000961  -0.127542   0.011920   0.042651  -0.017048
    2  H  1  S   -0.003014  -0.177351  -0.432908   0.869632   0.015529
    3  H  2  S   -0.119361   0.039690  -0.020987  -0.011776  -0.067573
    4  H  2  S   -0.144833   0.039482  -0.562419  -0.228755  -0.905610
    5  H  3  S    0.006559  -0.127281   0.011791   0.042460  -0.017372
    6  H  3  S   -0.007340  -0.177644  -0.433321   0.867326   0.017025
    7  C  4  S   -0.006498  -0.013857  -0.077806   0.007597   0.018498
    8  C  4  S    0.005486   0.013550   0.043653   0.002442  -0.016429
    9  C  4  X   -0.003506   0.070208  -0.089041   0.029554   0.047494
   10  C  4  Y   -0.150769   0.013252   0.033976   0.042915   0.218966
   11  C  4  Z   -0.040552  -0.147884   0.020272  -0.188573   0.062515
   12  C  4  S    0.028920   0.064484   0.932545  -0.172802  -0.131509
   13  C  4  X   -0.005035   0.050493  -0.416299   0.083128   0.237742
   14  C  4  Y   -0.128319   0.011243   0.159370   0.132768   0.796998
   15  C  4  Z   -0.034869  -0.112228   0.092095  -0.570633   0.250331
   16  H  5  S   -0.130542   0.039379  -0.020974  -0.011744  -0.066867
   17  H  5  S   -0.166253   0.038565  -0.562468  -0.229996  -0.898350
   18  C  6  S   -0.024448  -0.014849  -0.077859   0.007245   0.018967
   19  C  6  S    0.020544   0.014376   0.043678   0.002593  -0.016862
   20  C  6  X   -0.115467  -0.025795   0.070579   0.029649  -0.096116
   21  C  6  Y   -0.197141   0.003659   0.046693   0.042568   0.206899
   22  C  6  Z   -0.080112  -0.165911   0.048272  -0.188512   0.036472
   23  C  6  S    0.108929   0.068960   0.933003  -0.168474  -0.134588
   24  C  6  X   -0.092422  -0.017880   0.330664   0.095566  -0.419221
   25  C  6  Y   -0.164336   0.004397   0.218656   0.132038   0.741164
   26  C  6  Z   -0.067249  -0.125206   0.223037  -0.568505   0.132132
   27  H  7  S    0.087876   0.039152  -0.020987  -0.011855   0.076486
   28  H  7  S    0.101495   0.038662  -0.562063  -0.230847   0.938517
   29  C  8  S   -0.000107  -0.009511  -0.059951  -0.013152   0.000537
   30  C  8  S    0.000134   0.011256   0.018392   0.004417  -0.000229
   31  C  8  X    0.061826  -0.038710   0.013400   0.021611  -0.009935
   32  C  8  Y    0.282926  -0.068708   0.019245   0.032006   0.089000
   33  C  8  Z    0.077083   0.282475  -0.085250  -0.139323   0.020546
   34  C  8  S    0.000281   0.023372   0.852300   0.191750  -0.007482
   35  C  8  X    0.044106  -0.030762   0.034661   0.048442  -0.010303
   36  C  8  Y    0.202277  -0.053679   0.050072   0.073779   0.082295
   37  C  8  Z    0.055347   0.221878  -0.220029  -0.315665   0.026215
   38  H  9  S   -0.011502  -0.127019   0.011623   0.042281   0.034645
   39  H  9  S    0.004860  -0.177595  -0.434317   0.867492  -0.023745
   40  H 10  S    0.008781   0.034587  -0.020957  -0.011700   0.075884
   41  H 10  S   -0.000574   0.032786  -0.561993  -0.231561   0.929731
   42  C 11  S    0.030364  -0.015214  -0.077930   0.007133  -0.037849
   43  C 11  S   -0.025439   0.014678   0.043697   0.002599   0.033589
   44  C 11  X   -0.018008   0.014242   0.006619   0.029399  -0.006842
   45  C 11  Y   -0.277041   0.095731  -0.096797   0.042941   0.092763
   46  C 11  Z   -0.047248  -0.138987   0.006154  -0.188665   0.008075
   47  C 11  S   -0.135310   0.070609   0.933984  -0.166954   0.269355
   48  C 11  X   -0.016676   0.010835   0.031369   0.089504  -0.006188
   49  C 11  Y   -0.228027   0.070543  -0.452143   0.123340   0.223936
   50  C 11  Z   -0.037316  -0.105873   0.025614  -0.572222  -0.023360
   51  H 12  S   -0.002699  -0.230376  -0.000836  -0.102983   0.000431
   52  H 12  S   -0.003126  -0.269468  -0.567538  -0.808121   0.012223
   53  H 13  S    0.111514   0.037520  -0.020913  -0.011707  -0.008473
   54  H 13  S    0.146221   0.036224  -0.561708  -0.230487  -0.032103
   55  H 14  S    0.043809   0.034258  -0.020958  -0.011455  -0.009798
   56  H 14  S    0.065683   0.032193  -0.562042  -0.230233  -0.048121

                     21         22         23         24         25
                    0.1764     0.1872     0.1873     0.2058     0.2177
                     A          A          A          A          A   
    1  H  1  S   -0.030108  -0.059633   0.032053  -0.015604   0.077992
    2  H  1  S    0.023204  -0.937675   0.501511  -0.223432   0.942962
    3  H  2  S    0.048703  -0.019481  -0.031191   0.011204  -0.038524
    4  H  2  S    0.553452  -0.607931   0.455260   0.413040  -0.723981
    5  H  3  S    0.029804   0.057802   0.035525  -0.015513  -0.002052
    6  H  3  S   -0.024038   0.908311   0.556739  -0.221967  -0.027361
    7  C  4  S    0.032647  -0.129538   0.069726   0.050371  -0.007052
    8  C  4  S   -0.029044   0.049571  -0.026679  -0.022415   0.001668
    9  C  4  X   -0.125960  -0.093269   0.019630  -0.005227  -0.109302
   10  C  4  Y   -0.081636  -0.004488  -0.066189  -0.018620   0.126616
   11  C  4  Z   -0.029369   0.031399  -0.036621   0.073214  -0.200406
   12  C  4  S   -0.231241   1.785147  -0.960712  -0.587586   0.144635
   13  C  4  X   -0.372406  -0.159757   0.003962  -0.055201  -0.423376
   14  C  4  Y   -0.362655  -0.071094  -0.145155  -0.120153   0.386799
   15  C  4  Z   -0.083740   0.147556  -0.131331   0.496517  -0.778349
   16  H  5  S   -0.049795   0.021215  -0.029861   0.010978   0.037762
   17  H  5  S   -0.569863   0.575514   0.491982   0.409620   0.053381
   18  C  6  S   -0.032712   0.124742   0.077531   0.050802   0.000619
   19  C  6  S    0.028948  -0.047726  -0.029616  -0.022477  -0.000142
   20  C  6  X   -0.140499  -0.076499  -0.001126  -0.019295  -0.023642
   21  C  6  Y    0.063888  -0.004607  -0.067982  -0.018306   0.023089
   22  C  6  Z   -0.016917  -0.059583  -0.042635   0.071329   0.008393
   23  C  6  S    0.233638  -1.719525  -1.068845  -0.595123  -0.010533
   24  C  6  X   -0.435043  -0.111901   0.053990  -0.105513   0.022112
   25  C  6  Y    0.311695   0.059424  -0.137628  -0.117863  -0.060523
   26  C  6  Z   -0.056834  -0.190728  -0.131516   0.490294   0.014964
   27  H  7  S   -0.032876   0.015264   0.033492   0.011514  -0.073222
   28  H  7  S   -0.491765  -0.714159   0.258691   0.420086  -0.758062
   29  C  8  S    0.000217   0.000275  -0.000438  -0.131886   0.000381
   30  C  8  S   -0.000088  -0.000104   0.000161   0.048563  -0.000115
   31  C  8  X   -0.090387   0.091452  -0.007777   0.032280  -0.032217
   32  C  8  Y   -0.006714   0.004322   0.090374   0.046363   0.044248
   33  C  8  Z   -0.015213   0.015639   0.018835  -0.205272   0.005525
   34  C  8  S   -0.002859  -0.003449   0.005575   1.782544  -0.005502
   35  C  8  X   -0.085787   0.525889  -0.044150   0.150810  -0.154951
   36  C  8  Y   -0.007326   0.024954   0.520623   0.211430   0.214722
   37  C  8  Z   -0.012758   0.089972   0.108693  -0.948263   0.026102
   38  H  9  S    0.000445   0.002060  -0.067556  -0.015077  -0.075748
   39  H  9  S    0.000776   0.033588  -1.061663  -0.221170  -0.916970
   40  H 10  S    0.034078  -0.017328   0.032720   0.012039  -0.035066
   41  H 10  S    0.503782   0.694134   0.305004   0.432891  -0.009399
   42  C 11  S   -0.000187   0.004439  -0.146699   0.050938   0.006208
   43  C 11  S    0.000211  -0.001676   0.056123  -0.022329  -0.001563
   44  C 11  X   -0.257611  -0.066501   0.000328  -0.012366  -0.064068
   45  C 11  Y   -0.019591  -0.002120  -0.101500  -0.008191   0.110080
   46  C 11  Z   -0.044661  -0.012775   0.030235   0.075119   0.219583
   47  C 11  S    0.000495  -0.061552   2.022686  -0.599277  -0.131143
   48  C 11  X   -0.973771  -0.176825  -0.023861  -0.080398  -0.146273
   49  C 11  Y   -0.075251  -0.008925  -0.166133  -0.084408   0.399225
   50  C 11  Z   -0.169577  -0.037398   0.172547   0.502476   0.839544
   51  H 12  S    0.000127  -0.000002  -0.000077  -0.035221  -0.000050
   52  H 12  S    0.003665   0.002217  -0.003429  -1.665383   0.004476
   53  H 13  S   -0.082989   0.036720  -0.001556   0.011523   0.073527
   54  H 13  S   -1.061036  -0.087759  -0.755403   0.424010   0.735976
   55  H 14  S    0.082783  -0.036515  -0.003648   0.011234   0.035229
   56  H 14  S    1.061219   0.132248  -0.746129   0.423558   0.702575

                     26         27         28         29         30
                    0.2177     0.2473     0.2566     0.2769     0.2770
                     A          A          A          A          A   
    1  H  1  S   -0.042406  -0.000502  -0.033182   0.027173  -0.026338
    2  H  1  S   -0.510352   0.007423   0.373932   0.460238  -0.446548
    3  H  2  S    0.062514  -0.044093  -0.007338   0.028193  -0.037029
    4  H  2  S    0.435325  -0.866252  -0.036862   0.279957   0.197122
    5  H  3  S    0.088700  -0.000881  -0.033339  -0.036215  -0.010981
    6  H  3  S    1.072891   0.005016   0.371134  -0.614854  -0.183303
    7  C  4  S    0.004367   0.001268   0.070092  -0.032985   0.031506
    8  C  4  S   -0.001181  -0.000083  -0.006559  -0.002754   0.002629
    9  C  4  X    0.074722   0.094553  -0.103029   0.129955  -0.150009
   10  C  4  Y   -0.036242   0.216447   0.047728  -0.061324  -0.003547
   11  C  4  Z    0.118855   0.063951  -0.025573  -0.121550   0.099337
   12  C  4  S   -0.086301  -0.018203  -1.030249   0.559275  -0.534029
   13  C  4  X    0.203602   0.312852  -0.826774   0.656762  -0.941360
   14  C  4  Y   -0.273055   0.739135   0.402829  -0.568662  -0.174340
   15  C  4  Z    0.405066   0.215736  -0.175953  -0.616349   0.380079
   16  H  5  S   -0.062863   0.043873  -0.008939  -0.042077  -0.020609
   17  H  5  S   -0.841712   0.867351  -0.070148  -0.158914   0.297319
   18  C  6  S   -0.008015   0.001800   0.070244   0.043449   0.013243
   19  C  6  S    0.001963  -0.000268  -0.006564   0.003721   0.001040
   20  C  6  X    0.181487   0.146274   0.091590   0.110128   0.063224
   21  C  6  Y    0.153285  -0.195250   0.071388   0.076060  -0.018854
   22  C  6  Z   -0.177797  -0.020837   0.011266   0.205061   0.056762
   23  C  6  S    0.164540  -0.025777  -1.032389  -0.737275  -0.223945
   24  C  6  X    0.662716   0.505941   0.747753   0.625188   0.547414
   25  C  6  Y    0.557968  -0.657493   0.555961   0.556812  -0.322382
   26  C  6  Z   -0.678605  -0.067827   0.109581   1.009530   0.247668
   27  H  7  S   -0.001647   0.043846  -0.009009   0.038784  -0.025769
   28  H  7  S    0.378761   0.863251  -0.074983  -0.177582  -0.281517
   29  C  8  S   -0.000094  -0.003640  -0.166094   0.000129  -0.000821
   30  C  8  S    0.000026   0.000823   0.034225  -0.000059   0.000136
   31  C  8  X    0.041986   0.000069  -0.040315   0.335856  -0.122422
   32  C  8  Y    0.031321  -0.000462  -0.060446   0.109436   0.335221
   33  C  8  Z    0.013742   0.004303   0.261004   0.077280   0.057331
   34  C  8  S    0.001136   0.050869   2.344347  -0.001718   0.012816
   35  C  8  X    0.202065   0.000316  -0.199353   1.686298  -0.614741
   36  C  8  Y    0.151853  -0.002423  -0.296231   0.548698   1.681656
   37  C  8  Z    0.066210   0.021708   1.286294   0.387549   0.287879
   38  H  9  S   -0.046334  -0.000601  -0.033735   0.009172   0.037346
   39  H  9  S   -0.562406   0.006273   0.369830   0.153109   0.626598
   40  H 10  S   -0.064295  -0.044030  -0.007622  -0.045841  -0.005551
   41  H 10  S   -0.846825  -0.863646  -0.040188   0.032983  -0.332241
   42  C 11  S    0.003850   0.001468   0.070646  -0.010638  -0.043742
   43  C 11  S   -0.000889  -0.000198  -0.006729  -0.000901  -0.003799
   44  C 11  X   -0.001435  -0.240508   0.020438  -0.045245   0.016224
   45  C 11  Y    0.069307  -0.020944  -0.108728   0.047410   0.214831
   46  C 11  Z    0.141069  -0.042348  -0.039901  -0.038787  -0.122437
   47  C 11  S   -0.080807  -0.020952  -1.037487   0.180476   0.743094
   48  C 11  X   -0.158560  -0.815442   0.139210  -0.557295   0.130547
   49  C 11  Y    0.234504  -0.080132  -0.880692   0.245091   1.215637
   50  C 11  Z    0.502321  -0.146073  -0.306644  -0.225931  -0.504256
   51  H 12  S    0.000022   0.000746   0.040617   0.000052   0.000305
   52  H 12  S   -0.000365   0.003818   0.534431  -0.001154   0.001978
   53  H 13  S    0.001870  -0.043471  -0.007597   0.017933   0.042478
   54  H 13  S    0.410479  -0.863989  -0.038099  -0.306055   0.139499
   55  H 14  S    0.064442   0.043463  -0.009220   0.003124   0.046256
   56  H 14  S    0.466417   0.865860  -0.071669   0.330715  -0.015386

                     31         32         33         34         35
                    0.6686     0.6725     0.6727     0.7569     0.7571
                     A          A          A          A          A   
    1  H  1  S    0.300489   0.118059   0.052079   0.195190   0.373230
    2  H  1  S    0.021711  -0.052978  -0.027264   0.045423   0.087639
    3  H  2  S   -0.168399  -0.218910   0.291074  -0.095925  -0.008001
    4  H  2  S    0.003382   0.058688   0.001509   0.100296   0.018697
    5  H  3  S    0.299571  -0.111079   0.068245   0.224419  -0.345335
    6  H  3  S    0.022372   0.048917  -0.033199   0.052309  -0.079611
    7  C  4  S   -0.004085  -0.000121   0.000036   0.003294   0.006303
    8  C  4  S    0.058135   0.052483   0.024590  -0.000156  -0.000697
    9  C  4  X    0.314790   0.214590   0.334899  -0.164997  -0.403205
   10  C  4  Y   -0.198065  -0.383177   0.342780   0.092972  -0.015486
   11  C  4  Z    0.223813   0.060802   0.183733   0.279584   0.474595
   12  C  4  S   -0.205331  -0.294961  -0.141695  -0.134832  -0.257933
   13  C  4  X   -0.459489  -0.283071  -0.501139   0.205431   0.537378
   14  C  4  Y    0.317337   0.546115  -0.565676  -0.132085   0.071123
   15  C  4  Z   -0.423379   0.006123  -0.236259  -0.438189  -0.740047
   16  H  5  S   -0.167744   0.257154   0.257954  -0.096817  -0.001080
   17  H  5  S    0.003049  -0.057715   0.008804   0.100931  -0.007050
   18  C  6  S   -0.004048   0.000120   0.000001   0.003687  -0.004540
   19  C  6  S    0.057815  -0.049036   0.031445   0.000166  -0.005203
   20  C  6  X   -0.336981   0.104049  -0.443900   0.060871  -0.192290
   21  C  6  Y   -0.247492   0.448724   0.223936   0.111605  -0.013482
   22  C  6  Z    0.108941   0.010708   0.048523   0.360678  -0.534604
   23  C  6  S   -0.204313   0.274749  -0.179989  -0.155454   0.252616
   24  C  6  X    0.521126  -0.092612   0.650716  -0.041348   0.232385
   25  C  6  Y    0.392061  -0.644244  -0.391816  -0.148096  -0.033204
   26  C  6  Z   -0.251138  -0.089442  -0.025543  -0.545861   0.809237
   27  H  7  S   -0.180258   0.092528  -0.346435   0.048562  -0.084952
   28  H  7  S    0.004319   0.035810   0.045553  -0.041611   0.094149
   29  C  8  S   -0.001644   0.000024  -0.000065  -0.000836  -0.002079
   30  C  8  S   -0.078102   0.000320   0.001714   0.003074   0.007339
   31  C  8  X   -0.012668   0.032436   0.001960   0.027212   0.380061
   32  C  8  Y   -0.019683   0.000612  -0.033403  -0.376897   0.012460
   33  C  8  Z    0.083061   0.005198  -0.007979  -0.076925   0.071830
   34  C  8  S    0.734888  -0.003033  -0.014249  -0.012815  -0.028288
   35  C  8  X   -0.042435  -0.522328  -0.024014  -0.024054  -0.346062
   36  C  8  Y   -0.049809  -0.006257   0.520217   0.343682  -0.009680
   37  C  8  Z    0.259182  -0.085192   0.107561   0.066612  -0.073136
   38  H  9  S    0.296024  -0.010867  -0.137233  -0.412830  -0.010852
   39  H  9  S    0.024894   0.003946   0.058427  -0.095222  -0.001981
   40  H 10  S   -0.180249  -0.138418  -0.331124   0.041493   0.087229
   41  H 10  S    0.003849  -0.029836   0.049734  -0.034496  -0.093404
   42  C 11  S   -0.003979   0.000020   0.000269  -0.006021   0.000560
   43  C 11  S    0.056064  -0.004331  -0.059862  -0.003941  -0.003172
   44  C 11  X   -0.073886  -0.521441   0.100503   0.050970  -0.098348
   45  C 11  Y    0.312337  -0.067532  -0.366169   0.474389  -0.004104
   46  C 11  Z    0.272942  -0.106496  -0.198569  -0.484511  -0.031342
   47  C 11  S   -0.196817   0.023177   0.333521   0.295030   0.015457
   48  C 11  X    0.125745   0.820895  -0.132024  -0.092267   0.164189
   49  C 11  Y   -0.452774   0.102028   0.515989  -0.631772   0.007489
   50  C 11  Z   -0.501627   0.159212   0.186562   0.774991   0.052596
   51  H 12  S   -0.355918   0.001193   0.006165  -0.003763  -0.009710
   52  H 12  S    0.232817  -0.000884  -0.004468  -0.001676  -0.003323
   53  H 13  S   -0.171224   0.359783   0.049539   0.054126  -0.079812
   54  H 13  S    0.001921  -0.028094  -0.050819  -0.063588   0.079630
   55  H 14  S   -0.173604  -0.348528   0.098323   0.047920   0.083194
   56  H 14  S    0.001850   0.021340  -0.053505  -0.056429  -0.080898

                     36         37         38         39         40
                    0.7595     0.8315     0.8316     0.9180     0.9636
                     A          A          A          A          A   
    1  H  1  S   -0.189279   0.123012  -0.121505  -0.076288  -0.129112
    2  H  1  S   -0.072195   0.093295  -0.091997   0.588061   0.508304
    3  H  2  S    0.015499   0.069462  -0.335785   0.220884  -0.320505
    4  H  2  S   -0.053192   0.137640  -0.030251  -0.300866   0.017612
    5  H  3  S   -0.210480  -0.166788  -0.044887  -0.076758   0.124151
    6  H  3  S   -0.077395  -0.126580  -0.033330   0.586769  -0.429422
    7  C  4  S   -0.026048   0.034567  -0.034303   0.013940  -0.023653
    8  C  4  S    0.096977  -0.055698   0.055470   0.049226  -0.081685
    9  C  4  X    0.445735  -0.273592   0.237871   0.005435   0.237402
   10  C  4  Y   -0.130179   0.061742  -0.140149  -0.130722  -0.033390
   11  C  4  Z   -0.231908   0.034794  -0.056017   0.422000   0.493437
   12  C  4  S   -0.110006   0.238270  -0.236868  -0.436242   0.843443
   13  C  4  X   -0.566376   0.706424  -0.686322  -0.137895  -0.259886
   14  C  4  Y    0.151590  -0.245026   0.280756   0.342457  -0.014672
   15  C  4  Z    0.339154  -0.160160   0.166888  -0.929330  -1.177047
   16  H  5  S    0.015875  -0.226783  -0.256683   0.221877   0.345461
   17  H  5  S   -0.054219  -0.134451   0.041857  -0.299868  -0.246337
   18  C  6  S   -0.026420  -0.046979  -0.012700   0.013918   0.021604
   19  C  6  S    0.096878   0.075617   0.020856   0.049304   0.067141
   20  C  6  X   -0.328071  -0.290751  -0.041046  -0.129893   0.421443
   21  C  6  Y   -0.192347  -0.174460  -0.099555  -0.138201  -0.081950
   22  C  6  Z   -0.398337  -0.171117  -0.050807   0.397757  -0.340063
   23  C  6  S   -0.095109  -0.323210  -0.090086  -0.435913  -0.700274
   24  C  6  X    0.403120   0.754461   0.187693   0.393805  -0.774520
   25  C  6  Y    0.226774   0.487927   0.156588   0.378698   0.276022
   26  C  6  Z    0.556514   0.520998   0.141661  -0.834750   0.881768
   27  H  7  S    0.014406   0.336528  -0.066631   0.219821  -0.181461
   28  H  7  S   -0.053258   0.030133  -0.138075  -0.299485  -0.462393
   29  C  8  S    0.070425  -0.000053   0.000054  -0.018451   0.000021
   30  C  8  S   -0.252506   0.000209  -0.000119   0.081177   0.002742
   31  C  8  X    0.053865  -0.760266   0.297025   0.109771  -0.394415
   32  C  8  Y    0.058019  -0.267299  -0.760038   0.160812   0.029887
   33  C  8  Z   -0.271431  -0.180097  -0.127002  -0.700237  -0.045098
   34  C  8  S    0.932128  -0.000613   0.001472  -0.091016   0.000486
   35  C  8  X   -0.085395   1.328140  -0.519160  -0.290377   1.444156
   36  C  8  Y   -0.104340   0.466265   1.325640  -0.424307  -0.114089
   37  C  8  Z    0.478090   0.314330   0.223348   1.850677   0.189862
   38  H  9  S   -0.208358   0.044139   0.167295  -0.077367   0.032525
   39  H  9  S   -0.077259   0.034025   0.127307   0.584075  -0.091778
   40  H 10  S    0.018633  -0.325676   0.108644   0.219100   0.098957
   41  H 10  S   -0.058468  -0.093843  -0.104685  -0.300490   0.606071
   42  C 11  S   -0.026384   0.012469   0.047098   0.013775   0.005208
   43  C 11  S    0.096829  -0.019995  -0.075339   0.049835   0.013760
   44  C 11  X   -0.011210  -0.050494   0.044765  -0.072789   0.547234
   45  C 11  Y    0.514298  -0.105338  -0.376474  -0.015127   0.020094
   46  C 11  Z   -0.187070  -0.008671   0.008521   0.433355   0.008462
   47  C 11  S   -0.096478   0.084662   0.321854  -0.439700  -0.146156
   48  C 11  X    0.006394   0.006954  -0.076921   0.175819  -1.199933
   49  C 11  Y   -0.656823   0.276125   1.032706  -0.104964  -0.083825
   50  C 11  Z    0.291244  -0.014634  -0.073407  -0.973614  -0.011009
   51  H 12  S    0.319228  -0.000277   0.001453   0.130396   0.010794
   52  H 12  S    0.120748   0.000041   0.001775   0.745614  -0.013292
   53  H 13  S    0.014548   0.256022   0.229162   0.219534   0.241756
   54  H 13  S   -0.053422  -0.043619   0.132789  -0.300195  -0.630557
   55  H 14  S    0.019540  -0.109169   0.325772   0.219728  -0.139561
   56  H 14  S   -0.058245   0.103849   0.094138  -0.299516   0.701221

                     41         42         43         44         45
                    0.9638     0.9675     1.0663     1.0890     1.0893
                     A          A          A          A          A   
    1  H  1  S    0.049769  -0.420252   0.000014   0.620469   0.268064
    2  H  1  S   -0.193425   0.185596   0.001899  -0.926815  -0.400158
    3  H  2  S   -0.085225  -0.351483  -0.397593  -0.437181  -0.297741
    4  H  2  S    0.714575   0.118063   0.854948   0.558512   0.224722
    5  H  3  S    0.091124  -0.413757  -0.001276  -0.539441   0.408723
    6  H  3  S   -0.345535   0.165200   0.001486   0.805759  -0.609994
    7  C  4  S    0.009152  -0.048738   0.000134  -0.020059  -0.008375
    8  C  4  S    0.031269   0.010448  -0.000422   0.011065   0.004513
    9  C  4  X    0.141240  -0.130068   0.207369  -0.033079  -0.005228
   10  C  4  Y    0.527146   0.038032   0.460556   0.124533   0.074945
   11  C  4  Z   -0.032825   0.073664   0.139613  -0.381224  -0.159677
   12  C  4  S   -0.321445   0.080236   0.000076   0.448381   0.188699
   13  C  4  X   -0.407760  -0.072950  -0.358870   0.184053   0.183257
   14  C  4  Y   -1.124036   0.044053  -0.797390  -0.282391   0.118609
   15  C  4  Z    0.108977  -0.051203  -0.241999   0.258862   0.184034
   16  H  5  S    0.021882  -0.337157   0.398945   0.351273  -0.397811
   17  H  5  S    0.672600   0.112387  -0.856918  -0.486807   0.346888
   18  C  6  S    0.016401  -0.047779  -0.000081   0.017268  -0.013002
   19  C  6  S    0.055446   0.013601   0.000311  -0.009020   0.007025
   20  C  6  X   -0.069874   0.107252   0.309418  -0.125510   0.084536
   21  C  6  Y    0.501064   0.055369  -0.420525  -0.114196   0.103076
   22  C  6  Z   -0.210765   0.097064  -0.046447   0.306088  -0.230424
   23  C  6  S   -0.572571   0.048564  -0.001128  -0.390454   0.292419
   24  C  6  X    0.284221   0.047998  -0.534653   0.148932  -0.306773
   25  C  6  Y   -1.015835   0.060210   0.728006   0.324175   0.021933
   26  C  6  Z    0.579861   0.014188   0.080759  -0.160141   0.149921
   27  H  7  S    0.279383  -0.349469   0.400031  -0.519626  -0.111164
   28  H  7  S   -0.547183   0.113547  -0.858583   0.541150   0.246057
   29  C  8  S    0.000025  -0.000904   0.000001   0.000051  -0.000446
   30  C  8  S   -0.000840  -0.126636   0.000112  -0.000295   0.002543
   31  C  8  X   -0.018106   0.056448  -0.000210  -0.308442   0.004155
   32  C  8  Y   -0.386916   0.094079  -0.000324   0.012877   0.307570
   33  C  8  Z   -0.093576  -0.409376  -0.000401  -0.046136   0.060494
   34  C  8  S    0.001006  -0.021702  -0.000136   0.000042  -0.002458
   35  C  8  X    0.066866  -0.035287   0.000382   0.929615  -0.010562
   36  C  8  Y    1.422109  -0.101029   0.000642  -0.038366  -0.924333
   37  C  8  Z    0.337956   0.415663   0.002575   0.139112  -0.192331
   38  H  9  S   -0.148733  -0.413279   0.000658  -0.081421  -0.662337
   39  H  9  S    0.544677   0.166331  -0.000072   0.121994   0.990471
   40  H 10  S    0.323131  -0.344816  -0.399008   0.477177  -0.229342
   41  H 10  S   -0.373362   0.137302   0.856360  -0.466165   0.373973
   42  C 11  S   -0.026388  -0.047860   0.000010   0.002584   0.022147
   43  C 11  S   -0.085891   0.013109  -0.000002  -0.001189  -0.013783
   44  C 11  X   -0.015041   0.017173  -0.516030  -0.027990  -0.074621
   45  C 11  Y    0.160178  -0.148899  -0.040856   0.000342   0.014878
   46  C 11  Z    0.525186   0.038593  -0.089412   0.048840   0.422687
   47  C 11  S    0.891668   0.053916   0.000148  -0.059491  -0.485976
   48  C 11  X    0.019357  -0.014988   0.891688  -0.236190   0.119066
   49  C 11  Y   -0.061118  -0.072172   0.070708  -0.050349  -0.247173
   50  C 11  Z   -1.209408  -0.030766   0.153688  -0.087611  -0.349069
   51  H 12  S   -0.001665  -0.499894   0.000323   0.000770  -0.005717
   52  H 12  S    0.004403   0.565415   0.000961  -0.000300   0.016194
   53  H 13  S   -0.243708  -0.337904  -0.400145  -0.038111   0.531152
   54  H 13  S   -0.340506   0.109810   0.857583  -0.087643  -0.589008
   55  H 14  S   -0.305271  -0.346232   0.399660   0.162731   0.501769
   56  H 14  S   -0.125257   0.138862  -0.857501  -0.056807  -0.594618

                     46         47         48         49         50
                    1.0944     1.1025     1.1259     1.1260     1.1709
                     A          A          A          A          A   
    1  H  1  S    0.432851  -0.002892   0.218521  -0.286193  -0.186089
    2  H  1  S   -0.567626   0.003214  -0.428377   0.557051   0.158872
    3  H  2  S   -0.012257   0.397440   0.515074   0.228917   0.138255
    4  H  2  S    0.103264   0.185824  -0.486271  -0.508363   0.191307
    5  H  3  S    0.430704   0.000011   0.138612   0.332840  -0.399290
    6  H  3  S   -0.565455   0.002292  -0.272987  -0.647421   0.336967
    7  C  4  S    0.026902   0.000343   0.023040  -0.030524  -0.018893
    8  C  4  S   -0.085670  -0.000415  -0.045770   0.061295   0.112428
    9  C  4  X   -0.017416   0.172331  -0.178321  -0.075462  -0.116924
   10  C  4  Y    0.103997   0.386412  -0.268102  -0.332195   0.166357
   11  C  4  Z   -0.322553   0.115908  -0.266945   0.141920   0.009798
   12  C  4  S   -0.132807  -0.007220  -0.373828   0.488877  -0.280747
   13  C  4  X   -0.154432  -0.499543  -0.096214   0.268734   0.076769
   14  C  4  Y   -0.007732  -1.106494   0.093897   0.182882  -0.564727
   15  C  4  Z    0.251742  -0.329883   0.485321  -0.537723  -0.021645
   16  H  5  S   -0.008572  -0.392865   0.555814  -0.093761  -0.050922
   17  H  5  S    0.102345  -0.190247  -0.599870   0.370469   0.481548
   18  C  6  S    0.026960   0.000105   0.014616   0.035185  -0.040827
   19  C  6  S   -0.085578  -0.000366  -0.028802  -0.069920   0.243311
   20  C  6  X    0.108199   0.255926   0.306669   0.005814   0.258705
   21  C  6  Y    0.115419  -0.353398  -0.304993   0.251738   0.279312
   22  C  6  Z   -0.299494  -0.038473  -0.134337  -0.209189   0.080781
   23  C  6  S   -0.134556   0.002584  -0.240358  -0.568278  -0.611297
   24  C  6  X    0.062956  -0.736110  -0.112635   0.067593  -0.341667
   25  C  6  Y    0.005125   1.010642   0.133872  -0.122598  -0.703140
   26  C  6  Z    0.289481   0.108609   0.319079   0.703920  -0.001700
   27  H  7  S   -0.009807  -0.390059  -0.357716  -0.442299  -0.363110
   28  H  7  S    0.099203  -0.192244   0.624855   0.338419   0.284980
   29  C  8  S   -0.042447  -0.000218  -0.000133   0.000047  -0.000137
   30  C  8  S    0.238308   0.001140   0.000595  -0.000293   0.000564
   31  C  8  X    0.111809   0.004160   0.110344  -0.448837  -0.009661
   32  C  8  Y    0.157964  -0.000588  -0.446301  -0.093308  -0.090623
   33  C  8  Z   -0.712795  -0.003436  -0.084840  -0.092099  -0.022232
   34  C  8  S   -0.208641  -0.000241   0.000091   0.000261   0.000491
   35  C  8  X   -0.215911  -0.011271  -0.331406   1.349973   0.014715
   36  C  8  Y   -0.301890   0.003328   1.343787   0.280407   0.120806
   37  C  8  Z    1.378337   0.008837   0.252424   0.277611   0.030862
   38  H  9  S    0.443609   0.003820  -0.355544  -0.046281   0.585566
   39  H  9  S   -0.585760  -0.005250   0.695993   0.091093  -0.495150
   40  H 10  S   -0.010801   0.396527  -0.456527   0.335999  -0.437780
   41  H 10  S    0.097648   0.182954   0.690760  -0.167480   0.555168
   42  C 11  S    0.026586  -0.000108  -0.037472  -0.004845   0.059905
   43  C 11  S   -0.085376   0.000166   0.073261   0.009959  -0.355797
   44  C 11  X    0.060572  -0.423268   0.006388  -0.472409  -0.046246
   45  C 11  Y   -0.001783  -0.034868   0.043997  -0.032257   0.535880
   46  C 11  Z   -0.342426  -0.077199   0.298771  -0.043132   0.145256
   47  C 11  S   -0.127115   0.000692   0.614453   0.076436   0.890888
   48  C 11  X   -0.031195   1.229679   0.065470   0.236659   0.054647
   49  C 11  Y   -0.176611   0.099895   0.324012   0.059156  -0.886395
   50  C 11  Z    0.241806   0.215834  -0.695506  -0.051583  -0.495929
   51  H 12  S   -0.469825  -0.002007  -0.001781   0.001313  -0.000928
   52  H 12  S    1.365764   0.007390   0.002995  -0.000543   0.001635
   53  H 13  S   -0.021462   0.399897  -0.058094  -0.556336   0.304744
   54  H 13  S    0.112342   0.180832  -0.203059   0.679578  -0.747249
   55  H 14  S   -0.017751  -0.406217  -0.197381   0.523492   0.411891
   56  H 14  S    0.111145  -0.172408  -0.024429  -0.709328  -0.768504

                     51         52         53         54         55
                    1.1711     1.2060     1.6020     1.9775     1.9778
                     A          A          A          A          A   
    1  H  1  S    0.565319   0.274693   0.012306   0.106390  -0.246865
    2  H  1  S   -0.474223   0.128290  -0.298977   0.240783  -0.562246
    3  H  2  S    0.432542  -0.281451  -0.063298   0.067909  -0.210334
    4  H  2  S   -0.757804   0.261204  -0.448298  -0.028988  -0.476870
    5  H  3  S   -0.441520   0.275715   0.012534   0.160233   0.215657
    6  H  3  S    0.370677   0.127362  -0.299042   0.366094   0.489805
    7  C  4  S    0.057964  -0.017927   0.005633   0.018743  -0.043552
    8  C  4  S   -0.345787   0.227160  -0.994169   0.677523  -1.573737
    9  C  4  X    0.497926  -0.158589   0.009841   0.001029  -0.154768
   10  C  4  Y   -0.206024   0.064845  -0.019679  -0.152328   0.014748
   11  C  4  Z    0.066306   0.023307   0.051357  -0.023692  -0.046971
   12  C  4  S    0.869497  -0.658627   1.620052  -1.384708   3.215010
   13  C  4  X   -0.868530   0.067976  -0.223620  -0.066642   0.501430
   14  C  4  Y    0.324660   0.139116   0.153381   0.375578  -0.101366
   15  C  4  Z   -0.367251  -0.576014  -0.179753   0.052927   0.112032
   16  H  5  S   -0.451688  -0.281739  -0.063636   0.115076   0.188708
   17  H  5  S    0.614236   0.258488  -0.447936   0.082507   0.471385
   18  C  6  S   -0.045386  -0.018033   0.005645   0.028338   0.038007
   19  C  6  S    0.270564   0.226801  -0.994073   1.024510   1.373376
   20  C  6  X    0.381487   0.129365  -0.023388  -0.007234  -0.160133
   21  C  6  Y    0.183268   0.085596  -0.022306  -0.155000  -0.003446
   22  C  6  Z    0.074590   0.072991   0.045587  -0.019574  -0.003569
   23  C  6  S   -0.679648  -0.652785   1.619589  -2.093587  -2.805687
   24  C  6  X   -0.814269   0.110043   0.244719   0.101222   0.478452
   25  C  6  Y   -0.191166   0.144506   0.190662   0.410922   0.085862
   26  C  6  Z    0.064937  -0.570237  -0.097890   0.073995   0.046756
   27  H  7  S    0.263334  -0.282826  -0.063810   0.105586  -0.193334
   28  H  7  S   -0.719919   0.260084  -0.448191   0.367794  -0.306217
   29  C  8  S    0.000099   0.034466   0.033602  -0.000001  -0.000017
   30  C  8  S   -0.000407  -0.180953  -0.757607  -0.001122   0.000305
   31  C  8  X   -0.093626   0.032382   0.012217   0.000371   0.109997
   32  C  8  Y    0.012311   0.044786   0.017866   0.108626  -0.004173
   33  C  8  Z   -0.011991  -0.197800  -0.078861   0.024473   0.016421
   34  C  8  S    0.000097   0.165399   0.426379   0.001908  -0.000383
   35  C  8  X    0.128389  -0.208268  -0.021935   0.002448   0.887296
   36  C  8  Y   -0.018063  -0.293086  -0.032301   0.876871  -0.031504
   37  C  8  Z    0.016689   1.293269   0.142206   0.197104   0.132591
   38  H  9  S   -0.123935   0.276121   0.012700  -0.266712   0.031259
   39  H  9  S    0.104242   0.125527  -0.299063  -0.608168   0.072526
   40  H 10  S   -0.094103  -0.284361  -0.063404   0.147763   0.163393
   41  H 10  S    0.542478   0.261619  -0.448468   0.427963   0.212372
   42  C 11  S   -0.012746  -0.017923   0.005671  -0.047042   0.005535
   43  C 11  S    0.076054   0.226547  -0.994268  -1.701263   0.200207
   44  C 11  X    0.114590   0.014058  -0.010156   0.004760  -0.151114
   45  C 11  Y   -0.105707  -0.170429   0.007780  -0.152315   0.006088
   46  C 11  Z   -0.012912  -0.003269   0.054601  -0.061084  -0.018831
   47  C 11  S   -0.191292  -0.654621   1.620359   3.475654  -0.408482
   48  C 11  X   -0.503345   0.096144   0.057086  -0.030765   0.346345
   49  C 11  Y    0.148719   0.102599  -0.230781   0.520529  -0.034026
   50  C 11  Z    0.020528  -0.579495  -0.222688   0.171739   0.038318
   51  H 12  S    0.001359   1.024425   0.238118  -0.000304  -0.000070
   52  H 12  S   -0.001220  -0.345199  -0.400937  -0.000530   0.000155
   53  H 13  S   -0.334364  -0.280548  -0.063098  -0.215941   0.046384
   54  H 13  S    0.213066   0.259122  -0.449068  -0.397859   0.263236
   55  H 14  S    0.181421  -0.284428  -0.063330  -0.220060   0.005127
   56  H 14  S    0.110342   0.259834  -0.448921  -0.448506  -0.164701

                     56
                    2.3139
                     A   
    1  H  1  S    0.168757
    2  H  1  S    0.082016
    3  H  2  S    0.174699
    4  H  2  S    0.212900
    5  H  3  S    0.168814
    6  H  3  S    0.082348
    7  C  4  S    0.060907
    8  C  4  S    0.569281
    9  C  4  X   -0.157602
   10  C  4  Y    0.072999
   11  C  4  Z   -0.007655
   12  C  4  S   -2.345051
   13  C  4  X   -0.649891
   14  C  4  Y    0.206567
   15  C  4  Z    0.275770
   16  H  5  S    0.174821
   17  H  5  S    0.212076
   18  C  6  S    0.060953
   19  C  6  S    0.569705
   20  C  6  X    0.137830
   21  C  6  Y    0.096306
   22  C  6  Z    0.044232
   23  C  6  S   -2.346328
   24  C  6  X    0.478173
   25  C  6  Y    0.297859
   26  C  6  Z    0.473813
   27  H  7  S    0.174588
   28  H  7  S    0.211087
   29  C  8  S   -0.122249
   30  C  8  S   -2.183784
   31  C  8  X    0.007801
   32  C  8  Y    0.011241
   33  C  8  Z   -0.050310
   34  C  8  S    5.863150
   35  C  8  X   -0.077447
   36  C  8  Y   -0.111702
   37  C  8  Z    0.497400
   38  H  9  S    0.169285
   39  H  9  S    0.082723
   40  H 10  S    0.174639
   41  H 10  S    0.211991
   42  C 11  S    0.061016
   43  C 11  S    0.571245
   44  C 11  X    0.019216
   45  C 11  Y   -0.168990
   46  C 11  Z   -0.034256
   47  C 11  S   -2.348291
   48  C 11  X    0.027239
   49  C 11  Y   -0.715102
   50  C 11  Z    0.174050
   51  H 12  S   -0.476999
   52  H 12  S   -0.454748
   53  H 13  S    0.174683
   54  H 13  S    0.212984
   55  H 14  S    0.174752
   56  H 14  S    0.211943
 ...... END OF RHF CALCULATION ......
 CPU     0: STEP CPU TIME=     5.09 TOTAL CPU TIME=          5.1 (      0.1 MIN)
 TOTAL WALL CLOCK TIME=          6.5 SECONDS, CPU UTILIZATION IS    78.83%

     ---------------------------------------------------------------------
     PROPERTIES FOR THE B3LYP    DFT FUNCTIONAL (RHF  TYPE) DENSITY MATRIX
     ---------------------------------------------------------------------

          -----------------
          ENERGY COMPONENTS
          -----------------

         WAVEFUNCTION NORMALIZATION =       1.0000000000

                ONE ELECTRON ENERGY =    -474.9736511542
                TWO ELECTRON ENERGY =     183.7048179268
           NUCLEAR REPULSION ENERGY =     133.7871771975
                                      ------------------
                       TOTAL ENERGY =    -157.4816560299

 ELECTRON-ELECTRON POTENTIAL ENERGY =     183.7048179268
  NUCLEUS-ELECTRON POTENTIAL ENERGY =    -631.0935102459
   NUCLEUS-NUCLEUS POTENTIAL ENERGY =     133.7871771975
                                      ------------------
             TOTAL POTENTIAL ENERGY =    -313.6015151216
               TOTAL KINETIC ENERGY =     156.1198590917
                 VIRIAL RATIO (V/T) =       2.0087227656

          ---------------------------------------
          MULLIKEN AND LOWDIN POPULATION ANALYSES
          ---------------------------------------

     ATOMIC MULLIKEN POPULATION IN EACH MOLECULAR ORBITAL

                      1          2          3          4          5

                  2.000000   2.000000   2.000000   2.000000   2.000000

    1             0.000001   0.002186   0.000201   0.000831   0.017444
    2            -0.000004   0.001971   0.000045   0.001076   0.011623
    3             0.000001   0.001205   0.001139   0.000875   0.017453
    4             0.006048   1.239693   0.115291   0.631072   0.324826
    5            -0.000003   0.001224   0.000745   0.001122   0.011598
    6             0.006046   0.680416   0.646887   0.658753   0.324655
    7            -0.000003   0.001732   0.000289   0.001068   0.011560
    8             1.978669   0.003869   0.003872   0.005805   0.874227
    9             0.000001   0.000119   0.002171   0.000931   0.017496
   10            -0.000003   0.000797   0.001182   0.001110   0.011574
   11             0.006041   0.066603   1.224529   0.694920   0.324485
   12             0.003212   0.000000   0.000000   0.000089   0.029930
   13            -0.000004   0.000186   0.001727   0.001177   0.011563
   14            -0.000003  -0.000001   0.001921   0.001171   0.011566

                      6          7          8          9         10

                  2.000000   2.000000   2.000000   2.000000   2.000000

    1             0.019445   0.056728   0.069317   0.048846   0.013645
    2             0.036764   0.056748   0.031551   0.062774   0.074947
    3             0.018528   0.057609   0.069360   0.049199   0.004081
    4             0.259139   0.735985   0.249804   0.292207   0.394171
    5             0.035437   0.058053   0.031575   0.062752   0.138271
    6             0.247035   0.748010   0.250039   0.292050   0.494447
    7             0.013169   0.080414   0.031476   0.063680   0.157420
    8             0.112478   0.112408   0.654076   0.473441   0.279930
    9             0.076157   0.000004   0.069264   0.049590   0.031373
   10             0.012241   0.081344   0.031526   0.063531   0.193748
   11             0.986518   0.008724   0.249727   0.293153   0.188329
   12             0.000000   0.000000   0.199247   0.122033   0.000000
   13             0.091313   0.002185   0.031566   0.062873   0.028711
   14             0.091777   0.001788   0.031474   0.063873   0.000928

                     11         12         13         14         15

                  2.000000   2.000000   2.000000   2.000000   2.000000

    1             0.019380   0.000849   0.404607   0.000004   0.000632
    2             0.123660   0.011803   0.066858   0.158960   0.037266
    3             0.028444   0.319403   0.086011   0.000005   0.000412
    4             0.324177   0.034992   0.713890   0.352038   0.528429
    5             0.060030   0.035464   0.043808   0.158741   0.004086
    6             0.223284   0.571164   0.178692   0.351304   0.312468
    7             0.039703   0.007204   0.073631   0.157374   0.100851
    8             0.280450   0.027648   0.027399   0.000000   0.466379
    9             0.000915   0.288013   0.117560   0.000006   0.000157
   10             0.003695   0.079557   0.001182   0.157074   0.170785
   11             0.529549   0.518237   0.231810   0.349868   0.183208
   12             0.000000   0.000000   0.000000   0.000000   0.000232
   13             0.169981   0.028176   0.051050   0.158185   0.046008
   14             0.196732   0.077489   0.003502   0.156439   0.149087

                     16         17

                  2.000000   2.000000

    1             0.000033   0.164943
    2             0.130514   0.011450
    3             0.000359   0.164996
    4             0.159726   0.160917
    5             0.164001   0.011134
    6             0.368905   0.168284
    7             0.067402   0.011081
    8             0.466924   0.487206
    9             0.000641   0.164639
   10             0.000343   0.008321
   11             0.495543   0.171149
   12             0.000063   0.457803
   13             0.123375   0.009969
   14             0.022173   0.008107

               ----- POPULATIONS IN EACH AO -----
[...]
    433    0.68650   -2.19812    5.37087        -5.109062       5.109607       0.000546
    434    0.68650   -2.19812    6.88265        -4.276751       4.277443       0.000692
    435    0.68650   -0.68634   -6.72338        -4.422207       4.422644       0.000438
    436    0.68650   -0.68634   -5.21160        -5.325911       5.326458       0.000547
    437    0.68650   -0.68634   -3.69982        -6.546366       6.546331      -0.000036
    438    0.68650   -0.68634   -2.18803        -8.063365       8.065164       0.001799
    439    0.68650   -0.68634    5.37087        -5.355141       5.358687       0.003546
    440    0.68650   -0.68634    6.88265        -4.399342       4.400516       0.001175
    441    0.68650    0.82544   -6.72338        -4.338498       4.339065       0.000567
    442    0.68650    0.82544   -5.21160        -5.189763       5.190555       0.000792
    443    0.68650    0.82544   -3.69982        -6.332614       6.332495      -0.000119
    444    0.68650    0.82544   -2.18803        -7.825893       7.825750      -0.000143
    445    0.68650    0.82544    5.37087        -5.346671       5.350937       0.004267
    446    0.68650    0.82544    6.88265        -4.372677       4.373620       0.000944
    447    0.68650    0.82544    8.39443        -3.698832       3.699207       0.000375
    448    0.68650    2.33722   -6.72338        -4.125448       4.125789       0.000341
    449    0.68650    2.33722   -5.21160        -4.842985       4.843088       0.000103
    450    0.68650    2.33722   -3.69982        -5.755872       5.754236      -0.001636
    451    0.68650    2.33722   -2.18803        -6.898127       6.893424      -0.004703
    452    0.68650    2.33722    5.37087        -5.021385       5.020795      -0.000590
    453    0.68650    2.33722    6.88265        -4.187577       4.187508      -0.000069
    454    0.68650    3.84900   -5.21160        -4.390634       4.390512      -0.000122
    455    0.68650    3.84900   -3.69982        -5.048256       5.047315      -0.000940
    456    0.68650    3.84900   -2.18803        -5.784281       5.782981      -0.001300
    457    0.68650    3.84900    3.85909        -5.311817       5.307896      -0.003921
    458    0.68650    3.84900    5.37087        -4.525596       4.523833      -0.001764
    459    0.68650    3.84900    6.88265        -3.892919       3.892270      -0.000649
    460    0.68650    5.36078   -3.69982        -4.373814       4.373829       0.000015
    461    0.68650    5.36078   -2.18803        -4.816711       4.817516       0.000805
    462    0.68650    5.36078   -0.67625        -5.162851       5.167674       0.004823
    463    0.68650    5.36078    2.34731        -4.974083       4.975454       0.001371
    464    0.68650    5.36078    3.85909        -4.506724       4.505463      -0.001261
    465    0.68650    5.36078    5.37087        -4.009291       4.008203      -0.001088
    466    0.68650    6.87256   -2.18803        -4.066266       4.067138       0.000872
    467    0.68650    6.87256   -0.67625        -4.245735       4.247446       0.001711
    468    0.68650    6.87256    0.83553        -4.273421       4.275251       0.001830
    469    0.68650    6.87256    2.34731        -4.129133       4.129821       0.000688
    470    0.68650    6.87256    3.85909        -3.861812       3.861551      -0.000260
    471    0.68650    8.38434    0.83553        -3.610445       3.611213       0.000768
    472    2.19828   -8.24525   -3.69982        -3.594892       3.595054       0.000161
    473    2.19828   -8.24525   -2.18803        -3.802148       3.802384       0.000236
    474    2.19828   -8.24525   -0.67625        -3.908460       3.908436      -0.000025
    475    2.19828   -8.24525    0.83553        -3.883389       3.882876      -0.000512
    476    2.19828   -6.73347   -5.21160        -3.707770       3.708008       0.000238
    477    2.19828   -6.73347   -3.69982        -4.077104       4.077938       0.000834
    478    2.19828   -6.73347   -2.18803        -4.396171       4.398018       0.001846
    479    2.19828   -6.73347   -0.67625        -4.566507       4.568104       0.001597
    480    2.19828   -6.73347    0.83553        -4.520390       4.520125      -0.000266
    481    2.19828   -6.73347    2.34731        -4.292752       4.291688      -0.001064
    482    2.19828   -5.22168   -5.21160        -4.084244       4.084660       0.000416
    483    2.19828   -5.22168   -3.69982        -4.594786       4.596640       0.001855
    484    2.19828   -5.22168   -2.18803        -5.076254       5.082394       0.006141
    485    2.19828   -5.22168    0.83553        -5.269194       5.269725       0.000532
    486    2.19828   -5.22168    2.34731        -4.920088       4.918302      -0.001786
    487    2.19828   -5.22168    3.85909        -4.454548       4.453302      -0.001246
    488    2.19828   -3.70990   -5.21160        -4.416181       4.416563       0.000382
    489    2.19828   -3.70990   -3.69982        -5.067772       5.069583       0.001812
    490    2.19828   -3.70990    0.83553        -6.038412       6.038222      -0.000190
    491    2.19828   -3.70990    2.34731        -5.567788       5.564752      -0.003036
    492    2.19828   -3.70990    3.85909        -4.943206       4.941281      -0.001925
    493    2.19828   -3.70990    5.37087        -4.324283       4.323580      -0.000702
    494    2.19828   -2.19812   -5.21160        -4.647086       4.647313       0.000227
    495    2.19828   -2.19812   -3.69982        -5.406535       5.407177       0.000642
    496    2.19828   -2.19812   -2.18803        -6.201049       6.203578       0.002529
    497    2.19828   -2.19812    2.34731        -6.205239       6.200681      -0.004558
    498    2.19828   -2.19812    3.85909        -5.392274       5.389378      -0.002896
    499    2.19828   -2.19812    5.37087        -4.616863       4.616083      -0.000780
    500    2.19828   -2.19812    6.88265        -3.970276       3.970219      -0.000056
    501    2.19828   -0.68634   -5.21160        -4.730208       4.730347       0.000138
    502    2.19828   -0.68634   -3.69982        -5.547174       5.547055      -0.000118
    503    2.19828   -0.68634    3.85909        -5.730827       5.727366      -0.003461
    504    2.19828   -0.68634    5.37087        -4.796957       4.796293      -0.000665
    505    2.19828   -0.68634    6.88265        -4.070412       4.070424       0.000011
    506    2.19828    0.82544   -5.21160        -4.638847       4.638797      -0.000050
    507    2.19828    0.82544   -3.69982        -5.427299       5.426325      -0.000975
    508    2.19828    0.82544    3.85909        -5.761461       5.757840      -0.003621
    509    2.19828    0.82544    5.37087        -4.783195       4.782175      -0.001020
    510    2.19828    0.82544    6.88265        -4.048427       4.048234      -0.000194
    511    2.19828    2.33722   -5.21160        -4.390404       4.390126      -0.000278
    512    2.19828    2.33722   -3.69982        -5.058137       5.056661      -0.001476
    513    2.19828    2.33722   -2.18803        -5.825506       5.821564      -0.003941
    514    2.19828    2.33722    2.34731        -6.289731       6.286269      -0.003462
    515    2.19828    2.33722    3.85909        -5.365414       5.360722      -0.004692
    516    2.19828    2.33722    5.37087        -4.546081       4.544286      -0.001795
    517    2.19828    2.33722    6.88265        -3.898577       3.897975      -0.000602
    518    2.19828    3.84900   -3.69982        -4.554881       4.553914      -0.000967
    519    2.19828    3.84900   -2.18803        -5.087285       5.085127      -0.002159
    520    2.19828    3.84900   -0.67625        -5.542573       5.540265      -0.002308
    521    2.19828    3.84900    2.34731        -5.337103       5.333392      -0.003711
    522    2.19828    3.84900    3.85909        -4.755164       4.751951      -0.003213
    523    2.19828    3.84900    5.37087        -4.166983       4.165307      -0.001676
    524    2.19828    5.36078   -3.69982        -4.035877       4.035624      -0.000253
    525    2.19828    5.36078   -2.18803        -4.381478       4.381216      -0.000261
    526    2.19828    5.36078   -0.67625        -4.633978       4.634232       0.000255
    527    2.19828    5.36078    0.83553        -4.688406       4.688752       0.000347
    528    2.19828    5.36078    2.34731        -4.498185       4.497315      -0.000871
    529    2.19828    5.36078    3.85909        -4.147994       4.146638      -0.001356
    530    2.19828    6.87256   -2.18803        -3.788695       3.788971       0.000276
    531    2.19828    6.87256   -0.67625        -3.934010       3.934549       0.000539
    532    2.19828    6.87256    0.83553        -3.956683       3.957165       0.000481
    533    2.19828    6.87256    2.34731        -3.842623       3.842580      -0.000043
    534    3.71006   -6.73347   -3.69982        -3.658886       3.659683       0.000797
    535    3.71006   -6.73347   -2.18803        -3.875965       3.877132       0.001167
    536    3.71006   -6.73347   -0.67625        -3.990170       3.991139       0.000969
    537    3.71006   -6.73347    0.83553        -3.969226       3.969429       0.000203
    538    3.71006   -5.22168   -3.69982        -4.025776       4.027085       0.001310
    539    3.71006   -5.22168   -2.18803        -4.322697       4.324879       0.002183
    540    3.71006   -5.22168   -0.67625        -4.486329       4.488324       0.001995
    541    3.71006   -5.22168    0.83553        -4.460378       4.460905       0.000526
    542    3.71006   -5.22168    2.34731        -4.262657       4.262139      -0.000518
    543    3.71006   -3.70990   -3.69982        -4.353938       4.355372       0.001434
    544    3.71006   -3.70990   -2.18803        -4.738204       4.740731       0.002527
    545    3.71006   -3.70990   -0.67625        -4.966524       4.968990       0.002466
    546    3.71006   -3.70990    0.83553        -4.948266       4.948917       0.000652
    547    3.71006   -3.70990    2.34731        -4.696995       4.696180      -0.000816
    548    3.71006   -2.19812   -3.69982        -4.591948       4.593129       0.001180
    549    3.71006   -2.19812   -2.18803        -5.061828       5.064330       0.002502
    550    3.71006   -2.19812   -0.67625        -5.378383       5.382365       0.003983
    551    3.71006   -2.19812    0.83553        -5.394330       5.396725       0.002395
    552    3.71006   -2.19812    2.34731        -5.089351       5.088409      -0.000942
    553    3.71006   -2.19812    3.85909        -4.607363       4.605867      -0.001497
    554    3.71006   -2.19812    5.37087        -4.092668       4.091815      -0.000853
    555    3.71006   -0.68634   -3.69982        -4.693418       4.694239       0.000821
    556    3.71006   -0.68634   -2.18803        -5.234163       5.237354       0.003191
    557    3.71006   -0.68634    2.34731        -5.370655       5.370385      -0.000270
    558    3.71006   -0.68634    3.85909        -4.795791       4.793613      -0.002178
    559    3.71006   -0.68634    5.37087        -4.211260       4.210131      -0.001129
    560    3.71006    0.82544   -3.69982        -4.622325       4.622455       0.000129
    561    3.71006    0.82544   -2.18803        -5.169971       5.171674       0.001703
    562    3.71006    0.82544    2.34731        -5.379538       5.378062      -0.001476
    563    3.71006    0.82544    3.85909        -4.786502       4.783675      -0.002827
    564    3.71006    0.82544    5.37087        -4.193058       4.191630      -0.001427
    565    3.71006    2.33722   -3.69982        -4.384742       4.384219      -0.000522
    566    3.71006    2.33722   -2.18803        -4.852389       4.851421      -0.000967
    567    3.71006    2.33722   -0.67625        -5.230714       5.229888      -0.000826
    568    3.71006    2.33722    0.83553        -5.325047       5.323247      -0.001800
    569    3.71006    2.33722    2.34731        -5.040373       5.036807      -0.003566
    570    3.71006    2.33722    3.85909        -4.547273       4.544434      -0.002839
    571    3.71006    2.33722    5.37087        -4.027621       4.026080      -0.001541
    572    3.71006    3.84900   -2.18803        -4.393535       4.392369      -0.001166
    573    3.71006    3.84900   -0.67625        -4.653354       4.651439      -0.001915
    574    3.71006    3.84900    0.83553        -4.710507       4.707976      -0.002531
    575    3.71006    3.84900    2.34731        -4.518236       4.515613      -0.002622
    576    3.71006    3.84900    3.85909        -4.161782       4.159714      -0.002068
    577    3.71006    5.36078   -2.18803        -3.911988       3.911504      -0.000484
    578    3.71006    5.36078   -0.67625        -4.080353       4.079664      -0.000689
    579    3.71006    5.36078    0.83553        -4.110744       4.109806      -0.000938
    580    3.71006    5.36078    2.34731        -3.983375       3.982204      -0.001171
    581    3.71006    6.87256    0.83553        -3.595745       3.595530      -0.000215
    582    5.22184   -5.22168   -0.67625        -3.842442       3.843420       0.000978
    583    5.22184   -3.70990   -2.18803        -4.011426       4.012819       0.001393
    584    5.22184   -3.70990   -0.67625        -4.149933       4.151303       0.001370
    585    5.22184   -3.70990    0.83553        -4.145764       4.146492       0.000728
    586    5.22184   -2.19812   -2.18803        -4.218458       4.220109       0.001651
    587    5.22184   -2.19812   -0.67625        -4.394954       4.397007       0.002053
    588    5.22184   -2.19812    0.83553        -4.403292       4.404660       0.001368
    589    5.22184   -2.19812    2.34731        -4.235811       4.235884       0.000073
    590    5.22184   -2.19812    3.85909        -3.947859       3.947299      -0.000560
    591    5.22184   -0.68634   -3.69982        -4.002529       4.003387       0.000859
    592    5.22184   -0.68634   -2.18803        -4.317978       4.319759       0.001782
    593    5.22184   -0.68634   -0.67625        -4.529333       4.532255       0.002922
    594    5.22184   -0.68634    0.83553        -4.554436       4.556691       0.002255
    595    5.22184   -0.68634    2.34731        -4.372271       4.372392       0.000120
    596    5.22184   -0.68634    3.85909        -4.053729       4.052920      -0.000808
    597    5.22184    0.82544   -3.69982        -3.957335       3.957793       0.000458
    598    5.22184    0.82544   -2.18803        -4.273929       4.275038       0.001109
    599    5.22184    0.82544   -0.67625        -4.494597       4.496644       0.002047
    600    5.22184    0.82544    0.83553        -4.530508       4.531915       0.001407
    601    5.22184    0.82544    2.34731        -4.353008       4.352522      -0.000487
    602    5.22184    0.82544    3.85909        -4.034977       4.033827      -0.001149
    603    5.22184    2.33722   -2.18803        -4.085294       4.085322       0.000029
    604    5.22184    2.33722   -0.67625        -4.279693       4.279711       0.000018
    605    5.22184    2.33722    0.83553        -4.313858       4.313334      -0.000524
    606    5.22184    2.33722    2.34731        -4.163553       4.162308      -0.001245
    607    5.22184    2.33722    3.85909        -3.883904       3.882573      -0.001331
    608    5.22184    3.84900   -2.18803        -3.799019       3.798605      -0.000414
    609    5.22184    3.84900   -0.67625        -3.950452       3.949757      -0.000695
    610    5.22184    3.84900    0.83553        -3.975787       3.974750      -0.001037
    611    5.22184    3.84900    2.34731        -3.859669       3.858421      -0.001247
    612    6.73363   -2.19812    0.83553        -3.700567       3.701259       0.000692
    613    6.73363   -0.68634   -0.67625        -3.768910       3.769986       0.001076
    614    6.73363   -0.68634    0.83553        -3.778652       3.779407       0.000755
    615    6.73363   -0.68634    2.34731        -3.674655       3.674771       0.000115
    616    6.73363    0.82544   -2.18803        -3.620842       3.621449       0.000607
    617    6.73363    0.82544   -0.67625        -3.740936       3.741648       0.000712
    618    6.73363    0.82544    0.83553        -3.754638       3.755045       0.000408
    619    6.73363    0.82544    2.34731        -3.654080       3.653928      -0.000152
    620    6.73363    2.33722   -0.67625        -3.612308       3.612417       0.000109
    621    6.73363    2.33722    0.83553        -3.626480       3.626335      -0.000145

 NET CHARGES:
 -------------------------------------
 ATOM                CHARGE    E.S.D.
 -------------------------------------
 H                   0.1135    0.0205
 H                   0.1087    0.0212
 H                   0.0867    0.0121
 C                  -0.4606    0.2760
 H                   0.0774    0.0138
 C                  -0.3402    0.1801
 H                   0.1090    0.0227
 C                   0.3699    0.1482
 H                   0.0975    0.0173
 H                   0.0750    0.0149
 C                  -0.3874    0.2393
 H                  -0.0279    0.0169
 H                   0.0916    0.0189
 H                   0.0869    0.0187
 -------------------------------------

 RMS DEVIATION IS            0.553 KCAL/MOLE
 RELATIVE RMS DEVIATION IS  45.092 %

 MULTIPOLE MOMENTS:
 ---------------------------------------------------------
 STATUS  ACTUAL VALUE       QUANTITY        FITTED VALUE 
 ---------------------------------------------------------
 FIXED       0.0000       TOTAL CHARGE         0.0000
             0.0529 D    DIPOLE MOMENT         0.0315 D
 FREE        0.0077 D          DX              0.0025 D
 FREE        0.0124 D          DY              0.0055 D
 FREE       -0.0509 D          DZ             -0.0309 D
 FREE        0.0000 BU         QXX            -0.2150 BU
 FREE        0.0000 BU         QYY            -0.1284 BU
 FREE        0.0000 BU         QZZ             0.3433 BU
 FREE        0.0000 BU         QXY             0.0498 BU
 FREE        0.0000 BU         QXZ            -0.0508 BU
 FREE        0.0000 BU         QYZ            -0.1075 BU
 ---------------------------------------------------------
 ...... END OF PROPERTY EVALUATION ......
 CPU     0: STEP CPU TIME=     0.10 TOTAL CPU TIME=          5.2 (      0.1 MIN)
 TOTAL WALL CLOCK TIME=          6.7 SECONDS, CPU UTILIZATION IS    78.33%
               580000  WORDS OF DYNAMIC MEMORY USED
 EXECUTION OF GAMESS TERMINATED NORMALLY Sun May 17 17:53:30 2020
 DDI: 263640 bytes (0.3 MB / 0 MWords) used by master data server.
Note: The following floating-point exceptions are signalling:Note: The following floating-point exceptions are signalling:Note: The following floating-point exceptions are signalling: IEEE_UNDERFLOW_FLAG IEEE_UNDERFLOW_FLAG IEEE_DENORMALNote: The following floating-point exceptions are signalling: IEEE_UNDERFLOW_FLAG IEEE_UNDERFLOW_FLAG
 ----------------------------------------
 CPU timing information for all processes
 ========================================
 0: 5.03 + 0.241 = 5.244
 1: 4.372 + 0.44 = 4.416
 2: 4.149 + 0.16 = 4.166
 3: 4.665 + 0.43 = 4.708
 4: 4.224 + 0.40 = 4.265
 5: 3.914 + 0.28 = 3.943
 ----------------------------------------
 IEEE_DENORMAL

 IEEE_DENORMAL
 IEEE_DENORMALNote: The following floating-point exceptions are signalling: IEEE_UNDERFLOW_FLAGNote: The following floating-point exceptions are signalling: IEEE_UNDERFLOW_FLAG
 IEEE_DENORMAL
 IEEE_DENORMAL
 ddikick.x: exited gracefully.
unset echo
----- accounting info -----
Files used on the master node pietdev were:
-rwxr-xr-x 1 piet piet      985 mei 17 17:53 /home/piet/scr/valine_charge_chelpg.F05*
-rw-r--r-- 1 piet piet 50790400 mei 17 17:53 /home/piet/scr/valine_charge_chelpg.F10
ls: No match.
ls: No match.
ls: No match.
zo 17 mei 2020 17:53:33 CEST
0.103u 0.023s 0:09.83 1.2%	0+0k 0+8io 0pf+0w
