----- GAMESS execution script 'rungms' -----
This job is running on host pietdev
under operating system Linux at za 16 mei 2020 13:42:32 CEST
Available scratch disk space (Kbyte units) at beginning of the job is
Filesystem     1K-blocks     Used Available Use% Mounted on
/dev/sda2      244568380 30191700 201883624  14% /
GAMESS temporary binary files will be written to /home/piet/scr
GAMESS supplementary output files will be written to /home/piet/gamess/scr
Copying input file arginine_charge_chelpg.inp to your run's scratch directory...
cp arginine_charge_chelpg.inp /home/piet/scr/arginine_charge_chelpg.F05
unset echo
 
Assuming a single but multicore node.
 
/home/piet/gamess/ddikick.x /home/piet/gamess/gamess.03.x arginine_charge_chelpg -ddi 1 6 pietdev:cpus=6 -scr /home/piet/scr

 Distributed Data Interface kickoff program.
 Initiating 6 compute processes on 1 nodes to run the following command:
 /home/piet/gamess/gamess.03.x arginine_charge_chelpg 

          ******************************************************
          *         GAMESS VERSION = 30 SEP 2019 (R2)          *
          *             FROM IOWA STATE UNIVERSITY             *
          * M.W.SCHMIDT, K.K.BALDRIDGE, J.A.BOATZ, S.T.ELBERT, *
          *   M.S.GORDON, J.H.JENSEN, S.KOSEKI, N.MATSUNAGA,   *
          *          K.A.NGUYEN, S.J.SU, T.L.WINDUS,           *
          *       TOGETHER WITH M.DUPUIS, J.A.MONTGOMERY       *
          *         J.COMPUT.CHEM.  14, 1347-1363(1993)        *
          **************** 64 BIT LINUX VERSION ****************

  SINCE 1993, STUDENTS AND POSTDOCS WORKING AT IOWA STATE UNIVERSITY
  AND ALSO IN THEIR VARIOUS JOBS AFTER LEAVING ISU HAVE MADE IMPORTANT
  CONTRIBUTIONS TO THE CODE:
     IVANA ADAMOVIC, CHRISTINE AIKENS, YURI ALEXEEV, POOJA ARORA,
     ANDREY ASADCHEV, ROB BELL, PRADIPTA BANDYOPADHYAY, JONATHAN BENTZ,
     COLLEEN BERTONI, BRETT BODE, KURT BRORSEN, CALEB CARLIN, GALINA CHABAN,
     WEI CHEN, CHEOL HO CHOI, PAUL DAY, ALBERT DEFUSCO, NUWAN DESILVA,
     TIM DUDLEY, DMITRI FEDOROV, ALEX FINDLATER, GRAHAM FLETCHER, 
     MARK FREITAG, KURT GLAESEMANN, EMILIE B GUIDEZ, ANASTASIA GUNINA, 
     DAN KEMP, SAROM SOK LEANG, GRANT MERRILL,
     NORIYUKI MINEZAWA, JONATHAN MULLIN,
     TAKESHI NAGATA, SEAN NEDD, HEATHER NETZLOFF, BOSILJKA NJEGIC, RYAN OLSON,
     MIKE PAK, BUU PHAM, DAVID POOLE,
     SPENCER PRUITT, LUKE ROSKOP, TOSAPORN SATTASATHUCHANA,
     JIM SHOEMAKER, LYUDMILA SLIPCHENKO,
     TONY SMITH, JIE SONG, TETSUYA TAKETSUGU, SIMON WEBB,
     JORGE LUIS GALVEZ VALLEJO, PENG XU, SOOHAENG YOO,
     FEDERICO ZAHARIEV

  ADDITIONAL CODE HAS BEEN PROVIDED BY COLLABORATORS IN OTHER GROUPS:
     IOWA STATE UNIVERSITY:
          JOE IVANIC, AARON WEST, LAIMUTIS BYTAUTAS, KLAUS RUEDENBERG
     UNIVERSITY OF TOKYO: KIMIHIKO HIRAO, TAKAHITO NAKAJIMA,
          TAKAO TSUNEDA, MUNEAKI KAMIYA, SUSUMU YANAGISAWA,
          KIYOSHI YAGI, MAHITO CHIBA, SEIKEN TOKURA, NAOAKI KAWAKAMI
     UNIVERSITY OF AARHUS: FRANK JENSEN
     UNIVERSITY OF IOWA: VISVALDAS KAIRYS, HUI LI
     NATIONAL INST. OF STANDARDS AND TECHNOLOGY: WALT STEVENS, DAVID GARMER
     UNIVERSITY OF PISA: BENEDETTA MENNUCCI, JACOPO TOMASI
     UNIVERSITY OF MEMPHIS: HENRY KURTZ, PRAKASHAN KORAMBATH
     UNIVERSITY OF ALBERTA: TOBY ZENG, MARIUSZ KLOBUKOWSKI
     UNIVERSITY OF NEW ENGLAND: MARK SPACKMAN
     MIE UNIVERSITY: HIROAKI UMEDA
     NAT. INST. OF ADVANCED INDUSTRIAL SCIENCE AND TECHNOLOGY: KAZUO KITAURA
     MICHIGAN STATE UNIVERSITY:
          KAROL KOWALSKI, MARTA WLOCH, JEFFREY GOUR, JESSE LUTZ,
          WEI LI, JUN SHEN, J. EMILIANO DEUSTUA, PIOTR PIECUCH
     UNIVERSITY OF MINNESOTA:
          ANDREW SAND, PRACHI SHARMA, YINAN SHU
     UNIVERSITY OF SILESIA: MONIKA MUSIAL, STANISLAW KUCHARSKI
     FACULTES UNIVERSITAIRES NOTRE-DAME DE LA PAIX:
          OLIVIER QUINET, BENOIT CHAMPAGNE
     UNIVERSITY OF CALIFORNIA - SANTA BARBARA: BERNARD KIRTMAN
     INSTITUTE FOR MOLECULAR SCIENCE:
          KAZUYA ISHIMURA, MICHIO KATOUDA, AND SHIGERU NAGASE
     UNIVERSITY OF NOTRE DAME: ANNA POMOGAEVA, DAN CHIPMAN
     KYUSHU UNIVERSITY:
          HARUYUKI NAKANO,
          FENG LONG GU, JACEK KORCHOWIEC, MARCIN MAKOWSKI, AND YURIKO AOKI,
          HIROTOSHI MORI AND EISAKU MIYOSHI
     PENNSYLVANIA STATE UNIVERSITY:
          TZVETELIN IORDANOV, CHET SWALINA, JONATHAN SKONE,
          SHARON HAMMES-SCHIFFER
     WASEDA UNIVERSITY:
          MASATO KOBAYASHI, TOMOKO AKAMA, TSUGUKI TOUMA,
          TAKESHI YOSHIKAWA, YASUHIRO IKABATA, JUNJI SEINO,
          YUYA NAKAJIMA, HIROMI NAKAI
     NANJING UNIVERSITY: SHUHUA LI
     UNIVERSITY OF NEBRASKA:
          PEIFENG SU, DEJUN SI, NANDUN THELLAMUREGE, YALI WANG, HUI LI
     UNIVERSITY OF ZURICH: ROBERTO PEVERATI, KIM BALDRIDGE
     N. COPERNICUS UNIVERSITY AND JACKSON STATE UNIVERSITY:
          MARIA BARYSZ
     UNIVERSITY OF COPENHAGEN: Jimmy Kromann, CASPER STEINMANN
     TOKYO INSTITUTE OF TECHNOLOGY: HIROYA NAKATA
     NAGOYA UNIVERSITY: YOSHIO NISHIMOTO, STEPHAN IRLE
     MOSCOW STATE UNIVERSITY: VLADIMIR MIRONOV
     A.N.NESMEYANOV INSTITUTE OF ORGANOELEMENT COMPOUNDS OF RUSSIAN ACADEMY OF SCIENCES:
          IGOR S. GERASIMOV
     JOHANNES KEPLER UNIVERSITY LINZ:
          CHRISTIAN FRIEDL


 PARALLEL VERSION RUNNING ON        6 PROCESSORS IN        1 NODES.

 EXECUTION OF GAMESS BEGUN Sat May 16 13:42:32 2020

            ECHO OF THE FIRST FEW INPUT CARDS -
 INPUT CARD> $BASIS GBASIS=N21 NGAUSS=3 $END                                                
 INPUT CARD> $CONTRL SCFTYP=RHF DFTTYP=B3LYP MAXIT=60 MULT=1 ICHARG=0 $END                  
 INPUT CARD> $SYSTEM MEMDDI=1000 MWORDS=30 $END                                             
 INPUT CARD> $SCF DIRSCF=.TRUE. $END                                                        
 INPUT CARD> $ELPOT  IEPOT=1 WHERE=PDC $END                                                 
 INPUT CARD> $PDC PTSEL=CHELPG CONSTR=CHARGE $END                                           
 INPUT CARD> $DATA                                                                          
 INPUT CARD>                                                                                
 INPUT CARD>C1                                                                              
 INPUT CARD>C 6.0000000 2.0025413511 0.7127237771 -0.2699196978                             
 INPUT CARD>H 1.0000000 1.2521818107 -0.9234646185 0.9471744206                             
 INPUT CARD>H 1.0000000 2.1238125269 1.4176128905 0.5611551589                              
 INPUT CARD>C 6.0000000 0.9304298076 -0.3455179115 0.0701595279                             
 INPUT CARD>C 6.0000000 -0.4466727243 0.2877754578 0.3599383593                             
 INPUT CARD>C 6.0000000 -1.5254968132 -0.7766222425 0.6709600916                            
 INPUT CARD>C 6.0000000 -3.9077905226 -0.1621337632 0.0818542312                            
 INPUT CARD>N 7.0000000 -3.5104316033 -0.1653880640 -1.2588536771                           
 INPUT CARD>N 7.0000000 -5.1091543515 -0.1503103595 0.5532577029                            
 INPUT CARD>H 1.0000000 0.8346328448 -1.0539155490 -0.7644638426                            
 INPUT CARD>N 7.0000000 -2.8393263676 -0.1895838370 0.9742456317                            
 INPUT CARD>H 1.0000000 -0.3711517752 0.9763482732 1.2113387075                             
 INPUT CARD>H 1.0000000 -0.7672996540 0.8843826073 -0.5058862000                            
 INPUT CARD>H 1.0000000 -1.6313956600 -1.4555062867 -0.1833459236                           
 INPUT CARD>H 1.0000000 -1.1960507846 -1.3708046708 1.5328026795                            
 INPUT CARD>H 1.0000000 -2.6291431627 0.2632136922 -1.5189261451                            
 INPUT CARD>H 1.0000000 -4.2304888294 -0.1942441150 -1.9700860306                           
 INPUT CARD>H 1.0000000 -5.8253418866 0.0031955353 -0.1732479362                            
 INPUT CARD>H 1.0000000 1.7110022663 1.2825224965 -1.1602685973                             
 INPUT CARD>H 1.0000000 2.9727054919 0.2425477576 -0.4662092885                             
 INPUT CARD>H 1.0000000 -3.1376619641 -0.1380410698 1.9428208280                            
 INPUT CARD> $END                                                                           
   30000000 WORDS OF MEMORY AVAILABLE

     BASIS OPTIONS
     -------------
     GBASIS=N21          IGAUSS=       3      POLAR=NONE    
     NDFUNC=       0     NFFUNC=       0     DIFFSP=       F
     NPFUNC=       0      DIFFS=       F     BASNAM=        


     RUN TITLE
     ---------
                                                                                 

 THE POINT GROUP OF THE MOLECULE IS C1      
 THE ORDER OF THE PRINCIPAL AXIS IS     0

 ATOM      ATOMIC                      COORDINATES (BOHR)
           CHARGE         X                   Y                   Z
 C           6.0     3.7842544327        1.3468526437       -0.5100742675
 H           1.0     2.3662805090       -1.7450950883        1.7899001175
 H           1.0     4.0134237251        2.6788999197        1.0604294869
 C           6.0     1.7582573872       -0.6529341766        0.1325822832
 C           6.0    -0.8440890551        0.5438167612        0.6801848715
 C           6.0    -2.8827709721       -1.4676032343        1.2679307218
 C           6.0    -7.3846533051       -0.3063883858        0.1546820679
 N           7.0    -6.6337538289       -0.3125381226       -2.3788885084
 N           7.0    -9.6549017533       -0.2840453926        1.0455054591
 H           1.0     1.5772273770       -1.9916116018       -1.4446271900
 N           7.0    -5.3655488245       -0.3582615036        1.8410572886
 H           1.0    -0.7013751550        1.8450307049        2.2890982355
 H           1.0    -1.4499860965        1.6712407961       -0.9559862990
 H           1.0    -3.0828907750       -2.7505080553       -0.3464735566
 H           1.0    -2.2602082503       -2.5904452105        2.8965770575
 H           1.0    -4.9683601600        0.4974017545       -2.8703542098
 H           1.0    -7.9944646817       -0.3670681521       -3.7229227701
 H           1.0   -11.0082999505        0.0060386861       -0.3273911274
 H           1.0     3.2333254477        2.4236160915       -2.1925897211
 H           1.0     5.6175988219        0.4583488008       -0.8810078082
 H           1.0    -5.9293213542       -0.2608597970        3.6713990082

          INTERNUCLEAR DISTANCES (ANGS.)
          ------------------------------

                1 C          2 H          3 H          4 C          5 C     

   1 C       0.0000000    2.1728944 *  1.0964765 *  1.5443291 *  2.5643619 *
   2 H       2.1728944 *  0.0000000    2.5277252 *  1.0984998 *  2.1674998 *
   3 H       1.0964765 *  2.5277252 *  0.0000000    2.1849186 *  2.8150338 *
   4 C       1.5443291 *  1.0984998 *  2.1849186 *  0.0000000    1.5431927 *
   5 C       2.5643619 *  2.1674998 *  2.8150338 *  1.5431927 *  0.0000000  
   6 C       3.9434071    2.7952380 *  4.2595990    2.5648368 *  1.5471065 *
   7 C       5.9850767    5.2871276    6.2534442    4.8417086    3.5012977  
   8 N       5.6693864    5.3031808    6.1288687    4.6389625    3.4946335  
   9 N       7.2110100    6.4202442    7.4009632    6.0620184    4.6870061  
  10 H       2.1747641 *  1.7666551 *  3.0866977    1.0989088 *  2.1693683 *
  11 N       5.0799399    4.1568922    5.2332086    3.8797872    2.5159564 *
  12 H       2.8103458 *  2.5128239 *  2.6157790 *  2.1780116 *  1.0975967 *
  13 H       2.7851690 *  3.0753865    3.1275296    2.1741134 *  1.0992697 *
  14 H       4.2325187    3.1426364    4.7865106    2.8034423 *  2.1766390 *
  15 H       4.2215981    2.5567394 *  4.4430692    2.7771312 *  2.1651943 *
  16 H       4.8181509    4.7491621    5.3150695    3.9454160    2.8799153 *
  17 H       6.5240955    6.2531471    7.0272620    5.5516274    4.4697451  
  18 H       7.8605682    7.2253295    8.1073411    6.7691432    5.4125184  
  19 H       1.0965340 *  3.0851599    1.7753764 *  2.1848941 *  2.8206581 *
  20 H       1.0958164 *  2.5134518 *  1.7767597 *  2.1918948 *  3.5180553  
  21 H       5.6605399    4.5693468    5.6579301    4.4832218    3.1509141  

                6 C          7 C          8 N          9 N         10 H     

   1 C       3.9434071    5.9850767    5.6693864    7.2110100    2.1747641 *
   2 H       2.7952380 *  5.2871276    5.3031808    6.4202442    1.7666551 *
   3 H       4.2595990    6.2534442    6.1288687    7.4009632    3.0866977  
   4 C       2.5648368 *  4.8417086    4.6389625    6.0620184    1.0989088 *
   5 C       1.5471065 *  3.5012977    3.4946335    4.6870061    2.1693683 *
   6 C       0.0000000    2.5298152 *  2.8350934 *  3.6398794    2.7762466 *
   7 C       2.5298152 *  0.0000000    1.3983570 *  1.2905952 *  4.8991947  
   8 N       2.8350934 *  1.3983570 *  0.0000000    2.4165863 *  4.4624531  
   9 N       3.6398794    1.2905952 *  2.4165863 *  0.0000000    6.1547948  
  10 H       2.7762466 *  4.8991947    4.4624531    6.1547948    0.0000000  
  11 N       1.4706272 *  1.3923834 *  2.3318877 *  2.3088725 *  4.1554971  
  12 H       2.1673549 *  3.8832577    4.1545746    4.9143767    3.0789095  
  13 H       2.1722724 *  3.3620408    3.0321199    4.5873824    2.5278548 *
  14 H       1.0963288 *  2.6315617 *  2.5202972 *  3.7869416    2.5652036 *
  15 H       1.0974334 *  3.3044923    3.8213522    4.2144388    3.0824549  
  16 H       2.6636246 *  2.0924525 *  1.0139065 *  3.2581288    3.7817704  
  17 H       3.8250844    2.0774080 *  1.0125051 *  2.6723111 *  5.2771221  
  18 H       4.4507831    1.9414979 *  2.5623758 *  1.0316487 *  6.7692159  
  19 H       4.2506943    5.9330206    5.4193667    7.1766091    2.5265842 *
  20 H       4.7503353    6.9141425    6.5441396    8.1553730    2.5181596 *
  21 H       2.1504632 *  2.0141686 *  3.2234182    2.4120154 *  4.8936022  

               11 N         12 H         13 H         14 H         15 H     

   1 C       5.0799399    2.8103458 *  2.7851690 *  4.2325187    4.2215981  
   2 H       4.1568922    2.5128239 *  3.0753865    3.1426364    2.5567394 *
   3 H       5.2332086    2.6157790 *  3.1275296    4.7865106    4.4430692  
   4 C       3.8797872    2.1780116 *  2.1741134 *  2.8034423 *  2.7771312 *
   5 C       2.5159564 *  1.0975967 *  1.0992697 *  2.1766390 *  2.1651943 *
   6 C       1.4706272 *  2.1673549 *  2.1722724 *  1.0963288 *  1.0974334 *
   7 C       1.3923834 *  3.8832577    3.3620408    2.6315617 *  3.3044923  
   8 N       2.3318877 *  4.1545746    3.0321199    2.5202972 *  3.8213522  
   9 N       2.3088725 *  4.9143767    4.5873824    3.7869416    4.2144388  
  10 H       4.1554971    3.0789095    2.5278548 *  2.5652036 *  3.0824549  
  11 N       0.0000000    2.7399811 *  2.7636007 *  2.0980168 *  2.0994340 *
  12 H       2.7399811 *  0.0000000    1.7647244 *  3.0736422    2.5085702 *
  13 H       2.7636007 *  1.7647244 *  0.0000000    2.5151092 *  3.0701709  
  14 H       2.0980168 *  3.0736422    2.5151092 *  0.0000000    1.7725308 *
  15 H       2.0994340 *  2.5085702 *  3.0701709    1.7725308 *  0.0000000  
  16 H       2.5426577 *  3.6140603    2.2087467 *  2.3944254 *  3.7465742  
  17 H       3.2564465    5.1367531    3.9116488    3.3968379    4.7814578  
  18 H       3.2047143    5.7107177    5.1449908    4.4403939    5.1214081  
  19 H       5.2372453    3.1707459    2.5939761 *  4.4297634    4.7690393  
  20 H       6.0034459    3.8123499    3.7948867    4.9153989    4.8966809  
  21 H       1.0147900 *  3.0709133    3.5581082    2.9197839 *  2.3361667 *

               16 H         17 H         18 H         19 H         20 H     

   1 C       4.8181509    6.5240955    7.8605682    1.0965340 *  1.0958164 *
   2 H       4.7491621    6.2531471    7.2253295    3.0851599    2.5134518 *
   3 H       5.3150695    7.0272620    8.1073411    1.7753764 *  1.7767597 *
   4 C       3.9454160    5.5516274    6.7691432    2.1848941 *  2.1918948 *
   5 C       2.8799153 *  4.4697451    5.4125184    2.8206581 *  3.5180553  
   6 C       2.6636246 *  3.8250844    4.4507831    4.2506943    4.7503353  
   7 C       2.0924525 *  2.0774080 *  1.9414979 *  5.9330206    6.9141425  
   8 N       1.0139065 *  1.0125051 *  2.5623758 *  5.4193667    6.5441396  
   9 N       3.2581288    2.6723111 *  1.0316487 *  7.1766091    8.1553730  
  10 H       3.7817704    5.2771221    6.7692159    2.5265842 *  2.5181596 *
  11 N       2.5426577 *  3.2564465    3.2047143    5.2372453    6.0034459  
  12 H       3.6140603    5.1367531    5.7107177    3.1707459    3.8123499  
  13 H       2.2087467 *  3.9116488    5.1449908    2.5939761 *  3.7948867  
  14 H       2.3944254 *  3.3968379    4.4403939    4.4297634    4.9153989  
  15 H       3.7465742    4.7814578    5.1214081    4.7690393    4.8966809  
  16 H       0.0000000    1.7254335 *  3.4776638    4.4726377    5.6999428  
  17 H       1.7254335 *  0.0000000    2.4106360 *  6.1755939    7.3714612  
  18 H       3.4776638    2.4106360 *  0.0000000    7.7076177    8.8061770  
  19 H       4.4726377    6.1755939    7.7076177    0.0000000    1.7762772 *
  20 H       5.6999428    7.3714612    8.8061770    1.7762772 *  0.0000000  
  21 H       3.5218303    4.0630370    3.4236411    5.9293094    6.5791234  

               21 H     

   1 C       5.6605399  
   2 H       4.5693468  
   3 H       5.6579301  
   4 C       4.4832218  
   5 C       3.1509141  
   6 C       2.1504632 *
   7 C       2.0141686 *
   8 N       3.2234182  
   9 N       2.4120154 *
  10 H       4.8936022  
  11 N       1.0147900 *
  12 H       3.0709133  
  13 H       3.5581082  
  14 H       2.9197839 *
  15 H       2.3361667 *
  16 H       3.5218303  
  17 H       4.0630370  
  18 H       3.4236411  
  19 H       5.9293094  
  20 H       6.5791234  
  21 H       0.0000000  

  * ... LESS THAN  3.000


     ATOMIC BASIS SET
     ----------------
 THE CONTRACTED PRIMITIVE FUNCTIONS HAVE BEEN UNNORMALIZED
 THE CONTRACTED BASIS FUNCTIONS ARE NOW NORMALIZED TO UNITY

  SHELL TYPE  PRIMITIVE        EXPONENT          CONTRACTION COEFFICIENT(S)

 C         

      1   S       1           172.2560000    0.061766907377
      1   S       2            25.9109000    0.358794042852
      1   S       3             5.5333500    0.700713083689

      2   L       4             3.6649800   -0.395895162119    0.236459946619
      2   L       5             0.7705450    1.215834355681    0.860618805716

      3   L       6             0.1958570    1.000000000000    1.000000000000

 H         

      4   S       7             5.4471780    0.156284978695
      4   S       8             0.8245472    0.904690876670

      5   S       9             0.1831916    1.000000000000

 H         

      6   S      10             5.4471780    0.156284978695
      6   S      11             0.8245472    0.904690876670

      7   S      12             0.1831916    1.000000000000

 C         

      8   S      13           172.2560000    0.061766907377
      8   S      14            25.9109000    0.358794042852
      8   S      15             5.5333500    0.700713083689

      9   L      16             3.6649800   -0.395895162119    0.236459946619
      9   L      17             0.7705450    1.215834355681    0.860618805716

     10   L      18             0.1958570    1.000000000000    1.000000000000

 C         

     11   S      19           172.2560000    0.061766907377
     11   S      20            25.9109000    0.358794042852
     11   S      21             5.5333500    0.700713083689

     12   L      22             3.6649800   -0.395895162119    0.236459946619
     12   L      23             0.7705450    1.215834355681    0.860618805716

     13   L      24             0.1958570    1.000000000000    1.000000000000

 C         

     14   S      25           172.2560000    0.061766907377
     14   S      26            25.9109000    0.358794042852
     14   S      27             5.5333500    0.700713083689

     15   L      28             3.6649800   -0.395895162119    0.236459946619
     15   L      29             0.7705450    1.215834355681    0.860618805716

     16   L      30             0.1958570    1.000000000000    1.000000000000

 C         

     17   S      31           172.2560000    0.061766907377
     17   S      32            25.9109000    0.358794042852
     17   S      33             5.5333500    0.700713083689

     18   L      34             3.6649800   -0.395895162119    0.236459946619
     18   L      35             0.7705450    1.215834355681    0.860618805716

     19   L      36             0.1958570    1.000000000000    1.000000000000

 N         

     20   S      37           242.7660000    0.059865700508
     20   S      38            36.4851000    0.352955002994
     20   S      39             7.8144900    0.706513005993

     21   L      40             5.4252200   -0.413300077430    0.237972016222
     21   L      41             1.1491500    1.224417266851    0.858953058551

     22   L      42             0.2832050    1.000000000000    1.000000000000

 N         

     23   S      43           242.7660000    0.059865700508
     23   S      44            36.4851000    0.352955002994
     23   S      45             7.8144900    0.706513005993

     24   L      46             5.4252200   -0.413300077430    0.237972016222
     24   L      47             1.1491500    1.224417266851    0.858953058551

     25   L      48             0.2832050    1.000000000000    1.000000000000

 H         

     26   S      49             5.4471780    0.156284978695
     26   S      50             0.8245472    0.904690876670

     27   S      51             0.1831916    1.000000000000

 N         

     28   S      52           242.7660000    0.059865700508
     28   S      53            36.4851000    0.352955002994
     28   S      54             7.8144900    0.706513005993

     29   L      55             5.4252200   -0.413300077430    0.237972016222
     29   L      56             1.1491500    1.224417266851    0.858953058551

     30   L      57             0.2832050    1.000000000000    1.000000000000

 H         

     31   S      58             5.4471780    0.156284978695
     31   S      59             0.8245472    0.904690876670

     32   S      60             0.1831916    1.000000000000

 H         

     33   S      61             5.4471780    0.156284978695
     33   S      62             0.8245472    0.904690876670

     34   S      63             0.1831916    1.000000000000

 H         

     35   S      64             5.4471780    0.156284978695
     35   S      65             0.8245472    0.904690876670

     36   S      66             0.1831916    1.000000000000

 H         

     37   S      67             5.4471780    0.156284978695
     37   S      68             0.8245472    0.904690876670

     38   S      69             0.1831916    1.000000000000

 H         

     39   S      70             5.4471780    0.156284978695
     39   S      71             0.8245472    0.904690876670

     40   S      72             0.1831916    1.000000000000

 H         

     41   S      73             5.4471780    0.156284978695
     41   S      74             0.8245472    0.904690876670

     42   S      75             0.1831916    1.000000000000

 H         

     43   S      76             5.4471780    0.156284978695
     43   S      77             0.8245472    0.904690876670

     44   S      78             0.1831916    1.000000000000

 H         

     45   S      79             5.4471780    0.156284978695
     45   S      80             0.8245472    0.904690876670

     46   S      81             0.1831916    1.000000000000

 H         

     47   S      82             5.4471780    0.156284978695
     47   S      83             0.8245472    0.904690876670

     48   S      84             0.1831916    1.000000000000

 H         

     49   S      85             5.4471780    0.156284978695
     49   S      86             0.8245472    0.904690876670

     50   S      87             0.1831916    1.000000000000

 TOTAL NUMBER OF BASIS SET SHELLS             =   50
 NUMBER OF CARTESIAN GAUSSIAN BASIS FUNCTIONS =   98
 NUMBER OF ELECTRONS                          =   64
 CHARGE OF MOLECULE                           =    0
 SPIN MULTIPLICITY                            =    1
 NUMBER OF OCCUPIED ORBITALS (ALPHA)          =   32
 NUMBER OF OCCUPIED ORBITALS (BETA )          =   32
 TOTAL NUMBER OF ATOMS                        =   21
 THE NUCLEAR REPULSION ENERGY IS      378.6389808113

 SELECTED MURRAY-HANDY-LAMING RADIAL GRID

 LEGACY BECKE'S FUZZY CELL METHOD

 SELECTED ORIGINAL BECKE'S PARTITION FUNCTION

     LEBEDEV GRID-BASED DFT OPTIONS
     ------------------------------
     DFTTYP=B3LYP   
     NRAD  =      96     NLEB  =     302
     NRAD0 =      24     NLEB0 =     110
     SWOFF =    5.00E-03 (PURE SCF -> DFT)
     SWITCH=    3.00E-04 (COARSE -> TIGHT GRID)
     THRESH=    0.00E+00 GTHRE=    1.00E+00

 GRIMME'S EMPIRICAL DISPERSION CORRECTION= F

     $CONTRL OPTIONS
     ---------------
 SCFTYP=RHF          RUNTYP=ENERGY       EXETYP=RUN     
 MPLEVL=       0     CITYP =NONE         CCTYP =NONE         VBTYP =NONE    
 DFTTYP=B3LYP        TDDFT =NONE    
 MULT  =       1     ICHARG=       0     NZVAR =       0     COORD =UNIQUE  
 PP    =NONE         RELWFN=NONE         LOCAL =NONE         NUMGRD=       F
 ISPHER=      -1     NOSYM =       0     MAXIT =      60     UNITS =ANGS    
 PLTORB=       F     MOLPLT=       F     AIMPAC=       F     FRIEND=        
 NPRINT=       7     IREST =       0     GEOM  =INPUT   
 NORMF =       0     NORMP =       0     ITOL  =      20     ICUT  =       9
 INTTYP=BEST         GRDTYP=BEST         QMTTOL= 1.0E-06

     $SYSTEM OPTIONS
     ---------------
  REPLICATED MEMORY=    30000000 WORDS (ON EVERY NODE).
 DISTRIBUTED MEMDDI=        1000 MILLION WORDS IN AGGREGATE,
 MEMDDI DISTRIBUTED OVER   6 PROCESSORS IS   166666666 WORDS/PROCESSOR.
 TOTAL MEMORY REQUESTED ON EACH PROCESSOR=   196666666 WORDS.
 TIMLIM=      525600.00 MINUTES, OR     365.0 DAYS.
 PARALL= T  BALTYP=  DLB     KDIAG=    0  COREFL= F
 MXSEQ2=     300 MXSEQ3=     150  mem10=         0

     INPUT FOR POTENTIAL-DERIVED CHARGES 
     -----------------------------------
     VDWSCL=    1.00   RMAX=    3.00   DELR=    0.80
     VDWINC=    0.20 PTDENS=    0.28
     LAYER =       4  NFREQ=      30 MAXPDC=   10000
     CONSTR=CHARGE    UNITS=ANGS      PTSEL=CHELPG  
     CENTER=  0.0000  0.0000  0.0000
     DPOLE =  0.0000  0.0000  0.0000
     QPOLE =  0.0000  0.0000  0.0000  0.0000  0.0000  0.0000


          ----------------
          PROPERTIES INPUT
          ----------------

     MOMENTS            FIELD           POTENTIAL          DENSITY
 IEMOM =       1   IEFLD =       0   IEPOT =       1   IEDEN =       0
 WHERE =COMASS     WHERE =NUCLEI     WHERE =PDC        WHERE =NUCLEI  
 OUTPUT=BOTH       OUTPUT=BOTH       OUTPUT=BOTH       OUTPUT=BOTH    
 IEMINT=       0   IEFINT=       0                     IEDINT=       0
                                                       MORB  =       0
          EXTRAPOLATION IN EFFECT
          DIIS IN EFFECT
 ORBITAL PRINTING OPTION: NPREO=     1    98     2     1

     -------------------------------
     INTEGRAL TRANSFORMATION OPTIONS
     -------------------------------
     NWORD  =            0
     CUTOFF = 1.0E-09     MPTRAN =       0
     DIRTRF =       T     AOINTS =DUP     

          ----------------------
          INTEGRAL INPUT OPTIONS
          ----------------------
 NOPK  =       1 NORDER=       0 SCHWRZ=       T

     ------------------------------------------
     THE POINT GROUP IS C1 , NAXIS= 0, ORDER= 1
     ------------------------------------------

     DIMENSIONS OF THE SYMMETRY SUBSPACES ARE
 A   =   98

 ..... DONE SETTING UP THE RUN .....
 CPU     0: STEP CPU TIME=     0.03 TOTAL CPU TIME=          0.0 (      0.0 MIN)
 TOTAL WALL CLOCK TIME=          0.0 SECONDS, CPU UTILIZATION IS   100.00%

          ********************
          1 ELECTRON INTEGRALS
          ********************
 ...... END OF ONE-ELECTRON INTEGRALS ......
 CPU     0: STEP CPU TIME=     0.01 TOTAL CPU TIME=          0.0 (      0.0 MIN)
 TOTAL WALL CLOCK TIME=          0.1 SECONDS, CPU UTILIZATION IS    80.00%

          -------------
          GUESS OPTIONS
          -------------
          GUESS =HUCKEL            NORB  =       0          NORDER=       0
          MIX   =       F          PRTMO =       F          PUNMO =       F
          TOLZ  = 1.0E-08          TOLE  = 1.0E-05
          SYMDEN=       F          PURIFY=       F

 INITIAL GUESS ORBITALS GENERATED BY HUCKEL   ROUTINE.
 HUCKEL GUESS REQUIRES     96150 WORDS.

 SYMMETRIES FOR INITIAL GUESS ORBITALS FOLLOW.   BOTH SET(S).
    32 ORBITALS ARE OCCUPIED (    8 CORE ORBITALS).
     9=A       10=A       11=A       12=A       13=A       14=A       15=A   
    16=A       17=A       18=A       19=A       20=A       21=A       22=A   
    23=A       24=A       25=A       26=A       27=A       28=A       29=A   
    30=A       31=A       32=A       33=A       34=A       35=A       36=A   
    37=A       38=A       39=A       40=A       41=A       42=A   
 ...... END OF INITIAL ORBITAL SELECTION ......
 CPU     0: STEP CPU TIME=     0.02 TOTAL CPU TIME=          0.1 (      0.0 MIN)
 TOTAL WALL CLOCK TIME=          0.1 SECONDS, CPU UTILIZATION IS    85.71%

                    ----------------------
                    AO INTEGRAL TECHNOLOGY
                    ----------------------
     S,P,L SHELL ROTATED AXIS INTEGRALS, REPROGRAMMED BY
        KAZUYA ISHIMURA (IMS) AND JOSE SIERRA (SYNSTAR).
     S,P,D,L SHELL ROTATED AXIS INTEGRALS PROGRAMMED BY
        KAZUYA ISHIMURA (INSTITUTE FOR MOLECULAR SCIENCE).
     S,P,D,F,G SHELL TO TOTAL QUARTET ANGULAR MOMENTUM SUM 5,
        ERIC PROGRAM BY GRAHAM FLETCHER (ELORET AND NASA ADVANCED
        SUPERCOMPUTING DIVISION, AMES RESEARCH CENTER).
     S,P,D,F,G,L SHELL GENERAL RYS QUADRATURE PROGRAMMED BY
        MICHEL DUPUIS (PACIFIC NORTHWEST NATIONAL LABORATORY).

          --------------------
          2 ELECTRON INTEGRALS
          --------------------

 DIRECT SCF METHOD SKIPS INTEGRAL STORAGE ON DISK.
 DIRECT TRANSFORMATION SKIPS AO INTEGRAL STORAGE ON DISK.
  ...... END OF TWO-ELECTRON INTEGRALS .....
 CPU     0: STEP CPU TIME=     0.01 TOTAL CPU TIME=          0.1 (      0.0 MIN)
 TOTAL WALL CLOCK TIME=          0.1 SECONDS, CPU UTILIZATION IS    87.50%

          --------------------------
             R-B3LYP SCF CALCULATION
          --------------------------

     NUCLEAR ENERGY =       378.6389808113
     MAXIT =   60     NPUNCH=    2
     EXTRAP=T  DAMP=F  SHIFT=F  RSTRCT=F  DIIS=T  DEM=F  SOSCF=F
         DENSITY MATRIX CONVERGENCE THRESHOLD=  2.00E-05
     COARSE -> FINE DFT GRID SWITCH THRESHOLD=  3.00E-04 (SWITCH IN $DFT)
                   HF -> DFT SWITCH THRESHOLD=  5.00E-03 (SWOFF IN $DFT)
     MEMORY REQUIRED FOR RHF ITERS=    803455 WORDS.

 DIRECT SCF CALCULATION, SCHWRZ=T   FDIFF=T,  DIRTHR=  0.00E+00 NITDIR=10
 SCHWARZ INEQUALITY OVERHEAD:      4483 INTEGRALS, T=        0.00

 DFT CODE IS SWITCHING FROM THE FINE GRID NRAD= 96,  NLEB=  302
                      TO THE COARSE GRID NRAD0= 24, NLEB0=  110

     EXCHANGE FUNCTIONAL   =B88&HFX   
     CORRELATION FUNCTIONAL=LYP88&VWN5
     DFT THRESHOLD         =.657E-08
     GRID CHANGE THRESHOLD =.300E-03
 FOR AN EULER-MACLAURIN QUADRATURE USING  96 RADIAL POINTS:
 SMALLEST GAUSSIAN PRIMITIVE EXPONENT=        0.1831915800 OF TYPE -S-
 ON ATOM NUMBER   2 HAS RADIAL NORMALIZATION=  1.000000
  LARGEST GAUSSIAN PRIMITIVE EXPONENT=      242.7660000000 OF TYPE -S-
 ON ATOM NUMBER   8 HAS RADIAL NORMALIZATION=  1.000000
 DFT IS SWITCHED OFF, PERFORMING PURE SCF UNTIL SWOFF THRESHOLD IS REACHED.

                                                                                   NONZERO     BLOCKS
 ITER EX DEM     TOTAL ENERGY        E CHANGE  DENSITY CHANGE    DIIS ERROR      INTEGRALS    SKIPPED
   1  0  0     -357.3307669829  -357.3307669829   0.739199832   0.622111612        6775988     390960
          * * *   INITIATING DIIS PROCEDURE   * * *
   2  1  0     -358.1385599535    -0.8077929706   0.235536609   0.143880322        6756187     400369
   3  2  0     -358.2026710179    -0.0641110643   0.074782397   0.083162427        6690813     418096
   4  3  0     -358.2416873231    -0.0390163052   0.039997277   0.008409077        6569837     439605
   5  4  0     -358.2428202223    -0.0011328992   0.008650411   0.002693924        6443816     454231
   6  5  0     -358.2428957131    -0.0000754908   0.003200028   0.000975877        6182816     477890
 CONVERGED TO SWOFF, SO DFT CALCULATION IS NOW SWITCHED ON.
          * * *   INITIATING DIIS PROCEDURE   * * *
   7  6  0     -360.3493485183    -2.1064528052   0.098032427   0.074245432        6782121     387786
   8  7  0     -360.3749390485    -0.0255905302   0.048310094   0.029480108        6693871     418801
   9  8  0     -360.3777540907    -0.0028150422   0.031065885   0.022567606        6607049     431584
  10  9  0     -360.3826076272    -0.0048535365   0.011549049   0.010483408        6519168     444770
  11 10  0     -360.3833718443    -0.0007642171   0.001488398   0.000916379        6276796     473078
  12 11  0     -360.3833780807    -0.0000062363   0.000442519   0.000366405        5911664     502122
  13 12  0     -360.3833788752    -0.0000007945   0.000151114   0.000082550        5651119     524901
 DFT CODE IS SWITCHING BACK TO THE FINE GRID
          * * *   INITIATING DIIS PROCEDURE   * * *
  14 13  0     -360.3873877246    -0.0040088494   0.002952343   0.000979907        6785085     385919
  15 14  0     -360.3874138937    -0.0000261691   0.000718424   0.000463203        6207923     477001
  16 15  0     -360.3874139825    -0.0000000888   0.000443455   0.000460404        5774285     513710
  17 16  0     -360.3874152280    -0.0000012455   0.000112645   0.000062207        5519874     535907
  18 17  0     -360.3874152447    -0.0000000167   0.000043058   0.000048364        5216024     555238
  19 18  0     -360.3874152580    -0.0000000133   0.000005981   0.000004171        4809653     584771
  20 19  0     -360.3874152583    -0.0000000003   0.000002677   0.000001440        4336575     607976

          -----------------
          DENSITY CONVERGED
          -----------------
     TIME TO FORM FOCK OPERATORS=      15.4 SECONDS (       0.8 SEC/ITER)
     FOCK TIME ON FIRST ITERATION=       0.1, LAST ITERATION=       2.1
     TIME TO SOLVE SCF EQUATIONS=       0.2 SECONDS (       0.0 SEC/ITER)

 FINAL R-B3LYP ENERGY IS     -360.3874152583 AFTER  20 ITERATIONS
 DFT EXCHANGE + CORRELATION ENERGY =       -42.3436856300
 TOTAL ELECTRON NUMBER             =        64.0005788991

          ------------
          EIGENVECTORS
          ------------

                      1          2          3          4          5
                  -14.2459   -14.2391   -14.1701   -10.2005   -10.1486
                     A          A          A          A          A   
    1  C  1  S    0.000019  -0.000046  -0.000016  -0.000168  -0.002784
    2  C  1  S    0.000127  -0.000258  -0.000089  -0.000196  -0.001445
    3  C  1  X   -0.000083  -0.000055  -0.000025  -0.000037   0.000455
    4  C  1  Y    0.000048   0.000031  -0.000009  -0.000009  -0.000068
    5  C  1  Z   -0.000008  -0.000009   0.000002  -0.000036  -0.000118
    6  C  1  S   -0.000065   0.001934   0.000531   0.001142   0.004029
    7  C  1  X    0.000430  -0.000274  -0.000134  -0.000230  -0.003472
    8  C  1  Y   -0.000541  -0.001213  -0.000085  -0.000359  -0.000304
    9  C  1  Z    0.000353   0.000388   0.000113   0.000748   0.000890
   10  H  2  S   -0.000038  -0.000353   0.000033   0.000106  -0.000114
   11  H  2  S    0.000320   0.000260  -0.000019   0.000581  -0.001750
   12  H  3  S    0.000051  -0.000068  -0.000037  -0.000116  -0.000492
   13  H  3  S   -0.000015   0.000068  -0.000057  -0.000224  -0.000165
   14  C  4  S   -0.000051  -0.000114   0.000012  -0.000185  -0.005293
   15  C  4  S   -0.000302  -0.000721   0.000053  -0.000086  -0.001610
   16  C  4  X    0.000145   0.000525   0.000073   0.000275   0.000867
   17  C  4  Y    0.000022   0.000224   0.000072   0.000148   0.000501
   18  C  4  Z    0.000129  -0.000082  -0.000007   0.000131  -0.000247
   19  C  4  S    0.001036   0.001751  -0.000661  -0.000735   0.001135
   20  C  4  X   -0.001342  -0.003853  -0.000022  -0.001142  -0.002193
   21  C  4  Y   -0.000471  -0.001264  -0.000540  -0.001174  -0.002705
   22  C  4  Z   -0.000642   0.000448  -0.000270  -0.001683   0.000917
   23  C  5  S    0.000062   0.000100   0.000021   0.000007  -0.011214
   24  C  5  S    0.000261   0.000163   0.000172   0.000023  -0.004346
   25  C  5  X   -0.000079   0.000724  -0.000167  -0.000228   0.000271
   26  C  5  Y   -0.000293  -0.000025   0.000035  -0.000003   0.000149
   27  C  5  Z   -0.000148  -0.000283  -0.000071  -0.000502  -0.000013
   28  C  5  S   -0.001804  -0.003632   0.000114   0.000761   0.025013
   29  C  5  X    0.001420  -0.000001   0.000825   0.001549  -0.012877
   30  C  5  Y    0.003141   0.001711  -0.000923  -0.000725  -0.009590
   31  C  5  Z   -0.000077   0.001136   0.000877   0.003982   0.003080
   32  C  6  S   -0.000092  -0.000611  -0.000128  -0.003491   0.986541
   33  C  6  S   -0.000244  -0.002550  -0.001137  -0.001800   0.113589
   34  C  6  X   -0.000619  -0.001176   0.001248   0.001451  -0.000055
   35  C  6  Y    0.000045   0.000439  -0.000509  -0.000115   0.000127
   36  C  6  Z    0.000407   0.000418   0.000134   0.000875  -0.000161
   37  C  6  S    0.005576   0.019656  -0.000897   0.002444  -0.094487
   38  C  6  X   -0.000058  -0.010167  -0.001918  -0.005908  -0.004763
   39  C  6  Y    0.003247   0.003508  -0.000116   0.000111  -0.005493
   40  C  6  Z   -0.000694  -0.000559  -0.001135  -0.004918   0.001509
   41  C  7  S   -0.000359  -0.000383   0.000000   0.984948   0.003220
   42  C  7  S   -0.001836  -0.001851  -0.001156   0.101323  -0.000939
   43  C  7  X   -0.000110   0.000571   0.000292   0.000800  -0.001004
   44  C  7  Y    0.000034  -0.000142  -0.000014  -0.000167   0.000287
   45  C  7  Z   -0.000321   0.000366  -0.000126   0.000140   0.000285
   46  C  7  S    0.018512   0.020562   0.032088  -0.044864   0.000854
   47  C  7  X    0.010610   0.021125  -0.040277  -0.007203   0.010459
   48  C  7  Y    0.000428  -0.001171   0.000511   0.000399  -0.001020
   49  C  7  Z   -0.028859   0.011643   0.013574   0.001691  -0.003002
   50  N  8  S    0.984964   0.008726   0.001717   0.000181   0.000088
   51  N  8  S    0.110722   0.000999  -0.000494  -0.000341   0.000469
   52  N  8  X   -0.000580   0.000739  -0.001077   0.000198  -0.000105
   53  N  8  Y    0.001202  -0.000065  -0.000100  -0.000033  -0.000055
   54  N  8  Z    0.001393  -0.000295  -0.000637  -0.000931  -0.000385
   55  N  8  S   -0.076006  -0.002344   0.006008   0.007300  -0.004238
   56  N  8  X    0.003577  -0.005787   0.009447   0.000631  -0.000813
   57  N  8  Y   -0.002623   0.000083   0.000676   0.000062   0.000292
   58  N  8  Z   -0.013364  -0.002210   0.005220   0.003087  -0.000925
   59  N  9  S   -0.001850  -0.002831   0.985214   0.000395  -0.000155
   60  N  9  S   -0.000913  -0.001339   0.111659  -0.000100  -0.001388
   61  N  9  X   -0.000552  -0.000336   0.002798  -0.001988  -0.000292
   62  N  9  Y    0.000051   0.000036   0.000405   0.000115  -0.000079
   63  N  9  Z   -0.000627   0.000515  -0.004138   0.000506   0.000085
   64  N  9  S    0.007174   0.004966  -0.086571   0.000822   0.007647
   65  N  9  X    0.005474   0.000137  -0.020640  -0.000376   0.003413
   66  N  9  Y   -0.000400   0.000140  -0.000723  -0.000382   0.000337
   67  N  9  Z    0.005612  -0.005032   0.014841   0.001576  -0.001253
   68  H 10  S   -0.000199  -0.000511  -0.000006  -0.000228  -0.000170
   69  H 10  S   -0.000513   0.000001  -0.000254  -0.000899  -0.001391
   70  N 11  S   -0.008673   0.985148   0.002625   0.000265  -0.000053
   71  N 11  S   -0.001112   0.112087  -0.000526   0.000125  -0.000656
   72  N 11  X    0.001245  -0.000451  -0.000509   0.000344  -0.000001
   73  N 11  Y   -0.000017  -0.001417  -0.000019  -0.000220  -0.000075
   74  N 11  Z   -0.000124  -0.001193   0.001072   0.000534  -0.000422
   75  N 11  S    0.000554  -0.079962   0.004229   0.004759   0.009813
   76  N 11  X   -0.007634   0.003468   0.004241  -0.001229   0.006645
   77  N 11  Y    0.000284   0.004797   0.000113   0.001330  -0.001524
   78  N 11  Z    0.004689   0.010191  -0.008700  -0.001448   0.002157
   79  H 12  S   -0.000127   0.000016  -0.000013  -0.000363  -0.001628
   80  H 12  S   -0.000719  -0.000763  -0.000019  -0.001244   0.001019
   81  H 13  S    0.000868   0.000297  -0.000013   0.000426  -0.001522
   82  H 13  S   -0.003192  -0.000139   0.001218   0.001651   0.000152
   83  H 14  S   -0.000707  -0.001738  -0.000148  -0.001535   0.000458
   84  H 14  S    0.000463  -0.002774   0.000312  -0.000573   0.016131
   85  H 15  S   -0.000078  -0.001022   0.000121   0.000686   0.000325
   86  H 15  S    0.000310  -0.000447   0.000893   0.001738   0.016581
   87  H 16  S    0.001458   0.001304  -0.002265  -0.000935   0.000006
   88  H 16  S    0.008331   0.000306  -0.000301   0.001466   0.000830
   89  H 17  S    0.001471  -0.001493   0.002529  -0.000466   0.000055
   90  H 17  S    0.006838   0.000429   0.000929   0.002220   0.000230
   91  H 18  S    0.001487  -0.001334   0.002886  -0.000083  -0.000406
   92  H 18  S    0.000786   0.001482   0.006101   0.002417   0.001157
   93  H 19  S   -0.000002  -0.000037   0.000005   0.000010  -0.000492
   94  H 19  S    0.000602   0.000253  -0.000084   0.000200  -0.000114
   95  H 20  S   -0.000058  -0.000195  -0.000022  -0.000062  -0.000022
   96  H 20  S   -0.000229  -0.000131  -0.000031  -0.000033   0.001268
   97  H 21  S   -0.001737   0.001379   0.001656  -0.000606  -0.001569
   98  H 21  S    0.000539   0.006730   0.001969   0.002733   0.001509

                      6          7          8          9         10
                  -10.1176   -10.1138   -10.1084    -0.9540    -0.8638
                     A          A          A          A          A   
    1  C  1  S   -0.034245  -0.036854   0.985031  -0.000428  -0.005347
    2  C  1  S   -0.006492  -0.005580   0.111951   0.001502   0.006892
    3  C  1  X   -0.000420   0.000877  -0.000141  -0.000605  -0.003902
    4  C  1  Y   -0.000117   0.000016   0.000145  -0.000231  -0.001975
    5  C  1  Z    0.000110  -0.000206   0.000015   0.000289   0.001111
    6  C  1  S    0.026427   0.007276  -0.089680  -0.005085   0.004650
    7  C  1  X   -0.009973  -0.002063   0.003954   0.002793   0.004313
    8  C  1  Y   -0.008939  -0.000584   0.002532   0.002824   0.002293
    9  C  1  Z    0.003110   0.000457  -0.001113  -0.002704  -0.001136
   10  H  2  S    0.000900  -0.001365  -0.001254   0.001163   0.007260
   11  H  2  S    0.016136   0.002282   0.001774  -0.001476   0.000282
   12  H  3  S   -0.001476  -0.000173  -0.000080   0.000623   0.002862
   13  H  3  S    0.000186  -0.001690   0.016079   0.000450  -0.000055
   14  C  4  S    0.981889   0.091154   0.036845  -0.002774  -0.015438
   15  C  4  S    0.114993   0.007935   0.002017   0.003412   0.016333
   16  C  4  X   -0.000008  -0.000319  -0.000111  -0.003799  -0.009891
   17  C  4  Y    0.000184  -0.000176  -0.000255  -0.000184   0.001954
   18  C  4  Z   -0.000010   0.000068   0.000056   0.000334   0.002378
   19  C  4  S   -0.105433   0.013092   0.016836   0.007370   0.031133
   20  C  4  X    0.002862  -0.013756   0.009125   0.007283   0.006668
   21  C  4  Y   -0.007567   0.004101   0.008702   0.005056   0.003044
   22  C  4  Z   -0.000166   0.003026  -0.002947   0.002799  -0.001644
   23  C  5  S   -0.093281   0.981810   0.033317  -0.012187  -0.037057
   24  C  5  S   -0.013778   0.114773   0.002772   0.012716   0.036641
   25  C  5  X    0.000269   0.000187  -0.000989  -0.008992  -0.017210
   26  C  5  Y    0.000297  -0.000044  -0.000631  -0.004698  -0.013929
   27  C  5  Z   -0.000060  -0.000122   0.000270   0.002606   0.005886
   28  C  5  S    0.034427  -0.102116  -0.002587   0.014231   0.076238
   29  C  5  X    0.012834   0.000209   0.003361  -0.002982   0.002793
   30  C  5  Y   -0.006759   0.006135   0.003820   0.001986   0.005373
   31  C  5  Z   -0.002748   0.000249  -0.001008  -0.008863  -0.004487
   32  C  6  S    0.004127   0.010649   0.002996  -0.044935  -0.086696
   33  C  6  S   -0.000092  -0.001984  -0.000983   0.047212   0.087233
   34  C  6  X   -0.000684   0.000485  -0.000335  -0.038148  -0.046133
   35  C  6  Y    0.000034  -0.000213  -0.000008   0.014655   0.025388
   36  C  6  Z    0.000152   0.000082   0.000052   0.001296   0.014283
   37  C  6  S   -0.002905   0.023901   0.005504   0.079984   0.190823
   38  C  6  X   -0.000344   0.009140   0.003854   0.015368   0.007330
   39  C  6  Y   -0.002815   0.010775   0.001434   0.003649   0.004698
   40  C  6  Z    0.000174  -0.003456  -0.000914   0.011509   0.007319
   41  C  7  S    0.000186   0.000026   0.000143  -0.139904   0.025558
   42  C  7  S   -0.000085  -0.000083  -0.000099   0.166678  -0.027920
   43  C  7  X   -0.000066   0.000040  -0.000069   0.014638   0.069588
   44  C  7  Y    0.000011   0.000093   0.000038  -0.000502  -0.008100
   45  C  7  Z    0.000067  -0.000226  -0.000022   0.001158   0.116021
   46  C  7  S    0.000612   0.001259   0.000224   0.134988  -0.033699
   47  C  7  X   -0.000066  -0.000243   0.000712  -0.002141  -0.025414
   48  C  7  Y   -0.000210  -0.000401  -0.000058   0.002266   0.005657
   49  C  7  Z    0.001230   0.000151   0.000006  -0.003038  -0.012662
   50  N  8  S   -0.000019  -0.000017   0.000010  -0.117320   0.140146
   51  N  8  S   -0.000196  -0.000077   0.000096   0.105820  -0.129335
   52  N  8  X   -0.000068   0.000073   0.000067  -0.014034   0.024777
   53  N  8  Y    0.000009  -0.000115   0.000016   0.015814  -0.023769
   54  N  8  Z   -0.000062   0.000290  -0.000004   0.045664  -0.001876
   55  N  8  S    0.000721   0.000992  -0.000430   0.336436  -0.424590
   56  N  8  X    0.000118   0.000174  -0.000369  -0.011736   0.037437
   57  N  8  Y    0.000001   0.000580  -0.000088   0.014732  -0.024861
   58  N  8  Z    0.000468  -0.001253  -0.000094   0.046236  -0.011835
   59  N  9  S    0.000008   0.000016  -0.000007  -0.079504   0.037318
   60  N  9  S    0.000024   0.000161  -0.000057   0.072411  -0.032135
   61  N  9  X   -0.000044   0.000066   0.000002   0.057128  -0.007990
   62  N  9  Y   -0.000007  -0.000031  -0.000008   0.002643  -0.002662
   63  N  9  Z    0.000019   0.000011   0.000015  -0.043048   0.035605
   64  N  9  S   -0.000463  -0.000678   0.000387   0.215298  -0.118254
   65  N  9  X   -0.000174  -0.000481   0.000099   0.042628  -0.010228
   66  N  9  Y    0.000064   0.000170   0.000030   0.002930  -0.004439
   67  N  9  Z   -0.000137   0.000036  -0.000135  -0.041080   0.044964
   68  H 10  S    0.000889  -0.001351  -0.001256   0.002029   0.007261
   69  H 10  S    0.016119   0.002246   0.001688   0.001829   0.000157
   70  N 11  S   -0.000042   0.000047  -0.000007  -0.127189  -0.147656
   71  N 11  S   -0.000458  -0.000208  -0.000151   0.112733   0.134013
   72  N 11  X   -0.000426  -0.000351  -0.000062  -0.033831   0.013872
   73  N 11  Y   -0.000143  -0.000040   0.000044  -0.014452  -0.027467
   74  N 11  Z    0.000111   0.000139   0.000006  -0.031609   0.010975
   75  N 11  S    0.001232  -0.001364   0.000438   0.370410   0.455847
   76  N 11  X    0.002556  -0.001062   0.000284  -0.028580  -0.005398
   77  N 11  Y    0.000501  -0.000304  -0.000421  -0.020484  -0.029412
   78  N 11  Z   -0.000588   0.000366   0.000158  -0.039839  -0.009537
   79  H 12  S   -0.001558   0.000637  -0.000272   0.005362   0.015926
   80  H 12  S   -0.000463   0.016383  -0.000927   0.003312  -0.000150
   81  H 13  S   -0.001560   0.000375  -0.000265   0.004046   0.015569
   82  H 13  S   -0.000589   0.017865  -0.000994   0.001871  -0.009358
   83  H 14  S    0.000217  -0.001712  -0.000483   0.020977   0.032464
   84  H 14  S   -0.001515   0.001314  -0.000020   0.006090  -0.004142
   85  H 15  S    0.000157  -0.001421  -0.000544   0.013321   0.035049
   86  H 15  S   -0.001341   0.001480   0.000020  -0.007623  -0.004318
   87  H 16  S   -0.000047   0.000332   0.000006   0.052045  -0.071854
   88  H 16  S    0.000091  -0.002673   0.000449   0.004721  -0.011416
   89  H 17  S    0.000013  -0.000328  -0.000032   0.050335  -0.078178
   90  H 17  S    0.000185  -0.000091  -0.000090   0.006322  -0.020204
   91  H 18  S   -0.000030  -0.000005  -0.000042   0.031109  -0.021851
   92  H 18  S    0.000042  -0.000121   0.000048  -0.001024  -0.010966
   93  H 19  S   -0.001483  -0.000106  -0.000086   0.000481   0.002708
   94  H 19  S    0.000226  -0.001983   0.016129  -0.001202   0.000587
   95  H 20  S   -0.001128  -0.000403  -0.000251   0.000409   0.002216
   96  H 20  S   -0.000483   0.001157   0.015360  -0.000595  -0.002195
   97  H 21  S    0.000055   0.000068  -0.000106   0.053912   0.077600
   98  H 21  S    0.000474  -0.000385   0.000137   0.002881   0.016650

                     11         12         13         14         15
                   -0.8288    -0.7868    -0.7148    -0.6346    -0.5865
                     A          A          A          A          A   
    1  C  1  S    0.009295  -0.095710  -0.132824  -0.112235   0.053676
    2  C  1  S   -0.009817   0.095905   0.127021   0.104937  -0.049717
    3  C  1  X    0.004958  -0.035312  -0.006535   0.047861  -0.035739
    4  C  1  Y    0.003086  -0.025957  -0.014998   0.031434  -0.056964
    5  C  1  Z   -0.001379   0.010397   0.002567  -0.014077   0.014761
    6  C  1  S   -0.017994   0.223250   0.370872   0.369273  -0.193867
    7  C  1  X   -0.001132  -0.000053  -0.003040   0.016098  -0.006664
    8  C  1  Y   -0.001894   0.000173  -0.004582   0.006838  -0.024892
    9  C  1  Z    0.000303  -0.000011   0.000692  -0.004006   0.005233
   10  H  2  S   -0.009341   0.066223   0.029368  -0.041778   0.075023
   11  H  2  S    0.000155  -0.000985  -0.001058  -0.006777   0.029668
   12  H  3  S   -0.004288   0.045678   0.070369   0.074921  -0.049299
   13  H  3  S    0.000223   0.001524   0.006451   0.017790  -0.021738
   14  C  4  S    0.019939  -0.142059  -0.060072   0.067288  -0.083472
   15  C  4  S   -0.020421   0.136667   0.053963  -0.060544   0.074834
   16  C  4  X    0.008425  -0.016295   0.081314   0.081468   0.010213
   17  C  4  Y   -0.003550   0.029877   0.025849   0.022114  -0.063336
   18  C  4  Z   -0.001558   0.001613  -0.021608  -0.020694   0.008497
   19  C  4  S   -0.040696   0.346967   0.180420  -0.226640   0.306357
   20  C  4  X   -0.004921  -0.000566   0.004825   0.021386  -0.000970
   21  C  4  Y   -0.000695   0.006765   0.008346  -0.000336  -0.025209
   22  C  4  Z    0.002363  -0.000733  -0.001107  -0.006494   0.003454
   23  C  5  S    0.033570  -0.121626   0.088165   0.083080   0.047486
   24  C  5  S   -0.032894   0.117331  -0.081968  -0.074336  -0.042554
   25  C  5  X    0.008013   0.037595   0.064193  -0.070041   0.058563
   26  C  5  Y    0.009499  -0.022505   0.028244  -0.027081  -0.036515
   27  C  5  Z   -0.000525  -0.008531  -0.016450   0.021957   0.007677
   28  C  5  S   -0.076916   0.298609  -0.253597  -0.276153  -0.177248
   29  C  5  X   -0.003149   0.002171  -0.005747  -0.004382   0.014236
   30  C  5  Y    0.008791  -0.011145   0.010976  -0.003014  -0.014913
   31  C  5  Z   -0.005023  -0.000591  -0.000581   0.007564   0.010942
   32  C  6  S    0.048152  -0.040789   0.114144  -0.110381   0.014106
   33  C  6  S   -0.046047   0.043133  -0.109698   0.103586  -0.013703
   34  C  6  X    0.006479   0.060053  -0.047445  -0.051980  -0.028365
   35  C  6  Y   -0.011679   0.014365  -0.014349  -0.043649  -0.017509
   36  C  6  Z    0.001034  -0.014003   0.007616   0.031836   0.074182
   37  C  6  S   -0.099592   0.089370  -0.323488   0.365964  -0.047513
   38  C  6  X    0.008483   0.004780  -0.017473  -0.010279  -0.006746
   39  C  6  Y   -0.000044  -0.004824  -0.001541  -0.013200  -0.004820
   40  C  6  Z    0.012879  -0.001851   0.008052   0.004549   0.040066
   41  C  7  S   -0.061073   0.001070  -0.026325   0.052731   0.086338
   42  C  7  S    0.070581  -0.001704   0.031776  -0.063595  -0.103741
   43  C  7  X   -0.172470  -0.074703   0.085187  -0.084967  -0.100728
   44  C  7  Y    0.002419   0.002211   0.000317  -0.007961   0.004409
   45  C  7  Z    0.106334  -0.015689   0.041939  -0.047807   0.058185
   46  C  7  S    0.073023  -0.010608   0.059390  -0.124433  -0.213216
   47  C  7  X    0.042133   0.004746   0.011592  -0.030941  -0.052137
   48  C  7  Y   -0.000182   0.000157   0.000272  -0.004073   0.001918
   49  C  7  Z   -0.034969  -0.007055   0.008498  -0.013377   0.028590
   50  N  8  S    0.117721   0.002030   0.004956  -0.012062  -0.032546
   51  N  8  S   -0.107577  -0.001434  -0.004725   0.010689   0.029354
   52  N  8  X   -0.018932  -0.009261   0.008690  -0.015089  -0.025420
   53  N  8  Y   -0.023346  -0.000406  -0.000759  -0.000285   0.017343
   54  N  8  Z    0.013225  -0.005825   0.019777  -0.054426  -0.203133
   55  N  8  S   -0.389279  -0.011511  -0.016389   0.048764   0.124263
   56  N  8  X   -0.025403  -0.014652   0.012924  -0.012218  -0.024546
   57  N  8  Y   -0.021885  -0.001789   0.001900  -0.001254   0.016334
   58  N  8  Z   -0.019778  -0.005568   0.011724  -0.038706  -0.153183
   59  N  9  S   -0.165937  -0.046834   0.041565  -0.037185  -0.030490
   60  N  9  S    0.151667   0.042791  -0.038371   0.034694   0.030151
   61  N  9  X    0.073696   0.008980   0.011455  -0.040726  -0.036789
   62  N  9  Y    0.008351   0.003223  -0.003739   0.003843   0.005919
   63  N  9  Z   -0.086143  -0.031805   0.035744  -0.038928  -0.011391
   64  N  9  S    0.518429   0.149022  -0.134845   0.123084   0.095992
   65  N  9  X    0.078651   0.014012   0.000770  -0.020545  -0.020948
   66  N  9  Y    0.007936   0.002662  -0.002705   0.002629   0.004061
   67  N  9  Z   -0.078899  -0.031021   0.033661  -0.033658  -0.008095
   68  H 10  S   -0.009438   0.066293   0.029229  -0.042604   0.069419
   69  H 10  S    0.000775  -0.001028  -0.000524  -0.008429   0.024677
   70  N 11  S    0.022668   0.056285  -0.053899   0.013857  -0.045466
   71  N 11  S   -0.021557  -0.050544   0.048384  -0.012625   0.040514
   72  N 11  X   -0.045922   0.029624  -0.099637   0.147285   0.035757
   73  N 11  Y    0.010912   0.004747   0.015245  -0.051402  -0.010929
   74  N 11  Z    0.012764  -0.000412   0.000062   0.033706   0.191389
   75  N 11  S   -0.070832  -0.189394   0.198128  -0.063490   0.175034
   76  N 11  X   -0.049195   0.011382  -0.060331   0.100495   0.027653
   77  N 11  Y    0.008301   0.009114   0.003753  -0.035844  -0.013672
   78  N 11  Z    0.029564   0.009860  -0.007180   0.026087   0.146401
   79  H 12  S   -0.014369   0.056378  -0.044516  -0.051509  -0.036314
   80  H 12  S    0.001044  -0.001177   0.000708  -0.010155  -0.012024
   81  H 13  S   -0.015850   0.057923  -0.045200  -0.055529  -0.052872
   82  H 13  S   -0.010625  -0.000901  -0.000517  -0.011004  -0.026474
   83  H 14  S   -0.022182   0.021294  -0.060749   0.069211  -0.033978
   84  H 14  S   -0.002063  -0.001810   0.000824   0.011911  -0.008752
   85  H 15  S   -0.020891   0.023078  -0.065193   0.082918   0.019946
   86  H 15  S   -0.005998   0.000403  -0.005797   0.024346   0.024393
   87  H 16  S   -0.075084  -0.001250  -0.006376   0.010667   0.042159
   88  H 16  S   -0.022643   0.005464  -0.010341   0.001424   0.024134
   89  H 17  S   -0.066648   0.002186  -0.011683   0.034085   0.116189
   90  H 17  S   -0.019172   0.001620  -0.007393   0.022952   0.075350
   91  H 18  S    0.085187   0.030328  -0.038340   0.052908   0.042917
   92  H 18  S    0.020686   0.010864  -0.017637   0.030874   0.032419
   93  H 19  S   -0.004473   0.045762   0.070596   0.075147  -0.050945
   94  H 19  S    0.000596   0.001991   0.006454   0.018449  -0.022442
   95  H 20  S   -0.003842   0.042441   0.073422   0.082628  -0.040303
   96  H 20  S    0.001199  -0.003394   0.012542   0.024612  -0.015711
   97  H 21  S   -0.006127  -0.035470   0.045777  -0.014900   0.126250
   98  H 21  S    0.000233  -0.009852   0.014732  -0.003352   0.073456

                     16         17         18         19         20
                   -0.5794    -0.5210    -0.5008    -0.4746    -0.4508
                     A          A          A          A          A   
    1  C  1  S   -0.043114   0.000986  -0.013339  -0.003250  -0.003519
    2  C  1  S    0.040105  -0.000928   0.011152   0.002539   0.002501
    3  C  1  X    0.023098  -0.000675   0.032346   0.040412  -0.014426
    4  C  1  Y    0.066978  -0.008690   0.033502   0.014426   0.013640
    5  C  1  Z   -0.009949  -0.012642  -0.010168   0.100367  -0.140346
    6  C  1  S    0.157616  -0.004879   0.063064   0.016093   0.019936
    7  C  1  X   -0.003117   0.001170   0.016783   0.026292  -0.012879
    8  C  1  Y    0.033037  -0.004788   0.014084   0.008085   0.006153
    9  C  1  Z   -0.001348  -0.008628  -0.005059   0.067184  -0.099764
   10  H  2  S   -0.087312  -0.006285  -0.015587   0.087581  -0.090696
   11  H  2  S   -0.039313  -0.006450  -0.002908   0.070736  -0.068495
   12  H  3  S    0.047779  -0.009599   0.019014   0.057669  -0.060936
   13  H  3  S    0.024852  -0.007715   0.011067   0.047843  -0.053061
   14  C  4  S    0.089142  -0.004769   0.023887   0.005043   0.008223
   15  C  4  S   -0.080814   0.004049  -0.020065  -0.004447  -0.007157
   16  C  4  X   -0.032719   0.003154  -0.032753   0.034984  -0.068478
   17  C  4  Y    0.099071  -0.015589  -0.006036   0.001861  -0.020155
   18  C  4  Z    0.003812  -0.031718   0.008790   0.174285  -0.158666
   19  C  4  S   -0.331926   0.021918  -0.101090  -0.018745  -0.034614
   20  C  4  X   -0.003118  -0.000120  -0.025517   0.023984  -0.052251
   21  C  4  Y    0.046142  -0.006235  -0.014236   0.000397  -0.017221
   22  C  4  Z   -0.000746  -0.018091   0.007873   0.127476  -0.119313
   23  C  5  S   -0.095780   0.012907  -0.001774   0.001463  -0.000959
   24  C  5  S    0.086001  -0.011147   0.001965  -0.000736   0.000963
   25  C  5  X   -0.033475  -0.018138  -0.005569   0.037307  -0.013806
   26  C  5  Y    0.108611  -0.011327  -0.075480  -0.013169  -0.047738
   27  C  5  Z    0.009490  -0.058379   0.008218   0.188328  -0.086645
   28  C  5  S    0.359470  -0.059583  -0.003529  -0.014236  -0.004862
   29  C  5  X   -0.010552  -0.015591   0.016343   0.028621  -0.010841
   30  C  5  Y    0.045218  -0.012015  -0.044646  -0.010153  -0.038569
   31  C  5  Z    0.003325  -0.037368  -0.001589   0.138907  -0.068433
   32  C  6  S    0.058262  -0.001334  -0.035800  -0.002257   0.000736
   33  C  6  S   -0.055430   0.000139   0.031303   0.000994  -0.002914
   34  C  6  X    0.020328  -0.013466   0.153781   0.091915   0.105086
   35  C  6  Y    0.099285  -0.013307  -0.122146  -0.015443  -0.046381
   36  C  6  Z    0.028462  -0.087228  -0.027901   0.155883   0.058296
   37  C  6  S   -0.213583   0.011471   0.161989   0.013180   0.004773
   38  C  6  X   -0.012947  -0.010174   0.086115   0.057408   0.062512
   39  C  6  Y    0.052170   0.000736  -0.067906  -0.002835  -0.024481
   40  C  6  Z    0.025313  -0.071492  -0.008530   0.107242   0.047995
   41  C  7  S    0.046484   0.039059  -0.043906  -0.014628  -0.010938
   42  C  7  S   -0.055872  -0.048108   0.057483   0.016699   0.012206
   43  C  7  X   -0.051354   0.042596  -0.089601   0.001330  -0.048856
   44  C  7  Y    0.018098   0.029679  -0.006934   0.039154   0.042981
   45  C  7  Z    0.068368   0.159100   0.207323  -0.048420  -0.146163
   46  C  7  S   -0.117429  -0.111407   0.137379   0.049011   0.035524
   47  C  7  X   -0.022571   0.057495  -0.035274   0.022094  -0.019985
   48  C  7  Y    0.010687   0.015584  -0.012084   0.029241   0.036612
   49  C  7  Z    0.030298   0.067395   0.096620  -0.011700  -0.053473
   50  N  8  S   -0.017559  -0.001000  -0.002627  -0.008249  -0.010540
   51  N  8  S    0.016248   0.000679   0.000350   0.006451   0.008442
   52  N  8  X    0.005501   0.324903  -0.022865   0.148626   0.069409
   53  N  8  Y    0.023295   0.099833  -0.001990   0.064207   0.045324
   54  N  8  Z   -0.134918  -0.100870  -0.148276   0.114363   0.183499
   55  N  8  S    0.062743   0.000903   0.010247   0.038676   0.050463
   56  N  8  X   -0.001792   0.264397  -0.019636   0.121397   0.049439
   57  N  8  Y    0.020565   0.081790  -0.000775   0.059321   0.040495
   58  N  8  Z   -0.100476  -0.084384  -0.128386   0.092027   0.162155
   59  N  9  S   -0.015102  -0.050861   0.027909  -0.000506   0.014429
   60  N  9  S    0.014987   0.044264  -0.019227  -0.001033  -0.013986
   61  N  9  X   -0.008509  -0.040039   0.225593   0.008919   0.008882
   62  N  9  Y    0.006216   0.016449  -0.023401   0.012884   0.014296
   63  N  9  Z    0.005064   0.016903   0.090826   0.000625  -0.018787
   64  N  9  S    0.048979   0.203418  -0.124256   0.011366  -0.051512
   65  N  9  X   -0.003556  -0.016998   0.135581   0.007551   0.006322
   66  N  9  Y    0.004083   0.014171  -0.013803   0.009912   0.009916
   67  N  9  Z    0.004048   0.002547   0.077879  -0.001082  -0.011321
   68  H 10  S   -0.090555   0.022932  -0.015780  -0.087484   0.081313
   69  H 10  S   -0.041716   0.019156  -0.003018  -0.067239   0.068003
   70  N 11  S   -0.031545   0.004481   0.038632   0.018042   0.015539
   71  N 11  S    0.029880  -0.000816  -0.031865  -0.013783  -0.012781
   72  N 11  X   -0.017669  -0.034020  -0.189101  -0.019852  -0.029568
   73  N 11  Y    0.040709   0.010924   0.017196   0.035142   0.050932
   74  N 11  Z    0.120316  -0.082285   0.017005   0.080047   0.230120
   75  N 11  S    0.118640  -0.030921  -0.166067  -0.086525  -0.071163
   76  N 11  X   -0.013489  -0.025437  -0.170768  -0.008862  -0.019842
   77  N 11  Y    0.034453   0.010899   0.019697   0.030904   0.043776
   78  N 11  Z    0.094155  -0.062390   0.029538   0.077175   0.206762
   79  H 12  S    0.098626  -0.039044  -0.021149   0.084577  -0.060105
   80  H 12  S    0.046469  -0.023497  -0.017262   0.065312  -0.043270
   81  H 13  S    0.094537   0.022982  -0.024275  -0.101079   0.033669
   82  H 13  S    0.043692   0.039471  -0.022738  -0.066315   0.036469
   83  H 14  S   -0.083048   0.048757   0.073502  -0.067791  -0.011979
   84  H 14  S   -0.039792   0.034558   0.046112  -0.052829  -0.004314
   85  H 15  S   -0.052532  -0.034841   0.080190   0.100938   0.063745
   86  H 15  S   -0.022112  -0.019726   0.046850   0.084897   0.054886
   87  H 16  S    0.043183   0.229203   0.012059   0.084749   0.033064
   88  H 16  S    0.037468   0.166833   0.008036   0.047990   0.026340
   89  H 17  S    0.065647  -0.102551   0.078451  -0.125967  -0.124688
   90  H 17  S    0.042162  -0.068247   0.051027  -0.102506  -0.109884
   91  H 18  S    0.013912   0.047689  -0.164651  -0.007149  -0.010749
   92  H 18  S    0.012218   0.029553  -0.131787  -0.011355  -0.013463
   93  H 19  S    0.047096   0.003180   0.018793  -0.050339   0.081916
   94  H 19  S    0.024824   0.001934   0.011045  -0.045133   0.068602
   95  H 20  S    0.026000   0.002121   0.018745   0.009269   0.006571
   96  H 20  S    0.010695   0.001567   0.009718   0.006397   0.004519
   97  H 21  S    0.090176  -0.043932   0.012356   0.040681   0.145525
   98  H 21  S    0.053022  -0.025271  -0.000572   0.031278   0.112889

                     21         22         23         24         25
                   -0.4342    -0.4237    -0.4037    -0.3881    -0.3676
                     A          A          A          A          A   
    1  C  1  S   -0.003650   0.007354   0.000180  -0.002514  -0.009721
    2  C  1  S    0.002867  -0.004809  -0.000263   0.001679   0.010403
    3  C  1  X    0.177408  -0.126976   0.078188  -0.111338  -0.128566
    4  C  1  Y   -0.127392  -0.050591  -0.008485   0.216532  -0.163494
    5  C  1  Z   -0.054971  -0.001340   0.213506   0.048124   0.101290
    6  C  1  S    0.012698  -0.047273  -0.000305   0.015448   0.028082
    7  C  1  X    0.128091  -0.088092   0.059525  -0.078594  -0.094571
    8  C  1  Y   -0.095918  -0.025810  -0.005443   0.163979  -0.121432
    9  C  1  Z   -0.040390  -0.004006   0.168889   0.037130   0.078752
   10  H  2  S    0.051384  -0.022006   0.052791   0.013920  -0.052258
   11  H  2  S    0.045783  -0.024050   0.041721   0.005259  -0.049152
   12  H  3  S   -0.065070  -0.035624   0.112414   0.116163  -0.020853
   13  H  3  S   -0.054597  -0.029543   0.097495   0.103593  -0.028776
   14  C  4  S    0.009501  -0.021364   0.002518  -0.013281  -0.007589
   15  C  4  S   -0.009509   0.018798  -0.001924   0.009315   0.006896
   16  C  4  X    0.099579   0.073185   0.034645  -0.093469   0.164917
   17  C  4  Y   -0.173620   0.079321  -0.003699  -0.020224   0.148397
   18  C  4  Z   -0.032179  -0.050628   0.089034   0.029294  -0.067106
   19  C  4  S   -0.022728   0.087856  -0.013221   0.080126   0.033994
   20  C  4  X    0.076830   0.053143   0.030556  -0.085562   0.108644
   21  C  4  Y   -0.121493   0.066122  -0.003610  -0.004166   0.117256
   22  C  4  Z   -0.024972  -0.039960   0.074344   0.025712  -0.047878
   23  C  5  S   -0.006689   0.017305  -0.001960   0.018288   0.019688
   24  C  5  S    0.004745  -0.014916   0.000784  -0.010801  -0.015008
   25  C  5  X   -0.196630   0.030304  -0.044864  -0.017542  -0.050546
   26  C  5  Y   -0.026673   0.136138   0.006958  -0.186225   0.073482
   27  C  5  Z    0.047880  -0.008669  -0.155948  -0.017270  -0.052047
   28  C  5  S    0.033166  -0.062437   0.012984  -0.120915  -0.099765
   29  C  5  X   -0.138697   0.016547  -0.035281  -0.028431  -0.047575
   30  C  5  Y   -0.020424   0.094403  -0.002619  -0.116710   0.074452
   31  C  5  Z    0.033303  -0.001528  -0.132693  -0.014030  -0.044096
   32  C  6  S   -0.005909  -0.006200   0.002373  -0.013820  -0.025486
   33  C  6  S    0.007689   0.007587  -0.003652   0.013982   0.019814
   34  C  6  X    0.038804  -0.182148  -0.035618   0.009990   0.047300
   35  C  6  Y    0.200791   0.017490  -0.024027   0.177542  -0.075080
   36  C  6  Z    0.001451   0.099667  -0.180766  -0.026959   0.027771
   37  C  6  S    0.003287   0.009945  -0.009075   0.057023   0.143087
   38  C  6  X    0.034076  -0.118213  -0.038188   0.034267   0.045886
   39  C  6  Y    0.135997   0.009155  -0.015590   0.132340  -0.050774
   40  C  6  Z    0.001324   0.066307  -0.145433  -0.028191   0.024547
   41  C  7  S   -0.014700  -0.025503   0.004516  -0.006037  -0.008532
   42  C  7  S    0.019392   0.035144  -0.004892   0.008829   0.008684
   43  C  7  X   -0.076291  -0.220716  -0.112736  -0.072258   0.046136
   44  C  7  Y    0.056967  -0.047432  -0.018130   0.125144   0.225379
   45  C  7  Z    0.018308   0.004930  -0.092951  -0.002454   0.019344
   46  C  7  S    0.050283   0.098796  -0.015772   0.021457   0.023546
   47  C  7  X   -0.027458  -0.081433  -0.062338  -0.031653   0.022307
   48  C  7  Y    0.049594  -0.036475  -0.013878   0.113555   0.203195
   49  C  7  Z    0.013114   0.014164  -0.040967  -0.004877   0.001368
   50  N  8  S    0.005242  -0.001247  -0.004484   0.008746   0.015802
   51  N  8  S   -0.005326  -0.000095   0.003287  -0.008730  -0.014482
   52  N  8  X   -0.013321   0.080808   0.005854  -0.026698  -0.084685
   53  N  8  Y    0.034683   0.016173  -0.014261   0.082854   0.138654
   54  N  8  Z   -0.015997   0.006799   0.079062  -0.014029  -0.014045
   55  N  8  S   -0.021609   0.007576   0.022283  -0.034164  -0.069002
   56  N  8  X   -0.014551   0.066286  -0.000637  -0.024179  -0.081605
   57  N  8  Y    0.033566   0.012340  -0.020346   0.084101   0.145490
   58  N  8  Z   -0.011515   0.001722   0.078390  -0.011267  -0.010192
   59  N  9  S    0.006989   0.006310   0.010277   0.005557   0.011082
   60  N  9  S   -0.004462  -0.001110  -0.008096  -0.003624  -0.010382
   61  N  9  X    0.101522   0.247140   0.058666   0.078719  -0.021241
   62  N  9  Y    0.012852  -0.045420  -0.015502   0.053439   0.126180
   63  N  9  Z    0.013393   0.023612  -0.015164  -0.003576  -0.000796
   64  N  9  S   -0.030775  -0.032067  -0.043415  -0.023500  -0.044324
   65  N  9  X    0.068331   0.166567   0.041504   0.058067  -0.011380
   66  N  9  Y    0.009663  -0.035898  -0.013243   0.044863   0.110773
   67  N  9  Z    0.009110   0.015296  -0.008590  -0.005325   0.000709
   68  H 10  S    0.072186   0.004215  -0.046541   0.008732  -0.035667
   69  H 10  S    0.062859  -0.004104  -0.034111   0.001659  -0.035168
   70  N 11  S    0.000646   0.015801   0.005845  -0.015689   0.002493
   71  N 11  S    0.000084  -0.013527  -0.005835   0.013101  -0.001115
   72  N 11  X    0.077280   0.193426   0.023830   0.120544  -0.042600
   73  N 11  Y    0.080974  -0.106940  -0.004936   0.103364   0.141428
   74  N 11  Z   -0.022007   0.007336   0.172292  -0.034287  -0.039445
   75  N 11  S   -0.007950  -0.081836  -0.024375   0.068715  -0.016006
   76  N 11  X    0.072492   0.182819   0.019456   0.114723  -0.047637
   77  N 11  Y    0.076078  -0.096617  -0.004653   0.095307   0.144076
   78  N 11  Z   -0.016138   0.017047   0.156221  -0.031522  -0.033861
   79  H 12  S    0.007580   0.037224  -0.077751  -0.103978  -0.016669
   80  H 12  S    0.002792   0.034001  -0.054978  -0.085361  -0.009642
   81  H 13  S    0.007322   0.035111   0.096788  -0.071422   0.052182
   82  H 13  S    0.003771   0.043349   0.076795  -0.059480   0.055971
   83  H 14  S   -0.076910  -0.040336   0.107876  -0.054669   0.028528
   84  H 14  S   -0.069353  -0.033735   0.093475  -0.069143  -0.006857
   85  H 15  S   -0.055073   0.013023  -0.098096  -0.068322   0.080701
   86  H 15  S   -0.050185   0.011528  -0.077344  -0.073288   0.063126
   87  H 16  S    0.004391   0.062749   0.002930   0.001981  -0.028517
   88  H 16  S    0.011416   0.054936   0.020020   0.000800  -0.019526
   89  H 17  S    0.006801  -0.054311  -0.045927   0.009049   0.038136
   90  H 17  S    0.002379  -0.056881  -0.047054   0.006395   0.037289
   91  H 18  S   -0.065045  -0.158381  -0.038392  -0.043231   0.019674
   92  H 18  S   -0.062362  -0.161419  -0.041400  -0.046493   0.027420
   93  H 19  S   -0.042285   0.001663  -0.135938   0.074041  -0.087214
   94  H 19  S   -0.036051   0.002488  -0.118983   0.066600  -0.091815
   95  H 20  S    0.146387  -0.065137   0.023906  -0.142645  -0.035316
   96  H 20  S    0.125865  -0.054885   0.022671  -0.139825  -0.040069
   97  H 21  S   -0.026075  -0.050667   0.113761  -0.029903  -0.016696
   98  H 21  S   -0.021401  -0.042706   0.096952  -0.029133  -0.015070

                     26         27         28         29         30
                   -0.3507    -0.3346    -0.3325    -0.3252    -0.2323
                     A          A          A          A          A   
    1  C  1  S    0.006077  -0.020255   0.009765  -0.005631  -0.006643
    2  C  1  S   -0.005893   0.020058  -0.007776   0.005056   0.005499
    3  C  1  X    0.116325  -0.048185   0.183112  -0.076020  -0.032903
    4  C  1  Y    0.062039  -0.189060  -0.050276  -0.029621  -0.010456
    5  C  1  Z    0.182529   0.074166  -0.092403  -0.100151   0.008180
    6  C  1  S   -0.022821   0.081577  -0.042824   0.023837   0.033330
    7  C  1  X    0.090245  -0.022878   0.155151  -0.058837  -0.031939
    8  C  1  Y    0.048866  -0.148165  -0.038920  -0.022701  -0.010101
    9  C  1  Z    0.149045   0.053703  -0.074470  -0.071541   0.006490
   10  H  2  S   -0.069908  -0.145577  -0.000591   0.144283  -0.002386
   11  H  2  S   -0.061229  -0.173677  -0.005688   0.171138  -0.010300
   12  H  3  S    0.140588  -0.037856  -0.079339  -0.086045   0.003727
   13  H  3  S    0.146223  -0.058343  -0.086949  -0.114904   0.002024
   14  C  4  S    0.002853  -0.014416  -0.008276  -0.000452   0.006230
   15  C  4  S   -0.002806   0.016434   0.007222   0.001407  -0.001830
   16  C  4  X   -0.095136  -0.030642  -0.220176   0.096333   0.047669
   17  C  4  Y   -0.063384   0.243070   0.082003   0.039108  -0.007395
   18  C  4  Z   -0.120765  -0.077126   0.120383   0.201635  -0.013389
   19  C  4  S   -0.011897   0.043951   0.036056  -0.002697  -0.055012
   20  C  4  X   -0.069420  -0.015984  -0.160281   0.075867   0.062869
   21  C  4  Y   -0.050590   0.194463   0.071217   0.028928  -0.013786
   22  C  4  Z   -0.104471  -0.063857   0.091330   0.153235  -0.011699
   23  C  5  S   -0.005227  -0.018306  -0.019668   0.000498  -0.018102
   24  C  5  S    0.002657   0.018639   0.015507  -0.000138   0.012388
   25  C  5  X    0.005984   0.034056   0.245724  -0.103467  -0.084133
   26  C  5  Y    0.005513  -0.228003  -0.052953  -0.054501  -0.052617
   27  C  5  Z   -0.143738   0.035550  -0.093984  -0.198611   0.037224
   28  C  5  S    0.034732   0.070993   0.095460  -0.003457   0.127879
   29  C  5  X    0.000741   0.029475   0.175009  -0.076589  -0.057839
   30  C  5  Y   -0.002622  -0.187300  -0.048745  -0.048683  -0.077924
   31  C  5  Z   -0.121767   0.024353  -0.067107  -0.152861   0.029571
   32  C  6  S    0.009965  -0.013879   0.013017  -0.004655  -0.006405
   33  C  6  S   -0.006189   0.013723  -0.008727   0.005164   0.009759
   34  C  6  X    0.011276   0.096391  -0.131692   0.077331   0.036925
   35  C  6  Y   -0.001594   0.151834  -0.062476   0.057146   0.049485
   36  C  6  Z    0.237805  -0.016010   0.022701   0.106048  -0.041943
   37  C  6  S   -0.057911   0.050355  -0.066785   0.014094   0.030161
   38  C  6  X    0.015370   0.059998  -0.093078   0.052221   0.018918
   39  C  6  Y   -0.011740   0.128079  -0.071760   0.047778  -0.014610
   40  C  6  Z    0.197061  -0.007014   0.013244   0.079514  -0.024217
   41  C  7  S   -0.009084   0.003451  -0.002310  -0.003694  -0.014908
   42  C  7  S    0.011355  -0.002828   0.004079   0.004443   0.024212
   43  C  7  X    0.057820   0.002654  -0.052369   0.038590  -0.003708
   44  C  7  Y   -0.042905  -0.106074   0.124644  -0.073220  -0.076908
   45  C  7  Z    0.041023   0.001984  -0.010850   0.015599   0.000552
   46  C  7  S    0.033692  -0.011894   0.006213   0.010694   0.003096
   47  C  7  X    0.036015   0.001866  -0.030226   0.022763  -0.058578
   48  C  7  Y   -0.036135  -0.100443   0.120265  -0.066687  -0.078086
   49  C  7  Z    0.029194   0.005645  -0.016876   0.015408  -0.058930
   50  N  8  S    0.001490  -0.011092   0.011918  -0.001735   0.030521
   51  N  8  S    0.000192   0.009799  -0.010818   0.002671  -0.025235
   52  N  8  X    0.006568   0.046699  -0.031933   0.004675  -0.073772
   53  N  8  Y   -0.006453  -0.086168   0.127242  -0.053189   0.347684
   54  N  8  Z   -0.025301   0.002120  -0.011106  -0.003218  -0.002841
   55  N  8  S   -0.014279   0.051352  -0.051671  -0.000004  -0.155618
   56  N  8  X    0.001369   0.049655  -0.033115   0.001751  -0.093720
   57  N  8  Y   -0.003136  -0.092599   0.137252  -0.056268   0.437143
   58  N  8  Z   -0.024195   0.000190  -0.011937   0.001468  -0.004783
   59  N  9  S   -0.004868  -0.008303   0.007922  -0.003838   0.040235
   60  N  9  S    0.003910   0.007073  -0.005850   0.002711  -0.032162
   61  N  9  X   -0.022894  -0.004705   0.048531  -0.025215  -0.021054
   62  N  9  Y   -0.022471  -0.069016   0.076653  -0.047323  -0.110180
   63  N  9  Z    0.010190   0.009128  -0.021666   0.009606  -0.127511
   64  N  9  S    0.019352   0.035815  -0.034708   0.016700  -0.198133
   65  N  9  X   -0.019823  -0.006014   0.040573  -0.021247  -0.003054
   66  N  9  Y   -0.021721  -0.063789   0.071052  -0.046076  -0.126755
   67  N  9  Z    0.004804   0.007824  -0.021123   0.007344  -0.120395
   68  H 10  S    0.102288  -0.061838  -0.093895  -0.158782   0.002037
   69  H 10  S    0.097034  -0.083021  -0.109100  -0.192650   0.004193
   70  N 11  S   -0.001854  -0.002060  -0.019022   0.003582  -0.000682
   71  N 11  S    0.001485   0.003607   0.013616  -0.002096  -0.007363
   72  N 11  X   -0.001891   0.009311   0.095804  -0.028414  -0.112001
   73  N 11  Y   -0.059165   0.000484  -0.032067  -0.011461  -0.254028
   74  N 11  Z   -0.087635   0.008749  -0.036946  -0.018928   0.011427
   75  N 11  S    0.010493  -0.000778   0.099788  -0.020156   0.067006
   76  N 11  X    0.008019   0.002615   0.100320  -0.029575  -0.147774
   77  N 11  Y   -0.062845  -0.001937  -0.038768  -0.013073  -0.302818
   78  N 11  Z   -0.080802   0.008813  -0.038462  -0.017097   0.001768
   79  H 12  S   -0.075738  -0.071522  -0.055497  -0.165183   0.007317
   80  H 12  S   -0.074559  -0.089592  -0.075901  -0.195639  -0.013424
   81  H 13  S    0.092514  -0.117047  -0.002348   0.137766  -0.012918
   82  H 13  S    0.090035  -0.152943  -0.008755   0.169424  -0.024733
   83  H 14  S   -0.149422  -0.054324   0.001077  -0.100864  -0.017833
   84  H 14  S   -0.139677  -0.053556  -0.024121  -0.121741  -0.099637
   85  H 15  S    0.137900  -0.045337  -0.004687   0.074582  -0.046549
   86  H 15  S    0.138616  -0.069784  -0.003495   0.095155  -0.080467
   87  H 16  S    0.004803   0.010044   0.005583  -0.001570   0.041312
   88  H 16  S    0.013428  -0.002482   0.005333   0.014790   0.045519
   89  H 17  S    0.011981  -0.015017   0.007021   0.004891   0.004248
   90  H 17  S    0.012627  -0.014945   0.005500   0.005688   0.010810
   91  H 18  S    0.011484  -0.003430  -0.017544   0.009395   0.049081
   92  H 18  S    0.014167  -0.006815  -0.021926   0.012767   0.073467
   93  H 19  S   -0.119161  -0.100913  -0.010198   0.083339   0.003797
   94  H 19  S   -0.116261  -0.132245  -0.005964   0.103975  -0.001276
   95  H 20  S    0.027631   0.043172   0.153942  -0.024426  -0.019661
   96  H 20  S    0.032528   0.031278   0.170027  -0.030008  -0.031228
   97  H 21  S   -0.071921   0.008188  -0.035950  -0.013906   0.011390
   98  H 21  S   -0.071691   0.005286  -0.041064  -0.018419  -0.016911

                     31         32         33         34         35
                   -0.2172    -0.1866     0.0790     0.1043     0.1205
                     A          A          A          A          A   
    1  C  1  S   -0.000513  -0.004904  -0.009240  -0.010068  -0.056816
    2  C  1  S    0.000756   0.003743   0.003223   0.001361   0.027973
    3  C  1  X   -0.002957  -0.019564   0.013443  -0.002259   0.050167
    4  C  1  Y    0.001127  -0.004842   0.030219   0.011120   0.081142
    5  C  1  Z   -0.000233   0.005474  -0.013275  -0.007137  -0.044565
    6  C  1  S   -0.000388   0.028424   0.142824   0.160754   0.752973
    7  C  1  X   -0.001748  -0.021447   0.039187  -0.024731   0.205766
    8  C  1  Y    0.004137  -0.003756   0.113407   0.036130   0.331921
    9  C  1  Z    0.000942   0.006035  -0.030180  -0.004319  -0.147888
   10  H  2  S    0.003363   0.002262   0.015693   0.006139   0.011477
   11  H  2  S   -0.001110  -0.006173  -0.115575   0.002752  -0.287451
   12  H  3  S    0.000604   0.003947   0.002971  -0.002743  -0.003417
   13  H  3  S   -0.000819   0.000671  -0.081091  -0.064970  -0.380335
   14  C  4  S   -0.000213   0.004945  -0.017379  -0.001703  -0.071893
   15  C  4  S    0.001843   0.001807   0.008524  -0.005421   0.031618
   16  C  4  X    0.004227   0.032807   0.032121   0.012763  -0.026194
   17  C  4  Y   -0.003685  -0.010684  -0.045250  -0.014181  -0.049700
   18  C  4  Z    0.001820  -0.007144  -0.017171  -0.012830  -0.031873
   19  C  4  S   -0.008018  -0.072856   0.235431   0.090283   0.927680
   20  C  4  X    0.018571   0.070518   0.125598  -0.047189  -0.053672
   21  C  4  Y   -0.005520  -0.030715  -0.200597  -0.111172  -0.195629
   22  C  4  Z   -0.005067  -0.016174  -0.059545  -0.029443  -0.082600
   23  C  5  S   -0.007317  -0.023546  -0.061836  -0.014791  -0.036908
   24  C  5  S    0.005195   0.015512   0.035042   0.008011   0.017887
   25  C  5  X   -0.021151  -0.079923  -0.051543   0.002307  -0.046392
   26  C  5  Y   -0.013099  -0.050282   0.065316   0.060172   0.092128
[...]
    659    3.35177    5.25543    6.02136        -6.188020       6.191449       0.003429
    660    3.35177    6.76721   -4.56110        -6.064361       6.069458       0.005097
    661    3.35177    6.76721   -3.04932        -6.506650       6.510952       0.004302
    662    3.35177    6.76721   -1.53754        -6.835182       6.837962       0.002781
    663    3.35177    6.76721   -0.02576        -6.958970       6.961301       0.002331
    664    3.35177    6.76721    1.48602        -6.842179       6.845478       0.003298
    665    3.35177    6.76721    2.99780        -6.531203       6.534882       0.003679
    666    3.35177    6.76721    4.50958        -6.115493       6.118666       0.003173
    667    3.35177    8.27899    1.48602        -5.967008       5.969339       0.002331
    668    4.86355   -5.32704   -4.56110        -6.059100       6.063499       0.004399
    669    4.86355   -5.32704   -3.04932        -6.507253       6.511592       0.004340
    670    4.86355   -5.32704   -1.53754        -6.855087       6.858888       0.003801
    671    4.86355   -5.32704   -0.02576        -7.009284       7.012686       0.003402
    672    4.86355   -5.32704    1.48602        -6.920332       6.924317       0.003985
    673    4.86355   -5.32704    2.99780        -6.620510       6.625194       0.004683
    674    4.86355   -5.32704    4.50958        -6.197609       6.202120       0.004511
    675    4.86355   -3.81526   -4.56110        -6.605704       6.610610       0.004906
    676    4.86355   -3.81526   -3.04932        -7.251498       7.256271       0.004773
    677    4.86355   -3.81526   -1.53754        -7.793618       7.797270       0.003653
    678    4.86355   -3.81526   -0.02576        -8.036720       8.039455       0.002734
    679    4.86355   -3.81526    1.48602        -7.871499       7.876246       0.004747
    680    4.86355   -3.81526    2.99780        -7.381459       7.388012       0.006553
    681    4.86355   -3.81526    4.50958        -6.759172       6.764939       0.005766
    682    4.86355   -3.81526    6.02136        -6.141445       6.145974       0.004530
    683    4.86355   -2.30348   -4.56110        -7.132876       7.137528       0.004652
    684    4.86355   -2.30348   -3.04932        -8.061143       8.065402       0.004259
    685    4.86355   -2.30348   -1.53754        -8.934706       8.939346       0.004640
    686    4.86355   -2.30348   -0.02576        -9.318096       9.322670       0.004574
    687    4.86355   -2.30348    2.99780        -8.154869       8.163282       0.008413
    688    4.86355   -2.30348    4.50958        -7.266741       7.273003       0.006261
    689    4.86355   -2.30348    6.02136        -6.479797       6.484544       0.004747
    690    4.86355   -0.79169   -6.07289        -6.564936       6.569521       0.004585
    691    4.86355   -0.79169   -4.56110        -7.549078       7.552341       0.003263
    692    4.86355   -0.79169    2.99780        -8.728238       8.732699       0.004461
    693    4.86355   -0.79169    4.50958        -7.597554       7.602365       0.004811
    694    4.86355   -0.79169    6.02136        -6.682968       6.687292       0.004323
    695    4.86355    0.72009   -6.07289        -6.631690       6.636316       0.004626
    696    4.86355    0.72009   -4.56110        -7.719783       7.722201       0.002418
    697    4.86355    0.72009    2.99780        -8.899488       8.901934       0.002446
    698    4.86355    0.72009    4.50958        -7.650734       7.654541       0.003807
    699    4.86355    0.72009    6.02136        -6.701126       6.705033       0.003907
    700    4.86355    2.23187   -7.58467        -5.733517       5.738606       0.005089
    701    4.86355    2.23187   -6.07289        -6.490112       6.495418       0.005306
    702    4.86355    2.23187   -4.56110        -7.516873       7.522544       0.005670
    703    4.86355    2.23187    4.50958        -7.402423       7.407639       0.005216
    704    4.86355    2.23187    6.02136        -6.526913       6.530841       0.003929
    705    4.86355    3.74365   -6.07289        -6.166368       6.171958       0.005590
    706    4.86355    3.74365   -4.56110        -6.978735       6.985491       0.006756
    707    4.86355    3.74365    4.50958        -6.913912       6.919983       0.006071
    708    4.86355    3.74365    6.02136        -6.198665       6.202527       0.003862
    709    4.86355    5.25543   -6.07289        -5.743542       5.748534       0.004992
    710    4.86355    5.25543   -4.56110        -6.326400       6.331564       0.005163
    711    4.86355    5.25543   -3.04932        -6.931016       6.935084       0.004068
    712    4.86355    5.25543   -1.53754        -7.416371       7.417421       0.001050
    713    4.86355    5.25543   -0.02576        -7.590774       7.593294       0.002520
    714    4.86355    5.25543    1.48602        -7.370063       7.378599       0.008536
    715    4.86355    5.25543    2.99780        -6.878744       6.885981       0.007237
    716    4.86355    5.25543    4.50958        -6.319447       6.324175       0.004727
    717    4.86355    5.25543    6.02136        -5.783346       5.786641       0.003295
    718    4.86355    6.76721   -4.56110        -5.712914       5.716939       0.004025
    719    4.86355    6.76721   -3.04932        -6.096206       6.099511       0.003306
    720    4.86355    6.76721   -1.53754        -6.376992       6.379304       0.002312
    721    4.86355    6.76721   -0.02576        -6.478299       6.480679       0.002380
    722    4.86355    6.76721    1.48602        -6.370669       6.374135       0.003466
    723    4.86355    6.76721    2.99780        -6.096561       6.100333       0.003772
    724    4.86355    6.76721    4.50958        -5.734129       5.737343       0.003214
    725    6.37533   -5.32704    1.48602        -6.188593       6.192202       0.003609
    726    6.37533   -5.32704    2.99780        -5.966674       5.970392       0.003717
    727    6.37533   -3.81526   -3.04932        -6.455068       6.459497       0.004429
    728    6.37533   -3.81526   -1.53754        -6.815960       6.820364       0.004403
    729    6.37533   -3.81526   -0.02576        -6.960562       6.964610       0.004047
    730    6.37533   -3.81526    1.48602        -6.839879       6.843883       0.004004
    731    6.37533   -3.81526    2.99780        -6.508775       6.513014       0.004239
    732    6.37533   -3.81526    4.50958        -6.070139       6.074186       0.004047
    733    6.37533   -2.30348   -4.56110        -6.391879       6.396296       0.004417
    734    6.37533   -2.30348   -3.04932        -7.029896       7.035386       0.005489
    735    6.37533   -2.30348   -1.53754        -7.565132       7.573059       0.007927
    736    6.37533   -2.30348   -0.02576        -7.758421       7.765002       0.006581
    737    6.37533   -2.30348    1.48602        -7.526428       7.530479       0.004051
    738    6.37533   -2.30348    2.99780        -7.027335       7.031412       0.004077
    739    6.37533   -2.30348    4.50958        -6.440890       6.444950       0.004061
    740    6.37533   -0.79169   -6.07289        -5.977580       5.981615       0.004034
    741    6.37533   -0.79169   -4.56110        -6.702964       6.707027       0.004063
    742    6.37533   -0.79169    1.48602        -8.148533       8.152529       0.003997
    743    6.37533   -0.79169    2.99780        -7.418927       7.421540       0.002613
    744    6.37533   -0.79169    4.50958        -6.687501       6.690944       0.003443
    745    6.37533    0.72009   -6.07289        -6.032006       6.035860       0.003854
    746    6.37533    0.72009   -4.56110        -6.821256       6.824303       0.003046
    747    6.37533    0.72009    2.99780        -7.555038       7.556264       0.001227
    748    6.37533    0.72009    4.50958        -6.742489       6.745505       0.003016
    749    6.37533    2.23187   -6.07289        -5.922959       5.926852       0.003893
    750    6.37533    2.23187   -4.56110        -6.666514       6.669263       0.002749
    751    6.37533    2.23187   -3.04932        -7.577536       7.579130       0.001594
    752    6.37533    2.23187    2.99780        -7.343970       7.347480       0.003509
    753    6.37533    2.23187    4.50958        -6.577489       6.581096       0.003607
    754    6.37533    2.23187    6.02136        -5.928575       5.931791       0.003216
    755    6.37533    3.74365   -6.07289        -5.670504       5.674469       0.003966
    756    6.37533    3.74365   -4.56110        -6.280952       6.284251       0.003299
    757    6.37533    3.74365   -3.04932        -6.949700       6.951024       0.001325
    758    6.37533    3.74365   -1.53754        -7.523127       7.522878      -0.000249
    759    6.37533    3.74365   -0.02576        -7.717413       7.718584       0.001171
    760    6.37533    3.74365    2.99780        -6.831935       6.837593       0.005658
    761    6.37533    3.74365    4.50958        -6.227593       6.231745       0.004152
    762    6.37533    3.74365    6.02136        -5.679287       5.682475       0.003188
    763    6.37533    5.25543   -4.56110        -5.794795       5.798194       0.003398
    764    6.37533    5.25543   -3.04932        -6.247591       6.249899       0.002308
    765    6.37533    5.25543   -1.53754        -6.594151       6.595197       0.001046
    766    6.37533    5.25543   -0.02576        -6.713541       6.715136       0.001595
    767    6.37533    5.25543    1.48602        -6.557956       6.561846       0.003890
    768    6.37533    5.25543    2.99780        -6.205971       6.210412       0.004441
    769    6.37533    5.25543    4.50958        -5.780199       5.783851       0.003652
    770    6.37533    6.76721   -3.04932        -5.617014       5.619623       0.002609
    771    6.37533    6.76721   -1.53754        -5.836943       5.839033       0.002090
    772    6.37533    6.76721   -0.02576        -5.914093       5.916304       0.002211
    773    6.37533    6.76721    1.48602        -5.828634       5.831490       0.002856
    774    6.37533    6.76721    2.99780        -5.611106       5.614215       0.003108
    775    7.88711   -3.81526   -3.04932        -5.733127       5.737347       0.004220
    776    7.88711   -3.81526   -1.53754        -5.972290       5.976741       0.004451
    777    7.88711   -3.81526   -0.02576        -6.062159       6.066371       0.004212
    778    7.88711   -3.81526    1.48602        -5.980431       5.984186       0.003755
    779    7.88711   -2.30348   -4.56110        -5.694407       5.698677       0.004270
    780    7.88711   -2.30348   -3.04932        -6.115081       6.120525       0.005444
    781    7.88711   -2.30348   -1.53754        -6.435059       6.441888       0.006829
    782    7.88711   -2.30348   -0.02576        -6.544426       6.550526       0.006100
    783    7.88711   -2.30348    1.48602        -6.410893       6.415164       0.004271
    784    7.88711   -2.30348    2.99780        -6.104598       6.108069       0.003471
    785    7.88711   -0.79169   -4.56110        -5.904170       5.908603       0.004433
    786    7.88711   -0.79169   -3.04932        -6.423299       6.430491       0.007192
    787    7.88711   -0.79169    1.48602        -6.755427       6.759924       0.004497
    788    7.88711   -0.79169    2.99780        -6.353221       6.356232       0.003010
    789    7.88711    0.72009   -4.56110        -5.973571       5.977484       0.003912
    790    7.88711    0.72009   -3.04932        -6.545986       6.552521       0.006535
    791    7.88711    0.72009    1.48602        -6.891853       6.894942       0.003089
    792    7.88711    0.72009    2.99780        -6.430728       6.433044       0.002315
    793    7.88711    0.72009    4.50958        -5.928993       5.931680       0.002687
    794    7.88711    2.23187   -4.56110        -5.864505       5.867645       0.003139
    795    7.88711    2.23187   -3.04932        -6.394540       6.397724       0.003184
    796    7.88711    2.23187   -1.53754        -6.827605       6.831946       0.004341
    797    7.88711    2.23187   -0.02576        -6.954138       6.957030       0.002893
    798    7.88711    2.23187    1.48602        -6.721199       6.722694       0.001495
    799    7.88711    2.23187    2.99780        -6.292827       6.295157       0.002330
    800    7.88711    2.23187    4.50958        -5.816836       5.819586       0.002750
    801    7.88711    3.74365   -4.56110        -5.603152       5.605982       0.002830
    802    7.88711    3.74365   -3.04932        -6.029813       6.031908       0.002095
    803    7.88711    3.74365   -1.53754        -6.355886       6.357241       0.001355
    804    7.88711    3.74365   -0.02576        -6.459788       6.460938       0.001150
    805    7.88711    3.74365    1.48602        -6.302857       6.304873       0.002016
    806    7.88711    3.74365    2.99780        -5.970737       5.973581       0.002844
    807    7.88711    3.74365    4.50958        -5.573288       5.576172       0.002884
    808    7.88711    5.25543   -3.04932        -5.578199       5.580405       0.002206
    809    7.88711    5.25543   -1.53754        -5.809065       5.810777       0.001712
    810    7.88711    5.25543   -0.02576        -5.886207       5.887996       0.001789
    811    7.88711    5.25543    1.48602        -5.787816       5.790248       0.002433
    812    7.88711    5.25543    2.99780        -5.553869       5.556705       0.002836
    813    7.88711    6.76721    1.48602        -5.284201       5.286515       0.002314
    814    9.39890   -2.30348   -3.04932        -5.360065       5.364442       0.004377
    815    9.39890   -2.30348   -1.53754        -5.556942       5.561794       0.004852
    816    9.39890   -2.30348   -0.02576        -5.624729       5.629261       0.004532
    817    9.39890   -2.30348    1.48602        -5.549126       5.552829       0.003703
    818    9.39890   -0.79169   -4.56110        -5.219971       5.223876       0.003905
    819    9.39890   -0.79169   -3.04932        -5.539001       5.543914       0.004913
    820    9.39890   -0.79169   -1.53754        -5.770293       5.776188       0.005895
    821    9.39890   -0.79169   -0.02576        -5.844306       5.849629       0.005323
    822    9.39890   -0.79169    1.48602        -5.743763       5.747598       0.003835
    823    9.39890   -0.79169    2.99780        -5.514801       5.517774       0.002973
    824    9.39890    0.72009   -4.56110        -5.259135       5.262785       0.003650
    825    9.39890    0.72009   -3.04932        -5.596655       5.601167       0.004512
    826    9.39890    0.72009   -1.53754        -5.844067       5.849497       0.005430
    827    9.39890    0.72009   -0.02576        -5.919947       5.924709       0.004762
    828    9.39890    0.72009    1.48602        -5.805217       5.808530       0.003313
    829    9.39890    0.72009    2.99780        -5.556778       5.559443       0.002666
    830    9.39890    2.23187   -4.56110        -5.183509       5.186642       0.003132
    831    9.39890    2.23187   -3.04932        -5.503694       5.507039       0.003345
    832    9.39890    2.23187   -1.53754        -5.735805       5.739309       0.003504
    833    9.39890    2.23187   -0.02576        -5.807887       5.810963       0.003076
    834    9.39890    2.23187    1.48602        -5.701445       5.703985       0.002540
    835    9.39890    3.74365   -3.04932        -5.282679       5.285231       0.002552
    836    9.39890    3.74365   -1.53754        -5.477835       5.480188       0.002353
    837    9.39890    3.74365   -0.02576        -5.540773       5.542965       0.002193
    838    9.39890    3.74365    1.48602        -5.456624       5.458842       0.002218
    839   10.91068   -0.79169   -1.53754        -5.005732       5.009536       0.003804
    840   10.91068   -0.79169   -0.02576        -5.053488       5.057077       0.003588
    841   10.91068    0.72009   -1.53754        -5.040629       5.044190       0.003561
    842   10.91068    0.72009   -0.02576        -5.088885       5.092218       0.003333
    843   10.91068    2.23187   -1.53754        -4.972544       4.975490       0.002946
    844   10.91068    2.23187   -0.02576        -5.018658       5.021425       0.002768

 NET CHARGES:
 -------------------------------------
 ATOM                CHARGE    E.S.D.
 -------------------------------------
 C                  -0.2229    0.5232
 H                  -0.0119    0.0255
 H                   0.0570    0.0367
 C                   0.1237    0.3360
 C                  -0.1849    0.4053
 C                   0.2711    0.6667
 C                   0.8167    0.1781
 N                  -0.9095    0.1801
 N                  -0.8902    0.0311
 H                  -0.0210    0.0245
 N                  -0.7344    0.2921
 H                   0.0602    0.0360
 H                   0.0353    0.0420
 H                   0.0028    0.0496
 H                   0.0137    0.0514
 H                   0.3893    0.0286
 H                   0.3684    0.0222
 H                   0.3545    0.0090
 H                   0.0587    0.0347
 H                   0.0553    0.0375
 H                   0.3683    0.0263
 -------------------------------------

 RMS DEVIATION IS            1.024 KCAL/MOLE
 RELATIVE RMS DEVIATION IS  10.466 %

 MULTIPOLE MOMENTS:
 ---------------------------------------------------------
 STATUS  ACTUAL VALUE       QUANTITY        FITTED VALUE 
 ---------------------------------------------------------
 FIXED       0.0000       TOTAL CHARGE         0.0000
             3.1358 D    DIPOLE MOMENT         3.1125 D
 FREE        2.2236 D          DX              2.1776 D
 FREE        0.3013 D          DY              0.3688 D
 FREE       -2.1905 D          DZ             -2.1930 D
 FREE        0.0000 BU         QXX            -7.8030 BU
 FREE        0.0000 BU         QYY            -1.0505 BU
 FREE        0.0000 BU         QZZ             8.8534 BU
 FREE        0.0000 BU         QXY            -2.7436 BU
 FREE        0.0000 BU         QXZ            13.3033 BU
 FREE        0.0000 BU         QYZ            -2.1853 BU
 ---------------------------------------------------------
 ...... END OF PROPERTY EVALUATION ......
 CPU     0: STEP CPU TIME=     0.29 TOTAL CPU TIME=         16.6 (      0.3 MIN)
 TOTAL WALL CLOCK TIME=         24.8 SECONDS, CPU UTILIZATION IS    66.85%
               803749  WORDS OF DYNAMIC MEMORY USED
 EXECUTION OF GAMESS TERMINATED NORMALLY Sat May 16 13:42:57 2020
 DDI: 263640 bytes (0.3 MB / 0 MWords) used by master data server.
Note: The following floating-point exceptions are signalling:Note: The following floating-point exceptions are signalling:Note: The following floating-point exceptions are signalling: IEEE_UNDERFLOW_FLAG IEEE_UNDERFLOW_FLAG IEEE_DENORMALNote: The following floating-point exceptions are signalling:
 ----------------------------------------
 CPU timing information for all processes
 ========================================
 0: 16.266 + 0.323 = 16.590
 1: 15.487 + 0.88 = 15.575
 2: 15.673 + 0.52 = 15.726
 3: 16.76 + 0.77 = 16.153
 4: 15.465 + 0.112 = 15.577
 5: 14.852 + 0.88 = 14.941
 ----------------------------------------
 IEEE_UNDERFLOW_FLAGNote: The following floating-point exceptions are signalling: IEEE_DENORMAL

 IEEE_UNDERFLOW_FLAG IEEE_DENORMALNote: The following floating-point exceptions are signalling: IEEE_UNDERFLOW_FLAG IEEE_DENORMAL
 IEEE_UNDERFLOW_FLAG IEEE_DENORMAL
 IEEE_DENORMAL

 ddikick.x: exited gracefully.
unset echo
----- accounting info -----
Files used on the master node pietdev were:
-rwxr-xr-x 1 piet piet     1351 mei 16 13:42 /home/piet/scr/arginine_charge_chelpg.F05*
-rw-r--r-- 1 piet piet 50790400 mei 16 13:42 /home/piet/scr/arginine_charge_chelpg.F10
ls: No match.
ls: No match.
ls: No match.
za 16 mei 2020 13:43:00 CEST
0.113u 0.041s 0:27.98 0.5%	0+0k 0+8io 0pf+0w
