----- GAMESS execution script 'rungms' -----
This job is running on host pietdev
under operating system Linux at za 16 mei 2020 13:13:43 CEST
Available scratch disk space (Kbyte units) at beginning of the job is
Filesystem     1K-blocks     Used Available Use% Mounted on
/dev/sda2      244568380 30175340 201899984  14% /
GAMESS temporary binary files will be written to /home/piet/scr
GAMESS supplementary output files will be written to /home/piet/gamess/scr
Copying input file arginine_geoopt.inp to your run's scratch directory...
cp arginine_geoopt.inp /home/piet/scr/arginine_geoopt.F05
unset echo
 
Assuming a single but multicore node.
 
/home/piet/gamess/ddikick.x /home/piet/gamess/gamess.03.x arginine_geoopt -ddi 1 6 pietdev:cpus=6 -scr /home/piet/scr

 Distributed Data Interface kickoff program.
 Initiating 6 compute processes on 1 nodes to run the following command:
 /home/piet/gamess/gamess.03.x arginine_geoopt 

          ******************************************************
          *         GAMESS VERSION = 30 SEP 2019 (R2)          *
          *             FROM IOWA STATE UNIVERSITY             *
          * M.W.SCHMIDT, K.K.BALDRIDGE, J.A.BOATZ, S.T.ELBERT, *
          *   M.S.GORDON, J.H.JENSEN, S.KOSEKI, N.MATSUNAGA,   *
          *          K.A.NGUYEN, S.J.SU, T.L.WINDUS,           *
          *       TOGETHER WITH M.DUPUIS, J.A.MONTGOMERY       *
          *         J.COMPUT.CHEM.  14, 1347-1363(1993)        *
          **************** 64 BIT LINUX VERSION ****************

  SINCE 1993, STUDENTS AND POSTDOCS WORKING AT IOWA STATE UNIVERSITY
  AND ALSO IN THEIR VARIOUS JOBS AFTER LEAVING ISU HAVE MADE IMPORTANT
  CONTRIBUTIONS TO THE CODE:
     IVANA ADAMOVIC, CHRISTINE AIKENS, YURI ALEXEEV, POOJA ARORA,
     ANDREY ASADCHEV, ROB BELL, PRADIPTA BANDYOPADHYAY, JONATHAN BENTZ,
     COLLEEN BERTONI, BRETT BODE, KURT BRORSEN, CALEB CARLIN, GALINA CHABAN,
     WEI CHEN, CHEOL HO CHOI, PAUL DAY, ALBERT DEFUSCO, NUWAN DESILVA,
     TIM DUDLEY, DMITRI FEDOROV, ALEX FINDLATER, GRAHAM FLETCHER, 
     MARK FREITAG, KURT GLAESEMANN, EMILIE B GUIDEZ, ANASTASIA GUNINA, 
     DAN KEMP, SAROM SOK LEANG, GRANT MERRILL,
     NORIYUKI MINEZAWA, JONATHAN MULLIN,
     TAKESHI NAGATA, SEAN NEDD, HEATHER NETZLOFF, BOSILJKA NJEGIC, RYAN OLSON,
     MIKE PAK, BUU PHAM, DAVID POOLE,
     SPENCER PRUITT, LUKE ROSKOP, TOSAPORN SATTASATHUCHANA,
     JIM SHOEMAKER, LYUDMILA SLIPCHENKO,
     TONY SMITH, JIE SONG, TETSUYA TAKETSUGU, SIMON WEBB,
     JORGE LUIS GALVEZ VALLEJO, PENG XU, SOOHAENG YOO,
     FEDERICO ZAHARIEV

  ADDITIONAL CODE HAS BEEN PROVIDED BY COLLABORATORS IN OTHER GROUPS:
     IOWA STATE UNIVERSITY:
          JOE IVANIC, AARON WEST, LAIMUTIS BYTAUTAS, KLAUS RUEDENBERG
     UNIVERSITY OF TOKYO: KIMIHIKO HIRAO, TAKAHITO NAKAJIMA,
          TAKAO TSUNEDA, MUNEAKI KAMIYA, SUSUMU YANAGISAWA,
          KIYOSHI YAGI, MAHITO CHIBA, SEIKEN TOKURA, NAOAKI KAWAKAMI
     UNIVERSITY OF AARHUS: FRANK JENSEN
     UNIVERSITY OF IOWA: VISVALDAS KAIRYS, HUI LI
     NATIONAL INST. OF STANDARDS AND TECHNOLOGY: WALT STEVENS, DAVID GARMER
     UNIVERSITY OF PISA: BENEDETTA MENNUCCI, JACOPO TOMASI
     UNIVERSITY OF MEMPHIS: HENRY KURTZ, PRAKASHAN KORAMBATH
     UNIVERSITY OF ALBERTA: TOBY ZENG, MARIUSZ KLOBUKOWSKI
     UNIVERSITY OF NEW ENGLAND: MARK SPACKMAN
     MIE UNIVERSITY: HIROAKI UMEDA
     NAT. INST. OF ADVANCED INDUSTRIAL SCIENCE AND TECHNOLOGY: KAZUO KITAURA
     MICHIGAN STATE UNIVERSITY:
          KAROL KOWALSKI, MARTA WLOCH, JEFFREY GOUR, JESSE LUTZ,
          WEI LI, JUN SHEN, J. EMILIANO DEUSTUA, PIOTR PIECUCH
     UNIVERSITY OF MINNESOTA:
          ANDREW SAND, PRACHI SHARMA, YINAN SHU
     UNIVERSITY OF SILESIA: MONIKA MUSIAL, STANISLAW KUCHARSKI
     FACULTES UNIVERSITAIRES NOTRE-DAME DE LA PAIX:
          OLIVIER QUINET, BENOIT CHAMPAGNE
     UNIVERSITY OF CALIFORNIA - SANTA BARBARA: BERNARD KIRTMAN
     INSTITUTE FOR MOLECULAR SCIENCE:
          KAZUYA ISHIMURA, MICHIO KATOUDA, AND SHIGERU NAGASE
     UNIVERSITY OF NOTRE DAME: ANNA POMOGAEVA, DAN CHIPMAN
     KYUSHU UNIVERSITY:
          HARUYUKI NAKANO,
          FENG LONG GU, JACEK KORCHOWIEC, MARCIN MAKOWSKI, AND YURIKO AOKI,
          HIROTOSHI MORI AND EISAKU MIYOSHI
     PENNSYLVANIA STATE UNIVERSITY:
          TZVETELIN IORDANOV, CHET SWALINA, JONATHAN SKONE,
          SHARON HAMMES-SCHIFFER
     WASEDA UNIVERSITY:
          MASATO KOBAYASHI, TOMOKO AKAMA, TSUGUKI TOUMA,
          TAKESHI YOSHIKAWA, YASUHIRO IKABATA, JUNJI SEINO,
          YUYA NAKAJIMA, HIROMI NAKAI
     NANJING UNIVERSITY: SHUHUA LI
     UNIVERSITY OF NEBRASKA:
          PEIFENG SU, DEJUN SI, NANDUN THELLAMUREGE, YALI WANG, HUI LI
     UNIVERSITY OF ZURICH: ROBERTO PEVERATI, KIM BALDRIDGE
     N. COPERNICUS UNIVERSITY AND JACKSON STATE UNIVERSITY:
          MARIA BARYSZ
     UNIVERSITY OF COPENHAGEN: Jimmy Kromann, CASPER STEINMANN
     TOKYO INSTITUTE OF TECHNOLOGY: HIROYA NAKATA
     NAGOYA UNIVERSITY: YOSHIO NISHIMOTO, STEPHAN IRLE
     MOSCOW STATE UNIVERSITY: VLADIMIR MIRONOV
     A.N.NESMEYANOV INSTITUTE OF ORGANOELEMENT COMPOUNDS OF RUSSIAN ACADEMY OF SCIENCES:
          IGOR S. GERASIMOV
     JOHANNES KEPLER UNIVERSITY LINZ:
          CHRISTIAN FRIEDL


 PARALLEL VERSION RUNNING ON        6 PROCESSORS IN        1 NODES.

 EXECUTION OF GAMESS BEGUN Sat May 16 13:13:43 2020

            ECHO OF THE FIRST FEW INPUT CARDS -
 INPUT CARD> $BASIS GBASIS=N21 NGAUSS=3 $END                                                
 INPUT CARD> $CONTRL SCFTYP=RHF RUNTYP=OPTIMIZE DFTTYP=B3LYP MAXIT=60 MULT=1 ICHARG=0 $END  
 INPUT CARD> $SYSTEM MEMDDI=1000 MWORDS=30 $END                                             
 INPUT CARD> $STATPT NSTEP=999 $END                                                         
 INPUT CARD> $SCF DIRSCF=.TRUE. $END                                                        
 INPUT CARD> $DATA                                                                          
 INPUT CARD>                                                                                
 INPUT CARD>C1                                                                              
 INPUT CARD>C 6.0000000 2.26786 0.58355 0.23263                                             
 INPUT CARD>H 1.0000000 1.08386 -1.16471 0.70115                                            
 INPUT CARD>H 1.0000000 2.30588 0.98636 1.25123                                             
 INPUT CARD>C 6.0000000 1.02953 -0.29570 0.03155                                            
 INPUT CARD>C 6.0000000 -0.28506 0.45396 0.28101                                            
 INPUT CARD>C 6.0000000 -1.52183 -0.42245 0.07453                                           
 INPUT CARD>C 6.0000000 -4.00634 -0.19865 0.08332                                           
 INPUT CARD>N 7.0000000 -4.10341 -0.81528 -1.16964                                          
 INPUT CARD>N 7.0000000 -4.92801 -0.09607 0.97206                                           
 INPUT CARD>H 1.0000000 1.02928 -0.69935 -0.99049                                           
 INPUT CARD>N 7.0000000 -2.74573 0.34002 0.34719                                            
 INPUT CARD>H 1.0000000 -0.28703 0.84688 1.30845                                            
 INPUT CARD>H 1.0000000 -0.35415 1.32652 -0.38141                                           
 INPUT CARD>H 1.0000000 -1.54987 -0.77901 -0.95968                                          
 INPUT CARD>H 1.0000000 -1.45454 -1.32093 0.71066                                           
 INPUT CARD>H 1.0000000 -3.59111 -0.34538 -1.90667                                          
 INPUT CARD>H 1.0000000 -5.05274 -1.02696 -1.44591                                          
 INPUT CARD>H 1.0000000 -5.82971 -0.40155 0.60166                                           
 INPUT CARD>H 1.0000000 2.26638 1.43376 -0.45885                                            
 INPUT CARD>H 1.0000000 3.19049 0.01846 0.06392                                             
 INPUT CARD>H 1.0000000 -2.76385 0.72132 1.28779                                            
 INPUT CARD> $END                                                                           
   30000000 WORDS OF MEMORY AVAILABLE

     BASIS OPTIONS
     -------------
     GBASIS=N21          IGAUSS=       3      POLAR=NONE    
     NDFUNC=       0     NFFUNC=       0     DIFFSP=       F
     NPFUNC=       0      DIFFS=       F     BASNAM=        


     RUN TITLE
     ---------
                                                                                 

 THE POINT GROUP OF THE MOLECULE IS C1      
 THE ORDER OF THE PRINCIPAL AXIS IS     0

 ATOM      ATOMIC                      COORDINATES (BOHR)
           CHARGE         X                   Y                   Z
 C           6.0     4.2856339785        1.1027496001        0.4396069565
 H           1.0     2.0481984091       -2.2009827552        1.3249813763
 H           1.0     4.3574813606        1.8639501252        2.3644818476
 C           6.0     1.9455295961       -0.5587919746        0.0596208549
 C           6.0    -0.5386852901        0.8578600094        0.5310318998
 C           6.0    -2.8758416999       -0.7983147435        0.1408412779
 C           6.0    -7.5708848136       -0.3753940675        0.1574519693
 N           7.0    -7.7543205153       -1.5406558033       -2.2102991043
 N           7.0    -9.3125885648       -0.1815459756        1.8369270436
 H           1.0     1.9450571646       -1.3215798695       -1.8717546936
 N           7.0    -5.1886773363        0.6425446303        0.6560939657
 H           1.0    -0.5424080503        1.6003711445        2.4726119686
 H           1.0    -0.6692464586        2.5067593172       -0.7207603890
 H           1.0    -2.9288296166       -1.4721154417       -1.8135322359
 H           1.0    -2.7486820382       -2.4961957490        1.3429526704
 H           1.0    -6.7862138918       -0.6526735616       -3.6030838490
 H           1.0    -9.5482940872       -1.9406730004       -2.7323737029
 H           1.0   -11.0165544879       -0.7588194704        1.1369725378
 H           1.0     4.2828371841        2.7094135322       -0.8671007695
 H           1.0     6.0291518666        0.0348843417        0.1207912851
 H           1.0    -5.2229191712        1.3630971495        2.4335702297

          INTERNUCLEAR DISTANCES (ANGS.)
          ------------------------------

                1 C          2 H          3 H          4 C          5 C     

   1 C       0.0000000    2.1628176 *  1.0960143 *  1.5319840 *  2.5566648 *
   2 H       2.1628176 *  0.0000000    2.5343684 *  1.0984053 *  2.1611460 *
   3 H       1.0960143 *  2.5343684 *  0.0000000    2.1818264 *  2.8174007 *
   4 C       1.5319840 *  1.0984053 *  2.1818264 *  0.0000000    1.5337429 *
   5 C       2.5566648 *  2.1611460 *  2.8174007 *  1.5337429 *  0.0000000  
   6 C       3.9241282    2.7808673 *  4.2450833    2.5548680 *  1.5298132 *
   7 C       6.3245329    5.2177698    6.5278162    5.0370711    3.7832401  
   8 N       6.6720438    5.5253712    7.0841737    5.2971590    4.2772833  
   9 N       7.2656166    6.1121162    7.3197510    6.0346246    4.7262107  
  10 H       2.1623911 *  1.7553304 *  3.0816610    1.0988627 *  2.1620189 *
  11 N       5.0208083    4.1298014    5.1724083    3.8414003    2.4641954 *
  12 H       2.7846354 *  2.5089135 *  2.5972892 *  2.1608547 *  1.1000104 *
  13 H       2.7935615 *  3.0734404    3.1395831    2.1717974 *  1.0976951 *
  14 H       4.2253089    3.1374599    4.7824118    2.8052504 *  2.1585345 *
  15 H       4.2085411    2.5432203 *  4.4448354    2.7718028 *  2.1685288 *
  16 H       6.3061117    5.4154752    6.8205832    5.0109359    4.0441136  
  17 H       7.6813035    6.5028226    8.0918051    6.3017170    5.2826271  
  18 H       8.1656136    6.9562750    8.2786509    6.8837056    5.6194179  
  19 H       1.0959032 *  3.0815580    1.7680782 *  2.1820454 *  2.8314743 *
  20 H       1.0950050 *  2.4987684 *  1.7689178 *  2.1839168 *  3.5094495  
  21 H       5.1430000    4.3250581    5.0767849    4.1233725    2.6887706 *

                6 C          7 C          8 N          9 N         10 H     

   1 C       3.9241282    6.3245329    6.6720438    7.2656166    2.1623911 *
   2 H       2.7808673 *  5.2177698    5.5253712    6.1121162    1.7553304 *
   3 H       4.2450833    6.5278162    7.0841737    7.3197510    3.0816610  
   4 C       2.5548680 *  5.0370711    5.2971590    6.0346246    1.0988627 *
   5 C       1.5298132 *  3.7832401    4.2772833    4.7262107    2.1620189 *
   6 C       0.0000000    2.4945849 *  2.8925473 *  3.5375339    2.7783275 *
   7 C       2.4945849 *  0.0000000    1.3998442 *  1.2844676 *  5.1731264  
   8 N       2.8925473 *  1.3998442 *  0.0000000    2.4050171 *  5.1371238  
   9 N       3.5375339    1.2844676 *  2.4050171 *  0.0000000    6.3011787  
  10 H       2.7783275 *  5.1731264    5.1371238    6.3011787    0.0000000  
  11 N       1.4675269 *  1.3960409 *  2.3406807 *  2.3114893 *  4.1376779  
  12 H       2.1583531 *  4.0530659    4.8444259    4.7477372    3.0673481  
  13 H       2.1518025 *  3.9850482    4.3892556    4.9775334    2.5276484 *
  14 H       1.0943087 *  2.7311008 *  2.5624139 *  3.9509311    2.5805638 *
  15 H       1.1029305 *  2.8574029 *  3.2875100    3.6923713    3.0740258  
  16 H       2.8658355 *  2.0381378 *  1.0131488 *  3.1837939    4.7236304  
  17 H       3.8915929    2.0296785 *  1.0111187 *  2.5939724 *  6.1078395  
  18 H       4.3400614    1.9064425 *  2.5077456 *  1.0215562 *  7.0476500  
  19 H       4.2521224    6.5042853    6.7924685    7.4931389    2.5225415 *
  20 H       4.7329139    7.2001302    7.4443112    8.1699374    2.5095538 *
  21 H       2.0791400 *  1.9598148 *  3.1928863    2.3348234 *  4.6472248  

               11 N         12 H         13 H         14 H         15 H     

   1 C       5.0208083    2.7846354 *  2.7935615 *  4.2253089    4.2085411  
   2 H       4.1298014    2.5089135 *  3.0734404    3.1374599    2.5432203 *
   3 H       5.1724083    2.5972892 *  3.1395831    4.7824118    4.4448354  
   4 C       3.8414003    2.1608547 *  2.1717974 *  2.8052504 *  2.7718028 *
   5 C       2.4641954 *  1.1000104 *  1.0976951 *  2.1585345 *  2.1685288 *
   6 C       1.4675269 *  2.1583531 *  2.1518025 *  1.0943087 *  1.1029305 *
   7 C       1.3960409 *  4.0530659    3.9850482    2.7311008 *  2.8574029 *
   8 N       2.3406807 *  4.8444259    4.3892556    2.5624139 *  3.2875100  
   9 N       2.3114893 *  4.7477372    4.9775334    3.9509311    3.6923713  
  10 H       4.1376779    3.0673481    2.5276484 *  2.5805638 *  3.0740258  
  11 N       0.0000000    2.6881469 *  2.6876933 *  2.0952848 *  2.1349560 *
  12 H       2.6881469 *  0.0000000    1.7578926 *  3.0631188    2.5337389 *
  13 H       2.6876933 *  1.7578926 *  0.0000000    2.4894576 *  3.0679743  
  14 H       2.0952848 *  3.0631188    2.4894576 *  0.0000000    1.7586361 *
  15 H       2.1349560 *  2.5337389 *  3.0679743    1.7586361 *  0.0000000  
  16 H       2.5028634 *  4.7618720    3.9496301    2.2916120 *  3.5166810  
  17 H       3.2258545    5.8146167    5.3617885    3.5451371    4.2052652  
  18 H       3.1820769    5.7253324    5.8253249    4.5713553    4.4720524  
  19 H       5.1929967    3.1603291    2.6238664 *  4.4397011    4.7750724  
  20 H       5.9516679    3.7852715    3.8044464    4.9147460    4.8773499  
  21 H       1.0151091 *  2.4800866 *  2.9931839 *  2.9624076 *  2.4936232 *

               16 H         17 H         18 H         19 H         20 H     

   1 C       6.3061117    7.6813035    8.1656136    1.0959032 *  1.0950050 *
   2 H       5.4154752    6.5028226    6.9562750    3.0815580    2.4987684 *
   3 H       6.8205832    8.0918051    8.2786509    1.7680782 *  1.7689178 *
   4 C       5.0109359    6.3017170    6.8837056    2.1820454 *  2.1839168 *
   5 C       4.0441136    5.2826271    5.6194179    2.8314743 *  3.5094495  
   6 C       2.8658355 *  3.8915929    4.3400614    4.2521224    4.7329139  
   7 C       2.0381378 *  2.0296785 *  1.9064425 *  6.5042853    7.2001302  
   8 N       1.0131488 *  1.0111187 *  2.5077456 *  6.7924685    7.4443112  
   9 N       3.1837939    2.5939724 *  1.0215562 *  7.4931389    8.1699374  
  10 H       4.7236304    6.1078395    7.0476500    2.5225415 *  2.5095538 *
  11 N       2.5028634 *  3.2258545    3.1820769    5.1929967    5.9516679  
  12 H       4.7618720    5.8146167    5.7253324    3.1603291    3.7852715  
  13 H       3.9496301    5.3617885    5.8253249    2.6238664 *  3.8044464  
  14 H       2.2916120 *  3.5451371    4.5713553    4.4397011    4.9147460  
  15 H       3.5166810    4.2052652    4.4720524    4.7750724    4.8773499  
  16 H       0.0000000    1.6772636 *  3.3624700    6.2906050    7.0714711  
  17 H       1.6772636 *  0.0000000    2.2775783 *  7.7845326    8.4453141  
  18 H       3.3624700    2.2775783 *  0.0000000    8.3689735    9.0459704  
  19 H       6.2906050    7.7845326    8.3689735    0.0000000    1.7692772 *
  20 H       7.0714711    8.4453141    9.0459704    1.7692772 *  0.0000000  
  21 H       3.4679652    3.9709717    3.3363317    5.3722934    6.1193165  

               21 H     

   1 C       5.1430000  
   2 H       4.3250581  
   3 H       5.0767849  
   4 C       4.1233725  
   5 C       2.6887706 *
   6 C       2.0791400 *
   7 C       1.9598148 *
   8 N       3.1928863  
   9 N       2.3348234 *
  10 H       4.6472248  
  11 N       1.0151091 *
  12 H       2.4800866 *
  13 H       2.9931839 *
  14 H       2.9624076 *
  15 H       2.4936232 *
  16 H       3.4679652  
  17 H       3.9709717  
  18 H       3.3363317  
  19 H       5.3722934  
  20 H       6.1193165  
  21 H       0.0000000  

  * ... LESS THAN  3.000


     ATOMIC BASIS SET
     ----------------
 THE CONTRACTED PRIMITIVE FUNCTIONS HAVE BEEN UNNORMALIZED
 THE CONTRACTED BASIS FUNCTIONS ARE NOW NORMALIZED TO UNITY

  SHELL TYPE  PRIMITIVE        EXPONENT          CONTRACTION COEFFICIENT(S)

 C         

      1   S       1           172.2560000    0.061766907377
      1   S       2            25.9109000    0.358794042852
      1   S       3             5.5333500    0.700713083689

      2   L       4             3.6649800   -0.395895162119    0.236459946619
      2   L       5             0.7705450    1.215834355681    0.860618805716

      3   L       6             0.1958570    1.000000000000    1.000000000000

 H         

      4   S       7             5.4471780    0.156284978695
      4   S       8             0.8245472    0.904690876670

      5   S       9             0.1831916    1.000000000000

 H         

      6   S      10             5.4471780    0.156284978695
      6   S      11             0.8245472    0.904690876670

      7   S      12             0.1831916    1.000000000000

 C         

      8   S      13           172.2560000    0.061766907377
      8   S      14            25.9109000    0.358794042852
      8   S      15             5.5333500    0.700713083689

      9   L      16             3.6649800   -0.395895162119    0.236459946619
      9   L      17             0.7705450    1.215834355681    0.860618805716

     10   L      18             0.1958570    1.000000000000    1.000000000000

 C         

     11   S      19           172.2560000    0.061766907377
     11   S      20            25.9109000    0.358794042852
     11   S      21             5.5333500    0.700713083689

     12   L      22             3.6649800   -0.395895162119    0.236459946619
     12   L      23             0.7705450    1.215834355681    0.860618805716

     13   L      24             0.1958570    1.000000000000    1.000000000000

 C         

     14   S      25           172.2560000    0.061766907377
     14   S      26            25.9109000    0.358794042852
     14   S      27             5.5333500    0.700713083689

     15   L      28             3.6649800   -0.395895162119    0.236459946619
     15   L      29             0.7705450    1.215834355681    0.860618805716

     16   L      30             0.1958570    1.000000000000    1.000000000000

 C         

     17   S      31           172.2560000    0.061766907377
     17   S      32            25.9109000    0.358794042852
     17   S      33             5.5333500    0.700713083689

     18   L      34             3.6649800   -0.395895162119    0.236459946619
     18   L      35             0.7705450    1.215834355681    0.860618805716

     19   L      36             0.1958570    1.000000000000    1.000000000000

 N         

     20   S      37           242.7660000    0.059865700508
     20   S      38            36.4851000    0.352955002994
     20   S      39             7.8144900    0.706513005993

     21   L      40             5.4252200   -0.413300077430    0.237972016222
     21   L      41             1.1491500    1.224417266851    0.858953058551

     22   L      42             0.2832050    1.000000000000    1.000000000000

 N         

     23   S      43           242.7660000    0.059865700508
     23   S      44            36.4851000    0.352955002994
     23   S      45             7.8144900    0.706513005993

     24   L      46             5.4252200   -0.413300077430    0.237972016222
     24   L      47             1.1491500    1.224417266851    0.858953058551

     25   L      48             0.2832050    1.000000000000    1.000000000000

 H         

     26   S      49             5.4471780    0.156284978695
     26   S      50             0.8245472    0.904690876670

     27   S      51             0.1831916    1.000000000000

 N         

     28   S      52           242.7660000    0.059865700508
     28   S      53            36.4851000    0.352955002994
     28   S      54             7.8144900    0.706513005993

     29   L      55             5.4252200   -0.413300077430    0.237972016222
     29   L      56             1.1491500    1.224417266851    0.858953058551

     30   L      57             0.2832050    1.000000000000    1.000000000000

 H         

     31   S      58             5.4471780    0.156284978695
     31   S      59             0.8245472    0.904690876670

     32   S      60             0.1831916    1.000000000000

 H         

     33   S      61             5.4471780    0.156284978695
     33   S      62             0.8245472    0.904690876670

     34   S      63             0.1831916    1.000000000000

 H         

     35   S      64             5.4471780    0.156284978695
     35   S      65             0.8245472    0.904690876670

     36   S      66             0.1831916    1.000000000000

 H         

     37   S      67             5.4471780    0.156284978695
     37   S      68             0.8245472    0.904690876670

     38   S      69             0.1831916    1.000000000000

 H         

     39   S      70             5.4471780    0.156284978695
     39   S      71             0.8245472    0.904690876670

     40   S      72             0.1831916    1.000000000000

 H         

     41   S      73             5.4471780    0.156284978695
     41   S      74             0.8245472    0.904690876670

     42   S      75             0.1831916    1.000000000000

 H         

     43   S      76             5.4471780    0.156284978695
     43   S      77             0.8245472    0.904690876670

     44   S      78             0.1831916    1.000000000000

 H         

     45   S      79             5.4471780    0.156284978695
     45   S      80             0.8245472    0.904690876670

     46   S      81             0.1831916    1.000000000000

 H         

     47   S      82             5.4471780    0.156284978695
     47   S      83             0.8245472    0.904690876670

     48   S      84             0.1831916    1.000000000000

 H         

     49   S      85             5.4471780    0.156284978695
     49   S      86             0.8245472    0.904690876670

     50   S      87             0.1831916    1.000000000000

 TOTAL NUMBER OF BASIS SET SHELLS             =   50
 NUMBER OF CARTESIAN GAUSSIAN BASIS FUNCTIONS =   98
 NUMBER OF ELECTRONS                          =   64
 CHARGE OF MOLECULE                           =    0
 SPIN MULTIPLICITY                            =    1
 NUMBER OF OCCUPIED ORBITALS (ALPHA)          =   32
 NUMBER OF OCCUPIED ORBITALS (BETA )          =   32
 TOTAL NUMBER OF ATOMS                        =   21
 THE NUCLEAR REPULSION ENERGY IS      375.1145990013

 SELECTED MURRAY-HANDY-LAMING RADIAL GRID

 LEGACY BECKE'S FUZZY CELL METHOD

 SELECTED ORIGINAL BECKE'S PARTITION FUNCTION

     LEBEDEV GRID-BASED DFT OPTIONS
     ------------------------------
     DFTTYP=B3LYP   
     NRAD  =      96     NLEB  =     302
     NRAD0 =      24     NLEB0 =     110
     SWOFF =    5.00E-03 (PURE SCF -> DFT)
     SWITCH=    3.00E-04 (COARSE -> TIGHT GRID)
     THRESH=    0.00E+00 GTHRE=    1.00E+00

 GRIMME'S EMPIRICAL DISPERSION CORRECTION= F

     $CONTRL OPTIONS
     ---------------
 SCFTYP=RHF          RUNTYP=OPTIMIZE     EXETYP=RUN     
 MPLEVL=       0     CITYP =NONE         CCTYP =NONE         VBTYP =NONE    
 DFTTYP=B3LYP        TDDFT =NONE    
 MULT  =       1     ICHARG=       0     NZVAR =       0     COORD =UNIQUE  
 PP    =NONE         RELWFN=NONE         LOCAL =NONE         NUMGRD=       F
 ISPHER=      -1     NOSYM =       0     MAXIT =      60     UNITS =ANGS    
 PLTORB=       F     MOLPLT=       F     AIMPAC=       F     FRIEND=        
 NPRINT=       7     IREST =       0     GEOM  =INPUT   
 NORMF =       0     NORMP =       0     ITOL  =      20     ICUT  =       9
 INTTYP=BEST         GRDTYP=BEST         QMTTOL= 1.0E-06

     $SYSTEM OPTIONS
     ---------------
  REPLICATED MEMORY=    30000000 WORDS (ON EVERY NODE).
 DISTRIBUTED MEMDDI=        1000 MILLION WORDS IN AGGREGATE,
 MEMDDI DISTRIBUTED OVER   6 PROCESSORS IS   166666666 WORDS/PROCESSOR.
 TOTAL MEMORY REQUESTED ON EACH PROCESSOR=   196666666 WORDS.
 TIMLIM=      525600.00 MINUTES, OR     365.0 DAYS.
 PARALL= T  BALTYP=  DLB     KDIAG=    0  COREFL= F
 MXSEQ2=     300 MXSEQ3=     150  mem10=         0

          ----------------
          PROPERTIES INPUT
          ----------------

     MOMENTS            FIELD           POTENTIAL          DENSITY
 IEMOM =       1   IEFLD =       0   IEPOT =       0   IEDEN =       0
 WHERE =COMASS     WHERE =NUCLEI     WHERE =NUCLEI     WHERE =NUCLEI  
 OUTPUT=BOTH       OUTPUT=BOTH       OUTPUT=BOTH       OUTPUT=BOTH    
 IEMINT=       0   IEFINT=       0                     IEDINT=       0
                                                       MORB  =       0
          EXTRAPOLATION IN EFFECT
          DIIS IN EFFECT
 ORBITAL PRINTING OPTION: NPREO=     1    98     2     1

     -------------------------------
     INTEGRAL TRANSFORMATION OPTIONS
     -------------------------------
     NWORD  =            0
     CUTOFF = 1.0E-09     MPTRAN =       0
     DIRTRF =       T     AOINTS =DUP     

          ----------------------
          INTEGRAL INPUT OPTIONS
          ----------------------
 NOPK  =       1 NORDER=       0 SCHWRZ=       T

     ------------------------------------------
     THE POINT GROUP IS C1 , NAXIS= 0, ORDER= 1
     ------------------------------------------

     DIMENSIONS OF THE SYMMETRY SUBSPACES ARE
 A   =   98

 ..... DONE SETTING UP THE RUN .....
 CPU     0: STEP CPU TIME=     0.01 TOTAL CPU TIME=          0.0 (      0.0 MIN)
 TOTAL WALL CLOCK TIME=          0.0 SECONDS, CPU UTILIZATION IS    50.00%


          -----------------------------
          STATIONARY POINT LOCATION RUN
          -----------------------------

 OBTAINING INITIAL HESSIAN, HESS=GUESS   
 CARTESIAN COORDINATE OPTIMIZATION USING BADGER'S RULE FORCE CONSTANT GUESS

          PARAMETERS CONTROLLING GEOMETRY SEARCH ARE
          METHOD =QA                  UPHESS =BFGS    
          NNEG   =         0          NFRZ   =         0
          NSTEP  =       999          IFOLOW =         1
          HESS   =GUESS               RESTAR =         F
          IHREP  =         0          HSSEND =         F
          NPRT   =         0          NPUN   =         0
          OPTTOL = 1.000E-04          RMIN   = 1.500E-03
          RMAX   = 1.000E-01          RLIM   = 7.000E-02
          DXMAX  = 3.000E-01          PURIFY =         F
          MOVIE  =         F          TRUPD  =         T
          TRMAX  = 5.000E-01          TRMIN  = 5.000E-02
          ITBMAT =         5          STPT   =         F
          STSTEP = 1.000E-02          PROJCT=          T

 BEGINNING GEOMETRY SEARCH POINT NSERCH=   0 ...

 COORDINATES OF ALL ATOMS ARE (ANGS)
   ATOM   CHARGE       X              Y              Z
 ------------------------------------------------------------
 C           6.0   2.2678600000   0.5835500000   0.2326300000
 H           1.0   1.0838600000  -1.1647100000   0.7011500000
 H           1.0   2.3058800000   0.9863600000   1.2512300000
 C           6.0   1.0295300000  -0.2957000000   0.0315500000
 C           6.0  -0.2850600000   0.4539600000   0.2810100000
 C           6.0  -1.5218300000  -0.4224500000   0.0745300000
 C           6.0  -4.0063400000  -0.1986500000   0.0833200000
 N           7.0  -4.1034100000  -0.8152800000  -1.1696400000
 N           7.0  -4.9280100000  -0.0960700000   0.9720600000
 H           1.0   1.0292800000  -0.6993500000  -0.9904900000
 N           7.0  -2.7457300000   0.3400200000   0.3471900000
 H           1.0  -0.2870300000   0.8468800000   1.3084500000
 H           1.0  -0.3541500000   1.3265200000  -0.3814100000
 H           1.0  -1.5498700000  -0.7790100000  -0.9596800000
 H           1.0  -1.4545400000  -1.3209300000   0.7106600000
 H           1.0  -3.5911100000  -0.3453800000  -1.9066700000
 H           1.0  -5.0527400000  -1.0269600000  -1.4459100000
 H           1.0  -5.8297100000  -0.4015500000   0.6016600000
 H           1.0   2.2663800000   1.4337600000  -0.4588500000
 H           1.0   3.1904900000   0.0184600000   0.0639200000
 H           1.0  -2.7638500000   0.7213200000   1.2877900000

          ********************
          1 ELECTRON INTEGRALS
          ********************
 ...... END OF ONE-ELECTRON INTEGRALS ......
 CPU     0: STEP CPU TIME=     0.02 TOTAL CPU TIME=          0.0 (      0.0 MIN)
 TOTAL WALL CLOCK TIME=          0.0 SECONDS, CPU UTILIZATION IS    75.00%

          -------------
          GUESS OPTIONS
          -------------
          GUESS =HUCKEL            NORB  =       0          NORDER=       0
          MIX   =       F          PRTMO =       F          PUNMO =       F
          TOLZ  = 1.0E-08          TOLE  = 1.0E-05
          SYMDEN=       F          PURIFY=       F

 INITIAL GUESS ORBITALS GENERATED BY HUCKEL   ROUTINE.
 HUCKEL GUESS REQUIRES     96150 WORDS.

 SYMMETRIES FOR INITIAL GUESS ORBITALS FOLLOW.   BOTH SET(S).
    32 ORBITALS ARE OCCUPIED (    8 CORE ORBITALS).
     9=A       10=A       11=A       12=A       13=A       14=A       15=A   
    16=A       17=A       18=A       19=A       20=A       21=A       22=A   
    23=A       24=A       25=A       26=A       27=A       28=A       29=A   
    30=A       31=A       32=A       33=A       34=A       35=A       36=A   
    37=A       38=A       39=A       40=A       41=A       42=A   
 ...... END OF INITIAL ORBITAL SELECTION ......
 CPU     0: STEP CPU TIME=     0.02 TOTAL CPU TIME=          0.0 (      0.0 MIN)
 TOTAL WALL CLOCK TIME=          0.1 SECONDS, CPU UTILIZATION IS    83.33%

                    ----------------------
                    AO INTEGRAL TECHNOLOGY
                    ----------------------
     S,P,L SHELL ROTATED AXIS INTEGRALS, REPROGRAMMED BY
        KAZUYA ISHIMURA (IMS) AND JOSE SIERRA (SYNSTAR).
     S,P,D,L SHELL ROTATED AXIS INTEGRALS PROGRAMMED BY
        KAZUYA ISHIMURA (INSTITUTE FOR MOLECULAR SCIENCE).
     S,P,D,F,G SHELL TO TOTAL QUARTET ANGULAR MOMENTUM SUM 5,
        ERIC PROGRAM BY GRAHAM FLETCHER (ELORET AND NASA ADVANCED
        SUPERCOMPUTING DIVISION, AMES RESEARCH CENTER).
     S,P,D,F,G,L SHELL GENERAL RYS QUADRATURE PROGRAMMED BY
        MICHEL DUPUIS (PACIFIC NORTHWEST NATIONAL LABORATORY).

          --------------------
          2 ELECTRON INTEGRALS
          --------------------

 DIRECT SCF METHOD SKIPS INTEGRAL STORAGE ON DISK.
 DIRECT TRANSFORMATION SKIPS AO INTEGRAL STORAGE ON DISK.
  ...... END OF TWO-ELECTRON INTEGRALS .....
 CPU     0: STEP CPU TIME=     0.01 TOTAL CPU TIME=          0.1 (      0.0 MIN)
 TOTAL WALL CLOCK TIME=          0.1 SECONDS, CPU UTILIZATION IS    85.71%

          --------------------------
             R-B3LYP SCF CALCULATION
          --------------------------

     NUCLEAR ENERGY =       375.1145990013
     MAXIT =   60     NPUNCH=    2
     EXTRAP=T  DAMP=F  SHIFT=F  RSTRCT=F  DIIS=T  DEM=F  SOSCF=F
         DENSITY MATRIX CONVERGENCE THRESHOLD=  2.00E-05
     COARSE -> FINE DFT GRID SWITCH THRESHOLD=  3.00E-04 (SWITCH IN $DFT)
                   HF -> DFT SWITCH THRESHOLD=  5.00E-03 (SWOFF IN $DFT)
     MEMORY REQUIRED FOR RHF ITERS=    803518 WORDS.

 DIRECT SCF CALCULATION, SCHWRZ=T   FDIFF=T,  DIRTHR=  0.00E+00 NITDIR=10
 SCHWARZ INEQUALITY OVERHEAD:      4415 INTEGRALS, T=        0.00

 DFT CODE IS SWITCHING FROM THE FINE GRID NRAD= 96,  NLEB=  302
                      TO THE COARSE GRID NRAD0= 24, NLEB0=  110

     EXCHANGE FUNCTIONAL   =B88&HFX   
     CORRELATION FUNCTIONAL=LYP88&VWN5
     DFT THRESHOLD         =.657E-08
     GRID CHANGE THRESHOLD =.300E-03
 FOR AN EULER-MACLAURIN QUADRATURE USING  96 RADIAL POINTS:
 SMALLEST GAUSSIAN PRIMITIVE EXPONENT=        0.1831915800 OF TYPE -S-
 ON ATOM NUMBER   2 HAS RADIAL NORMALIZATION=  1.000000
  LARGEST GAUSSIAN PRIMITIVE EXPONENT=      242.7660000000 OF TYPE -S-
 ON ATOM NUMBER   8 HAS RADIAL NORMALIZATION=  1.000000
 DFT IS SWITCHED OFF, PERFORMING PURE SCF UNTIL SWOFF THRESHOLD IS REACHED.

                                                                                   NONZERO     BLOCKS
 ITER EX DEM     TOTAL ENERGY        E CHANGE  DENSITY CHANGE    DIIS ERROR      INTEGRALS    SKIPPED
   1  0  0     -357.3156777030  -357.3156777030   0.754054148   0.511683520        6406303     411989
          * * *   INITIATING DIIS PROCEDURE   * * *
   2  1  0     -358.1406956116    -0.8250179085   0.229748832   0.115063924        6389033     421586
   3  2  0     -358.2032202985    -0.0625246870   0.071642344   0.082156839        6331034     438313
   4  3  0     -358.2387335011    -0.0355132026   0.038824364   0.008510747        6222895     459370
   5  4  0     -358.2399330591    -0.0011995580   0.007957833   0.002282880        6102714     472965
   6  5  0     -358.2400159755    -0.0000829164   0.002894046   0.000815748        5868715     494722
 CONVERGED TO SWOFF, SO DFT CALCULATION IS NOW SWITCHED ON.
          * * *   INITIATING DIIS PROCEDURE   * * *
   7  6  0     -360.3493327421    -2.1093167666   0.082880558   0.066744523        6410792     408913
   8  7  0     -360.3746201820    -0.0252874399   0.043651147   0.032068315        6337234     438483
   9  8  0     -360.3776128144    -0.0029926324   0.026337129   0.022323806        6252545     450903
  10  9  0     -360.3819473629    -0.0043345486   0.010351595   0.010268485        6169305     464024
  11 10  0     -360.3826202188    -0.0006728559   0.001266083   0.000800466        5930314     492325
  12 11  0     -360.3826256179    -0.0000053991   0.000349019   0.000303059        5600397     517318
  13 12  0     -360.3826263337    -0.0000007158   0.000129656   0.000057520        5352536     537824
 DFT CODE IS SWITCHING BACK TO THE FINE GRID
          * * *   INITIATING DIIS PROCEDURE   * * *
  14 13  0     -360.3837313805    -0.0011050468   0.003047712   0.001062361        6413730     407122
  15 14  0     -360.3837512519    -0.0000198714   0.000629511   0.000355276        5868057     495426
  16 15  0     -360.3837512588    -0.0000000069   0.000472225   0.000384987        5488018     527380
  17 16  0     -360.3837524571    -0.0000011984   0.000110296   0.000086413        5313273     542232
  18 17  0     -360.3837525008    -0.0000000436   0.000033616   0.000046195        4981323     567145
  19 18  0     -360.3837525107    -0.0000000099   0.000007663   0.000004676        4557696     593697
  20 19  0     -360.3837525108    -0.0000000001   0.000004100   0.000002061        4215187     614337

          -----------------
          DENSITY CONVERGED
          -----------------
     TIME TO FORM FOCK OPERATORS=      10.6 SECONDS (       0.5 SEC/ITER)
     FOCK TIME ON FIRST ITERATION=       0.1, LAST ITERATION=       1.3
     TIME TO SOLVE SCF EQUATIONS=       0.1 SECONDS (       0.0 SEC/ITER)

 FINAL R-B3LYP ENERGY IS     -360.3837525108 AFTER  20 ITERATIONS
 DFT EXCHANGE + CORRELATION ENERGY =       -42.3683592008
 TOTAL ELECTRON NUMBER             =        64.0002208893

          ------------
          EIGENVECTORS
          ------------

                      1          2          3          4          5
                  -14.2497   -14.2399   -14.1820   -10.2017   -10.1449
                     A          A          A          A          A   
    1  C  1  S    0.000002  -0.000041  -0.000016  -0.000309  -0.002825
    2  C  1  S    0.000018  -0.000196  -0.000092  -0.000391  -0.001474
    3  C  1  X   -0.000015  -0.000188   0.000038  -0.000012   0.000382
    4  C  1  Y    0.000013   0.000059  -0.000025  -0.000066  -0.000115
    5  C  1  Z   -0.000009   0.000037  -0.000011  -0.000018  -0.000042
    6  C  1  S    0.000030   0.002335   0.000288   0.002017   0.004485
    7  C  1  X    0.000054  -0.000307  -0.000314  -0.001152  -0.003600
    8  C  1  Y   -0.000167  -0.001409   0.000080  -0.000191   0.000033
    9  C  1  Z    0.000140  -0.000578   0.000062  -0.000072   0.000084
   10  H  2  S    0.000026  -0.000437   0.000011   0.000039  -0.000097
   11  H  2  S    0.000174  -0.000187   0.000169  -0.000003  -0.001819
   12  H  3  S   -0.000017  -0.000025  -0.000049  -0.000163  -0.000492
   13  H  3  S   -0.000001   0.000334  -0.000041  -0.000046  -0.000163
   14  C  4  S   -0.000009  -0.000076   0.000019   0.000284  -0.005057
   15  C  4  S   -0.000052  -0.000493   0.000086   0.000468  -0.001444
   16  C  4  X    0.000025   0.000595   0.000064   0.000404   0.000995
   17  C  4  Y   -0.000007   0.000230  -0.000008   0.000122   0.000449
   18  C  4  Z    0.000043  -0.000031   0.000019  -0.000007   0.000068
   19  C  4  S    0.000183   0.000213  -0.000668  -0.004030  -0.000015
   20  C  4  X   -0.000294  -0.003654   0.000097   0.000037  -0.002343
   21  C  4  Y    0.000108  -0.001799  -0.000054  -0.001651  -0.003015
   22  C  4  Z   -0.000533   0.000067  -0.000102  -0.000232  -0.000677
   23  C  5  S    0.000016   0.000197  -0.000084  -0.001021  -0.011583
   24  C  5  S    0.000036   0.000769  -0.000459  -0.001200  -0.004016
   25  C  5  X    0.000057   0.000295  -0.000040  -0.000461   0.000111
   26  C  5  Y    0.000049  -0.000014   0.000019   0.000223   0.000332
   27  C  5  Z   -0.000136   0.000040  -0.000050   0.000124   0.000054
   28  C  5  S   -0.000906  -0.005998   0.003078   0.008204   0.024536
   29  C  5  X    0.000490   0.003566  -0.001200  -0.000472  -0.012704
   30  C  5  Y    0.000107   0.001679  -0.000940  -0.003673  -0.008723
   31  C  5  Z    0.001539   0.000032  -0.000371  -0.001238  -0.001798
   32  C  6  S    0.000015  -0.000652  -0.000084  -0.003349   0.986535
   33  C  6  S    0.000236  -0.002669  -0.000779  -0.001904   0.113692
   34  C  6  X   -0.000345  -0.001399   0.000863   0.001753   0.000118
   35  C  6  Y    0.000160   0.000299  -0.000065   0.000630  -0.000222
   36  C  6  Z    0.000409   0.000196   0.000046   0.000160  -0.000106
   37  C  6  S    0.001978   0.021894  -0.001109   0.002183  -0.095700
   38  C  6  X    0.000129  -0.008155  -0.002304  -0.009623  -0.005916
   39  C  6  Y    0.002016   0.007012  -0.002884  -0.004123  -0.003228
   40  C  6  Z   -0.002404   0.003239   0.000671  -0.000737  -0.000554
   41  C  7  S   -0.000370  -0.000341   0.000042   0.985007   0.002991
   42  C  7  S   -0.001806  -0.001463  -0.001003   0.102206  -0.001226
   43  C  7  X   -0.000318   0.000923   0.000199   0.001029  -0.000921
   44  C  7  Y   -0.000136   0.000161  -0.000079  -0.000097   0.000335
   45  C  7  Z   -0.000407   0.000233  -0.000144  -0.000068   0.000310
   46  C  7  S    0.019775   0.019816   0.032279  -0.046809   0.003525
   47  C  7  X   -0.001479   0.021783  -0.030299  -0.007768   0.008826
   48  C  7  Y   -0.012148   0.007140   0.002719   0.001333  -0.001061
   49  C  7  Z   -0.027183   0.003430   0.026627   0.005945  -0.005610
   50  N  8  S    0.984980   0.010746   0.001714   0.000184   0.000083
   51  N  8  S    0.110900   0.000870  -0.000332  -0.000238   0.000505
   52  N  8  X   -0.000979   0.000381  -0.000935  -0.000215   0.000173
   53  N  8  Y    0.002705  -0.000240  -0.000368  -0.000365  -0.000061
   54  N  8  Z    0.001000  -0.000517  -0.000139  -0.000994  -0.000051
   55  N  8  S   -0.076117  -0.000626   0.004874   0.007548  -0.003461
   56  N  8  X    0.001336  -0.004810   0.008676   0.002207  -0.002366
   57  N  8  Y   -0.010550  -0.000573   0.003032   0.001506  -0.000868
   58  N  8  Z   -0.011382   0.001235   0.000179   0.003794  -0.001558
   59  N  9  S   -0.001781  -0.002815   0.985187   0.000419  -0.000117
   60  N  9  S   -0.000731  -0.001096   0.111545   0.000049  -0.000997
   61  N  9  X   -0.000677  -0.000179   0.001048  -0.001740  -0.000047
   62  N  9  Y   -0.000272   0.000215  -0.001323   0.000175  -0.000079
   63  N  9  Z   -0.000271   0.000587  -0.004772   0.001235   0.000218
   64  N  9  S    0.005787   0.003242  -0.085690  -0.000443   0.006157
   65  N  9  X    0.006257  -0.002113  -0.012949   0.000163   0.001437
   66  N  9  Y    0.002891  -0.002175   0.004136   0.000172   0.000123
   67  N  9  Z    0.002880  -0.004022   0.021019   0.002015  -0.002282
   68  H 10  S   -0.000090  -0.000323   0.000017   0.000033  -0.000102
   69  H 10  S   -0.000153   0.000066   0.000037   0.000282  -0.001662
   70  N 11  S   -0.010795   0.985209   0.002660   0.000296  -0.000004
   71  N 11  S   -0.001663   0.112620  -0.000376   0.000526  -0.000401
   72  N 11  X    0.000888  -0.000716  -0.000053   0.000454  -0.000153
   73  N 11  Y    0.000204  -0.002849   0.000403  -0.000024  -0.000098
   74  N 11  Z   -0.000519   0.000982   0.001022   0.000579  -0.000121
   75  N 11  S    0.001985  -0.081453   0.003950   0.003996   0.008219
   76  N 11  X   -0.004211   0.005075   0.001282  -0.002224   0.007818
   77  N 11  Y    0.000864   0.011880  -0.003171   0.000864  -0.001116
   78  N 11  Z    0.005925  -0.000169  -0.008456  -0.002904   0.000769
   79  H 12  S   -0.000006   0.000715  -0.000172  -0.000047  -0.001371
   80  H 12  S   -0.000874  -0.000904   0.000088  -0.000015   0.000855
   81  H 13  S    0.000159   0.000245  -0.000108  -0.000213  -0.001476
   82  H 13  S    0.000409   0.000027  -0.000109   0.000193   0.001433
   83  H 14  S   -0.000560  -0.001510   0.000064  -0.000544   0.000213
   84  H 14  S   -0.001117  -0.000231   0.000223  -0.001737   0.017796
   85  H 15  S    0.000410  -0.001360  -0.000177  -0.001004   0.000562
   86  H 15  S    0.000950  -0.001248  -0.001434  -0.000808   0.016934
   87  H 16  S    0.002178   0.000735  -0.001686  -0.000865   0.000637
   88  H 16  S    0.007267   0.000417   0.000626   0.003096  -0.001460
   89  H 17  S    0.002191  -0.001232   0.002147  -0.000108  -0.000478
   90  H 17  S    0.007276   0.000908   0.000205   0.002453  -0.000048
   91  H 18  S    0.001476  -0.001252   0.002919   0.000156  -0.000418
   92  H 18  S    0.000428   0.001401   0.006458   0.002331   0.000875
   93  H 19  S    0.000030  -0.000013  -0.000043  -0.000153  -0.000467
   94  H 19  S    0.000088   0.000053  -0.000020  -0.000123  -0.000243
   95  H 20  S   -0.000015  -0.000231   0.000013  -0.000028  -0.000042
   96  H 20  S   -0.000048  -0.000448   0.000117   0.000099   0.001141
   97  H 21  S   -0.001621   0.002669   0.001402   0.000054  -0.001247
   98  H 21  S    0.001239   0.007291   0.001906   0.003245   0.002218

                      6          7          8          9         10
                  -10.1151   -10.1130   -10.1056    -0.9666    -0.8777
                     A          A          A          A          A   
    1  C  1  S   -0.033290  -0.029847   0.985298  -0.000253  -0.004433
    2  C  1  S   -0.006284  -0.004942   0.112038   0.001508   0.006026
    3  C  1  X   -0.000458   0.000817  -0.000073  -0.000449  -0.003583
    4  C  1  Y   -0.000003  -0.000072   0.000187  -0.000042  -0.001252
    5  C  1  Z    0.000004  -0.000039   0.000052  -0.000019  -0.000264
    6  C  1  S    0.026409   0.008669  -0.090135  -0.006919   0.000340
    7  C  1  X   -0.011451  -0.002936   0.004234   0.004347   0.005116
    8  C  1  Y   -0.007432  -0.001149   0.001903   0.001889   0.002707
    9  C  1  Z   -0.001611  -0.000214   0.000387   0.000803   0.001254
   10  H  2  S    0.001104  -0.001249  -0.001223   0.001217   0.006522
   11  H  2  S    0.015883   0.003850   0.001767   0.000660   0.001105
   12  H  3  S   -0.001468  -0.000238  -0.000065   0.000522   0.002369
   13  H  3  S    0.000310  -0.001584   0.016124  -0.000119  -0.000376
   14  C  4  S    0.969760   0.178798   0.037525  -0.002512  -0.014008
   15  C  4  S    0.114006   0.018247   0.002125   0.001808   0.014165
   16  C  4  X    0.000061  -0.000270  -0.000253  -0.003452  -0.009987
   17  C  4  Y    0.000159  -0.000189  -0.000305  -0.000011   0.002583
   18  C  4  Z    0.000035  -0.000015  -0.000080   0.000253   0.001318
   19  C  4  S   -0.107762   0.003714   0.016610   0.014983   0.033885
   20  C  4  X    0.003211  -0.013314   0.010933   0.003036   0.006385
   21  C  4  Y   -0.008064   0.004910   0.007247   0.006915   0.006763
   22  C  4  Z   -0.002338   0.001639   0.001630   0.000534   0.000107
   23  C  5  S   -0.180573   0.969855   0.023123  -0.010614  -0.037537
   24  C  5  S   -0.023995   0.113193   0.001660   0.011439   0.036771
   25  C  5  X    0.000126  -0.000013  -0.001119  -0.008229  -0.020787
   26  C  5  Y    0.000346  -0.000113  -0.000477  -0.003885  -0.010823
   27  C  5  Z    0.000078   0.000023  -0.000102  -0.000823  -0.001500
   28  C  5  S    0.044266  -0.099461  -0.001994   0.006245   0.073195
   29  C  5  X    0.012589   0.002835   0.004334  -0.005968  -0.007792
   30  C  5  Y   -0.008873   0.005829   0.003141   0.009716   0.004370
   31  C  5  Z   -0.002743   0.001507   0.000842   0.004700   0.004353
   32  C  6  S    0.002865   0.011452   0.002923  -0.042355  -0.084861
   33  C  6  S    0.000112  -0.001691  -0.000978   0.045214   0.085685
   34  C  6  X   -0.000652  -0.000099  -0.000402  -0.035709  -0.042158
   35  C  6  Y    0.000139  -0.000209   0.000014   0.016038   0.034774
   36  C  6  Z    0.000115  -0.000087   0.000030   0.006097   0.017089
   37  C  6  S   -0.005470   0.024521   0.005670   0.068229   0.176614
   38  C  6  X   -0.002026   0.012417   0.004234   0.018990   0.009437
   39  C  6  Y   -0.003587   0.008677   0.001066   0.005002   0.002347
   40  C  6  Z   -0.001255   0.001832   0.000022  -0.000955  -0.003535
   41  C  7  S   -0.000330   0.000679   0.000236  -0.141194   0.020642
   42  C  7  S    0.000155  -0.000810  -0.000222   0.165863  -0.021888
   43  C  7  X    0.000209  -0.000130  -0.000115   0.005944   0.102819
   44  C  7  Y    0.000075   0.000241   0.000071   0.001137   0.054342
   45  C  7  Z    0.000038   0.000051   0.000032  -0.002642   0.073098
   46  C  7  S    0.001084   0.003469   0.000604   0.133079  -0.028133
   47  C  7  X    0.000374   0.004020   0.000944   0.000817  -0.026897
   48  C  7  Y    0.000933  -0.000715  -0.000315  -0.001323  -0.004290
   49  C  7  Z    0.001051  -0.001716  -0.000585  -0.009516  -0.009691
   50  N  8  S   -0.000007   0.000027   0.000009  -0.117334   0.138073
   51  N  8  S   -0.000041   0.000066   0.000043   0.104960  -0.125567
   52  N  8  X    0.000006  -0.000108  -0.000033  -0.008453   0.035109
   53  N  8  Y    0.000017  -0.000013   0.000007   0.047358  -0.039628
   54  N  8  Z   -0.000048  -0.000041  -0.000012   0.035641  -0.001324
   55  N  8  S    0.000356  -0.001370  -0.000470   0.336733  -0.425623
   56  N  8  X   -0.000067  -0.000237  -0.000043  -0.008986   0.041927
   57  N  8  Y   -0.000015  -0.000326  -0.000118   0.046375  -0.046587
   58  N  8  Z    0.000450  -0.000727  -0.000181   0.032624  -0.014982
   59  N  9  S    0.000011  -0.000031  -0.000009  -0.084008   0.032342
   60  N  9  S    0.000080  -0.000273  -0.000078   0.075998  -0.028329
   61  N  9  X    0.000010  -0.000022   0.000005   0.037008   0.008109
   62  N  9  Y    0.000033  -0.000074  -0.000017  -0.013286   0.013510
   63  N  9  Z    0.000028   0.000052   0.000026  -0.064447   0.031099
   64  N  9  S   -0.000634   0.001774   0.000554   0.233130  -0.099297
   65  N  9  X   -0.000382   0.000269   0.000080   0.026856   0.011000
   66  N  9  Y   -0.000232   0.000243   0.000072  -0.013202   0.015135
   67  N  9  Z   -0.000002  -0.000701  -0.000226  -0.057482   0.040183
   68  H 10  S    0.001102  -0.001269  -0.001226   0.001105   0.006131
   69  H 10  S    0.015879   0.003713   0.001777  -0.000529   0.000337
   70  N 11  S   -0.000044   0.000082   0.000002  -0.122692  -0.148960
   71  N 11  S   -0.000381   0.000178  -0.000048   0.106248   0.132658
   72  N 11  X   -0.000498  -0.000651  -0.000071  -0.037841   0.017383
   73  N 11  Y   -0.000088  -0.000239   0.000010  -0.042026  -0.037566
   74  N 11  Z    0.000043  -0.000284   0.000004   0.007136   0.034445
   75  N 11  S    0.001159  -0.003140   0.000050   0.363669   0.466593
   76  N 11  X    0.003275   0.001066   0.000329  -0.034367  -0.005735
   77  N 11  Y    0.000291   0.001417  -0.000151  -0.051681  -0.052192
   78  N 11  Z   -0.000212   0.001794   0.000044   0.008242   0.030264
   79  H 12  S   -0.001598   0.000549  -0.000271   0.003524   0.015356
   80  H 12  S   -0.001968   0.016394  -0.001082  -0.000606  -0.000557
   81  H 13  S   -0.001588   0.000556  -0.000287   0.003986   0.015269
   82  H 13  S   -0.001833   0.016305  -0.000885  -0.001420  -0.001795
   83  H 14  S    0.000331  -0.001486  -0.000484   0.017038   0.030405
   84  H 14  S   -0.001716   0.000790  -0.000099   0.002904  -0.012865
   85  H 15  S    0.000299  -0.001366  -0.000503   0.015122   0.032317
   86  H 15  S   -0.001357   0.000811   0.000086   0.000883  -0.003217
   87  H 16  S   -0.000063   0.000131   0.000003   0.051919  -0.071054
   88  H 16  S    0.000467  -0.000512  -0.000006   0.002147  -0.008347
   89  H 17  S   -0.000006  -0.000039   0.000009   0.051070  -0.077471
   90  H 17  S    0.000044   0.000209   0.000033   0.003776  -0.019369
   91  H 18  S   -0.000044  -0.000134  -0.000045   0.034353  -0.021284
   92  H 18  S   -0.000037   0.000367   0.000078  -0.000140  -0.010698
   93  H 19  S   -0.001463  -0.000246  -0.000068   0.000529   0.002373
   94  H 19  S    0.000375  -0.001534   0.016119   0.000324   0.000303
   95  H 20  S   -0.001076  -0.000513  -0.000220   0.000291   0.001873
   96  H 20  S   -0.000644   0.001121   0.015384  -0.000376  -0.001307
   97  H 21  S   -0.000347  -0.000313  -0.000122   0.051612   0.077995
   98  H 21  S    0.000728  -0.001105   0.000355  -0.002170   0.013010

                     11         12         13         14         15
                   -0.8402    -0.7892    -0.7170    -0.6314    -0.5883
                     A          A          A          A          A   
    1  C  1  S    0.006033  -0.094098  -0.133652  -0.116903  -0.025797
    2  C  1  S   -0.006375   0.094392   0.128117   0.109192   0.024051
    3  C  1  X    0.003694  -0.040487  -0.010935   0.058810   0.017739
    4  C  1  Y    0.001689  -0.021331  -0.015357   0.027993   0.032805
    5  C  1  Z    0.000338  -0.004495  -0.003863   0.005623   0.009822
    6  C  1  S   -0.010563   0.217622   0.370146   0.387250   0.091702
    7  C  1  X   -0.000409   0.000599  -0.002553   0.019125  -0.000062
    8  C  1  Y   -0.001678   0.000502  -0.003857   0.006303   0.017351
    9  C  1  Z   -0.000512   0.000030  -0.000999   0.000825   0.006007
   10  H  2  S   -0.006428   0.065490   0.031334  -0.047639  -0.048586
   11  H  2  S   -0.000720  -0.002472  -0.001131  -0.008470  -0.021283
   12  H  3  S   -0.002697   0.044294   0.070045   0.079045   0.027738
   13  H  3  S    0.000247   0.001206   0.005603   0.019512   0.013668
   14  C  4  S    0.014019  -0.142132  -0.064464   0.074665   0.050680
   15  C  4  S   -0.014533   0.137028   0.058138  -0.067201  -0.047020
   16  C  4  X    0.006506  -0.013836   0.087434   0.090228  -0.004894
   17  C  4  Y   -0.002967   0.031129   0.016357   0.015181   0.056363
   18  C  4  Z   -0.001058   0.009068   0.001624   0.000550   0.020602
   19  C  4  S   -0.027364   0.344617   0.193532  -0.254150  -0.181595
   20  C  4  X   -0.004342   0.001244   0.005951   0.023981   0.004449
   21  C  4  Y   -0.000905   0.004739   0.007904  -0.001463   0.028088
   22  C  4  Z    0.000301   0.001708   0.001824  -0.001129   0.008918
   23  C  5  S    0.026914  -0.125558   0.087489   0.079232  -0.058956
   24  C  5  S   -0.024359   0.121387  -0.081218  -0.071642   0.053224
   25  C  5  X    0.009713   0.032410   0.074806  -0.087046  -0.018974
   26  C  5  Y    0.007375  -0.028084   0.020214  -0.013991   0.074751
   27  C  5  Z    0.001936  -0.008091   0.003092  -0.003379   0.036967
   28  C  5  S   -0.074124   0.307990  -0.254630  -0.259408   0.223407
   29  C  5  X    0.006525   0.001214  -0.002352  -0.011672  -0.019030
   30  C  5  Y    0.007160  -0.011162   0.011004  -0.002473   0.033445
   31  C  5  Z    0.002528  -0.003321   0.004025  -0.003532   0.018979
   32  C  6  S    0.045047  -0.046945   0.113497  -0.110785   0.059907
   33  C  6  S   -0.043342   0.048611  -0.108637   0.103752  -0.057615
   34  C  6  X    0.009449   0.064808  -0.051509  -0.057691   0.014457
   35  C  6  Y   -0.014325   0.009786  -0.016214  -0.022698   0.101109
   36  C  6  Z   -0.000942  -0.001456   0.001243  -0.009564   0.071470
   37  C  6  S   -0.091952   0.104520  -0.322672   0.372449  -0.219888
   38  C  6  X    0.014347   0.001854  -0.014518  -0.015966  -0.007775
   39  C  6  Y    0.013306  -0.003109  -0.000125  -0.011803   0.052888
   40  C  6  Z   -0.003122   0.000889  -0.002460  -0.000613   0.044625
   41  C  7  S   -0.056976   0.006856  -0.030259   0.048882   0.076298
   42  C  7  S    0.064552  -0.007087   0.034938  -0.058289  -0.090680
   43  C  7  X   -0.128884  -0.069304   0.088841  -0.074330  -0.062494
   44  C  7  Y    0.031128  -0.017895   0.034021  -0.041422   0.038685
   45  C  7  Z    0.159347   0.008394   0.001637  -0.004376   0.083856
   46  C  7  S    0.070694  -0.023529   0.072330  -0.126099  -0.199553
   47  C  7  X    0.024841  -0.008928   0.022118  -0.029262  -0.037688
   48  C  7  Y   -0.012991  -0.003359   0.008308  -0.017233   0.021557
   49  C  7  Z   -0.044606  -0.001746   0.000673  -0.002678   0.046289
   50  N  8  S    0.116255  -0.005619   0.009583  -0.007454  -0.030025
   51  N  8  S   -0.105450   0.005001  -0.008861   0.007362   0.026530
   52  N  8  X    0.000703  -0.013198   0.021045  -0.024254  -0.102074
   53  N  8  Y   -0.035483  -0.003087   0.008510  -0.018196  -0.049432
   54  N  8  Z    0.026359  -0.002012   0.013078  -0.030372  -0.155349
   55  N  8  S   -0.385959   0.018641  -0.033763   0.026907   0.117679
   56  N  8  X   -0.013815  -0.013262   0.016301  -0.015002  -0.082283
   57  N  8  Y   -0.047922  -0.001741   0.005534  -0.013903  -0.029798
   58  N  8  Z    0.000875   0.001057   0.004226  -0.017391  -0.110518
   59  N  9  S   -0.169385  -0.037585   0.036407  -0.032893  -0.021681
   60  N  9  S    0.155514   0.034922  -0.033902   0.030090   0.021970
   61  N  9  X    0.033386  -0.007024   0.026295  -0.053868  -0.026630
   62  N  9  Y   -0.028129  -0.010889   0.015738  -0.021093   0.003181
   63  N  9  Z   -0.108667  -0.025977   0.023291  -0.013412   0.005912
   64  N  9  S    0.526951   0.116368  -0.117124   0.113866   0.065492
   65  N  9  X    0.039750  -0.002309   0.014085  -0.029933  -0.014915
   66  N  9  Y   -0.023772  -0.009929   0.013577  -0.016706   0.002891
   67  N  9  Z   -0.103948  -0.025830   0.024652  -0.018179   0.003731
   68  H 10  S   -0.006602   0.065549   0.031296  -0.047020  -0.052881
   69  H 10  S    0.000353  -0.001958  -0.000842  -0.008547  -0.025427
   70  N 11  S    0.033219   0.053708  -0.049853   0.014471  -0.045764
   71  N 11  S   -0.031102  -0.047844   0.044457  -0.013728   0.041624
   72  N 11  X   -0.034251   0.036874  -0.102900   0.145496   0.062837
   73  N 11  Y    0.018295   0.011434   0.002919  -0.033916   0.104892
   74  N 11  Z    0.015432  -0.011970   0.020959  -0.022721   0.154090
   75  N 11  S   -0.104972  -0.181390   0.183940  -0.062534   0.179132
   76  N 11  X   -0.029795   0.015369  -0.060340   0.094014   0.049741
   77  N 11  Y    0.020952   0.018214  -0.009864  -0.020621   0.075619
   78  N 11  Z    0.033477  -0.008144   0.015718  -0.017582   0.118516
   79  H 12  S   -0.010789   0.058457  -0.043503  -0.051141   0.068957
   80  H 12  S   -0.000883  -0.001424   0.000407  -0.009275   0.038154
   81  H 13  S   -0.011120   0.057445  -0.043516  -0.048759   0.055618
   82  H 13  S    0.001062  -0.002726   0.001803  -0.008757   0.023542
   83  H 14  S   -0.021300   0.024609  -0.061811   0.076331  -0.091728
   84  H 14  S   -0.006057   0.001349  -0.003197   0.016531  -0.039750
   85  H 15  S   -0.016665   0.023504  -0.057645   0.070183  -0.058663
   86  H 15  S    0.009101  -0.000994   0.002455   0.008935  -0.025019
   87  H 16  S   -0.073462   0.000900  -0.004517   0.007948   0.041289
   88  H 16  S   -0.024198   0.000370  -0.006097   0.011241   0.026859
   89  H 17  S   -0.064578   0.008492  -0.018116   0.025701   0.109511
   90  H 17  S   -0.014260   0.004628  -0.011023   0.018924   0.071916
   91  H 18  S    0.090382   0.027576  -0.038120   0.053337   0.030244
   92  H 18  S    0.019570   0.009257  -0.017185   0.031225   0.024543
   93  H 19  S   -0.002673   0.044160   0.070159   0.079365   0.026206
   94  H 19  S    0.000136   0.001019   0.005597   0.019671   0.013205
   95  H 20  S   -0.002497   0.041285   0.073185   0.086902   0.015458
   96  H 20  S    0.000357  -0.003957   0.011629   0.026217   0.006722
   97  H 21  S   -0.011517  -0.030595   0.037638  -0.027707   0.134459
   98  H 21  S    0.001816  -0.006164   0.009278  -0.011840   0.080343

                     16         17         18         19         20
                   -0.5754    -0.5164    -0.5047    -0.4749    -0.4467
                     A          A          A          A          A   
    1  C  1  S    0.055951   0.003438  -0.013107  -0.000938  -0.006295
    2  C  1  S   -0.051853  -0.003041   0.011066   0.000711   0.004643
    3  C  1  X   -0.049635  -0.003709   0.037648   0.007664   0.107573
    4  C  1  Y   -0.074141  -0.016123   0.022274  -0.027062  -0.035715
    5  C  1  Z   -0.018278   0.003132   0.012268   0.111856  -0.086505
    6  C  1  S   -0.207299  -0.016267   0.060903   0.004933   0.030832
    7  C  1  X   -0.009107  -0.000044   0.019816   0.004555   0.074814
    8  C  1  Y   -0.036748  -0.008744   0.008141  -0.018522  -0.031170
    9  C  1  Z   -0.009565   0.001751   0.006095   0.075157  -0.063101
   10  H  2  S    0.100941   0.020700  -0.004890   0.092467  -0.003827
   11  H  2  S    0.042778   0.012567   0.004456   0.073651   0.001244
   12  H  3  S   -0.059997  -0.003933   0.020817   0.058644  -0.053047
   13  H  3  S   -0.030040  -0.002172   0.012379   0.048993  -0.046681
   14  C  4  S   -0.104919  -0.010103   0.021886   0.001977   0.009447
   15  C  4  S    0.094286   0.008452  -0.018392  -0.001614  -0.009398
   16  C  4  X    0.023766   0.015550  -0.027920   0.001425   0.021812
   17  C  4  Y   -0.103072  -0.021283  -0.011126  -0.051497  -0.096396
   18  C  4  Z   -0.027172   0.011195   0.013959   0.185198  -0.114757
   19  C  4  S    0.394599   0.045192  -0.091588  -0.008754  -0.025306
   20  C  4  X    0.000996   0.007774  -0.022863   0.001641   0.012031
   21  C  4  Y   -0.044934  -0.009408  -0.015365  -0.037932  -0.066966
   22  C  4  Z   -0.011278   0.009888   0.007630   0.131841  -0.087320
   23  C  5  S    0.091337   0.010224   0.001118   0.001098   0.003150
   24  C  5  S   -0.082042  -0.009452  -0.000095  -0.001017  -0.001335
   25  C  5  X    0.035660  -0.011445  -0.021004   0.008331  -0.141652
   26  C  5  Y   -0.086197  -0.009491  -0.077982  -0.065014  -0.054822
   27  C  5  Z   -0.018229   0.031818   0.006604   0.206880  -0.049848
   28  C  5  S   -0.342246  -0.036971  -0.019681  -0.003666  -0.023076
   29  C  5  X   -0.000829  -0.017350   0.008713   0.007106  -0.093094
   30  C  5  Y   -0.036544  -0.002682  -0.047558  -0.049264  -0.033066
   31  C  5  Z   -0.007054   0.017692   0.004112   0.150380  -0.036314
   32  C  6  S   -0.018141  -0.001216  -0.037614  -0.000814  -0.005479
   33  C  6  S    0.016286   0.000929   0.033518   0.000285   0.004113
   34  C  6  X   -0.054977  -0.021835   0.127685   0.020356   0.134702
   35  C  6  Y   -0.031596   0.026227  -0.133400  -0.067987   0.072824
   36  C  6  Z    0.017488   0.073516   0.008047   0.170703   0.049240
   37  C  6  S    0.070906  -0.000188   0.161779   0.000477   0.016714
   38  C  6  X   -0.010044  -0.008288   0.076927   0.011299   0.092080
   39  C  6  Y   -0.018695   0.004347  -0.071302  -0.047114   0.055518
   40  C  6  Z    0.013306   0.053129   0.011930   0.126507   0.045303
   41  C  7  S    0.074891  -0.031551  -0.042295  -0.000431  -0.019274
   42  C  7  S   -0.089937   0.039066   0.055609  -0.000924   0.022814
   43  C  7  X   -0.046395  -0.085363  -0.038189   0.008188  -0.138544
   44  C  7  Y    0.014242  -0.131196   0.081056  -0.030458  -0.034265
   45  C  7  Z    0.065943  -0.104247   0.204414  -0.050820  -0.085452
   46  C  7  S   -0.204856   0.094219   0.135760   0.002462   0.066572
   47  C  7  X   -0.030088  -0.093545  -0.015538   0.017635  -0.051276
   48  C  7  Y    0.004453  -0.073931   0.036738  -0.012210   0.013022
   49  C  7  Z    0.035453  -0.031090   0.120686  -0.022807  -0.041787
   50  N  8  S   -0.019526   0.001651  -0.004148  -0.005582  -0.009082
   51  N  8  S    0.017351  -0.000638  -0.000085   0.004775   0.006271
   52  N  8  X   -0.069081  -0.227705  -0.102614   0.119503   0.147757
   53  N  8  Y   -0.046210  -0.086403  -0.062724   0.063814   0.125718
   54  N  8  Z   -0.137004   0.269271  -0.100118   0.019534   0.087769
   55  N  8  S    0.077567  -0.006730   0.027695   0.025718   0.048759
   56  N  8  X   -0.051630  -0.175227  -0.083879   0.095098   0.113619
   57  N  8  Y   -0.031025  -0.069676  -0.046033   0.053007   0.109549
   58  N  8  Z   -0.098148   0.214558  -0.080422   0.015106   0.079850
   59  N  9  S   -0.030060   0.048778   0.029058  -0.005734   0.013887
   60  N  9  S    0.028641  -0.041434  -0.018720   0.003208  -0.012943
   61  N  9  X   -0.051195   0.016707   0.252433  -0.040497   0.054376
   62  N  9  Y   -0.008013  -0.029979   0.052158  -0.010219   0.012833
   63  N  9  Z    0.005856  -0.026089  -0.017151   0.007065  -0.039615
   64  N  9  S    0.100916  -0.205219  -0.142668   0.031372  -0.048312
   65  N  9  X   -0.029599   0.007907   0.153637  -0.026015   0.038326
   66  N  9  Y   -0.005382  -0.019394   0.042836  -0.008723   0.008594
   67  N  9  Z   -0.000555  -0.001738   0.010464   0.001318  -0.026250
   68  H 10  S    0.099319   0.004566  -0.019859  -0.094819   0.080876
   69  H 10  S    0.041659   0.001159  -0.007102  -0.075133   0.066731
   70  N 11  S   -0.031195  -0.007807   0.040691   0.014781   0.018711
   71  N 11  S    0.025921   0.001151  -0.034596  -0.012638  -0.014206
   72  N 11  X    0.085732   0.086869  -0.145477   0.005167   0.065625
   73  N 11  Y    0.023792   0.003996   0.021974  -0.007595   0.157362
   74  N 11  Z    0.081880   0.057805   0.080851   0.062648   0.146388
   75  N 11  S    0.128643   0.060049  -0.170561  -0.063185  -0.092975
   76  N 11  X    0.058882   0.061744  -0.124088   0.013023   0.068712
   77  N 11  Y    0.008597  -0.006503   0.027780  -0.006482   0.142477
   78  N 11  Z    0.060726   0.047789   0.071824   0.050847   0.126981
   79  H 12  S   -0.083116   0.007578  -0.011701   0.103397  -0.042683
   80  H 12  S   -0.032639   0.011860  -0.008306   0.081769  -0.028453
   81  H 13  S   -0.088988  -0.022261  -0.036302  -0.106985  -0.004676
   82  H 13  S   -0.037104  -0.016024  -0.027930  -0.079783  -0.003548
   83  H 14  S    0.008607  -0.050782   0.045344  -0.081271  -0.034316
   84  H 14  S    0.008854  -0.046745   0.021208  -0.056855  -0.015347
   85  H 15  S    0.027657   0.011555   0.095365   0.093063  -0.008863
   86  H 15  S    0.016239   0.006175   0.061307   0.072994  -0.009626
   87  H 16  S    0.040229  -0.235391  -0.004029   0.054477   0.055931
   88  H 16  S    0.030749  -0.179144  -0.002292   0.033523   0.040032
   89  H 17  S    0.083323   0.104649   0.090707  -0.089506  -0.141166
   90  H 17  S    0.059462   0.072107   0.062168  -0.072671  -0.130458
   91  H 18  S    0.050746  -0.030976  -0.174385   0.026784  -0.047672
   92  H 18  S    0.037047  -0.017385  -0.138758   0.018953  -0.050728
   93  H 19  S   -0.059953  -0.010683   0.014039  -0.055684   0.021137
   94  H 19  S   -0.030034  -0.007752   0.006764  -0.047535   0.016973
   95  H 20  S   -0.038163  -0.000002   0.019675   0.002583   0.081554
   96  H 20  S   -0.015043   0.000989   0.010169   0.001774   0.065843
   97  H 21  S    0.068092   0.036379   0.023173   0.026128   0.123670
   98  H 21  S    0.039986   0.020194   0.006515   0.023314   0.097004

                     21         22         23         24         25
                   -0.4329    -0.4261    -0.4080    -0.3807    -0.3727
                     A          A          A          A          A   
    1  C  1  S    0.003872  -0.005950  -0.001240   0.000628  -0.008225
    2  C  1  S   -0.002480   0.003805   0.001367  -0.001480   0.009548
    3  C  1  X    0.029948   0.142879  -0.152171  -0.014367  -0.158984
    4  C  1  Y   -0.141160  -0.043794   0.103049   0.218638  -0.120834
    5  C  1  Z    0.075462   0.115678   0.175020  -0.065522  -0.116552
    6  C  1  S   -0.028531   0.037042   0.005933   0.004281   0.020508
    7  C  1  X    0.025733   0.098496  -0.107610  -0.008208  -0.115847
    8  C  1  Y   -0.098105  -0.041809   0.077137   0.165888  -0.087677
    9  C  1  Z    0.057950   0.085754   0.136026  -0.056420  -0.092383
   10  H  2  S    0.088110   0.077059   0.008756   0.022987  -0.033785
   11  H  2  S    0.067060   0.068009  -0.001742   0.016997  -0.030863
   12  H  3  S    0.010417   0.066333   0.133259   0.011714  -0.104824
   13  H  3  S    0.010770   0.056007   0.112974   0.013474  -0.104396
   14  C  4  S   -0.008150   0.019248  -0.016552  -0.007256  -0.006681
   15  C  4  S    0.006443  -0.017696   0.014066   0.004701   0.006645
   16  C  4  X    0.111730  -0.047034  -0.043679  -0.116407   0.189926
   17  C  4  Y   -0.096030  -0.123843   0.082266  -0.050653   0.111546
   18  C  4  Z    0.081188   0.080621   0.099835  -0.013455   0.035013
   19  C  4  S    0.041776  -0.073464   0.075184   0.047050   0.025837
   20  C  4  X    0.086945  -0.033656  -0.048910  -0.090118   0.127629
   21  C  4  Y   -0.065840  -0.095335   0.064646  -0.030625   0.088146
   22  C  4  Z    0.066311   0.063458   0.081233  -0.009213   0.027398
   23  C  5  S    0.002466  -0.015585   0.025790   0.004307   0.019397
   24  C  5  S   -0.003091   0.013468  -0.017802   0.000338  -0.014569
   25  C  5  X   -0.095274  -0.080555   0.076076  -0.033642  -0.017492
   26  C  5  Y    0.084669  -0.086199  -0.047742  -0.179141   0.073892
   27  C  5  Z    0.033800  -0.040854  -0.098740   0.070218   0.106106
   28  C  5  S    0.005246   0.052395  -0.140988  -0.051168  -0.103946
   29  C  5  X   -0.067308  -0.052818   0.048574  -0.024623  -0.008367
   30  C  5  Y    0.057293  -0.060179  -0.015956  -0.127331   0.067808
   31  C  5  Z    0.024047  -0.025688  -0.075089   0.071887   0.096467
   32  C  6  S   -0.003505   0.004025  -0.007663  -0.006673  -0.024354
   33  C  6  S    0.006408  -0.004436   0.003940   0.008985   0.017036
   34  C  6  X   -0.101733   0.154828  -0.005843   0.008487   0.005734
   35  C  6  Y    0.183136   0.040116   0.013701   0.166857  -0.082475
   36  C  6  Z   -0.053682  -0.132724  -0.142024   0.080360  -0.037566
   37  C  6  S   -0.007057  -0.005185   0.051570   0.023273   0.143644
   38  C  6  X   -0.063780   0.105837   0.005201   0.029958   0.017551
   39  C  6  Y    0.124159   0.041920   0.023565   0.125503  -0.035777
   40  C  6  Z   -0.049717  -0.114669  -0.108373   0.050951  -0.033518
   41  C  7  S   -0.020565   0.007976   0.000527  -0.012784  -0.008552
   42  C  7  S    0.029144  -0.012844   0.000313   0.016108   0.009230
   43  C  7  X   -0.117374   0.104694  -0.153400  -0.046894  -0.084176
   44  C  7  Y    0.003840   0.116222  -0.031476   0.111785   0.185283
   45  C  7  Z    0.113781  -0.090559  -0.039033  -0.010299  -0.103350
   46  C  7  S    0.073344  -0.033456  -0.005147   0.042149   0.022736
   47  C  7  X   -0.028904   0.021827  -0.082212  -0.024618  -0.079635
   48  C  7  Y    0.006268   0.081844   0.001944   0.096590   0.168327
   49  C  7  Z    0.038286  -0.059028  -0.024829  -0.048079  -0.099830
   50  N  8  S    0.005845   0.011876  -0.004136   0.019396   0.024227
   51  N  8  S   -0.005114  -0.010019   0.002478  -0.016757  -0.023003
   52  N  8  X   -0.000217  -0.105413   0.047534  -0.062542  -0.090286
   53  N  8  Y   -0.006048  -0.001811   0.055411   0.065222   0.126889
   54  N  8  Z   -0.061019   0.014682   0.057709  -0.051367  -0.002076
   55  N  8  S   -0.030726  -0.052514   0.023857  -0.089849  -0.100003
   56  N  8  X   -0.003433  -0.088302   0.039648  -0.062793  -0.085828
   57  N  8  Y   -0.008923   0.004183   0.048766   0.067623   0.130992
   58  N  8  Z   -0.055522   0.015075   0.058687  -0.052745  -0.000781
   59  N  9  S    0.001176   0.002084   0.011038   0.002109   0.015307
   60  N  9  S    0.001681  -0.004213  -0.009056  -0.002024  -0.013578
   61  N  9  X    0.193991  -0.150049   0.061275   0.034093  -0.029248
   62  N  9  Y    0.017101   0.032269   0.008110   0.055854   0.107595
   63  N  9  Z   -0.051459   0.024642  -0.047499  -0.050223  -0.069456
   64  N  9  S   -0.002312  -0.006726  -0.043418   0.000965  -0.061523
   65  N  9  X    0.134207  -0.103488   0.046327   0.025471  -0.022456
   66  N  9  Y    0.008440   0.029850   0.006457   0.044596   0.096800
   67  N  9  Z   -0.037295   0.013776  -0.033154  -0.047284  -0.060088
   68  H 10  S   -0.020534  -0.034557  -0.067006   0.025447  -0.045715
   69  H 10  S   -0.018003  -0.019737  -0.060473   0.016983  -0.042683
   70  N 11  S    0.002609  -0.021927  -0.003360  -0.021275  -0.002103
   71  N 11  S   -0.000776   0.020605   0.002889   0.018966   0.003813
   72  N 11  X    0.142939  -0.153269   0.098108   0.066507  -0.033605
   73  N 11  Y   -0.051543   0.107741   0.128109  -0.017627   0.123828
   74  N 11  Z   -0.121894  -0.057719   0.090891  -0.160126  -0.047995
   75  N 11  S   -0.027562   0.094303   0.009230   0.088198  -0.003792
   76  N 11  X    0.132337  -0.144909   0.083146   0.063940  -0.041756
   77  N 11  Y   -0.036226   0.095518   0.114731  -0.015890   0.124077
   78  N 11  Z   -0.100954  -0.052942   0.080061  -0.142558  -0.044577
   79  H 12  S    0.035731  -0.031124  -0.089442  -0.003428   0.073257
   80  H 12  S    0.027840  -0.031698  -0.058809  -0.014819   0.070227
   81  H 13  S    0.028777  -0.012809  -0.007779  -0.128500  -0.019642
   82  H 13  S    0.020553  -0.014545  -0.000820  -0.106964  -0.005430
   83  H 14  S   -0.001347   0.064306   0.095795  -0.091212   0.062104
   84  H 14  S   -0.005474   0.039071   0.082971  -0.102172   0.034096
   85  H 15  S   -0.112078  -0.064880  -0.056920  -0.054472   0.052482
   86  H 15  S   -0.091442  -0.049048  -0.050115  -0.057560   0.038694
   87  H 16  S    0.031466  -0.062321   0.014199   0.005430  -0.017648
   88  H 16  S    0.035240  -0.046862   0.021069   0.005754  -0.009430
   89  H 17  S    0.003629   0.066913  -0.059097   0.025545   0.018667
   90  H 17  S   -0.003168   0.065751  -0.061848   0.023404   0.016055
   91  H 18  S   -0.124897   0.091604  -0.046983  -0.027977   0.000254
   92  H 18  S   -0.122730   0.096707  -0.051661  -0.030304   0.001495
   93  H 19  S   -0.104136  -0.066962  -0.019107   0.148460  -0.004897
   94  H 19  S   -0.086820  -0.057603  -0.018575   0.136563  -0.012462
   95  H 20  S    0.053401   0.086360  -0.141632  -0.085700  -0.029833
   96  H 20  S    0.047919   0.073749  -0.131673  -0.084934  -0.033788
   97  H 21  S   -0.091972   0.011034   0.103118  -0.100435   0.011407
   98  H 21  S   -0.074965   0.009679   0.085195  -0.096931   0.017666

                     26         27         28         29         30
                   -0.3506    -0.3333    -0.3304    -0.3218    -0.2366
                     A          A          A          A          A   
    1  C  1  S   -0.002570  -0.018283   0.018352   0.000459  -0.002926
    2  C  1  S    0.002648   0.018829  -0.016568  -0.000468   0.002902
    3  C  1  X   -0.032566  -0.035923   0.231423  -0.004328  -0.018655
    4  C  1  Y   -0.051940  -0.193812  -0.018569   0.042741  -0.000945
    5  C  1  Z    0.200610  -0.057874  -0.008587  -0.133148  -0.004519
    6  C  1  S    0.009160   0.071647  -0.075623  -0.001568   0.014109
    7  C  1  X   -0.023679  -0.009150   0.187309  -0.004316  -0.015882
    8  C  1  Y   -0.041624  -0.153914  -0.016321   0.032561  -0.001697
    9  C  1  Z    0.163874  -0.046561  -0.007859  -0.098277  -0.005022
   10  H  2  S   -0.073673  -0.109349  -0.016857   0.172975   0.004671
   11  H  2  S   -0.068223  -0.134252  -0.018381   0.203881  -0.005551
   12  H  3  S    0.129604  -0.086360  -0.025156  -0.097196  -0.000548
   13  H  3  S    0.127389  -0.112710  -0.017328  -0.123725  -0.001292
   14  C  4  S   -0.001910  -0.015497  -0.003754   0.000335   0.004663
   15  C  4  S    0.002190   0.018224   0.002321  -0.000076  -0.001995
   16  C  4  X    0.026609  -0.038172  -0.240906   0.010060   0.030273
   17  C  4  Y    0.038953   0.257034   0.024634  -0.073955  -0.012841
   18  C  4  Z   -0.118899   0.080305   0.008417   0.237961   0.003389
   19  C  4  S    0.006461   0.045174   0.018648  -0.003575  -0.037093
   20  C  4  X    0.020131  -0.016229  -0.177254   0.009310   0.037209
   21  C  4  Y    0.032429   0.205246   0.020893  -0.059937  -0.020539
   22  C  4  Z   -0.100783   0.063527   0.007564   0.184479   0.011229
   23  C  5  S    0.000664  -0.024803  -0.009758  -0.001045  -0.008105
   24  C  5  S    0.001036   0.024448   0.006940   0.001072   0.008655
   25  C  5  X   -0.043499   0.054203   0.280260  -0.012415  -0.048005
   26  C  5  Y    0.031605  -0.242617   0.021010   0.067754  -0.014059
   27  C  5  Z   -0.153276  -0.073658  -0.000716  -0.210764   0.011492
   28  C  5  S   -0.012316   0.102639   0.048270   0.005760   0.030488
   29  C  5  X   -0.022969   0.039841   0.207256  -0.002752  -0.012830
   30  C  5  Y    0.032841  -0.201945   0.013707   0.052919  -0.008631
   31  C  5  Z   -0.131124  -0.059202  -0.001876  -0.164077  -0.019584
   32  C  6  S   -0.012332  -0.011055   0.019946  -0.001594  -0.003087
   33  C  6  S    0.011645   0.013033  -0.018790   0.001381   0.005843
   34  C  6  X    0.005398   0.084799  -0.195893  -0.003325   0.026312
   35  C  6  Y   -0.011153   0.122026  -0.112734  -0.021199   0.030844
   36  C  6  Z    0.221398   0.038461  -0.028122   0.086180  -0.071606
   37  C  6  S    0.059115   0.034977  -0.083541   0.009607   0.013414
   38  C  6  X    0.017804   0.051103  -0.139271  -0.000760   0.056435
   39  C  6  Y   -0.008678   0.092048  -0.093587  -0.013605   0.029367
   40  C  6  Z    0.179478   0.029235  -0.025974   0.060714  -0.036312
   41  C  7  S   -0.012155  -0.000871   0.004885  -0.002579  -0.025205
   42  C  7  S    0.013657   0.001887  -0.004231   0.002550   0.039422
   43  C  7  X   -0.005366   0.025648  -0.143925  -0.000963   0.027005
   44  C  7  Y    0.104508  -0.036359   0.054306   0.014401  -0.080378
   45  C  7  Z   -0.039746   0.024060  -0.040838  -0.010163   0.044974
   46  C  7  S    0.044005   0.001281  -0.031576   0.010147   0.011777
   47  C  7  X   -0.015086   0.023507  -0.110963  -0.005093  -0.049102
   48  C  7  Y    0.093209  -0.033398   0.061532   0.015310  -0.127514
   49  C  7  Z   -0.039227   0.022119  -0.060676  -0.000395   0.000276
   50  N  8  S    0.015772  -0.005257   0.017180   0.002606   0.052800
   51  N  8  S   -0.014891   0.005107  -0.015807  -0.002864  -0.044263
   52  N  8  X   -0.050508   0.019401  -0.042141  -0.007722  -0.126615
   53  N  8  Y    0.098834  -0.025530   0.101919   0.034097   0.278585
   54  N  8  Z   -0.037994  -0.005146  -0.012946  -0.008939  -0.087449
   55  N  8  S   -0.062962   0.021768  -0.074903  -0.006655  -0.267072
   56  N  8  X   -0.056944   0.017389  -0.041672  -0.011733  -0.159560
   57  N  8  Y    0.108502  -0.026067   0.107309   0.039111   0.345595
   58  N  8  Z   -0.042186  -0.005385  -0.013462  -0.009023  -0.108877
   59  N  9  S    0.005312  -0.004646   0.012966   0.002034   0.054473
   60  N  9  S   -0.004342   0.003850  -0.010213  -0.001328  -0.044579
   61  N  9  X   -0.018727   0.010169   0.024974  -0.006871  -0.030603
   62  N  9  Y    0.058366  -0.027895   0.046967   0.009044  -0.215362
   63  N  9  Z   -0.032876   0.018380  -0.091400  -0.006274  -0.090978
   64  N  9  S   -0.024466   0.020856  -0.052272  -0.013234  -0.255480
   65  N  9  X   -0.018720   0.008816   0.020949  -0.007849  -0.000911
   66  N  9  Y    0.052407  -0.027817   0.043916   0.008648  -0.228332
   67  N  9  Z   -0.030591   0.016152  -0.081425  -0.004767  -0.090050
   68  H 10  S    0.072149  -0.120353  -0.009189  -0.165952  -0.001270
   69  H 10  S    0.063634  -0.148032  -0.008702  -0.197349   0.010076
   70  N 11  S    0.000455  -0.008223  -0.019680   0.001298   0.009904
   71  N 11  S   -0.001267   0.007810   0.012344  -0.002264  -0.020060
   72  N 11  X   -0.002461   0.020111   0.113196   0.001060  -0.065849
   73  N 11  Y   -0.053184  -0.025928  -0.002416  -0.024284  -0.181876
   74  N 11  Z   -0.049718  -0.017482  -0.003805   0.010761   0.142897
   75  N 11  S    0.002877   0.033663   0.111176   0.000707   0.038768
   76  N 11  X    0.000910   0.014280   0.106963   0.001634  -0.099660
   77  N 11  Y   -0.049486  -0.027708  -0.014207  -0.023102  -0.237166
   78  N 11  Z   -0.040334  -0.013415  -0.005928   0.012551   0.168074
   79  H 12  S   -0.101763  -0.104158   0.013607  -0.149037   0.017944
   80  H 12  S   -0.102411  -0.138630   0.013184  -0.182166   0.035544
   81  H 13  S    0.088251  -0.097284   0.008579   0.155077  -0.009974
   82  H 13  S    0.079500  -0.123671   0.008660   0.182024  -0.046546
   83  H 14  S   -0.150200  -0.055128   0.029715  -0.068546   0.054193
   84  H 14  S   -0.166314  -0.075212   0.030801  -0.097325   0.037822
   85  H 15  S    0.114058  -0.049681   0.027213   0.063518  -0.069949
   86  H 15  S    0.104149  -0.069860   0.033903   0.087578  -0.098849
   87  H 16  S    0.010409   0.006089   0.012486   0.007014   0.059898
   88  H 16  S   -0.003690   0.003674   0.017186   0.002682   0.064860
   89  H 17  S    0.010497  -0.003709  -0.005755  -0.002911   0.018818
   90  H 17  S    0.010414  -0.003917  -0.009323  -0.003637   0.034423
   91  H 18  S    0.004216  -0.001759  -0.022678   0.003003   0.067935
   92  H 18  S    0.004304  -0.002405  -0.033821   0.002914   0.086447
   93  H 19  S   -0.124981  -0.075574  -0.027566   0.103541   0.005443
   94  H 19  S   -0.126346  -0.100414  -0.020750   0.131740   0.005374
   95  H 20  S   -0.021818   0.085143   0.149484  -0.004713  -0.011222
   96  H 20  S   -0.024547   0.077523   0.171102  -0.004565  -0.018252
   97  H 21  S   -0.062318  -0.020254   0.013038  -0.009291   0.023382
   98  H 21  S   -0.073593  -0.034934   0.013428  -0.022681  -0.010839

                     31         32         33         34         35
[...]
    4             0.309297   0.116712   0.070803   0.078385   0.326609
    5             0.297800   0.143621   0.203552   0.224050   0.087079
    6             0.289036   0.264099   0.251988   0.210851   0.066409
    7             0.055035   0.198703   0.086834   0.150154   0.416540
    8             0.014755   0.043341   0.043983   0.067809   0.225285
    9             0.068672   0.388402   0.028891   0.063404   0.136529
   10             0.049101   0.000132   0.016926   0.000384   0.011088
   11             0.108880   0.321426   0.180796   0.203572   0.177456
   12             0.000368   0.013236   0.047327   0.087088   0.001709
   13             0.000375   0.014727   0.075784   0.040394   0.024841
   14             0.055749   0.014478   0.100328   0.033319   0.003499
   15             0.028544   0.000992   0.076799   0.044445   0.048479
   16             0.000623   0.027660   0.001723   0.000028   0.003803
   17             0.000227   0.024007   0.016255   0.000448   0.009901
   18             0.035991   0.221356   0.013378   0.015821   0.004234
   19             0.016334   0.000036   0.160597   0.045917   0.069626
   20             0.199163   0.038755   0.005210   0.181198   0.012657
   21             0.004809   0.017304   0.091747   0.007189   0.001544

                     26         27         28         29         30

                  2.000000   2.000000   2.000000   2.000000   2.000000

    1             0.333301   0.268295   0.286064   0.098505   0.007050
    2             0.036407   0.196248   0.000148   0.178504   0.000196
    3             0.169232   0.018135   0.052428   0.071887   0.000056
    4             0.176437   0.394448   0.388953   0.300125   0.015558
    5             0.137416   0.330976   0.406000   0.311120   0.059136
    6             0.352658   0.186191   0.121293   0.111035   0.018085
    7             0.031832   0.086306   0.130300   0.043915   0.051455
    8             0.004415   0.079784   0.143044   0.021316   0.969090
    9             0.009275   0.042009   0.069287   0.023925   0.265145
   10             0.082974   0.040945   0.078139   0.221619   0.000006
   11             0.067225   0.000879   0.072783   0.007523   0.542237
   12             0.046894   0.052153   0.032229   0.238531   0.000511
   13             0.068359   0.136498   0.000361   0.164320   0.002077
   14             0.172620   0.024373   0.001296   0.088099   0.016368
   15             0.151744   0.025083   0.000185   0.048674   0.019317
   16             0.000227   0.000436   0.000185   0.000747   0.009303
   17             0.001041   0.001530   0.000289   0.000173   0.000408
   18             0.001240   0.000183   0.002697   0.000844   0.018786
   19             0.113850   0.103214   0.000606   0.062163   0.000064
   20             0.007322   0.012020   0.203013   0.005532   0.003524
   21             0.035530   0.000293   0.010700   0.001442   0.001630

                     31         32

                  2.000000   2.000000

    1             0.000041   0.002236
    2             0.000035   0.000059
    3             0.000002   0.000064
    4             0.000458   0.010377
    5             0.003032   0.047937
    6             0.009967   0.022698
    7             0.124297   0.059563
    8             0.212268   0.165531
    9             1.434409   0.982918
   10             0.000045   0.000145
   11             0.114396   0.668753
   12             0.000329   0.002444
   13             0.000784   0.001546
   14             0.002994   0.013492
   15             0.007054   0.011250
   16             0.020401   0.002669
   17             0.002368   0.000926
   18             0.055465   0.005091
   19             0.000019   0.000053
   20             0.000064   0.001661
   21             0.011570   0.000587

               ----- POPULATIONS IN EACH AO -----
                             MULLIKEN      LOWDIN
              1  C  1  S      1.98641     1.97432
              2  C  1  S      0.36823     0.42195
              3  C  1  X      0.55757     0.52432
              4  C  1  Y      0.55469     0.52012
              5  C  1  Z      0.56439     0.52454
              6  C  1  S      1.10058     0.58052
              7  C  1  X      0.44972     0.55867
              8  C  1  Y      0.45356     0.56706
              9  C  1  Z      0.51284     0.58682
             10  H  2  S      0.47250     0.47815
             11  H  2  S      0.33992     0.43971
             12  H  3  S      0.47074     0.47065
             13  H  3  S      0.34095     0.44131
             14  C  4  S      1.98743     1.97405
             15  C  4  S      0.36166     0.41804
             16  C  4  X      0.54616     0.52306
             17  C  4  Y      0.55331     0.52130
             18  C  4  Z      0.56578     0.52643
             19  C  4  S      1.08794     0.56273
             20  C  4  X      0.34721     0.51498
             21  C  4  Y      0.43381     0.55196
             22  C  4  Z      0.50371     0.57022
             23  C  5  S      1.98779     1.97427
             24  C  5  S      0.36335     0.42848
             25  C  5  X      0.55128     0.52996
             26  C  5  Y      0.55128     0.52098
             27  C  5  Z      0.56235     0.52415
             28  C  5  S      1.08935     0.56641
             29  C  5  X      0.31729     0.50273
             30  C  5  Y      0.42645     0.55340
             31  C  5  Z      0.50858     0.57116
             32  C  6  S      1.98692     1.97373
             33  C  6  S      0.37019     0.42058
             34  C  6  X      0.50180     0.48117
             35  C  6  Y      0.55347     0.51939
             36  C  6  Z      0.58829     0.54934
             37  C  6  S      1.02329     0.56035
             38  C  6  X      0.26018     0.44798
             39  C  6  Y      0.40686     0.53825
             40  C  6  Z      0.51021     0.56847
             41  C  7  S      1.98345     1.97292
             42  C  7  S      0.43194     0.41277
             43  C  7  X      0.63655     0.60009
             44  C  7  Y      0.45823     0.43186
             45  C  7  Z      0.54810     0.51190
             46  C  7  S      0.46268     0.48760
             47  C  7  X      0.03642     0.41519
             48  C  7  Y      0.52669     0.54846
             49  C  7  Z      0.17736     0.44290
             50  N  8  S      1.98590     1.97565
             51  N  8  S      0.37058     0.47162
             52  N  8  X      0.59887     0.56471
             53  N  8  Y      0.75671     0.76317
             54  N  8  Z      0.57587     0.54762
             55  N  8  S      1.28285     0.74339
             56  N  8  X      0.63468     0.67279
             57  N  8  Y      0.97967     0.96815
             58  N  8  Z      0.57150     0.64351
             59  N  9  S      1.98811     1.97930
             60  N  9  S      0.39243     0.51975
             61  N  9  X      0.56463     0.53089
             62  N  9  Y      0.58842     0.58335
             63  N  9  Z      0.66971     0.65421
             64  N  9  S      1.42503     0.86248
             65  N  9  X      0.46144     0.60261
             66  N  9  Y      0.76578     0.78810
             67  N  9  Z      0.78301     0.86798
             68  H 10  S      0.47261     0.47846
             69  H 10  S      0.34280     0.44127
             70  N 11  S      1.98635     1.97558
             71  N 11  S      0.36664     0.46925
             72  N 11  X      0.58400     0.56536
             73  N 11  Y      0.75490     0.76187
             74  N 11  Z      0.58520     0.55485
             75  N 11  S      1.29119     0.72311
             76  N 11  X      0.58983     0.64820
             77  N 11  Y      0.91936     0.92134
             78  N 11  Z      0.60017     0.63911
             79  H 12  S      0.47132     0.47675
             80  H 12  S      0.33595     0.43742
             81  H 13  S      0.47511     0.47986
             82  H 13  S      0.35197     0.44877
             83  H 14  S      0.47303     0.47966
             84  H 14  S      0.32172     0.43381
             85  H 15  S      0.47586     0.48160
             86  H 15  S      0.32662     0.43549
             87  H 16  S      0.45078     0.44832
             88  H 16  S      0.24479     0.36152
             89  H 17  S      0.45258     0.45057
             90  H 17  S      0.25307     0.36140
             91  H 18  S      0.46507     0.45913
             92  H 18  S      0.31917     0.39635
             93  H 19  S      0.47122     0.47120
             94  H 19  S      0.34438     0.44296
             95  H 20  S      0.47140     0.47083
             96  H 20  S      0.34094     0.44028
             97  H 21  S      0.44729     0.45070
             98  H 21  S      0.24005     0.35021

          ----- MULLIKEN ATOMIC OVERLAP POPULATIONS -----
          (OFF-DIAGONAL ELEMENTS NEED TO BE MULTIPLIED BY 2)

             1           2           3           4           5

    1    5.3079651
    2   -0.0408683   0.5576758
    3    0.3676615  -0.0027390   0.5406110
    4    0.2816142   0.3709160  -0.0421522   5.3819612
    5   -0.0612204  -0.0456401  -0.0021599   0.2309591   5.4819033
    6    0.0030732  -0.0014999  -0.0000127  -0.0529203   0.2497807
    7    0.0000000   0.0000009   0.0000000   0.0000119  -0.0002904
    8    0.0000001  -0.0000003  -0.0000000   0.0000016  -0.0009528
    9   -0.0000000  -0.0000000  -0.0000000   0.0000001  -0.0000280
   10   -0.0409929  -0.0320766   0.0036023   0.3703125  -0.0464607
   11   -0.0000240  -0.0000076   0.0000000   0.0024664  -0.0558829
   12   -0.0012952  -0.0032383   0.0036150  -0.0397462   0.3643439
   13   -0.0012605   0.0040251  -0.0002343  -0.0428473   0.3597597
   14   -0.0000674  -0.0002209   0.0000032   0.0024085  -0.0599728
   15   -0.0000677   0.0041856   0.0000004   0.0020362  -0.0600509
   16   -0.0000070   0.0000034   0.0000001  -0.0000059   0.0015600
   17    0.0000000   0.0000000  -0.0000000   0.0000002   0.0000060
   18    0.0000000   0.0000000   0.0000000  -0.0000000   0.0000032
   19    0.3669555   0.0036076  -0.0290077  -0.0423392  -0.0024350
   20    0.3665202  -0.0017021  -0.0274934  -0.0356205   0.0032364
   21    0.0000005   0.0000003  -0.0000000  -0.0000469   0.0012669

             6           7           8           9          10

    6    5.1858410
    7   -0.0502149   4.4524264
    8   -0.0027707   0.1989460   7.0817064
    9    0.0007959   0.5576820  -0.0769933   6.9196368
   10   -0.0012532   0.0000018  -0.0000028   0.0000000   0.5619595
   11    0.2556271   0.2415010  -0.0844658  -0.0739621  -0.0000055
   12   -0.0398326  -0.0000208   0.0000135  -0.0000005   0.0038859
   13   -0.0436321   0.0006896  -0.0001990  -0.0000041  -0.0029422
   14    0.3620196  -0.0035879   0.0114166   0.0001310   0.0040376
   15    0.3684116   0.0030667   0.0001710  -0.0000048  -0.0002215
   16   -0.0011225  -0.0175602   0.3069622   0.0022017   0.0000072
   17    0.0000305  -0.0299804   0.3285466  -0.0012234  -0.0000001
   18   -0.0001274  -0.0629280  -0.0095864   0.3046209   0.0000000
   19   -0.0000151  -0.0000000  -0.0000001  -0.0000000  -0.0027865
   20   -0.0000690   0.0000000  -0.0000000   0.0000000  -0.0016558
   21   -0.0309044  -0.0283120   0.0038291   0.0057023   0.0000008

            11          12          13          14          15

   11    7.1313945
   12    0.0019146   0.5469000
   13    0.0008022  -0.0307981   0.5720005
   14   -0.0368775   0.0037660  -0.0030468   0.5345584
   15   -0.0321305  -0.0025786   0.0039265  -0.0219200   0.5420377
   16    0.0003054  -0.0000524   0.0069560  -0.0007370   0.0001064
   17    0.0029735  -0.0000003  -0.0000066  -0.0000224  -0.0000003
   18    0.0054885  -0.0000000   0.0000005  -0.0000078   0.0000011
   19    0.0000000  -0.0002101   0.0040004   0.0000007   0.0000036
   20    0.0000001  -0.0000138  -0.0000136   0.0000023   0.0000025
   21    0.3185057   0.0006159  -0.0001009   0.0028659  -0.0044899

            16          17          18          19          20

   16    0.4211000
   17   -0.0241352   0.4253669
   18    0.0001298   0.0042058   0.5426351
   19   -0.0000011   0.0000000  -0.0000000   0.5455387
   20    0.0000000  -0.0000000  -0.0000000  -0.0277140   0.5368620
   21   -0.0001399  -0.0001152  -0.0001911   0.0000000  -0.0000000

            21

   21    0.4188528

          TOTAL MULLIKEN AND LOWDIN ATOMIC POPULATIONS
       ATOM         MULL.POP.    CHARGE          LOW.POP.     CHARGE
    1 C             6.547987   -0.547987         6.258317   -0.258317
    2 H             0.812422    0.187578         0.917865    0.082135
    3 H             0.811694    0.188306         0.911961    0.088039
    4 C             6.387009   -0.387009         6.162771   -0.162771
    5 C             6.357725   -0.357725         6.171554   -0.171554
    6 C             6.201205   -0.201205         6.059264   -0.059264
    7 C             5.261432    0.738568         5.823705    0.176295
    8 N             7.756622   -0.756622         7.350619   -0.350619
    9 N             7.638554   -0.638554         7.388688   -0.388688
   10 H             0.815410    0.184590         0.919733    0.080267
   11 N             7.677623   -0.677623         7.258687   -0.258687
   12 H             0.807268    0.192732         0.914177    0.085823
   13 H             0.827075    0.172925         0.928631    0.071369
   14 H             0.794749    0.205251         0.913471    0.086529
   15 H             0.802485    0.197515         0.917095    0.082905
   16 H             0.695571    0.304429         0.809833    0.190167
   17 H             0.705645    0.294355         0.811970    0.188030
   18 H             0.784244    0.215756         0.855479    0.144521
   19 H             0.815598    0.184402         0.914165    0.085835
   20 H             0.812341    0.187659         0.911108    0.088892
   21 H             0.687340    0.312660         0.800906    0.199094

          -------------------------------
          BOND ORDER AND VALENCE ANALYSIS     BOND ORDER THRESHOLD=0.050
          -------------------------------

                   BOND                       BOND                       BOND
  ATOM PAIR DIST  ORDER      ATOM PAIR DIST  ORDER      ATOM PAIR DIST  ORDER
    1   3  1.096  0.923        1   4  1.544  0.947        1  19  1.097  0.924
    1  20  1.096  0.925        2   4  1.098  0.911        4   5  1.543  0.914
    4  10  1.099  0.912        5   6  1.547  0.904        5  12  1.098  0.912
    5  13  1.099  0.908        6  11  1.471  0.901        6  14  1.096  0.896
    6  15  1.097  0.910        7   8  1.398  0.954        7   9  1.291  1.731
    7  11  1.392  0.965        8   9  2.417  0.089        8  16  1.014  0.843
    8  17  1.013  0.867        9  11  2.309  0.090        9  18  1.032  0.873
   11  21  1.015  0.847

                       TOTAL       BONDED        FREE
      ATOM            VALENCE     VALENCE     VALENCE
    1 C                 3.702       3.702      -0.000
    2 H                 0.915       0.915       0.000
    3 H                 0.920       0.920       0.000
    4 C                 3.661       3.661      -0.000
    5 C                 3.632       3.632      -0.000
    6 C                 3.612       3.612      -0.000
    7 C                 3.670       3.670      -0.000
    8 N                 2.822       2.822      -0.000
    9 N                 2.851       2.851      -0.000
   10 H                 0.916       0.916      -0.000
   11 N                 2.873       2.873      -0.000
   12 H                 0.918       0.918      -0.000
   13 H                 0.924       0.924       0.000
   14 H                 0.924       0.924       0.000
   15 H                 0.915       0.915       0.000
   16 H                 0.885       0.885       0.000
   17 H                 0.889       0.889      -0.000
   18 H                 0.921       0.921       0.000
   19 H                 0.921       0.921      -0.000
   20 H                 0.920       0.920       0.000
   21 H                 0.881       0.881       0.000

          ---------------------
          ELECTROSTATIC MOMENTS
          ---------------------

 POINT   1           X           Y           Z (BOHR)    CHARGE
                -3.394999   -0.173153    0.232564       -0.00 (A.U.)
         DX          DY          DZ         /D/  (DEBYE)
     2.223595    0.301306   -2.190545    3.135865
 ...... END OF PROPERTY EVALUATION ......
 CPU     0: STEP CPU TIME=     0.04 TOTAL CPU TIME=       1456.4 (     24.3 MIN)
 TOTAL WALL CLOCK TIME=       1476.0 SECONDS, CPU UTILIZATION IS    98.68%
  $VIB   
          IVIB=   0 IATOM=   0 ICOORD=   0 E=     -360.3874152580
  2.105674926E-05 3.906216722E-05 1.361025714E-05-1.386244349E-05 1.868971474E-06
  5.750319707E-07-5.080109714E-06 1.098781826E-05-1.358852004E-05-7.899316027E-06
 -1.503242434E-05 6.774202261E-06-1.731555142E-05-6.874172944E-05-2.479778506E-05
  1.431186417E-05 1.102534934E-05-4.090682916E-05-7.353945155E-06 3.737981516E-06
  3.763691163E-05-8.485740410E-05-3.390002305E-05-7.030012098E-05-4.243502202E-05
 -4.019764382E-06-3.766418159E-05-1.076363328E-06-3.450772261E-06-1.204100342E-05
 -4.058777223E-05-2.083984537E-05-7.636170035E-05-9.584237178E-06 1.599313867E-05
  4.981223733E-05 6.626043763E-06 4.370477119E-05-1.543984849E-05-4.126765002E-06
 -8.117688613E-08 1.674158820E-05 1.767083604E-05-4.840108564E-06 1.852957760E-05
 -1.204350132E-06-6.525297235E-07-1.819939304E-05 8.137485225E-05 2.310357365E-05
  6.685833887E-05 9.349596622E-05 6.128359489E-06 4.836987406E-05-4.261253310E-06
 -2.785336825E-05 1.174158170E-05-5.976959208E-06-9.377909386E-07-1.817008829E-06
  1.108518062E-05 2.473740240E-05 4.046679019E-05
  2.223594582E+00 3.013057629E-01-2.190545388E+00
 ......END OF GEOMETRY SEARCH......
 CPU     0: STEP CPU TIME=     0.00 TOTAL CPU TIME=       1456.4 (     24.3 MIN)
 TOTAL WALL CLOCK TIME=       1476.0 SECONDS, CPU UTILIZATION IS    98.68%
               804064  WORDS OF DYNAMIC MEMORY USED
 EXECUTION OF GAMESS TERMINATED NORMALLY Sat May 16 13:38:19 2020
 DDI: 263640 bytes (0.3 MB / 0 MWords) used by master data server.
Note: The following floating-point exceptions are signalling: IEEE_UNDERFLOW_FLAGNote: The following floating-point exceptions are signalling: IEEE_UNDERFLOW_FLAGNote: The following floating-point exceptions are signalling: IEEE_UNDERFLOW_FLAGNote: The following floating-point exceptions are signalling: IEEE_DENORMAL

 ----------------------------------------
 CPU timing information for all processes
 ========================================
 0: 1444.461 + 11.975 = 1456.436
 1: 1447.812 + 5.383 = 1453.195
 2: 1448.251 + 4.67 = 1452.318
 3: 1449.82 + 4.251 = 1453.333
 4: 1446.694 + 4.498 = 1451.192
 5: 1447.300 + 3.223 = 1450.524
 ----------------------------------------
 IEEE_DENORMAL
 IEEE_DENORMAL IEEE_UNDERFLOW_FLAG IEEE_DENORMALNote: The following floating-point exceptions are signalling:Note: The following floating-point exceptions are signalling: IEEE_UNDERFLOW_FLAG

 IEEE_UNDERFLOW_FLAG IEEE_DENORMAL IEEE_DENORMAL

 ddikick.x: exited gracefully.
unset echo
----- accounting info -----
Files used on the master node pietdev were:
-rwxr-xr-x 1 piet piet     1004 mei 16 13:13 /home/piet/scr/arginine_geoopt.F05*
-rw-r--r-- 1 piet piet 57344000 mei 16 13:38 /home/piet/scr/arginine_geoopt.F10
-rw-r--r-- 1 piet piet  5448576 mei 16 13:38 /home/piet/scr/arginine_geoopt.F22
-rw-r--r-- 1 piet piet  5448576 mei 16 13:38 /home/piet/scr/arginine_geoopt.F22.001
-rw-r--r-- 1 piet piet  5448576 mei 16 13:38 /home/piet/scr/arginine_geoopt.F22.002
-rw-r--r-- 1 piet piet  5448576 mei 16 13:38 /home/piet/scr/arginine_geoopt.F22.003
-rw-r--r-- 1 piet piet  5448576 mei 16 13:38 /home/piet/scr/arginine_geoopt.F22.004
-rw-r--r-- 1 piet piet  5448576 mei 16 13:38 /home/piet/scr/arginine_geoopt.F22.005
ls: No match.
ls: No match.
ls: No match.
za 16 mei 2020 13:38:22 CEST
0.108u 0.019s 24:39.09 0.0%	0+0k 0+8io 0pf+0w
