----- GAMESS execution script 'rungms' -----
This job is running on host pietdev
under operating system Linux at za 16 mei 2020 13:43:45 CEST
Available scratch disk space (Kbyte units) at beginning of the job is
Filesystem     1K-blocks     Used Available Use% Mounted on
/dev/sda2      244568380 30191656 201883668  14% /
GAMESS temporary binary files will be written to /home/piet/scr
GAMESS supplementary output files will be written to /home/piet/gamess/scr
Copying input file arginine_fukui_neu.inp to your run's scratch directory...
cp arginine_fukui_neu.inp /home/piet/scr/arginine_fukui_neu.F05
unset echo
 
Assuming a single but multicore node.
 
/home/piet/gamess/ddikick.x /home/piet/gamess/gamess.03.x arginine_fukui_neu -ddi 1 6 pietdev:cpus=6 -scr /home/piet/scr

 Distributed Data Interface kickoff program.
 Initiating 6 compute processes on 1 nodes to run the following command:
 /home/piet/gamess/gamess.03.x arginine_fukui_neu 

          ******************************************************
          *         GAMESS VERSION = 30 SEP 2019 (R2)          *
          *             FROM IOWA STATE UNIVERSITY             *
          * M.W.SCHMIDT, K.K.BALDRIDGE, J.A.BOATZ, S.T.ELBERT, *
          *   M.S.GORDON, J.H.JENSEN, S.KOSEKI, N.MATSUNAGA,   *
          *          K.A.NGUYEN, S.J.SU, T.L.WINDUS,           *
          *       TOGETHER WITH M.DUPUIS, J.A.MONTGOMERY       *
          *         J.COMPUT.CHEM.  14, 1347-1363(1993)        *
          **************** 64 BIT LINUX VERSION ****************

  SINCE 1993, STUDENTS AND POSTDOCS WORKING AT IOWA STATE UNIVERSITY
  AND ALSO IN THEIR VARIOUS JOBS AFTER LEAVING ISU HAVE MADE IMPORTANT
  CONTRIBUTIONS TO THE CODE:
     IVANA ADAMOVIC, CHRISTINE AIKENS, YURI ALEXEEV, POOJA ARORA,
     ANDREY ASADCHEV, ROB BELL, PRADIPTA BANDYOPADHYAY, JONATHAN BENTZ,
     COLLEEN BERTONI, BRETT BODE, KURT BRORSEN, CALEB CARLIN, GALINA CHABAN,
     WEI CHEN, CHEOL HO CHOI, PAUL DAY, ALBERT DEFUSCO, NUWAN DESILVA,
     TIM DUDLEY, DMITRI FEDOROV, ALEX FINDLATER, GRAHAM FLETCHER, 
     MARK FREITAG, KURT GLAESEMANN, EMILIE B GUIDEZ, ANASTASIA GUNINA, 
     DAN KEMP, SAROM SOK LEANG, GRANT MERRILL,
     NORIYUKI MINEZAWA, JONATHAN MULLIN,
     TAKESHI NAGATA, SEAN NEDD, HEATHER NETZLOFF, BOSILJKA NJEGIC, RYAN OLSON,
     MIKE PAK, BUU PHAM, DAVID POOLE,
     SPENCER PRUITT, LUKE ROSKOP, TOSAPORN SATTASATHUCHANA,
     JIM SHOEMAKER, LYUDMILA SLIPCHENKO,
     TONY SMITH, JIE SONG, TETSUYA TAKETSUGU, SIMON WEBB,
     JORGE LUIS GALVEZ VALLEJO, PENG XU, SOOHAENG YOO,
     FEDERICO ZAHARIEV

  ADDITIONAL CODE HAS BEEN PROVIDED BY COLLABORATORS IN OTHER GROUPS:
     IOWA STATE UNIVERSITY:
          JOE IVANIC, AARON WEST, LAIMUTIS BYTAUTAS, KLAUS RUEDENBERG
     UNIVERSITY OF TOKYO: KIMIHIKO HIRAO, TAKAHITO NAKAJIMA,
          TAKAO TSUNEDA, MUNEAKI KAMIYA, SUSUMU YANAGISAWA,
          KIYOSHI YAGI, MAHITO CHIBA, SEIKEN TOKURA, NAOAKI KAWAKAMI
     UNIVERSITY OF AARHUS: FRANK JENSEN
     UNIVERSITY OF IOWA: VISVALDAS KAIRYS, HUI LI
     NATIONAL INST. OF STANDARDS AND TECHNOLOGY: WALT STEVENS, DAVID GARMER
     UNIVERSITY OF PISA: BENEDETTA MENNUCCI, JACOPO TOMASI
     UNIVERSITY OF MEMPHIS: HENRY KURTZ, PRAKASHAN KORAMBATH
     UNIVERSITY OF ALBERTA: TOBY ZENG, MARIUSZ KLOBUKOWSKI
     UNIVERSITY OF NEW ENGLAND: MARK SPACKMAN
     MIE UNIVERSITY: HIROAKI UMEDA
     NAT. INST. OF ADVANCED INDUSTRIAL SCIENCE AND TECHNOLOGY: KAZUO KITAURA
     MICHIGAN STATE UNIVERSITY:
          KAROL KOWALSKI, MARTA WLOCH, JEFFREY GOUR, JESSE LUTZ,
          WEI LI, JUN SHEN, J. EMILIANO DEUSTUA, PIOTR PIECUCH
     UNIVERSITY OF MINNESOTA:
          ANDREW SAND, PRACHI SHARMA, YINAN SHU
     UNIVERSITY OF SILESIA: MONIKA MUSIAL, STANISLAW KUCHARSKI
     FACULTES UNIVERSITAIRES NOTRE-DAME DE LA PAIX:
          OLIVIER QUINET, BENOIT CHAMPAGNE
     UNIVERSITY OF CALIFORNIA - SANTA BARBARA: BERNARD KIRTMAN
     INSTITUTE FOR MOLECULAR SCIENCE:
          KAZUYA ISHIMURA, MICHIO KATOUDA, AND SHIGERU NAGASE
     UNIVERSITY OF NOTRE DAME: ANNA POMOGAEVA, DAN CHIPMAN
     KYUSHU UNIVERSITY:
          HARUYUKI NAKANO,
          FENG LONG GU, JACEK KORCHOWIEC, MARCIN MAKOWSKI, AND YURIKO AOKI,
          HIROTOSHI MORI AND EISAKU MIYOSHI
     PENNSYLVANIA STATE UNIVERSITY:
          TZVETELIN IORDANOV, CHET SWALINA, JONATHAN SKONE,
          SHARON HAMMES-SCHIFFER
     WASEDA UNIVERSITY:
          MASATO KOBAYASHI, TOMOKO AKAMA, TSUGUKI TOUMA,
          TAKESHI YOSHIKAWA, YASUHIRO IKABATA, JUNJI SEINO,
          YUYA NAKAJIMA, HIROMI NAKAI
     NANJING UNIVERSITY: SHUHUA LI
     UNIVERSITY OF NEBRASKA:
          PEIFENG SU, DEJUN SI, NANDUN THELLAMUREGE, YALI WANG, HUI LI
     UNIVERSITY OF ZURICH: ROBERTO PEVERATI, KIM BALDRIDGE
     N. COPERNICUS UNIVERSITY AND JACKSON STATE UNIVERSITY:
          MARIA BARYSZ
     UNIVERSITY OF COPENHAGEN: Jimmy Kromann, CASPER STEINMANN
     TOKYO INSTITUTE OF TECHNOLOGY: HIROYA NAKATA
     NAGOYA UNIVERSITY: YOSHIO NISHIMOTO, STEPHAN IRLE
     MOSCOW STATE UNIVERSITY: VLADIMIR MIRONOV
     A.N.NESMEYANOV INSTITUTE OF ORGANOELEMENT COMPOUNDS OF RUSSIAN ACADEMY OF SCIENCES:
          IGOR S. GERASIMOV
     JOHANNES KEPLER UNIVERSITY LINZ:
          CHRISTIAN FRIEDL


 PARALLEL VERSION RUNNING ON        6 PROCESSORS IN        1 NODES.

 EXECUTION OF GAMESS BEGUN Sat May 16 13:43:45 2020

            ECHO OF THE FIRST FEW INPUT CARDS -
 INPUT CARD> $BASIS GBASIS=N21 NGAUSS=3 $END                                                
 INPUT CARD> $CONTRL SCFTYP=RHF MAXIT=60 MULT=1 ICHARG=0 $END                               
 INPUT CARD> $SYSTEM MEMDDI=1000 MWORDS=30 $END                                             
 INPUT CARD> $SCF DIRSCF=.TRUE. $END                                                        
 INPUT CARD> $DATA                                                                          
 INPUT CARD>                                                                                
 INPUT CARD>C1                                                                              
 INPUT CARD>C 6.0000000 2.0025413511 0.7127237771 -0.2699196978                             
 INPUT CARD>H 1.0000000 1.2521818107 -0.9234646185 0.9471744206                             
 INPUT CARD>H 1.0000000 2.1238125269 1.4176128905 0.5611551589                              
 INPUT CARD>C 6.0000000 0.9304298076 -0.3455179115 0.0701595279                             
 INPUT CARD>C 6.0000000 -0.4466727243 0.2877754578 0.3599383593                             
 INPUT CARD>C 6.0000000 -1.5254968132 -0.7766222425 0.6709600916                            
 INPUT CARD>C 6.0000000 -3.9077905226 -0.1621337632 0.0818542312                            
 INPUT CARD>N 7.0000000 -3.5104316033 -0.1653880640 -1.2588536771                           
 INPUT CARD>N 7.0000000 -5.1091543515 -0.1503103595 0.5532577029                            
 INPUT CARD>H 1.0000000 0.8346328448 -1.0539155490 -0.7644638426                            
 INPUT CARD>N 7.0000000 -2.8393263676 -0.1895838370 0.9742456317                            
 INPUT CARD>H 1.0000000 -0.3711517752 0.9763482732 1.2113387075                             
 INPUT CARD>H 1.0000000 -0.7672996540 0.8843826073 -0.5058862000                            
 INPUT CARD>H 1.0000000 -1.6313956600 -1.4555062867 -0.1833459236                           
 INPUT CARD>H 1.0000000 -1.1960507846 -1.3708046708 1.5328026795                            
 INPUT CARD>H 1.0000000 -2.6291431627 0.2632136922 -1.5189261451                            
 INPUT CARD>H 1.0000000 -4.2304888294 -0.1942441150 -1.9700860306                           
 INPUT CARD>H 1.0000000 -5.8253418866 0.0031955353 -0.1732479362                            
 INPUT CARD>H 1.0000000 1.7110022663 1.2825224965 -1.1602685973                             
 INPUT CARD>H 1.0000000 2.9727054919 0.2425477576 -0.4662092885                             
 INPUT CARD>H 1.0000000 -3.1376619641 -0.1380410698 1.9428208280                            
 INPUT CARD> $END                                                                           
   30000000 WORDS OF MEMORY AVAILABLE

     BASIS OPTIONS
     -------------
     GBASIS=N21          IGAUSS=       3      POLAR=NONE    
     NDFUNC=       0     NFFUNC=       0     DIFFSP=       F
     NPFUNC=       0      DIFFS=       F     BASNAM=        


     RUN TITLE
     ---------
                                                                                 

 THE POINT GROUP OF THE MOLECULE IS C1      
 THE ORDER OF THE PRINCIPAL AXIS IS     0

 ATOM      ATOMIC                      COORDINATES (BOHR)
           CHARGE         X                   Y                   Z
 C           6.0     3.7842544327        1.3468526437       -0.5100742675
 H           1.0     2.3662805090       -1.7450950883        1.7899001175
 H           1.0     4.0134237251        2.6788999197        1.0604294869
 C           6.0     1.7582573872       -0.6529341766        0.1325822832
 C           6.0    -0.8440890551        0.5438167612        0.6801848715
 C           6.0    -2.8827709721       -1.4676032343        1.2679307218
 C           6.0    -7.3846533051       -0.3063883858        0.1546820679
 N           7.0    -6.6337538289       -0.3125381226       -2.3788885084
 N           7.0    -9.6549017533       -0.2840453926        1.0455054591
 H           1.0     1.5772273770       -1.9916116018       -1.4446271900
 N           7.0    -5.3655488245       -0.3582615036        1.8410572886
 H           1.0    -0.7013751550        1.8450307049        2.2890982355
 H           1.0    -1.4499860965        1.6712407961       -0.9559862990
 H           1.0    -3.0828907750       -2.7505080553       -0.3464735566
 H           1.0    -2.2602082503       -2.5904452105        2.8965770575
 H           1.0    -4.9683601600        0.4974017545       -2.8703542098
 H           1.0    -7.9944646817       -0.3670681521       -3.7229227701
 H           1.0   -11.0082999505        0.0060386861       -0.3273911274
 H           1.0     3.2333254477        2.4236160915       -2.1925897211
 H           1.0     5.6175988219        0.4583488008       -0.8810078082
 H           1.0    -5.9293213542       -0.2608597970        3.6713990082

          INTERNUCLEAR DISTANCES (ANGS.)
          ------------------------------

                1 C          2 H          3 H          4 C          5 C     

   1 C       0.0000000    2.1728944 *  1.0964765 *  1.5443291 *  2.5643619 *
   2 H       2.1728944 *  0.0000000    2.5277252 *  1.0984998 *  2.1674998 *
   3 H       1.0964765 *  2.5277252 *  0.0000000    2.1849186 *  2.8150338 *
   4 C       1.5443291 *  1.0984998 *  2.1849186 *  0.0000000    1.5431927 *
   5 C       2.5643619 *  2.1674998 *  2.8150338 *  1.5431927 *  0.0000000  
   6 C       3.9434071    2.7952380 *  4.2595990    2.5648368 *  1.5471065 *
   7 C       5.9850767    5.2871276    6.2534442    4.8417086    3.5012977  
   8 N       5.6693864    5.3031808    6.1288687    4.6389625    3.4946335  
   9 N       7.2110100    6.4202442    7.4009632    6.0620184    4.6870061  
  10 H       2.1747641 *  1.7666551 *  3.0866977    1.0989088 *  2.1693683 *
  11 N       5.0799399    4.1568922    5.2332086    3.8797872    2.5159564 *
  12 H       2.8103458 *  2.5128239 *  2.6157790 *  2.1780116 *  1.0975967 *
  13 H       2.7851690 *  3.0753865    3.1275296    2.1741134 *  1.0992697 *
  14 H       4.2325187    3.1426364    4.7865106    2.8034423 *  2.1766390 *
  15 H       4.2215981    2.5567394 *  4.4430692    2.7771312 *  2.1651943 *
  16 H       4.8181509    4.7491621    5.3150695    3.9454160    2.8799153 *
  17 H       6.5240955    6.2531471    7.0272620    5.5516274    4.4697451  
  18 H       7.8605682    7.2253295    8.1073411    6.7691432    5.4125184  
  19 H       1.0965340 *  3.0851599    1.7753764 *  2.1848941 *  2.8206581 *
  20 H       1.0958164 *  2.5134518 *  1.7767597 *  2.1918948 *  3.5180553  
  21 H       5.6605399    4.5693468    5.6579301    4.4832218    3.1509141  

                6 C          7 C          8 N          9 N         10 H     

   1 C       3.9434071    5.9850767    5.6693864    7.2110100    2.1747641 *
   2 H       2.7952380 *  5.2871276    5.3031808    6.4202442    1.7666551 *
   3 H       4.2595990    6.2534442    6.1288687    7.4009632    3.0866977  
   4 C       2.5648368 *  4.8417086    4.6389625    6.0620184    1.0989088 *
   5 C       1.5471065 *  3.5012977    3.4946335    4.6870061    2.1693683 *
   6 C       0.0000000    2.5298152 *  2.8350934 *  3.6398794    2.7762466 *
   7 C       2.5298152 *  0.0000000    1.3983570 *  1.2905952 *  4.8991947  
   8 N       2.8350934 *  1.3983570 *  0.0000000    2.4165863 *  4.4624531  
   9 N       3.6398794    1.2905952 *  2.4165863 *  0.0000000    6.1547948  
  10 H       2.7762466 *  4.8991947    4.4624531    6.1547948    0.0000000  
  11 N       1.4706272 *  1.3923834 *  2.3318877 *  2.3088725 *  4.1554971  
  12 H       2.1673549 *  3.8832577    4.1545746    4.9143767    3.0789095  
  13 H       2.1722724 *  3.3620408    3.0321199    4.5873824    2.5278548 *
  14 H       1.0963288 *  2.6315617 *  2.5202972 *  3.7869416    2.5652036 *
  15 H       1.0974334 *  3.3044923    3.8213522    4.2144388    3.0824549  
  16 H       2.6636246 *  2.0924525 *  1.0139065 *  3.2581288    3.7817704  
  17 H       3.8250844    2.0774080 *  1.0125051 *  2.6723111 *  5.2771221  
  18 H       4.4507831    1.9414979 *  2.5623758 *  1.0316487 *  6.7692159  
  19 H       4.2506943    5.9330206    5.4193667    7.1766091    2.5265842 *
  20 H       4.7503353    6.9141425    6.5441396    8.1553730    2.5181596 *
  21 H       2.1504632 *  2.0141686 *  3.2234182    2.4120154 *  4.8936022  

               11 N         12 H         13 H         14 H         15 H     

   1 C       5.0799399    2.8103458 *  2.7851690 *  4.2325187    4.2215981  
   2 H       4.1568922    2.5128239 *  3.0753865    3.1426364    2.5567394 *
   3 H       5.2332086    2.6157790 *  3.1275296    4.7865106    4.4430692  
   4 C       3.8797872    2.1780116 *  2.1741134 *  2.8034423 *  2.7771312 *
   5 C       2.5159564 *  1.0975967 *  1.0992697 *  2.1766390 *  2.1651943 *
   6 C       1.4706272 *  2.1673549 *  2.1722724 *  1.0963288 *  1.0974334 *
   7 C       1.3923834 *  3.8832577    3.3620408    2.6315617 *  3.3044923  
   8 N       2.3318877 *  4.1545746    3.0321199    2.5202972 *  3.8213522  
   9 N       2.3088725 *  4.9143767    4.5873824    3.7869416    4.2144388  
  10 H       4.1554971    3.0789095    2.5278548 *  2.5652036 *  3.0824549  
  11 N       0.0000000    2.7399811 *  2.7636007 *  2.0980168 *  2.0994340 *
  12 H       2.7399811 *  0.0000000    1.7647244 *  3.0736422    2.5085702 *
  13 H       2.7636007 *  1.7647244 *  0.0000000    2.5151092 *  3.0701709  
  14 H       2.0980168 *  3.0736422    2.5151092 *  0.0000000    1.7725308 *
  15 H       2.0994340 *  2.5085702 *  3.0701709    1.7725308 *  0.0000000  
  16 H       2.5426577 *  3.6140603    2.2087467 *  2.3944254 *  3.7465742  
  17 H       3.2564465    5.1367531    3.9116488    3.3968379    4.7814578  
  18 H       3.2047143    5.7107177    5.1449908    4.4403939    5.1214081  
  19 H       5.2372453    3.1707459    2.5939761 *  4.4297634    4.7690393  
  20 H       6.0034459    3.8123499    3.7948867    4.9153989    4.8966809  
  21 H       1.0147900 *  3.0709133    3.5581082    2.9197839 *  2.3361667 *

               16 H         17 H         18 H         19 H         20 H     

   1 C       4.8181509    6.5240955    7.8605682    1.0965340 *  1.0958164 *
   2 H       4.7491621    6.2531471    7.2253295    3.0851599    2.5134518 *
   3 H       5.3150695    7.0272620    8.1073411    1.7753764 *  1.7767597 *
   4 C       3.9454160    5.5516274    6.7691432    2.1848941 *  2.1918948 *
   5 C       2.8799153 *  4.4697451    5.4125184    2.8206581 *  3.5180553  
   6 C       2.6636246 *  3.8250844    4.4507831    4.2506943    4.7503353  
   7 C       2.0924525 *  2.0774080 *  1.9414979 *  5.9330206    6.9141425  
   8 N       1.0139065 *  1.0125051 *  2.5623758 *  5.4193667    6.5441396  
   9 N       3.2581288    2.6723111 *  1.0316487 *  7.1766091    8.1553730  
  10 H       3.7817704    5.2771221    6.7692159    2.5265842 *  2.5181596 *
  11 N       2.5426577 *  3.2564465    3.2047143    5.2372453    6.0034459  
  12 H       3.6140603    5.1367531    5.7107177    3.1707459    3.8123499  
  13 H       2.2087467 *  3.9116488    5.1449908    2.5939761 *  3.7948867  
  14 H       2.3944254 *  3.3968379    4.4403939    4.4297634    4.9153989  
  15 H       3.7465742    4.7814578    5.1214081    4.7690393    4.8966809  
  16 H       0.0000000    1.7254335 *  3.4776638    4.4726377    5.6999428  
  17 H       1.7254335 *  0.0000000    2.4106360 *  6.1755939    7.3714612  
  18 H       3.4776638    2.4106360 *  0.0000000    7.7076177    8.8061770  
  19 H       4.4726377    6.1755939    7.7076177    0.0000000    1.7762772 *
  20 H       5.6999428    7.3714612    8.8061770    1.7762772 *  0.0000000  
  21 H       3.5218303    4.0630370    3.4236411    5.9293094    6.5791234  

               21 H     

   1 C       5.6605399  
   2 H       4.5693468  
   3 H       5.6579301  
   4 C       4.4832218  
   5 C       3.1509141  
   6 C       2.1504632 *
   7 C       2.0141686 *
   8 N       3.2234182  
   9 N       2.4120154 *
  10 H       4.8936022  
  11 N       1.0147900 *
  12 H       3.0709133  
  13 H       3.5581082  
  14 H       2.9197839 *
  15 H       2.3361667 *
  16 H       3.5218303  
  17 H       4.0630370  
  18 H       3.4236411  
  19 H       5.9293094  
  20 H       6.5791234  
  21 H       0.0000000  

  * ... LESS THAN  3.000


     ATOMIC BASIS SET
     ----------------
 THE CONTRACTED PRIMITIVE FUNCTIONS HAVE BEEN UNNORMALIZED
 THE CONTRACTED BASIS FUNCTIONS ARE NOW NORMALIZED TO UNITY

  SHELL TYPE  PRIMITIVE        EXPONENT          CONTRACTION COEFFICIENT(S)

 C         

      1   S       1           172.2560000    0.061766907377
      1   S       2            25.9109000    0.358794042852
      1   S       3             5.5333500    0.700713083689

      2   L       4             3.6649800   -0.395895162119    0.236459946619
      2   L       5             0.7705450    1.215834355681    0.860618805716

      3   L       6             0.1958570    1.000000000000    1.000000000000

 H         

      4   S       7             5.4471780    0.156284978695
      4   S       8             0.8245472    0.904690876670

      5   S       9             0.1831916    1.000000000000

 H         

      6   S      10             5.4471780    0.156284978695
      6   S      11             0.8245472    0.904690876670

      7   S      12             0.1831916    1.000000000000

 C         

      8   S      13           172.2560000    0.061766907377
      8   S      14            25.9109000    0.358794042852
      8   S      15             5.5333500    0.700713083689

      9   L      16             3.6649800   -0.395895162119    0.236459946619
      9   L      17             0.7705450    1.215834355681    0.860618805716

     10   L      18             0.1958570    1.000000000000    1.000000000000

 C         

     11   S      19           172.2560000    0.061766907377
     11   S      20            25.9109000    0.358794042852
     11   S      21             5.5333500    0.700713083689

     12   L      22             3.6649800   -0.395895162119    0.236459946619
     12   L      23             0.7705450    1.215834355681    0.860618805716

     13   L      24             0.1958570    1.000000000000    1.000000000000

 C         

     14   S      25           172.2560000    0.061766907377
     14   S      26            25.9109000    0.358794042852
     14   S      27             5.5333500    0.700713083689

     15   L      28             3.6649800   -0.395895162119    0.236459946619
     15   L      29             0.7705450    1.215834355681    0.860618805716

     16   L      30             0.1958570    1.000000000000    1.000000000000

 C         

     17   S      31           172.2560000    0.061766907377
     17   S      32            25.9109000    0.358794042852
     17   S      33             5.5333500    0.700713083689

     18   L      34             3.6649800   -0.395895162119    0.236459946619
     18   L      35             0.7705450    1.215834355681    0.860618805716

     19   L      36             0.1958570    1.000000000000    1.000000000000

 N         

     20   S      37           242.7660000    0.059865700508
     20   S      38            36.4851000    0.352955002994
     20   S      39             7.8144900    0.706513005993

     21   L      40             5.4252200   -0.413300077430    0.237972016222
     21   L      41             1.1491500    1.224417266851    0.858953058551

     22   L      42             0.2832050    1.000000000000    1.000000000000

 N         

     23   S      43           242.7660000    0.059865700508
     23   S      44            36.4851000    0.352955002994
     23   S      45             7.8144900    0.706513005993

     24   L      46             5.4252200   -0.413300077430    0.237972016222
     24   L      47             1.1491500    1.224417266851    0.858953058551

     25   L      48             0.2832050    1.000000000000    1.000000000000

 H         

     26   S      49             5.4471780    0.156284978695
     26   S      50             0.8245472    0.904690876670

     27   S      51             0.1831916    1.000000000000

 N         

     28   S      52           242.7660000    0.059865700508
     28   S      53            36.4851000    0.352955002994
     28   S      54             7.8144900    0.706513005993

     29   L      55             5.4252200   -0.413300077430    0.237972016222
     29   L      56             1.1491500    1.224417266851    0.858953058551

     30   L      57             0.2832050    1.000000000000    1.000000000000

 H         

     31   S      58             5.4471780    0.156284978695
     31   S      59             0.8245472    0.904690876670

     32   S      60             0.1831916    1.000000000000

 H         

     33   S      61             5.4471780    0.156284978695
     33   S      62             0.8245472    0.904690876670

     34   S      63             0.1831916    1.000000000000

 H         

     35   S      64             5.4471780    0.156284978695
     35   S      65             0.8245472    0.904690876670

     36   S      66             0.1831916    1.000000000000

 H         

     37   S      67             5.4471780    0.156284978695
     37   S      68             0.8245472    0.904690876670

     38   S      69             0.1831916    1.000000000000

 H         

     39   S      70             5.4471780    0.156284978695
     39   S      71             0.8245472    0.904690876670

     40   S      72             0.1831916    1.000000000000

 H         

     41   S      73             5.4471780    0.156284978695
     41   S      74             0.8245472    0.904690876670

     42   S      75             0.1831916    1.000000000000

 H         

     43   S      76             5.4471780    0.156284978695
     43   S      77             0.8245472    0.904690876670

     44   S      78             0.1831916    1.000000000000

 H         

     45   S      79             5.4471780    0.156284978695
     45   S      80             0.8245472    0.904690876670

     46   S      81             0.1831916    1.000000000000

 H         

     47   S      82             5.4471780    0.156284978695
     47   S      83             0.8245472    0.904690876670

     48   S      84             0.1831916    1.000000000000

 H         

     49   S      85             5.4471780    0.156284978695
     49   S      86             0.8245472    0.904690876670

     50   S      87             0.1831916    1.000000000000

 TOTAL NUMBER OF BASIS SET SHELLS             =   50
 NUMBER OF CARTESIAN GAUSSIAN BASIS FUNCTIONS =   98
 NUMBER OF ELECTRONS                          =   64
 CHARGE OF MOLECULE                           =    0
 SPIN MULTIPLICITY                            =    1
 NUMBER OF OCCUPIED ORBITALS (ALPHA)          =   32
 NUMBER OF OCCUPIED ORBITALS (BETA )          =   32
 TOTAL NUMBER OF ATOMS                        =   21
 THE NUCLEAR REPULSION ENERGY IS      378.6389808113

     $CONTRL OPTIONS
     ---------------
 SCFTYP=RHF          RUNTYP=ENERGY       EXETYP=RUN     
 MPLEVL=       0     CITYP =NONE         CCTYP =NONE         VBTYP =NONE    
 DFTTYP=NONE         TDDFT =NONE    
 MULT  =       1     ICHARG=       0     NZVAR =       0     COORD =UNIQUE  
 PP    =NONE         RELWFN=NONE         LOCAL =NONE         NUMGRD=       F
 ISPHER=      -1     NOSYM =       0     MAXIT =      60     UNITS =ANGS    
 PLTORB=       F     MOLPLT=       F     AIMPAC=       F     FRIEND=        
 NPRINT=       7     IREST =       0     GEOM  =INPUT   
 NORMF =       0     NORMP =       0     ITOL  =      20     ICUT  =       9
 INTTYP=BEST         GRDTYP=BEST         QMTTOL= 1.0E-06

     $SYSTEM OPTIONS
     ---------------
  REPLICATED MEMORY=    30000000 WORDS (ON EVERY NODE).
 DISTRIBUTED MEMDDI=        1000 MILLION WORDS IN AGGREGATE,
 MEMDDI DISTRIBUTED OVER   6 PROCESSORS IS   166666666 WORDS/PROCESSOR.
 TOTAL MEMORY REQUESTED ON EACH PROCESSOR=   196666666 WORDS.
 TIMLIM=      525600.00 MINUTES, OR     365.0 DAYS.
 PARALL= T  BALTYP=  DLB     KDIAG=    0  COREFL= F
 MXSEQ2=     300 MXSEQ3=     150  mem10=         0

          ----------------
          PROPERTIES INPUT
          ----------------

     MOMENTS            FIELD           POTENTIAL          DENSITY
 IEMOM =       1   IEFLD =       0   IEPOT =       0   IEDEN =       0
 WHERE =COMASS     WHERE =NUCLEI     WHERE =NUCLEI     WHERE =NUCLEI  
 OUTPUT=BOTH       OUTPUT=BOTH       OUTPUT=BOTH       OUTPUT=BOTH    
 IEMINT=       0   IEFINT=       0                     IEDINT=       0
                                                       MORB  =       0
          EXTRAPOLATION IN EFFECT
          SOSCF IN EFFECT
 ORBITAL PRINTING OPTION: NPREO=     1    98     2     1

     -------------------------------
     INTEGRAL TRANSFORMATION OPTIONS
     -------------------------------
     NWORD  =            0
     CUTOFF = 1.0E-09     MPTRAN =       0
     DIRTRF =       T     AOINTS =DUP     

          ----------------------
          INTEGRAL INPUT OPTIONS
          ----------------------
 NOPK  =       1 NORDER=       0 SCHWRZ=       T

     ------------------------------------------
     THE POINT GROUP IS C1 , NAXIS= 0, ORDER= 1
     ------------------------------------------

     DIMENSIONS OF THE SYMMETRY SUBSPACES ARE
 A   =   98

 ..... DONE SETTING UP THE RUN .....
 CPU     0: STEP CPU TIME=     0.02 TOTAL CPU TIME=          0.0 (      0.0 MIN)
 TOTAL WALL CLOCK TIME=          0.0 SECONDS, CPU UTILIZATION IS   100.00%

          ********************
          1 ELECTRON INTEGRALS
          ********************
 ...... END OF ONE-ELECTRON INTEGRALS ......
 CPU     0: STEP CPU TIME=     0.01 TOTAL CPU TIME=          0.0 (      0.0 MIN)
 TOTAL WALL CLOCK TIME=          0.0 SECONDS, CPU UTILIZATION IS   100.00%

          -------------
          GUESS OPTIONS
          -------------
          GUESS =HUCKEL            NORB  =       0          NORDER=       0
          MIX   =       F          PRTMO =       F          PUNMO =       F
          TOLZ  = 1.0E-08          TOLE  = 1.0E-05
          SYMDEN=       F          PURIFY=       F

 INITIAL GUESS ORBITALS GENERATED BY HUCKEL   ROUTINE.
 HUCKEL GUESS REQUIRES     96150 WORDS.

 SYMMETRIES FOR INITIAL GUESS ORBITALS FOLLOW.   BOTH SET(S).
    32 ORBITALS ARE OCCUPIED (    8 CORE ORBITALS).
     9=A       10=A       11=A       12=A       13=A       14=A       15=A   
    16=A       17=A       18=A       19=A       20=A       21=A       22=A   
    23=A       24=A       25=A       26=A       27=A       28=A       29=A   
    30=A       31=A       32=A       33=A       34=A       35=A       36=A   
    37=A       38=A       39=A       40=A       41=A       42=A   
 ...... END OF INITIAL ORBITAL SELECTION ......
 CPU     0: STEP CPU TIME=     0.02 TOTAL CPU TIME=          0.0 (      0.0 MIN)
 TOTAL WALL CLOCK TIME=          0.1 SECONDS, CPU UTILIZATION IS   100.00%

                    ----------------------
                    AO INTEGRAL TECHNOLOGY
                    ----------------------
     S,P,L SHELL ROTATED AXIS INTEGRALS, REPROGRAMMED BY
        KAZUYA ISHIMURA (IMS) AND JOSE SIERRA (SYNSTAR).
     S,P,D,L SHELL ROTATED AXIS INTEGRALS PROGRAMMED BY
        KAZUYA ISHIMURA (INSTITUTE FOR MOLECULAR SCIENCE).
     S,P,D,F,G SHELL TO TOTAL QUARTET ANGULAR MOMENTUM SUM 5,
        ERIC PROGRAM BY GRAHAM FLETCHER (ELORET AND NASA ADVANCED
        SUPERCOMPUTING DIVISION, AMES RESEARCH CENTER).
     S,P,D,F,G,L SHELL GENERAL RYS QUADRATURE PROGRAMMED BY
        MICHEL DUPUIS (PACIFIC NORTHWEST NATIONAL LABORATORY).

          --------------------
          2 ELECTRON INTEGRALS
          --------------------

 DIRECT SCF METHOD SKIPS INTEGRAL STORAGE ON DISK.
 DIRECT TRANSFORMATION SKIPS AO INTEGRAL STORAGE ON DISK.
  ...... END OF TWO-ELECTRON INTEGRALS .....
 CPU     0: STEP CPU TIME=     0.01 TOTAL CPU TIME=          0.1 (      0.0 MIN)
 TOTAL WALL CLOCK TIME=          0.1 SECONDS, CPU UTILIZATION IS   100.00%

          --------------------------
                 RHF SCF CALCULATION
          --------------------------

     NUCLEAR ENERGY =       378.6389808113
     MAXIT =   60     NPUNCH=    2
     EXTRAP=T  DAMP=F  SHIFT=F  RSTRCT=F  DIIS=F  DEM=F  SOSCF=T
     DENSITY MATRIX CONV=  2.00E-05
     SOSCF WILL OPTIMIZE    2112 ORBITAL ROTATIONS, SOGTOL=   0.250
     MEMORY REQUIRED FOR RHF ITERS=    123954 WORDS.

 DIRECT SCF CALCULATION, SCHWRZ=T   FDIFF=T,  DIRTHR=  0.00E+00 NITDIR=10
 SCHWARZ INEQUALITY OVERHEAD:      4483 INTEGRALS, T=        0.00

                                                                                   NONZERO     BLOCKS
 ITER EX DEM     TOTAL ENERGY        E CHANGE  DENSITY CHANGE     ORB. GRAD      INTEGRALS    SKIPPED
   1  0  0     -357.3307669829  -357.3307669829   0.739199832   0.000000000        6775988     390960
          ---------------START SECOND ORDER SCF---------------
   2  1  0     -358.1385599535    -0.8077929706   0.299846908   0.086230568        6756187     400369
   3  2  0     -358.1897213432    -0.0511613896   0.097038720   0.067719787        6691658     417750
   4  3  0     -358.2417808734    -0.0520595302   0.029335857   0.006370066        6583180     437785
   5  4  0     -358.2428201410    -0.0010392677   0.004875932   0.000831289        6466942     453381
   6  5  0     -358.2428985013    -0.0000783602   0.001393280   0.000405620        6253850     472512
   7  6  0     -358.2429065308    -0.0000080295   0.000516517   0.000135869        5993930     496741
   8  7  0     -358.2429073040    -0.0000007732   0.000182806   0.000068631        5644763     524723
   9  8  0     -358.2429073895    -0.0000000855   0.000033843   0.000013995        5414127     542249
  10  9  0     -358.2429073974    -0.0000000079   0.000013621   0.000003364        4996929     568535
  11 10  0     -358.2429073991    -0.0000000017   0.000003604   0.000001350        4686167     588449

          -----------------
          DENSITY CONVERGED
          -----------------
     TIME TO FORM FOCK OPERATORS=       1.0 SECONDS (       0.1 SEC/ITER)
     FOCK TIME ON FIRST ITERATION=       0.1, LAST ITERATION=       0.1
     TIME TO SOLVE SCF EQUATIONS=       0.1 SECONDS (       0.0 SEC/ITER)

 FINAL RHF ENERGY IS     -358.2429073991 AFTER  11 ITERATIONS

          ------------
          EIGENVECTORS
          ------------

                      1          2          3          4          5
                  -15.4900   -15.4782   -15.4150   -11.2856   -11.2081
                     A          A          A          A          A   
    1  C  1  S    0.000016  -0.000041  -0.000015  -0.000118  -0.002195
    2  C  1  S    0.000114  -0.000233  -0.000081  -0.000170  -0.001242
    3  C  1  X   -0.000074  -0.000048  -0.000023  -0.000031   0.000410
    4  C  1  Y    0.000043   0.000028  -0.000008  -0.000008  -0.000064
    5  C  1  Z   -0.000007  -0.000008   0.000002  -0.000032  -0.000105
    6  C  1  S   -0.000056   0.001734   0.000478   0.001001   0.003543
    7  C  1  X    0.000385  -0.000251  -0.000121  -0.000209  -0.003113
    8  C  1  Y   -0.000487  -0.001080  -0.000075  -0.000313  -0.000237
    9  C  1  Z    0.000318   0.000348   0.000100   0.000651   0.000793
   10  H  2  S   -0.000036  -0.000314   0.000030   0.000091  -0.000099
   11  H  2  S    0.000288   0.000235  -0.000018   0.000504  -0.001520
   12  H  3  S    0.000046  -0.000061  -0.000033  -0.000102  -0.000441
   13  H  3  S   -0.000013   0.000059  -0.000051  -0.000194  -0.000150
   14  C  4  S   -0.000046  -0.000101   0.000011  -0.000118  -0.004190
   15  C  4  S   -0.000276  -0.000642   0.000048  -0.000070  -0.001314
   16  C  4  X    0.000131   0.000467   0.000065   0.000240   0.000765
   17  C  4  Y    0.000020   0.000200   0.000064   0.000130   0.000434
   18  C  4  Z    0.000115  -0.000073  -0.000006   0.000113  -0.000218
   19  C  4  S    0.000950   0.001551  -0.000593  -0.000648   0.000897
   20  C  4  X   -0.001218  -0.003438  -0.000019  -0.000993  -0.001885
   21  C  4  Y   -0.000421  -0.001132  -0.000484  -0.001029  -0.002349
   22  C  4  Z   -0.000574   0.000396  -0.000239  -0.001461   0.000800
   23  C  5  S    0.000057   0.000090   0.000019   0.000004  -0.004037
   24  C  5  S    0.000237   0.000133   0.000156   0.000013  -0.003097
   25  C  5  X   -0.000065   0.000653  -0.000148  -0.000199   0.000064
   26  C  5  Y   -0.000262  -0.000018   0.000032  -0.000002  -0.000037
   27  C  5  Z   -0.000134  -0.000256  -0.000063  -0.000436   0.000039
   28  C  5  S   -0.001646  -0.003199   0.000093   0.000719   0.022044
   29  C  5  X    0.001265  -0.000007   0.000738   0.001324  -0.011479
   30  C  5  Y    0.002825   0.001497  -0.000836  -0.000657  -0.008605
   31  C  5  Z   -0.000056   0.001037   0.000787   0.003459   0.002745
   32  C  6  S   -0.000085  -0.000541  -0.000113  -0.002207   0.987803
   33  C  6  S   -0.000228  -0.002214  -0.001027  -0.001467   0.102810
   34  C  6  X   -0.000561  -0.001166   0.001119   0.001293  -0.000106
   35  C  6  Y    0.000044   0.000452  -0.000455  -0.000105   0.000196
   36  C  6  Z    0.000367   0.000401   0.000120   0.000757  -0.000146
   37  C  6  S    0.005072   0.017611  -0.000790   0.001999  -0.083796
   38  C  6  X   -0.000084  -0.009157  -0.001730  -0.005166  -0.004135
   39  C  6  Y    0.002928   0.003070  -0.000105   0.000082  -0.004946
   40  C  6  Z   -0.000633  -0.000526  -0.001017  -0.004219   0.001335
   41  C  7  S   -0.000316  -0.000335   0.000024   0.986382   0.001981
   42  C  7  S   -0.001581  -0.001574  -0.000908   0.091715  -0.000951
   43  C  7  X   -0.000056   0.000636   0.000052   0.000829  -0.000903
   44  C  7  Y    0.000033  -0.000136  -0.000008  -0.000153   0.000256
   45  C  7  Z   -0.000433   0.000427  -0.000036   0.000008   0.000245
   46  C  7  S    0.016866   0.018576   0.029239  -0.040345   0.000786
   47  C  7  X    0.009626   0.018959  -0.036460  -0.006387   0.009185
   48  C  7  Y    0.000415  -0.001084   0.000473   0.000355  -0.000887
   49  C  7  Z   -0.025938   0.010594   0.011924   0.001526  -0.002606
   50  N  8  S    0.985989   0.005025   0.001597   0.000004   0.000078
   51  N  8  S    0.102038   0.000539  -0.000415  -0.000252   0.000404
   52  N  8  X   -0.000603   0.000665  -0.000969   0.000096  -0.000098
   53  N  8  Y    0.001229  -0.000062  -0.000092  -0.000022  -0.000044
   54  N  8  Z    0.001414  -0.000273  -0.000578  -0.000562  -0.000341
   55  N  8  S   -0.067827  -0.001884   0.005159   0.006921  -0.003705
   56  N  8  X    0.003246  -0.005223   0.008626   0.000474  -0.000709
   57  N  8  Y   -0.002435   0.000092   0.000613   0.000063   0.000256
   58  N  8  Z   -0.012126  -0.001974   0.004592   0.002973  -0.000788
   59  N  9  S   -0.001710  -0.002861   0.986274   0.000103  -0.000141
   60  N  9  S   -0.000806  -0.001208   0.102701  -0.000059  -0.001229
   61  N  9  X   -0.000501  -0.000304   0.002770  -0.001414  -0.000253
   62  N  9  Y    0.000046   0.000034   0.000399   0.000096  -0.000069
   63  N  9  Z   -0.000554   0.000463  -0.004202   0.000311   0.000075
   64  N  9  S    0.006411   0.004377  -0.077626   0.001406   0.006729
   65  N  9  X    0.004912   0.000061  -0.018714  -0.000022   0.003008
   66  N  9  Y   -0.000373   0.000137  -0.000679  -0.000330   0.000298
   67  N  9  Z    0.005059  -0.004551   0.013755   0.001189  -0.001104
   68  H 10  S   -0.000180  -0.000456  -0.000005  -0.000197  -0.000148
   69  H 10  S   -0.000460   0.000002  -0.000226  -0.000786  -0.001199
   70  N 11  S   -0.004969   0.986155   0.002687   0.000073  -0.000166
   71  N 11  S   -0.000629   0.103257  -0.000483   0.000154  -0.000519
   72  N 11  X    0.001119  -0.000506  -0.000450   0.000096   0.000193
   73  N 11  Y   -0.000018  -0.001427  -0.000018  -0.000195  -0.000153
   74  N 11  Z   -0.000114  -0.001193   0.000964   0.000291  -0.000422
   75  N 11  S    0.000183  -0.071337   0.003921   0.004716   0.008987
   76  N 11  X   -0.006841   0.003242   0.003780  -0.001280   0.006056
   77  N 11  Y    0.000257   0.004400   0.000106   0.001164  -0.001432
   78  N 11  Z    0.004299   0.009220  -0.007855  -0.001487   0.001846
   79  H 12  S   -0.000113   0.000011  -0.000010  -0.000317  -0.001474
   80  H 12  S   -0.000650  -0.000685  -0.000014  -0.001075   0.000966
   81  H 13  S    0.000776   0.000261  -0.000014   0.000366  -0.001383
   82  H 13  S   -0.002854  -0.000104   0.001107   0.001433   0.000198
   83  H 14  S   -0.000643  -0.001572  -0.000131  -0.001340   0.000776
   84  H 14  S    0.000406  -0.002524   0.000275  -0.000433   0.014357
   85  H 15  S   -0.000071  -0.000924   0.000106   0.000596   0.000650
   86  H 15  S    0.000277  -0.000411   0.000801   0.001512   0.014747
   87  H 16  S    0.001493   0.001168  -0.002037  -0.000861   0.000002
   88  H 16  S    0.007470   0.000249  -0.000307   0.001302   0.000727
   89  H 17  S    0.001498  -0.001345   0.002297  -0.000447   0.000051
   90  H 17  S    0.006131   0.000356   0.000836   0.001946   0.000209
   91  H 18  S    0.001334  -0.001204   0.002855  -0.000155  -0.000357
   92  H 18  S    0.000723   0.001319   0.005505   0.002098   0.001013
   93  H 19  S   -0.000001  -0.000033   0.000004   0.000007  -0.000441
   94  H 19  S    0.000540   0.000224  -0.000077   0.000174  -0.000108
   95  H 20  S   -0.000053  -0.000174  -0.000020  -0.000054  -0.000017
   96  H 20  S   -0.000205  -0.000115  -0.000027  -0.000025   0.001152
   97  H 21  S   -0.001559   0.001427   0.001491  -0.000565  -0.001405
   98  H 21  S    0.000495   0.006023   0.001769   0.002391   0.001330

                      6          7          8          9         10
                  -11.1728   -11.1694   -11.1629    -1.2791    -1.1636
                     A          A          A          A          A   
    1  C  1  S   -0.009844  -0.023622   0.987195  -0.000404  -0.005638
    2  C  1  S   -0.003327  -0.003497   0.101570   0.001554   0.007494
    3  C  1  X   -0.000503   0.000795  -0.000174  -0.000549  -0.004028
    4  C  1  Y   -0.000267   0.000025   0.000090  -0.000246  -0.002165
    5  C  1  Z    0.000142  -0.000187   0.000027   0.000280   0.001154
    6  C  1  S    0.021966   0.003993  -0.080159  -0.005373   0.004678
    7  C  1  X   -0.008906  -0.001155   0.003827   0.002591   0.004583
    8  C  1  Y   -0.007945  -0.000009   0.002520   0.002888   0.002550
    9  C  1  Z    0.002770   0.000203  -0.001084  -0.002704  -0.001291
   10  H  2  S    0.001046  -0.001284  -0.001141   0.001185   0.007690
   11  H  2  S    0.014484   0.001159   0.001127  -0.001503  -0.000068
   12  H  3  S   -0.001346  -0.000073   0.000306   0.000628   0.003076
   13  H  3  S    0.000414  -0.001336   0.014321   0.000455  -0.000106
   14  C  4  S    0.987363   0.032981   0.009874  -0.002613  -0.016029
   15  C  4  S    0.104386   0.001094  -0.000912   0.003587   0.017368
   16  C  4  X   -0.000032  -0.000516   0.000064  -0.003685  -0.010120
   17  C  4  Y    0.000218  -0.000072  -0.000060  -0.000157   0.002327
   18  C  4  Z   -0.000010   0.000111  -0.000002   0.000322   0.002354
   19  C  4  S   -0.092306   0.017723   0.017633   0.006136   0.032338
   20  C  4  X    0.002056  -0.012304   0.008228   0.008019   0.007925
   21  C  4  Y   -0.006385   0.004208   0.007948   0.005216   0.003601
   22  C  4  Z   -0.000056   0.002664  -0.002664   0.002848  -0.001913
   23  C  5  S   -0.034098   0.987149   0.023159  -0.011599  -0.037659
   24  C  5  S   -0.006131   0.104530   0.001535   0.012085   0.037748
   25  C  5  X    0.000445   0.000166  -0.000889  -0.008368  -0.016648
   26  C  5  Y    0.000150  -0.000153  -0.000566  -0.004842  -0.014723
   27  C  5  Z   -0.000100  -0.000120   0.000243   0.002609   0.005683
   28  C  5  S    0.025461  -0.092511  -0.002074   0.016287   0.079378
   29  C  5  X    0.011518  -0.000374   0.002608  -0.003252   0.003630
   30  C  5  Y   -0.005662   0.006022   0.003491   0.001303   0.003625
   31  C  5  Z   -0.002457   0.000338  -0.000814  -0.009792  -0.004110
   32  C  6  S    0.004002   0.003173   0.002013  -0.042172  -0.085578
   33  C  6  S   -0.000265  -0.002454  -0.000923   0.046002   0.086385
   34  C  6  X   -0.000597   0.000626  -0.000283  -0.034799  -0.041857
   35  C  6  Y    0.000006  -0.000013   0.000002   0.013683   0.024265
   36  C  6  Z    0.000143   0.000017   0.000041   0.000685   0.012083
   37  C  6  S   -0.001306   0.022442   0.004759   0.070775   0.187279
   38  C  6  X    0.000185   0.008218   0.003350   0.017963   0.008678
   39  C  6  Y   -0.001934   0.009858   0.001208   0.001304   0.004525
   40  C  6  Z   -0.000026  -0.003104  -0.000783   0.013331   0.005720
   41  C  7  S    0.000118  -0.000010   0.000086  -0.139251   0.024246
   42  C  7  S   -0.000085  -0.000062  -0.000090   0.171215  -0.027051
   43  C  7  X   -0.000057   0.000048  -0.000059   0.007119   0.071178
   44  C  7  Y    0.000015   0.000078   0.000032  -0.000447  -0.007352
   45  C  7  Z    0.000047  -0.000206  -0.000019   0.002530   0.112007
   46  C  7  S    0.000609   0.001062   0.000172   0.128392  -0.031654
   47  C  7  X   -0.000087  -0.000250   0.000634   0.000178  -0.027234
   48  C  7  Y   -0.000207  -0.000335  -0.000040   0.001948   0.005774
   49  C  7  Z    0.001124   0.000022  -0.000032  -0.002786  -0.015065
   50  N  8  S   -0.000018  -0.000013   0.000010  -0.116048   0.137385
   51  N  8  S   -0.000180  -0.000051   0.000092   0.103330  -0.122836
   52  N  8  X   -0.000055   0.000070   0.000059  -0.013484   0.021737
   53  N  8  Y    0.000003  -0.000102   0.000015   0.011990  -0.018861
   54  N  8  Z   -0.000041   0.000265  -0.000005   0.045188  -0.004188
   55  N  8  S    0.000703   0.000821  -0.000412   0.342180  -0.430464
   56  N  8  X    0.000106   0.000145  -0.000329  -0.013448   0.035489
   57  N  8  Y    0.000029   0.000509  -0.000085   0.012637  -0.021737
   58  N  8  Z    0.000362  -0.001157  -0.000084   0.045752  -0.017202
   59  N  9  S    0.000008   0.000015  -0.000007  -0.084366   0.038099
   60  N  9  S    0.000032   0.000148  -0.000053   0.076626  -0.031833
   61  N  9  X   -0.000035   0.000064   0.000002   0.056809  -0.008685
   62  N  9  Y   -0.000008  -0.000026  -0.000007   0.001931  -0.001814
   63  N  9  Z    0.000017   0.000008   0.000012  -0.038454   0.031985
   64  N  9  S   -0.000461  -0.000592   0.000362   0.237578  -0.125037
   65  N  9  X   -0.000186  -0.000426   0.000097   0.043807  -0.012304
   66  N  9  Y    0.000065   0.000145   0.000023   0.002841  -0.003987
   67  N  9  Z   -0.000122   0.000051  -0.000115  -0.041443   0.042868
   68  H 10  S    0.001036  -0.001272  -0.001143   0.002076   0.007742
   69  H 10  S    0.014467   0.001123   0.001052   0.001911  -0.000097
   70  N 11  S   -0.000038   0.000051  -0.000006  -0.124268  -0.149302
   71  N 11  S   -0.000424  -0.000140  -0.000122   0.108232   0.130821
   72  N 11  X   -0.000395  -0.000283  -0.000039  -0.032939   0.012945
   73  N 11  Y   -0.000129  -0.000033   0.000044  -0.011090  -0.022988
   74  N 11  Z    0.000107   0.000118   0.000000  -0.030964   0.007932
   75  N 11  S    0.001042  -0.001440   0.000378   0.372778   0.477019
   76  N 11  X    0.002239  -0.001248   0.000195  -0.026996  -0.007234
   77  N 11  Y    0.000430  -0.000294  -0.000389  -0.019324  -0.027786
   78  N 11  Z   -0.000515   0.000379   0.000152  -0.039744  -0.015928
   79  H 12  S   -0.001391   0.001008  -0.000197   0.005147   0.016442
   80  H 12  S    0.000386   0.014540  -0.000992   0.003290  -0.000664
   81  H 13  S   -0.001405   0.000766  -0.000189   0.003744   0.016028
   82  H 13  S    0.000346   0.015879  -0.001062   0.000156  -0.007878
   83  H 14  S    0.000103  -0.001567  -0.000417   0.020645   0.033226
   84  H 14  S   -0.001273   0.001091  -0.000012   0.005922  -0.003484
   85  H 15  S    0.000063  -0.001305  -0.000472   0.012646   0.035264
   86  H 15  S   -0.001112   0.001224   0.000018  -0.008703  -0.004038
   87  H 16  S   -0.000026   0.000298   0.000004   0.049739  -0.068084
   88  H 16  S   -0.000042  -0.002376   0.000421   0.003009  -0.010373
   89  H 17  S   -0.000006  -0.000292  -0.000025   0.047697  -0.073624
   90  H 17  S    0.000158  -0.000101  -0.000083   0.003573  -0.017211
   91  H 18  S   -0.000027   0.000001  -0.000036   0.031240  -0.021391
   92  H 18  S    0.000029  -0.000116   0.000043  -0.002158  -0.009784
   93  H 19  S   -0.001349  -0.000013   0.000300   0.000457   0.002937
   94  H 19  S    0.000436  -0.001596   0.014369  -0.001147   0.000379
   95  H 20  S   -0.001053  -0.000305   0.000151   0.000445   0.002415
   96  H 20  S   -0.000054   0.001182   0.013669  -0.000482  -0.002247
   97  H 21  S    0.000054   0.000063  -0.000096   0.050888   0.075786
   98  H 21  S    0.000402  -0.000388   0.000113   0.000678   0.014722

                     11         12         13         14         15
                   -1.1252    -1.0688    -0.9753    -0.8692    -0.8035
                     A          A          A          A          A   
    1  C  1  S    0.007892  -0.094807  -0.133179  -0.110802   0.064722
    2  C  1  S   -0.008610   0.095808   0.125168   0.100247  -0.057286
    3  C  1  X    0.004299  -0.034977  -0.006354   0.048253  -0.041595
    4  C  1  Y    0.002736  -0.026275  -0.014192   0.034627  -0.081141
    5  C  1  Z   -0.001215   0.010378   0.002529  -0.014459   0.016793
    6  C  1  S   -0.014834   0.223473   0.384312   0.376299  -0.247536
    7  C  1  X   -0.001449   0.001458  -0.005710   0.013187  -0.004718
    8  C  1  Y   -0.001811   0.000686  -0.005990   0.008924  -0.035583
    9  C  1  Z    0.000421  -0.000392   0.001389  -0.003317   0.005021
   10  H  2  S   -0.008244   0.066463   0.028483  -0.046150   0.110587
   11  H  2  S    0.000318  -0.001628  -0.000510  -0.009336   0.048757
   12  H  3  S   -0.003730   0.045886   0.071188   0.075350  -0.065336
   13  H  3  S    0.000280   0.000747   0.007053   0.020033  -0.032141
   14  C  4  S    0.017325  -0.141183  -0.058079   0.072873  -0.117245
   15  C  4  S   -0.018054   0.135365   0.050502  -0.062284   0.099428
   16  C  4  X    0.007591  -0.016329   0.081997   0.076061   0.031437
   17  C  4  Y   -0.003252   0.030243   0.024778   0.024740  -0.107036
   18  C  4  Z   -0.001424   0.001627  -0.021676  -0.020068   0.002401
   19  C  4  S   -0.035471   0.353282   0.180630  -0.255007   0.455532
   20  C  4  X   -0.005168   0.000259  -0.000630   0.022766   0.002406
   21  C  4  Y   -0.000896   0.008656   0.006760   0.002398  -0.046930
   22  C  4  Z    0.002235  -0.001147   0.000660  -0.007967   0.001596
   23  C  5  S    0.030028  -0.121030   0.091495   0.076177   0.100767
   24  C  5  S   -0.029683   0.116640  -0.082951  -0.065029  -0.085220
   25  C  5  X    0.007579   0.036906   0.062209  -0.075037   0.060252
   26  C  5  Y    0.008989  -0.022915   0.026929  -0.029512  -0.094424
   27  C  5  Z   -0.000645  -0.008130  -0.015758   0.020935  -0.001749
   28  C  5  S   -0.070215   0.304539  -0.273561  -0.262677  -0.395857
   29  C  5  X   -0.003326   0.000246  -0.009784  -0.008067   0.018689
   30  C  5  Y    0.007859  -0.014216   0.012121  -0.005302  -0.036790
   31  C  5  Z   -0.003920   0.000679  -0.000821   0.009683   0.006634
   32  C  6  S    0.044373  -0.040272   0.110773  -0.115402  -0.033799
   33  C  6  S   -0.042340   0.043556  -0.104845   0.104588   0.029442
   34  C  6  X    0.006188   0.058876  -0.052379  -0.036171  -0.037765
   35  C  6  Y   -0.010406   0.014855  -0.012998  -0.048583  -0.076647
   36  C  6  Z    0.001274  -0.014025   0.010366   0.021726   0.035239
   37  C  6  S   -0.093863   0.087704  -0.319914   0.387129   0.134268
   38  C  6  X    0.007055   0.000654  -0.019394   0.000590  -0.001941
   39  C  6  Y   -0.000083  -0.005438  -0.000410  -0.019482  -0.034494
   40  C  6  Z    0.010550  -0.002526   0.011857  -0.006243   0.008670
   41  C  7  S   -0.055396   0.002497  -0.024459   0.046602   0.039143
   42  C  7  S    0.065578  -0.003269   0.029936  -0.057247  -0.048093
   43  C  7  X   -0.171649  -0.068230   0.076698  -0.074126  -0.042593
   44  C  7  Y    0.002458   0.002107  -0.000124  -0.006986  -0.007877
   45  C  7  Z    0.104944  -0.016929   0.038290  -0.044858  -0.000891
   46  C  7  S    0.068486  -0.010259   0.050623  -0.102246  -0.091363
   47  C  7  X    0.043097   0.003401   0.013909  -0.031363  -0.021968
   48  C  7  Y   -0.000417   0.000237  -0.000342  -0.002853  -0.005185
   49  C  7  Z   -0.033778  -0.004592   0.002189  -0.001641   0.005590
   50  N  8  S    0.120802  -0.001038   0.006226  -0.011123  -0.013757
   51  N  8  S   -0.106461   0.001226  -0.005262   0.008742   0.011563
   52  N  8  X   -0.016012  -0.007182   0.005670  -0.008228  -0.013984
   53  N  8  Y   -0.017515   0.000644  -0.001163  -0.000893  -0.000756
   54  N  8  Z    0.008592  -0.005591   0.017068  -0.042087  -0.066867
   55  N  8  S   -0.410467   0.000064  -0.024707   0.051266   0.057242
   56  N  8  X   -0.020529  -0.011826   0.009627  -0.007799  -0.013003
   57  N  8  Y   -0.018630  -0.000647   0.000995  -0.001844  -0.000207
   58  N  8  Z   -0.025323  -0.004790   0.009602  -0.029606  -0.055706
   59  N  9  S   -0.167271  -0.042565   0.037834  -0.034599  -0.017301
   60  N  9  S    0.149662   0.037854  -0.034072   0.031563   0.016063
   61  N  9  X    0.066185   0.006632   0.010435  -0.036265  -0.028037
   62  N  9  Y    0.006197   0.002188  -0.002478   0.002177   0.000466
   63  N  9  Z   -0.067689  -0.023989   0.027011  -0.029812  -0.010339
   64  N  9  S    0.537559   0.138699  -0.123091   0.112717   0.057720
   65  N  9  X    0.078063   0.012462   0.002025  -0.022773  -0.018652
   66  N  9  Y    0.006818   0.001953  -0.001777   0.001299   0.000404
   67  N  9  Z   -0.072095  -0.026061   0.027854  -0.028952  -0.009879
   68  H 10  S   -0.008348   0.066519   0.028351  -0.046613   0.108770
   69  H 10  S    0.000971  -0.001668   0.000269  -0.011294   0.046528
   70  N 11  S    0.026424   0.056577  -0.053925   0.019755  -0.012028
   71  N 11  S   -0.023808  -0.047608   0.044654  -0.016162   0.009596
   72  N 11  X   -0.038715   0.028505  -0.088466   0.131677   0.044894
   73  N 11  Y    0.008157   0.003260   0.014005  -0.048663  -0.038423
   74  N 11  Z    0.011355  -0.000698   0.001570   0.020143   0.062335
   75  N 11  S   -0.086677  -0.198932   0.207348  -0.090725   0.043024
   76  N 11  X   -0.040870   0.011923  -0.058283   0.103833   0.038708
   77  N 11  Y    0.006976   0.008580   0.003751  -0.036510  -0.035331
   78  N 11  Z    0.028477   0.010308  -0.006261   0.016905   0.052938
   79  H 12  S   -0.012957   0.056772  -0.046499  -0.048876  -0.093563
   80  H 12  S    0.001127  -0.001701   0.000017  -0.012432  -0.041487
   81  H 13  S   -0.014187   0.058090  -0.047245  -0.051066  -0.101626
   82  H 13  S   -0.008431  -0.000481  -0.003108  -0.010043  -0.047608
   83  H 14  S   -0.020972   0.021462  -0.060497   0.077574   0.033256
   84  H 14  S   -0.002227  -0.002820   0.000859   0.015440   0.018726
   85  H 15  S   -0.019200   0.023116  -0.064052   0.087275   0.053339
   86  H 15  S   -0.004154   0.000073  -0.006459   0.028010   0.034325
   87  H 16  S   -0.072429   0.000703  -0.007002   0.010966   0.010256
   88  H 16  S   -0.019226   0.004678  -0.008033   0.002144   0.000595
   89  H 17  S   -0.065055   0.003558  -0.010635   0.025985   0.042731
   90  H 17  S   -0.017655   0.001556  -0.005882   0.016600   0.026379
   91  H 18  S    0.081235   0.026545  -0.033511   0.046920   0.028110
   92  H 18  S    0.019834   0.009362  -0.014693   0.025745   0.018982
   93  H 19  S   -0.003886   0.045950   0.071336   0.075648  -0.065870
   94  H 19  S    0.000638   0.001149   0.007074   0.020821  -0.032277
   95  H 20  S   -0.003316   0.042571   0.074218   0.082495  -0.045152
   96  H 20  S    0.001233  -0.004004   0.013221   0.027156  -0.018350
   97  H 21  S   -0.008317  -0.034060   0.043043  -0.021664   0.033266
   98  H 21  S   -0.000242  -0.009209   0.013463  -0.006609   0.018134

                     16         17         18         19         20
                   -0.7873    -0.7070    -0.6820    -0.6510    -0.6194
                     A          A          A          A          A   
    1  C  1  S    0.002637   0.001548  -0.009349  -0.002342  -0.002950
    2  C  1  S   -0.002238  -0.001367   0.007643   0.001792   0.002007
    3  C  1  X    0.002945  -0.003447   0.024935   0.039884  -0.004088
    4  C  1  Y   -0.013451  -0.008776   0.028354   0.011220   0.001982
    5  C  1  Z   -0.001271  -0.013149  -0.009849   0.104687  -0.134709
    6  C  1  S   -0.013008  -0.007624   0.044108   0.011229   0.015898
    7  C  1  X    0.004953  -0.001456   0.014752   0.027898  -0.005168
    8  C  1  Y   -0.006437  -0.004602   0.014904   0.007193  -0.001157
    9  C  1  Z   -0.002582  -0.009506  -0.006100   0.074320  -0.102511
   10  H  2  S    0.018724  -0.009711  -0.014512   0.097514  -0.081346
   11  H  2  S    0.010217  -0.008271  -0.005672   0.075320  -0.061798
   12  H  3  S   -0.007048  -0.011046   0.014494   0.061021  -0.066295
   13  H  3  S   -0.004930  -0.008223   0.009222   0.049405  -0.055723
   14  C  4  S   -0.015995  -0.004805   0.018303   0.003350   0.006581
   15  C  4  S    0.014234   0.003808  -0.014268  -0.002710  -0.005403
   16  C  4  X    0.013223   0.002406  -0.031974   0.039937  -0.052530
   17  C  4  Y   -0.032614  -0.012141  -0.003162   0.001479  -0.030947
   18  C  4  Z   -0.007056  -0.034447   0.004495   0.178061  -0.146205
   19  C  4  S    0.065777   0.022479  -0.078102  -0.011338  -0.025389
   20  C  4  X    0.004046   0.000668  -0.022457   0.030365  -0.042883
   21  C  4  Y   -0.015617  -0.005255  -0.007087   0.001401  -0.024037
   22  C  4  Z   -0.000743  -0.021601   0.004425   0.139437  -0.117758
   23  C  5  S    0.037283   0.009498  -0.002298   0.001860   0.000272
   24  C  5  S   -0.031749  -0.007919   0.002650  -0.001268  -0.000369
   25  C  5  X   -0.009181  -0.018415  -0.001179   0.034672  -0.025828
   26  C  5  Y   -0.056385  -0.003477  -0.062453  -0.009136  -0.046035
   27  C  5  Z   -0.011885  -0.063308  -0.000020   0.187152  -0.062244
   28  C  5  S   -0.148475  -0.043089  -0.004663  -0.012472  -0.010448
   29  C  5  X   -0.003155  -0.017775   0.014307   0.027192  -0.021527
   30  C  5  Y   -0.025495  -0.006767  -0.040075  -0.004859  -0.036774
   31  C  5  Z   -0.014275  -0.045145  -0.007069   0.144620  -0.053288
   32  C  6  S   -0.048225   0.003040  -0.027718  -0.002599  -0.000946
   33  C  6  S    0.044744  -0.003643   0.022071   0.001296  -0.001635
   34  C  6  X    0.011180  -0.025477   0.134157   0.078623   0.101474
   35  C  6  Y   -0.064677  -0.002487  -0.112562  -0.007768  -0.020211
   36  C  6  Z   -0.068526  -0.093359  -0.027999   0.144699   0.079332
   37  C  6  S    0.184669  -0.007147   0.149517   0.021328   0.023449
   38  C  6  X    0.021327  -0.018174   0.075016   0.053806   0.063939
   39  C  6  Y   -0.039402   0.003793  -0.062473  -0.000795  -0.007691
   40  C  6  Z   -0.034604  -0.074627  -0.008401   0.110140   0.064504
   41  C  7  S   -0.097949   0.040863  -0.037856  -0.012401  -0.014750
   42  C  7  S    0.121181  -0.052571   0.053014   0.013952   0.017636
   43  C  7  X    0.094566   0.070782  -0.100887   0.006742  -0.065393
   44  C  7  Y   -0.015185   0.023999  -0.006751   0.036298   0.056926
   45  C  7  Z   -0.076690   0.131760   0.219275  -0.029428  -0.135570
   46  C  7  S    0.233499  -0.106263   0.113073   0.036878   0.041614
   47  C  7  X    0.036930   0.039580  -0.023123   0.013419  -0.023352
   48  C  7  Y   -0.008697   0.011653  -0.013641   0.027286   0.049133
   49  C  7  Z   -0.035635   0.061769   0.078982  -0.011633  -0.067499
   50  N  8  S    0.035562  -0.002311  -0.003796  -0.005190  -0.006364
   51  N  8  S   -0.031298   0.002312   0.003666   0.003270   0.003839
   52  N  8  X    0.004896   0.306081   0.014513   0.143193   0.080655
   53  N  8  Y   -0.029938   0.088227   0.008435   0.067888   0.072796
   54  N  8  Z    0.224245  -0.075268  -0.158253   0.090242   0.173317
   55  N  8  S   -0.134587   0.011818   0.003122   0.022379   0.026029
   56  N  8  X    0.011164   0.289921   0.013792   0.140162   0.076907
   57  N  8  Y   -0.029275   0.083224   0.009876   0.069666   0.075435
   58  N  8  Z    0.189050  -0.067014  -0.161256   0.085648   0.171576
   59  N  9  S    0.037995  -0.051266   0.022831  -0.002407   0.016022
   60  N  9  S   -0.035234   0.045086  -0.014813   0.001217  -0.015496
   61  N  9  X    0.050321  -0.070022   0.224895   0.007211   0.030875
   62  N  9  Y   -0.009887   0.017479  -0.022011   0.015903   0.024814
   63  N  9  Z   -0.000859   0.032216   0.091868   0.004678  -0.027347
   64  N  9  S   -0.134640   0.198101  -0.094499   0.014711  -0.056779
   65  N  9  X    0.030189  -0.050655   0.163844   0.006780   0.029046
   66  N  9  Y   -0.007677   0.017577  -0.014232   0.015267   0.022503
   67  N  9  Z    0.001869   0.021010   0.088845   0.005221  -0.019259
   68  H 10  S    0.025100   0.024333  -0.010936  -0.093664   0.085063
   69  H 10  S    0.015846   0.018528  -0.002534  -0.070585   0.069993
   70  N 11  S    0.053510   0.001308   0.035452   0.014874   0.013882
   71  N 11  S   -0.046808   0.000860  -0.025990  -0.010204  -0.009107
   72  N 11  X   -0.026198  -0.020928  -0.178952  -0.016306  -0.012239
   73  N 11  Y   -0.022816   0.012045   0.002120   0.035002   0.065534
   74  N 11  Z   -0.203777  -0.093654   0.023211   0.049371   0.210211
   75  N 11  S   -0.207964  -0.010782  -0.159068  -0.067878  -0.061972
   76  N 11  X   -0.025599  -0.015061  -0.189938  -0.016331  -0.017602
   77  N 11  Y   -0.016986   0.013464   0.009768   0.036174   0.067346
   78  N 11  Z   -0.179433  -0.088812   0.040128   0.050930   0.219456
   79  H 12  S   -0.048857  -0.038663  -0.021223   0.090449  -0.052290
   80  H 12  S   -0.024418  -0.023060  -0.016801   0.066414  -0.038405
   81  H 13  S   -0.034706   0.030603  -0.017639  -0.106223   0.024109
   82  H 13  S   -0.018866   0.038156  -0.015959  -0.074476   0.027345
   83  H 14  S    0.085410   0.047997   0.068246  -0.069154  -0.033635
   84  H 14  S    0.040680   0.035611   0.045371  -0.054225  -0.030448
   85  H 15  S    0.024387  -0.049929   0.069608   0.095501   0.069891
   86  H 15  S   -0.002850  -0.031948   0.042257   0.074234   0.059214
   87  H 16  S   -0.063615   0.213166   0.040829   0.085279   0.043929
   88  H 16  S   -0.043149   0.140714   0.025937   0.051444   0.032263
   89  H 17  S   -0.120626  -0.104073   0.067892  -0.112419  -0.128178
   90  H 17  S   -0.073871  -0.062745   0.039431  -0.082794  -0.103584
   91  H 18  S   -0.049787   0.056980  -0.167074  -0.005061  -0.017468
   92  H 18  S   -0.037988   0.038534  -0.129020  -0.008488  -0.020301
   93  H 19  S   -0.005540   0.003707   0.016160  -0.057398   0.076851
   94  H 19  S   -0.004677   0.002240   0.010508  -0.048499   0.063709
   95  H 20  S    0.002770   0.000644   0.013839   0.009127   0.015012
   96  H 20  S    0.001739   0.000867   0.008320   0.006931   0.012368
   97  H 21  S   -0.143516  -0.051071   0.017493   0.023877   0.130858
   98  H 21  S   -0.079564  -0.024939  -0.001082   0.015344   0.090751

                     21         22         23         24         25
                   -0.6031    -0.5844    -0.5647    -0.5540    -0.5249
                     A          A          A          A          A   
    1  C  1  S   -0.003895   0.005939   0.000039  -0.002347   0.004587
    2  C  1  S    0.002175  -0.003601  -0.000211   0.001925  -0.005840
    3  C  1  X    0.170559  -0.099486   0.081536  -0.153441   0.055043
    4  C  1  Y   -0.113663  -0.067152  -0.006521   0.157439   0.204073
    5  C  1  Z   -0.035457   0.001558   0.201027   0.070694  -0.061843
    6  C  1  S    0.019441  -0.041418   0.001809   0.005276  -0.000589
    7  C  1  X    0.128828  -0.073286   0.067237  -0.125914   0.034462
    8  C  1  Y   -0.093158  -0.042744  -0.005561   0.136701   0.165686
    9  C  1  Z   -0.026819  -0.001504   0.170288   0.059294  -0.049524
   10  H  2  S    0.058928  -0.012489   0.052938  -0.002161   0.047058
   11  H  2  S    0.050581  -0.013780   0.043619  -0.006861   0.042146
   12  H  3  S   -0.053048  -0.039514   0.111236   0.100775   0.061029
   13  H  3  S   -0.043894  -0.034166   0.097417   0.087673   0.062839
   14  C  4  S    0.009026  -0.018412   0.003044  -0.015489   0.004103
   15  C  4  S   -0.007087   0.014356  -0.002205   0.010643  -0.002556
   16  C  4  X    0.091713   0.089247   0.027751  -0.042171  -0.143243
   17  C  4  Y   -0.159911   0.057027  -0.007734   0.042346  -0.136029
   18  C  4  Z   -0.013175  -0.044288   0.084877   0.018939   0.051293
   19  C  4  S   -0.025847   0.079588  -0.014557   0.082397  -0.020051
   20  C  4  X    0.071441   0.068577   0.025258  -0.041683  -0.105956
   21  C  4  Y   -0.123858   0.051540  -0.007215   0.043796  -0.121052
   22  C  4  Z   -0.009328  -0.037141   0.075112   0.018034   0.039050
   23  C  5  S   -0.003466   0.014708  -0.002667   0.023586  -0.011192
   24  C  5  S    0.001961  -0.011939   0.001430  -0.015309   0.007835
   25  C  5  X   -0.183467   0.006921  -0.043558   0.006102  -0.004701
   26  C  5  Y   -0.039124   0.139358   0.001056  -0.117148  -0.146225
   27  C  5  Z    0.046415  -0.002501  -0.150075  -0.033677   0.046817
   28  C  5  S    0.015145  -0.045533   0.012434  -0.132240   0.051946
   29  C  5  X   -0.129760  -0.003294  -0.035680  -0.015784   0.009748
   30  C  5  Y   -0.024993   0.103613  -0.005410  -0.083717  -0.133645
   31  C  5  Z    0.032179   0.005110  -0.133166  -0.027231   0.042212
   32  C  6  S   -0.008682  -0.004307   0.003183  -0.018128   0.012719
   33  C  6  S    0.008442   0.007193  -0.004598   0.016287  -0.007293
   34  C  6  X    0.041542  -0.181855  -0.026941  -0.007642  -0.002636
   35  C  6  Y    0.189991   0.037616  -0.021903   0.096591   0.160870
   36  C  6  Z   -0.020534   0.087854  -0.169701  -0.026972  -0.026367
   37  C  6  S    0.018869  -0.026620  -0.006943   0.070742  -0.092663
   38  C  6  X    0.040677  -0.115455  -0.036152   0.013796  -0.014584
   39  C  6  Y    0.142204   0.013580  -0.013998   0.074025   0.132999
   40  C  6  Z   -0.016383   0.054792  -0.155905  -0.026435  -0.030363
   41  C  7  S   -0.010914  -0.020469   0.003645  -0.007818   0.006013
   42  C  7  S    0.015331   0.031918  -0.002603   0.011558  -0.005383
   43  C  7  X   -0.057837  -0.221738  -0.109838  -0.066507  -0.058443
   44  C  7  Y    0.073715  -0.048246  -0.012040   0.163792  -0.154195
   45  C  7  Z    0.037102   0.003932  -0.094471   0.008507  -0.017763
   46  C  7  S    0.036826   0.084805  -0.010370   0.026426  -0.008387
   47  C  7  X   -0.021653  -0.105654  -0.056395  -0.032282  -0.032841
   48  C  7  Y    0.067651  -0.038559  -0.009978   0.157219  -0.149069
   49  C  7  Z    0.016065   0.017802  -0.054569  -0.000317   0.000487
   50  N  8  S    0.008323  -0.000283  -0.003734   0.014890  -0.014168
   51  N  8  S   -0.007711  -0.001153   0.002862  -0.014530   0.012979
   52  N  8  X   -0.037952   0.086090   0.015373  -0.056987   0.082114
   53  N  8  Y    0.051373   0.011205  -0.011597   0.147024  -0.146704
   54  N  8  Z   -0.044059   0.000743   0.081215  -0.026939   0.012543
   55  N  8  S   -0.035889   0.007612   0.015915  -0.061337   0.064669
   56  N  8  X   -0.038413   0.089628   0.014932  -0.060280   0.093181
   57  N  8  Y    0.055016   0.009214  -0.016213   0.163788  -0.169473
   58  N  8  Z   -0.043429   0.003380   0.083976  -0.026233   0.013035
   59  N  9  S    0.006435   0.007630   0.012442   0.010768  -0.009409
   60  N  9  S   -0.004146  -0.001480  -0.010646  -0.008339   0.009566
   61  N  9  X    0.081660   0.228272   0.052295   0.073992   0.037970
   62  N  9  Y    0.029104  -0.049141  -0.012455   0.091527  -0.110111
   63  N  9  Z    0.008280   0.006133  -0.030886  -0.015376   0.005146
   64  N  9  S   -0.030809  -0.055796  -0.051528  -0.050813   0.033032
   65  N  9  X    0.063632   0.173429   0.045802   0.062380   0.025568
   66  N  9  Y    0.026414  -0.046264  -0.012530   0.089295  -0.112162
   67  N  9  Z    0.006821   0.006786  -0.024061  -0.016020   0.005191
   68  H 10  S    0.062021   0.006309  -0.044986  -0.015366   0.040725
   69  H 10  S    0.053918   0.000570  -0.035189  -0.017283   0.036145
   70  N 11  S   -0.004498   0.010131   0.004142  -0.014375  -0.004761
   71  N 11  S    0.005064  -0.010867  -0.003330   0.011593   0.003194
   72  N 11  X    0.073332   0.196352   0.016704   0.106323   0.067022
   73  N 11  Y    0.115035  -0.114939  -0.003294   0.142031  -0.077351
   74  N 11  Z   -0.056471  -0.001784   0.173679  -0.051790   0.029404
   75  N 11  S    0.015784  -0.043166  -0.015036   0.063672   0.019631
   76  N 11  X    0.073739   0.223876   0.013554   0.116255   0.077207
   77  N 11  Y    0.115850  -0.122206  -0.002929   0.149273  -0.089218
   78  N 11  Z   -0.056583  -0.003886   0.190656  -0.056595   0.030425
   79  H 12  S    0.000016   0.045436  -0.080339  -0.086958  -0.030100
   80  H 12  S   -0.001023   0.039310  -0.060895  -0.067703  -0.030829
   81  H 13  S   -0.001996   0.041516   0.095611  -0.045009  -0.075649
   82  H 13  S   -0.002098   0.046862   0.082139  -0.033018  -0.075629
   83  H 14  S   -0.063936  -0.046824   0.103242  -0.016665  -0.061975
   84  H 14  S   -0.059589  -0.038924   0.084278  -0.037649  -0.038260
   85  H 15  S   -0.062580  -0.001257  -0.095026  -0.037849  -0.091915
   86  H 15  S   -0.056633   0.003413  -0.070875  -0.043285  -0.080356
   87  H 16  S   -0.004719   0.063317   0.004921  -0.000909   0.021972
   88  H 16  S   -0.000347   0.054248   0.010227  -0.001107   0.013779
   89  H 17  S    0.032072  -0.051132  -0.050952   0.025096  -0.035409
   90  H 17  S    0.023301  -0.046834  -0.046903   0.019630  -0.030989
   91  H 18  S   -0.049558  -0.142055  -0.027843  -0.033436  -0.030790
   92  H 18  S   -0.044732  -0.141058  -0.030728  -0.033486  -0.036894
   93  H 19  S   -0.049482  -0.009338  -0.133848   0.048912   0.099349
   94  H 19  S   -0.041831  -0.008318  -0.118339   0.041892   0.099978
   95  H 20  S    0.142514  -0.045219   0.027908  -0.155928  -0.027816
   96  H 20  S    0.121960  -0.039471   0.025621  -0.144119  -0.023097
   97  H 21  S   -0.041329  -0.051021   0.114511  -0.037600   0.009526
   98  H 21  S   -0.031060  -0.041178   0.089145  -0.030756   0.007472

                     26         27         28         29         30
                   -0.5007    -0.4799    -0.4740    -0.4685    -0.3917
                     A          A          A          A          A   
    1  C  1  S    0.002888   0.021533  -0.004257  -0.003927  -0.008382
    2  C  1  S   -0.002709  -0.018752   0.005128   0.003207   0.006212
    3  C  1  X    0.082664   0.177029   0.109124  -0.063908  -0.052018
    4  C  1  Y    0.049607   0.140762  -0.140635  -0.029173  -0.017349
    5  C  1  Z    0.191099  -0.099492  -0.020326  -0.108415   0.014388
    6  C  1  S   -0.007609  -0.071743   0.014926   0.013451   0.036301
    7  C  1  X    0.071477   0.146835   0.118939  -0.059858  -0.054724
    8  C  1  Y    0.041934   0.110007  -0.132747  -0.023868  -0.012397
    9  C  1  Z    0.176113  -0.087623  -0.023206  -0.108319   0.013413
   10  H  2  S   -0.074841   0.096527  -0.094905   0.144135  -0.004099
   11  H  2  S   -0.069893   0.108194  -0.114310   0.160593  -0.008734
   12  H  3  S    0.141455   0.006117  -0.074674  -0.090015   0.003123
   13  H  3  S    0.144075   0.020169  -0.087353  -0.108501   0.000198
   14  C  4  S    0.001837   0.008638  -0.015274  -0.000978   0.005807
   15  C  4  S   -0.001271  -0.008577   0.014041   0.001407  -0.001625
   16  C  4  X   -0.067197  -0.146059  -0.193323   0.084214   0.067527
   17  C  4  Y   -0.044968  -0.162174   0.205204   0.038301   0.000872
   18  C  4  Z   -0.125535   0.109757   0.036965   0.206067  -0.020918
   19  C  4  S   -0.009311  -0.028391   0.044996   0.001753  -0.047559
   20  C  4  X   -0.056171  -0.125636  -0.158285   0.082926   0.079096
   21  C  4  Y   -0.041440  -0.151094   0.190492   0.036787  -0.002119
   22  C  4  Z   -0.118466   0.103252   0.028911   0.208936  -0.019387
   23  C  5  S   -0.003179  -0.004408  -0.026046   0.001107  -0.014178
   24  C  5  S    0.001023  -0.000349   0.020004  -0.000779   0.009703
   25  C  5  X   -0.019105   0.127407   0.205406  -0.084012  -0.104853
   26  C  5  Y   -0.011067   0.123167  -0.187140  -0.043440  -0.061160
   27  C  5  Z   -0.133731  -0.067921  -0.041007  -0.200503   0.041620
   28  C  5  S    0.022287   0.041318   0.108998  -0.008347   0.089040
   29  C  5  X   -0.019303   0.105070   0.168343  -0.080355  -0.082827
   30  C  5  Y   -0.013929   0.110811  -0.176108  -0.046583  -0.083493
   31  C  5  Z   -0.134334  -0.060998  -0.033782  -0.207113   0.032750
   32  C  6  S    0.004644   0.022533   0.002234  -0.004326  -0.005261
   33  C  6  S   -0.001170  -0.016336   0.001058   0.004371   0.006728
   34  C  6  X    0.030683  -0.151937  -0.042405   0.059751   0.069773
   35  C  6  Y    0.022141  -0.132736   0.054039   0.041751   0.070752
   36  C  6  Z    0.226932   0.033029   0.007332   0.103938  -0.034302
   37  C  6  S   -0.035353  -0.104964  -0.035111   0.013835   0.025585
   38  C  6  X    0.036102  -0.116229  -0.041828   0.052368   0.048933
   39  C  6  Y    0.012628  -0.132628   0.039578   0.038027   0.039340
   40  C  6  Z    0.222056   0.028281   0.007099   0.112145  -0.011947
   41  C  7  S   -0.008001  -0.004084   0.000263  -0.003539  -0.021514
   42  C  7  S    0.008715   0.007090   0.002276   0.002959   0.035096
   43  C  7  X    0.062537  -0.032670  -0.041944   0.034555  -0.019686
   44  C  7  Y   -0.037160   0.082170   0.009505  -0.036197  -0.086024
   45  C  7  Z    0.040248  -0.002633  -0.004535   0.012674   0.037362
   46  C  7  S    0.024828   0.005958  -0.001168   0.008323   0.003406
   47  C  7  X    0.033611  -0.031764  -0.032304   0.022574  -0.043935
   48  C  7  Y   -0.035356   0.087667   0.011714  -0.036706  -0.097240
   49  C  7  Z    0.035316  -0.008318  -0.003400   0.012438  -0.109011
   50  N  8  S    0.000055   0.015112   0.002849  -0.001160   0.030270
   51  N  8  S    0.000503  -0.013884  -0.002916   0.001525  -0.019927
   52  N  8  X    0.002814  -0.044963   0.007701  -0.002475  -0.019576
   53  N  8  Y   -0.010719   0.160973   0.046476  -0.038173   0.234395
   54  N  8  Z   -0.023491  -0.012184  -0.009356  -0.003082  -0.042449
   55  N  8  S   -0.002683  -0.066285  -0.009858   0.001356  -0.190329
   56  N  8  X    0.000020  -0.054435   0.009417  -0.002844  -0.022972
   57  N  8  Y   -0.009700   0.194579   0.056162  -0.044609   0.320658
   58  N  8  Z   -0.020442  -0.011122  -0.009596   0.001074  -0.073773
   59  N  9  S   -0.007297   0.013291   0.002983  -0.004516   0.060796
   60  N  9  S    0.006329  -0.010612  -0.001560   0.003382  -0.053195
   61  N  9  X   -0.025924   0.026155   0.033311  -0.019616  -0.008428
   62  N  9  Y   -0.025055   0.067311   0.004792  -0.029811  -0.087843
   63  N  9  Z    0.023473  -0.041281  -0.022331   0.017212  -0.250584
   64  N  9  S    0.029579  -0.067357  -0.021357   0.022920  -0.271545
   65  N  9  X   -0.026504   0.024976   0.027881  -0.018172   0.025203
   66  N  9  Y   -0.026897   0.071467   0.004980  -0.033082  -0.108544
   67  N  9  Z    0.019925  -0.042972  -0.023973   0.016533  -0.275797
   68  H 10  S    0.097452   0.017589  -0.102232  -0.158541   0.002133
   69  H 10  S    0.093380   0.025429  -0.123077  -0.180234   0.004124
   70  N 11  S    0.000088  -0.010059  -0.015474   0.002575  -0.005422
   71  N 11  S   -0.000596   0.003032   0.009945  -0.001258  -0.007462
   72  N 11  X   -0.004861   0.038962   0.074567  -0.016545  -0.128907
   73  N 11  Y   -0.049437  -0.089609  -0.040099  -0.000566  -0.207813
   74  N 11  Z   -0.085391  -0.030933  -0.024220  -0.021501  -0.000185
   75  N 11  S   -0.001582   0.066356   0.075908  -0.015799   0.101469
   76  N 11  X   -0.000308   0.053993   0.088665  -0.023191  -0.204284
   77  N 11  Y   -0.058134  -0.105401  -0.051865  -0.001390  -0.267205
   78  N 11  Z   -0.103109  -0.042428  -0.033069  -0.030568  -0.008451
   79  H 12  S   -0.082409   0.028371  -0.085521  -0.158759   0.000563
   80  H 12  S   -0.079585   0.029403  -0.105724  -0.175143  -0.013008
   81  H 13  S    0.084419   0.072897  -0.083536   0.137124  -0.017517
   82  H 13  S    0.080603   0.087163  -0.107725   0.158985  -0.026251
   83  H 14  S   -0.152217   0.028069  -0.035686  -0.091120  -0.026257
   84  H 14  S   -0.140183   0.019639  -0.048487  -0.102667  -0.068152
   85  H 15  S    0.132598   0.023033  -0.035412   0.073072  -0.038266
   86  H 15  S    0.125257   0.037706  -0.045570   0.082425  -0.059136
   87  H 16  S    0.000762   0.008747   0.015189  -0.006407   0.052014
   88  H 16  S    0.011285   0.013497   0.009801   0.005567   0.047294
   89  H 17  S    0.013815   0.011847  -0.004483   0.006929   0.003602
   90  H 17  S    0.013858   0.010588  -0.004111   0.007062   0.012453
   91  H 18  S    0.007639   0.003047  -0.011044   0.003715   0.091366
   92  H 18  S    0.010677   0.002269  -0.015778   0.006573   0.101892
   93  H 19  S   -0.121074   0.066450  -0.068224   0.083042   0.001903
   94  H 19  S   -0.120309   0.087332  -0.080754   0.095908  -0.003761
   95  H 20  S    0.010766   0.070024   0.137380  -0.016332  -0.029503
   96  H 20  S    0.012361   0.081524   0.140340  -0.018401  -0.038119
   97  H 21  S   -0.066882  -0.029948  -0.023083  -0.015758   0.007885
   98  H 21  S   -0.061832  -0.030208  -0.025001  -0.018275  -0.024131

                     31         32         33         34         35
                   -0.3858    -0.3207     0.2255     0.2617     0.2674
                     A          A          A          A          A   
    1  C  1  S   -0.003236  -0.004600  -0.014015   0.012517  -0.084483
    2  C  1  S    0.002615   0.002978   0.001346   0.000328   0.023745
    3  C  1  X   -0.019495  -0.021227   0.014627   0.006001   0.056687
    4  C  1  Y   -0.005041  -0.005664   0.031357  -0.004609   0.066126
    5  C  1  Z    0.003493   0.005794  -0.013927   0.001596  -0.022390
    6  C  1  S    0.011521   0.023588   0.225217  -0.200413   1.171227
    7  C  1  X   -0.020268  -0.026835   0.050019   0.045382   0.294028
    8  C  1  Y   -0.000828  -0.002628   0.156918  -0.017093   0.377581
    9  C  1  Z    0.004636   0.007221  -0.041080  -0.011668  -0.119042
   10  H  2  S    0.001089   0.002347   0.016663  -0.000838   0.003062
   11  H  2  S   -0.003400  -0.002864  -0.173052  -0.012103  -0.613309
   12  H  3  S    0.000699   0.002626   0.003788   0.002493   0.004165
   13  H  3  S   -0.001422   0.000122  -0.125863   0.084410  -0.610440
   14  C  4  S    0.001365   0.003833  -0.024127  -0.002483  -0.084058
   15  C  4  S    0.001301   0.002059   0.004953   0.007526   0.018574
   16  C  4  X    0.023164   0.031864   0.028342  -0.006572  -0.012041
   17  C  4  Y   -0.000764  -0.006137  -0.044740   0.005120  -0.067590
   18  C  4  Z   -0.004013  -0.006816  -0.016903   0.004967   0.003717
   19  C  4  S   -0.020494  -0.058203   0.360147  -0.036991   1.199651
   20  C  4  X    0.037106   0.062056   0.132930   0.089410  -0.070449
   21  C  4  Y   -0.001191  -0.019869  -0.266333   0.095770  -0.328828
   22  C  4  Z   -0.009745  -0.014746  -0.071085   0.007538   0.033000
   23  C  5  S   -0.010017  -0.019122  -0.065938   0.004986  -0.032970
   24  C  5  S    0.006519   0.011682   0.025284  -0.000779   0.008413
   25  C  5  X   -0.049088  -0.076440  -0.042944  -0.007653  -0.026351
   26  C  5  Y   -0.035295  -0.050138   0.066017  -0.037278   0.061695
   27  C  5  Z    0.019287   0.017166  -0.063218   0.031459   0.011234
   28  C  5  S    0.071677   0.142053   0.848303  -0.070262   0.481113
   29  C  5  X   -0.032744  -0.030262  -0.054033   0.035900  -0.355113
   30  C  5  Y   -0.049820  -0.092920   0.395575  -0.270248   0.278460
   31  C  5  Z    0.024958   0.013045  -0.199205   0.068784   0.107798
   32  C  6  S   -0.009958  -0.006206  -0.045500  -0.006918   0.010524
   33  C  6  S    0.012013   0.008439   0.016801   0.015215  -0.003099
   34  C  6  X   -0.007887   0.005155  -0.020572  -0.080036  -0.050391
   35  C  6  Y    0.058856   0.083248  -0.047265   0.034973  -0.020338
   36  C  6  Z   -0.035111   0.005853  -0.001096   0.005064   0.002347
   37  C  6  S    0.015529  -0.007493   0.582821  -0.064502  -0.151833
   38  C  6  X   -0.007039  -0.041579  -0.027078  -0.298619  -0.213317
   39  C  6  Y    0.017750   0.072520  -0.247775   0.126155  -0.133614
   40  C  6  Z   -0.050906   0.008111   0.012098  -0.012860  -0.021166
   41  C  7  S    0.019701  -0.003490   0.011119  -0.013076  -0.011100
   42  C  7  S   -0.029833   0.007730  -0.007444   0.008644   0.005946
   43  C  7  X    0.093069   0.009645  -0.004199   0.039572   0.015742
   44  C  7  Y   -0.018220   0.117590   0.183793   0.353376  -0.105868
   45  C  7  Z   -0.068342   0.017701   0.047779   0.003677  -0.000562
   46  C  7  S   -0.026780   0.000510  -0.028195   0.034033   0.028555
   47  C  7  X    0.002866  -0.009745   0.053375   0.014552   0.039710
   48  C  7  Y   -0.016129   0.148482   0.290462   0.638697  -0.192428
   49  C  7  Z    0.147589   0.026559  -0.013951  -0.008402   0.021781
   50  N  8  S   -0.012435  -0.015141  -0.088598   0.051209   0.044362
   51  N  8  S   -0.004556   0.010483   0.039245  -0.019412  -0.018856
   52  N  8  X   -0.114360   0.036674   0.075943   0.062038   0.036412
   53  N  8  Y    0.224157  -0.134706  -0.018810  -0.133471   0.032637
   54  N  8  Z    0.095782   0.007109  -0.056312   0.047754   0.047092
   55  N  8  S    0.155005   0.094894   0.809069  -0.522947  -0.426443
   56  N  8  X   -0.154938   0.055620   0.200380   0.200773   0.119146
   57  N  8  Y    0.306531  -0.201460   0.015057  -0.269640   0.066024
   58  N  8  Z    0.163979   0.008121  -0.232390   0.202252   0.177381
   59  N  9  S   -0.065647   0.009538  -0.014486   0.017124   0.023315
   60  N  9  S    0.061457  -0.007022   0.006480  -0.008537  -0.011028
   61  N  9  X   -0.069536   0.018414  -0.015226   0.007784   0.040019
   62  N  9  Y   -0.063528   0.340157  -0.124526  -0.227632   0.057376
   63  N  9  Z    0.318000   0.013193  -0.057706   0.008201   0.039888
   64  N  9  S    0.255629  -0.054791   0.147470  -0.157143  -0.206353
   65  N  9  X   -0.119833   0.023703  -0.031854   0.053047   0.122790
   66  N  9  Y   -0.078138   0.444541  -0.236028  -0.478433   0.111515
   67  N  9  Z    0.363063   0.024248  -0.104532   0.049512   0.103909
   68  H 10  S   -0.000223   0.001260  -0.001158   0.009246   0.007762
   69  H 10  S   -0.001659  -0.007899  -0.354255   0.074518  -0.624774
   70  N 11  S    0.021974   0.018082  -0.009329   0.054507   0.042698
[...]

                     16         17         18         19         20

                  2.000000   2.000000   2.000000   2.000000   2.000000

    1             0.002321   0.002584   0.014347   0.113520   0.158064
    2             0.003561   0.001062   0.001482   0.090985   0.058019
    3             0.000608   0.001278   0.001882   0.036541   0.041594
    4             0.019529   0.012625   0.017935   0.309446   0.221892
    5             0.073463   0.046599   0.034766   0.334000   0.060286
    6             0.152668   0.093885   0.250896   0.225848   0.120052
    7             0.285912   0.162843   0.294941   0.019396   0.130705
    8             0.469088   0.895937   0.200141   0.260503   0.309301
    9             0.063047   0.130848   0.477517   0.003445   0.026701
   10             0.006747   0.006139   0.000765   0.081971   0.067221
   11             0.465789   0.081808   0.320920   0.038248   0.387188
   12             0.023236   0.013744   0.004840   0.076062   0.024257
   13             0.011835   0.015422   0.003398   0.098472   0.007158
   14             0.064243   0.023653   0.043011   0.043441   0.009153
   15             0.003216   0.022727   0.043374   0.085318   0.044643
   16             0.034637   0.363778   0.012572   0.045855   0.012765
   17             0.122606   0.080141   0.032579   0.097380   0.127712
   18             0.024674   0.025651   0.238955   0.000585   0.003667
   19             0.000413   0.000131   0.002375   0.033141   0.055359
   20             0.000082   0.000006   0.001717   0.000785   0.002118
   21             0.172324   0.019140   0.001585   0.005058   0.132145

                     21         22         23         24         25

                  2.000000   2.000000   2.000000   2.000000   2.000000

    1             0.364619   0.106758   0.383899   0.419674   0.340717
    2             0.032692   0.001849   0.023536   0.000276   0.018021
    3             0.025287   0.014195   0.108551   0.085997   0.034705
    4             0.279273   0.110886   0.066509   0.041740   0.285243
    5             0.275270   0.152970   0.199565   0.110699   0.177471
    6             0.289479   0.268853   0.240864   0.075924   0.178833
    7             0.073292   0.201345   0.088322   0.271699   0.231696
    8             0.050609   0.056203   0.050229   0.224678   0.245432
    9             0.055762   0.364713   0.032870   0.120936   0.118538
   10             0.036261   0.000217   0.016221   0.002691   0.013633
   11             0.189493   0.393729   0.211569   0.286145   0.085450
   12             0.000010   0.019052   0.051994   0.060404   0.008518
   13             0.000053   0.019146   0.076908   0.015275   0.050867
   14             0.040254   0.019139   0.090153   0.007013   0.025367
   15             0.036810  -0.000124   0.070858   0.015083   0.069652
   16             0.000091   0.030173   0.000965  -0.000024   0.002241
   17             0.007234   0.021023   0.019930   0.004332   0.009023
   18             0.020507   0.180840   0.007662   0.009282   0.009432
   19             0.022172   0.000826   0.156955   0.019823   0.088977
   20             0.187873   0.019001   0.007061   0.217321   0.005761
   21             0.012958   0.019205   0.095381   0.011032   0.000423

                     26         27         28         29         30

                  2.000000   2.000000   2.000000   2.000000   2.000000

    1             0.331968   0.402004   0.233115   0.115127   0.020312
    2             0.044199   0.085004   0.087356   0.179637   0.000251
    3             0.172537   0.001758   0.052477   0.076628   0.000047
    4             0.157821   0.386165   0.509647   0.348146   0.031455
    5             0.138114   0.223742   0.514481   0.338693   0.093974
    6             0.364973   0.270084   0.024467   0.102984   0.048113
    7             0.032993   0.066132   0.007589   0.015519   0.088717
    8             0.004216   0.238240   0.018440   0.011093   0.477652
    9             0.016287   0.065981   0.011519   0.013645   0.673667
   10             0.076794   0.003941   0.100709   0.221658   0.000014
   11             0.065396   0.081676   0.057519   0.004580   0.449412
   12             0.056582   0.007326   0.074472   0.220882   0.000516
   13             0.057801   0.050862   0.071672   0.165168   0.003134
   14             0.183166   0.005006   0.014646   0.072736   0.013061
   15             0.139424   0.007305   0.013684   0.046224   0.013116
   16             0.000018   0.001089   0.000929   0.000377   0.017114
   17             0.001342   0.001053   0.000135   0.000306   0.000972
   18             0.000676   0.000063   0.001326   0.000197   0.057922
   19             0.122508   0.047565   0.044213   0.062051   0.000065
   20             0.001153   0.047601   0.156462   0.002467   0.007795
   21             0.032034   0.007403   0.005142   0.001881   0.002691

                     31         32

                  2.000000   2.000000

    1             0.002510   0.002983
    2             0.000037   0.000027
    3             0.000010   0.000034
    4             0.004400   0.009520
    5             0.023022   0.047389
    6             0.021433   0.032089
    7             0.077528   0.101089
    8             0.549006   0.156317
    9             0.998963   1.014626
   10             0.000013   0.000090
   11             0.232753   0.597415
   12             0.000375   0.002368
   13             0.002450   0.001376
   14             0.005541   0.014533
   15             0.020429   0.011952
   16             0.008015   0.003738
   17             0.000921   0.000755
   18             0.043597   0.001666
   19             0.000030   0.000030
   20             0.001151   0.001542
   21             0.007815   0.000460

               ----- POPULATIONS IN EACH AO -----
                             MULLIKEN      LOWDIN
              1  C  1  S      1.98824     1.97646
              2  C  1  S      0.35168     0.41328
              3  C  1  X      0.53469     0.50889
              4  C  1  Y      0.53178     0.50340
              5  C  1  Z      0.54078     0.50781
              6  C  1  S      1.12099     0.58381
              7  C  1  X      0.47539     0.57329
              8  C  1  Y      0.48075     0.58300
              9  C  1  Z      0.54925     0.60395
             10  H  2  S      0.46736     0.47756
             11  H  2  S      0.32784     0.44001
             12  H  3  S      0.46661     0.46932
             13  H  3  S      0.33383     0.44305
             14  C  4  S      1.98918     1.97623
             15  C  4  S      0.34269     0.40949
             16  C  4  X      0.52445     0.50893
             17  C  4  Y      0.53045     0.50590
             18  C  4  Z      0.54141     0.51108
             19  C  4  S      1.11706     0.56749
             20  C  4  X      0.36427     0.52897
             21  C  4  Y      0.47078     0.57019
             22  C  4  Z      0.55228     0.58856
             23  C  5  S      1.98946     1.97640
             24  C  5  S      0.34481     0.41774
             25  C  5  X      0.53011     0.51624
             26  C  5  Y      0.52875     0.50586
             27  C  5  Z      0.53887     0.50971
             28  C  5  S      1.11638     0.56935
             29  C  5  X      0.33080     0.51453
             30  C  5  Y      0.46157     0.57142
             31  C  5  Z      0.55715     0.58943
             32  C  6  S      1.98867     1.97585
             33  C  6  S      0.35339     0.41072
             34  C  6  X      0.47151     0.46068
             35  C  6  Y      0.52920     0.50210
             36  C  6  Z      0.56398     0.53324
             37  C  6  S      1.03458     0.56212
             38  C  6  X      0.25068     0.45110
             39  C  6  Y      0.41600     0.54873
             40  C  6  Z      0.54976     0.58278
             41  C  7  S      1.98586     1.97552
             42  C  7  S      0.43439     0.41336
             43  C  7  X      0.63096     0.59945
             44  C  7  Y      0.36728     0.34819
             45  C  7  Z      0.53224     0.50222
             46  C  7  S      0.43896     0.48453
             47  C  7  X      0.02320     0.42021
             48  C  7  Y      0.47975     0.51766
             49  C  7  Z      0.13031     0.43992
             50  N  8  S      1.98741     1.97750
             51  N  8  S      0.35456     0.46282
             52  N  8  X      0.57695     0.55395
             53  N  8  Y      0.74369     0.75775
             54  N  8  Z      0.54992     0.53026
             55  N  8  S      1.31915     0.75071
             56  N  8  X      0.71468     0.70366
             57  N  8  Y      1.04615     1.01489
             58  N  8  Z      0.62635     0.66873
             59  N  9  S      1.98938     1.98082
             60  N  9  S      0.38064     0.51056
             61  N  9  X      0.54013     0.51373
             62  N  9  Y      0.56076     0.56244
             63  N  9  Z      0.65927     0.65313
             64  N  9  S      1.43145     0.86313
             65  N  9  X      0.50478     0.62162
             66  N  9  Y      0.83902     0.84641
             67  N  9  Z      0.85410     0.90252
             68  H 10  S      0.46759     0.47796
             69  H 10  S      0.33127     0.44180
             70  N 11  S      1.98781     1.97744
             71  N 11  S      0.34842     0.46019
             72  N 11  X      0.55789     0.55129
             73  N 11  Y      0.74498     0.76193
             74  N 11  Z      0.55932     0.54108
             75  N 11  S      1.32938     0.73182
             76  N 11  X      0.66595     0.67805
             77  N 11  Y      1.00047     0.97345
             78  N 11  Z      0.67663     0.66778
             79  H 12  S      0.46582     0.47579
             80  H 12  S      0.32054     0.43633
             81  H 13  S      0.47032     0.48015
             82  H 13  S      0.34362     0.44925
             83  H 14  S      0.47074     0.48139
             84  H 14  S      0.30487     0.43122
             85  H 15  S      0.47242     0.48246
             86  H 15  S      0.31114     0.43433
             87  H 16  S      0.43532     0.44054
             88  H 16  S      0.21395     0.34967
             89  H 17  S      0.43814     0.44420
             90  H 17  S      0.22575     0.35174
             91  H 18  S      0.45481     0.45573
             92  H 18  S      0.30020     0.39073
             93  H 19  S      0.46716     0.46998
             94  H 19  S      0.33767     0.44487
             95  H 20  S      0.46723     0.46969
             96  H 20  S      0.33174     0.44176
             97  H 21  S      0.43083     0.44446
             98  H 21  S      0.20929     0.33858

          ----- MULLIKEN ATOMIC OVERLAP POPULATIONS -----
          (OFF-DIAGONAL ELEMENTS NEED TO BE MULTIPLIED BY 2)

             1           2           3           4           5

    1    5.3429289
    2   -0.0416854   0.5238430
    3    0.3768322  -0.0018051   0.5184572
    4    0.2503464   0.3846375  -0.0449165   5.4781222
    5   -0.0702890  -0.0465293  -0.0012825   0.2125277   5.5213369
    6    0.0030583  -0.0009310  -0.0000320  -0.0668294   0.2414962
    7    0.0000002   0.0000002   0.0000000  -0.0000167   0.0008603
    8    0.0000001  -0.0000002  -0.0000000   0.0000028  -0.0007410
    9   -0.0000000   0.0000000  -0.0000000   0.0000001  -0.0000211
   10   -0.0418399  -0.0274695   0.0029501   0.3840958  -0.0471484
   11   -0.0000217  -0.0000120   0.0000000   0.0023674  -0.0580126
   12   -0.0007697  -0.0019373   0.0021553  -0.0418417   0.3821811
   13   -0.0007349   0.0032197   0.0000126  -0.0455178   0.3787434
   14   -0.0000738   0.0000147   0.0000008   0.0025432  -0.0589895
   15   -0.0000722   0.0023849   0.0000031   0.0022980  -0.0598774
   16   -0.0000061   0.0000008   0.0000001   0.0000431   0.0007655
   17    0.0000000   0.0000000  -0.0000000   0.0000000   0.0000033
   18    0.0000000   0.0000000   0.0000000  -0.0000000   0.0000026
   19    0.3762646   0.0029544  -0.0266444  -0.0452069  -0.0014698
   20    0.3796092  -0.0014823  -0.0252905  -0.0400462   0.0030702
   21    0.0000004   0.0000007  -0.0000000  -0.0000379   0.0012714

             6           7           8           9          10

    6    5.1675900
    7   -0.0516890   4.1966201
    8   -0.0024942   0.2083874   7.2140358
    9    0.0005525   0.5795367  -0.0777239   7.0008055
   10   -0.0007273   0.0000022  -0.0000026   0.0000000   0.5286459
   11    0.2111410   0.2377818  -0.0836988  -0.0737589  -0.0000109
   12   -0.0414494   0.0000226   0.0000087  -0.0000004   0.0030439
   13   -0.0441969   0.0003973  -0.0000381  -0.0000028  -0.0017328
   14    0.3838881  -0.0021009   0.0065449   0.0000968   0.0023034
   15    0.3886385   0.0022067   0.0001268   0.0000015   0.0000377
   16   -0.0018995  -0.0218007   0.3233708   0.0015687   0.0000076
   17    0.0000232  -0.0314668   0.3357422  -0.0007120  -0.0000001
   18   -0.0001081  -0.0636572  -0.0075315   0.3252153   0.0000000
   19   -0.0000364  -0.0000000  -0.0000001  -0.0000000  -0.0018364
   20   -0.0000521  -0.0000000   0.0000000   0.0000000  -0.0014536
   21   -0.0281871  -0.0321349   0.0028529   0.0039794   0.0000001

            11          12          13          14          15

   11    7.3605188
   12    0.0014447   0.5079724
   13    0.0006003  -0.0261173   0.5417957
   14   -0.0364490   0.0029418  -0.0018318   0.4961294
   15   -0.0324910  -0.0016408   0.0030587  -0.0203741   0.5025897
   16    0.0005185  -0.0000221   0.0039553  -0.0011242   0.0000956
   17    0.0024158  -0.0000003  -0.0000003  -0.0000010   0.0000000
   18    0.0048883   0.0000000   0.0000002  -0.0000021   0.0000010
   19    0.0000000   0.0000173   0.0024065   0.0000035   0.0000010
   20    0.0000001  -0.0000250  -0.0000252   0.0000013   0.0000014
   21    0.3336175   0.0003772  -0.0000496   0.0020925  -0.0034355

            16          17          18          19          20

   16    0.3637836
   17   -0.0199640   0.3748591
   18    0.0000503   0.0030706   0.4931416
   19   -0.0000019   0.0000000  -0.0000000   0.5239198
   20    0.0000000  -0.0000000  -0.0000000  -0.0255396   0.5102029
   21   -0.0000775  -0.0000838  -0.0000604   0.0000000  -0.0000000

            21

   21    0.3599924

          TOTAL MULLIKEN AND LOWDIN ATOMIC POPULATIONS
       ATOM         MULL.POP.    CHARGE          LOW.POP.     CHARGE
    1 C             6.573548   -0.573548         6.253906   -0.253906
    2 H             0.795204    0.204796         0.917572    0.082428
    3 H             0.800440    0.199560         0.912371    0.087629
    4 C             6.432571   -0.432571         6.166838   -0.166838
    5 C             6.397898   -0.397898         6.170674   -0.170674
    6 C             6.157755   -0.157755         6.027309   -0.027309
    7 C             5.022949    0.977051         5.701070    0.298930
    8 N             7.918842   -0.918842         7.420267   -0.420267
    9 N             7.759537   -0.759537         7.454352   -0.454352
   10 H             0.798865    0.201135         0.919766    0.080234
   11 N             7.870839   -0.870839         7.343023   -0.343023
   12 H             0.786361    0.213639         0.912116    0.087884
   13 H             0.813942    0.186058         0.929401    0.070599
   14 H             0.775614    0.224386         0.912604    0.087396
   15 H             0.783553    0.216447         0.916791    0.083209
   16 H             0.649264    0.350736         0.790204    0.209796
   17 H             0.663886    0.336114         0.795937    0.204063
   18 H             0.755010    0.244990         0.846461    0.153539
   19 H             0.804832    0.195168         0.914849    0.085151
   20 H             0.798971    0.201029         0.911449    0.088551
   21 H             0.640118    0.359882         0.783039    0.216961

          -------------------------------
          BOND ORDER AND VALENCE ANALYSIS     BOND ORDER THRESHOLD=0.050
          -------------------------------

                   BOND                       BOND                       BOND
  ATOM PAIR DIST  ORDER      ATOM PAIR DIST  ORDER      ATOM PAIR DIST  ORDER
    1   3  1.096  0.928        1   4  1.544  0.920        1  19  1.097  0.929
    1  20  1.096  0.931        2   4  1.098  0.922        4   5  1.543  0.892
    4  10  1.099  0.923        5   6  1.547  0.892        5  12  1.098  0.921
    5  13  1.099  0.924        6  11  1.471  0.848        6  14  1.096  0.909
    6  15  1.097  0.922        7   8  1.398  0.900        7   9  1.291  1.739
    7  11  1.392  0.917        8   9  2.417  0.053        8  16  1.014  0.834
    8  17  1.013  0.854        9  11  2.309  0.054        9  18  1.032  0.877
   11  21  1.015  0.836

                       TOTAL       BONDED        FREE
      ATOM            VALENCE     VALENCE     VALENCE
    1 C                 3.672       3.672      -0.000
    2 H                 0.911       0.911      -0.000
    3 H                 0.917       0.917       0.000
    4 C                 3.607       3.607      -0.000
    5 C                 3.587       3.587      -0.000
    6 C                 3.532       3.532      -0.000
    7 C                 3.552       3.552      -0.000
    8 N                 2.676       2.676      -0.000
    9 N                 2.761       2.761      -0.000
   10 H                 0.912       0.912      -0.000
   11 N                 2.681       2.681      -0.000
   12 H                 0.911       0.911      -0.000
   13 H                 0.921       0.921       0.000
   14 H                 0.914       0.914       0.000
   15 H                 0.911       0.911       0.000
   16 H                 0.855       0.855       0.000
   17 H                 0.865       0.865      -0.000
   18 H                 0.911       0.911       0.000
   19 H                 0.918       0.918      -0.000
   20 H                 0.918       0.918       0.000
   21 H                 0.849       0.849       0.000

          ---------------------
          ELECTROSTATIC MOMENTS
          ---------------------

 POINT   1           X           Y           Z (BOHR)    CHARGE
                -3.394999   -0.173153    0.232564       -0.00 (A.U.)
         DX          DY          DZ         /D/  (DEBYE)
     2.496298    0.270288   -2.415094    3.483854
 ...... END OF PROPERTY EVALUATION ......
 CPU     0: STEP CPU TIME=     0.02 TOTAL CPU TIME=          1.2 (      0.0 MIN)
 TOTAL WALL CLOCK TIME=          2.0 SECONDS, CPU UTILIZATION IS    61.19%
               580000  WORDS OF DYNAMIC MEMORY USED
 EXECUTION OF GAMESS TERMINATED NORMALLY Sat May 16 13:43:47 2020
 DDI: 263640 bytes (0.3 MB / 0 MWords) used by master data server.
Note: The following floating-point exceptions are signalling: IEEE_DENORMALNote: The following floating-point exceptions are signalling:Note: The following floating-point exceptions are signalling:Note: The following floating-point exceptions are signalling:

 ----------------------------------------
 CPU timing information for all processes
 ========================================
 0: 1.139 + 0.106 = 1.246
 1: 1.40 + 0.35 = 1.76
 2: 1.113 + 0.11 = 1.125
 3: 1.116 + 0.12 = 1.128
 4: 1.08 + 0.20 = 1.28
 5: 1.24 + 0.12 = 1.37
 ----------------------------------------
 IEEE_DENORMAL
 IEEE_DENORMAL
 IEEE_DENORMAL
Note: The following floating-point exceptions are signalling: IEEE_DENORMALNote: The following floating-point exceptions are signalling:
 IEEE_DENORMAL
 ddikick.x: exited gracefully.
unset echo
----- accounting info -----
Files used on the master node pietdev were:
-rwxr-xr-x 1 piet piet     1268 mei 16 13:43 /home/piet/scr/arginine_fukui_neu.F05*
-rw-r--r-- 1 piet piet 49152000 mei 16 13:43 /home/piet/scr/arginine_fukui_neu.F10
ls: No match.
ls: No match.
ls: No match.
za 16 mei 2020 13:43:50 CEST
0.102u 0.027s 0:05.15 2.3%	0+0k 0+8io 0pf+0w
